<LesHouchesEvents version="3.0">
<header>
<!--
#*********************************************************************
#                                                                    *
#                        MadGraph5_aMC@NLO                           *
#                                                                    *
#                           Going Beyond                             *
#                                                                    *
#                   http://madgraph.hep.uiuc.edu                     *
#                   http://madgraph.phys.ucl.ac.be                   *
#                   http://amcatnlo.cern.ch                          *
#                                                                    *
#                     The MadGraph5_aMC@NLO team                     *
#                                                                    *
#....................................................................*
#                                                                    *
# This file contains all the information necessary to reproduce      *
# the events generated:                                              *
#                                                                    *
# 1. software version                                                *
# 2. proc_card          : code generation info including model       *
# 3. param_card         : model primary parameters in the LH format  *
# 4. run_card           : running parameters (collider and cuts)     *
# 5. pythia_card        : present only if pythia has been run        *
# 6. pgs_card           : present only if pgs has been run           *
# 7. delphes_cards      : present only if delphes has been run       *
#                                                                    *
#                                                                    *
#*********************************************************************
-->
<MGVersion>
#5.2.2.3
</MGVersion>
<MG5ProcCard>
#************************************************************
#*                     MadGraph5_aMC@NLO                    *
#*                                                          *
#*                *                       *                 *
#*                  *        * *        *                   *
#*                    * * * * 5 * * * *                     *
#*                  *        * *        *                   *
#*                *                       *                 *
#*                                                          *
#*                                                          *
#*         VERSION 2.2.3                 2015-02-10         *
#*                                                          *
#*    The MadGraph5_aMC@NLO Development Team - Find us at   *
#*    https://server06.fynu.ucl.ac.be/projects/madgraph     *
#*                                                          *
#************************************************************
#*                                                          *
#*               Command File for MadGraph5_aMC@NLO         *
#*                                                          *
#*     run as ./bin/mg5_aMC  filename                       *
#*                                                          *
#************************************************************
set group_subprocesses Auto
set ignore_six_quark_processes False
set loop_optimized_output True
set gauge unitary
set complex_mass_scheme False
import model sm
define p = g u c d s u~ c~ d~ s~
define j = g u c d s u~ c~ d~ s~
define l+ = e+ mu+
define l- = e- mu-
define vl = ve vm vt
define vl~ = ve~ vm~ vt~
import model Zprime_UFO
generate p p > zph, zph > j j
add process p p > zph, zph > b b~
output Dijet_signal
</MG5ProcCard>
<MGProcCard>
#*********************************************************************
#                        MadGraph/MadEvent                           *
#                   http://madgraph.hep.uiuc.edu                     *
#                                                                    *
#                          proc_card.dat                             *
#*********************************************************************
#                                                                    *
#            This Files is generated by MADGRAPH 5                   *
#                                                                    *
# WARNING: This Files is generated for MADEVENT (compatibility issue)*
#          This files is NOT a valid MG4 proc_card.dat               *
#          Running this in MG4 will NEVER reproduce the result of MG5*
#                                                                    *
#*********************************************************************
#*********************************************************************
# Process(es) requested : mg2 input                                  *
#*********************************************************************
# Begin PROCESS # This is TAG. Do not modify this line
p p > zph , zph > j j           #Process
# Be carefull the coupling are here in MG5 convention
          
end_coup           # End the couplings input

done               # this tells MG there are no more procs
# End PROCESS  # This is TAG. Do not modify this line
#*********************************************************************
# Model information                                                  *
#*********************************************************************
# Begin MODEL  # This is TAG. Do not modify this line
Zprime_UFO
# End   MODEL  # This is TAG. Do not modify this line
#*********************************************************************
# Start multiparticle definitions                                    *
#*********************************************************************
# Begin MULTIPARTICLES # This is TAG. Do not modify this line

# End  MULTIPARTICLES # This is TAG. Do not modify this line
</MGProcCard>
<MGRunCard>
#*********************************************************************
#                       MadGraph5_aMC@NLO                            *
#                                                                    *
#                     run_card.dat MadEvent                          *
#                                                                    *
#  This file is used to set the parameters of the run.               *
#                                                                    *
#  Some notation/conventions:                                        *
#                                                                    *
#   Lines starting with a '# ' are info or comments                  *
#                                                                    *
#   mind the format:   value    = variable     ! comment             *
#*********************************************************************
#
#*******************                                                 
# Running parameters
#*******************                                                 
#                                                                    
#*********************************************************************
# Tag name for the run (one word)                                    *
#*********************************************************************
  tag_1     = run_tag ! name of the run 
#*********************************************************************
# Run to generate the grid pack                                      *
#*********************************************************************
  .false.     = gridpack  !True = setting up the grid pack
#*********************************************************************
# Number of events and rnd seed                                      *
# Warning: Do not generate more than 1M events in a single run       *
# If you want to run Pythia, avoid more than 50k events in a run.    *
#*********************************************************************
  2000 = nevents ! Number of unweighted events requested 
 3045 = iseed   ! rnd seed (0=assigned automatically=default))
#*********************************************************************
# Collider type and energy                                           *
# lpp: 0=No PDF, 1=proton, -1=antiproton, 2=photon from proton,      *
#                                         3=photon from electron     *
#*********************************************************************
        1     = lpp1    ! beam 1 type 
        1     = lpp2    ! beam 2 type
     4000     = ebeam1  ! beam 1 total energy in GeV
     4000     = ebeam2  ! beam 2 total energy in GeV
#*********************************************************************
# Beam polarization from -100 (left-handed) to 100 (right-handed)    *
#*********************************************************************
        0     = polbeam1 ! beam polarization for beam 1
        0     = polbeam2 ! beam polarization for beam 2
#*********************************************************************
# PDF CHOICE: this automatically fixes also alpha_s and its evol.    *
#*********************************************************************
 'nn23lo1'    = pdlabel     ! PDF set                                     
 230000    = lhaid     ! if pdlabel=lhapdf, this is the lhapdf number
#*********************************************************************
# Renormalization and factorization scales                           *
#*********************************************************************
 F        = fixed_ren_scale  ! if .true. use fixed ren scale
 F        = fixed_fac_scale  ! if .true. use fixed fac scale
 91.1880  = scale            ! fixed ren scale
 91.1880  = dsqrt_q2fact1    ! fixed fact scale for pdf1
 91.1880  = dsqrt_q2fact2    ! fixed fact scale for pdf2
 1        = scalefact        ! scale factor for event-by-event scales
#*********************************************************************
# Matching - Warning! ickkw > 1 is still beta
#*********************************************************************
 0        = ickkw            ! 0 no matching, 1 MLM, 2 CKKW matching
 1        = highestmult      ! for ickkw=2, highest mult group
 1        = ktscheme         ! for ickkw=1, 1 Durham kT, 2 Pythia pTE
 1        = alpsfact         ! scale factor for QCD emission vx
 F        = chcluster        ! cluster only according to channel diag
 T        = pdfwgt           ! for ickkw=1, perform pdf reweighting
 5        = asrwgtflavor     ! highest quark flavor for a_s reweight
 T        = clusinfo         ! include clustering tag in output
 3.0      = lhe_version       ! Change the way clustering information pass to shower.        
#*********************************************************************
#**********************************************************
#
#**********************************************************
# Automatic ptj and mjj cuts if xqcut > 0
# (turn off for VBF and single top processes)
#**********************************************************
   T  = auto_ptj_mjj  ! Automatic setting of ptj and mjj
#**********************************************************
#                                                                    
#**********************************
# BW cutoff (M+/-bwcutoff*Gamma)
#**********************************
  15  = bwcutoff      ! (M+/-bwcutoff*Gamma)
#**********************************************************
# Apply pt/E/eta/dr/mij cuts on decay products or not
# (note that etmiss/ptll/ptheavy/ht/sorted cuts always apply)
#**********************************************************
   T  = cut_decays    ! Cut decay products 
#*************************************************************
# Number of helicities to sum per event (0 = all helicities)
# 0 gives more stable result, but longer run time (needed for
# long decay chains e.g.).
# Use >=2 if most helicities contribute, e.g. pure QCD.
#*************************************************************
   0  = nhel          ! Number of helicities used per event
#*******************                                                 
# Standard Cuts
#*******************                                                 
#                                                                    
#*********************************************************************
# Minimum and maximum pt's (for max, -1 means no cut)                *
#*********************************************************************
 20  = ptj       ! minimum pt for the jets 
  0  = ptb       ! minimum pt for the b 
 10  = pta       ! minimum pt for the photons 
 10  = ptl       ! minimum pt for the charged leptons 
  0  = misset    ! minimum missing Et (sum of neutrino's momenta)
  0  = ptheavy   ! minimum pt for one heavy final state
 1.0 = ptonium   ! minimum pt for the quarkonium states
 -1  = ptjmax    ! maximum pt for the jets
 -1  = ptbmax    ! maximum pt for the b
 -1  = ptamax    ! maximum pt for the photons
 -1  = ptlmax    ! maximum pt for the charged leptons
 -1  = missetmax ! maximum missing Et (sum of neutrino's momenta)
#*********************************************************************
# Minimum and maximum E's (in the center of mass frame)              *
#*********************************************************************
  0  = ej     ! minimum E for the jets 
  0  = eb     ! minimum E for the b 
  0  = ea     ! minimum E for the photons 
  0  = el     ! minimum E for the charged leptons 
 -1   = ejmax ! maximum E for the jets
 -1   = ebmax ! maximum E for the b
 -1   = eamax ! maximum E for the photons
 -1   = elmax ! maximum E for the charged leptons
#*********************************************************************
# Maximum and minimum absolute rapidity (for max, -1 means no cut)   *
#*********************************************************************
   5  = etaj    ! max rap for the jets 
  -1  = etab    ! max rap for the b
 2.5  = etaa    ! max rap for the photons 
 2.5  = etal    ! max rap for the charged leptons 
 0.6  = etaonium ! max rap for the quarkonium states
   0  = etajmin ! min rap for the jets
   0  = etabmin ! min rap for the b
   0  = etaamin ! min rap for the photons
   0  = etalmin ! main rap for the charged leptons
#*********************************************************************
# Minimum and maximum DeltaR distance                                *
#*********************************************************************
 0.4 = drjj    ! min distance between jets 
 0   = drbb    ! min distance between b's 
 0.4 = drll    ! min distance between leptons 
 0.4 = draa    ! min distance between gammas 
 0   = drbj    ! min distance between b and jet 
 0.4 = draj    ! min distance between gamma and jet 
 0.4 = drjl    ! min distance between jet and lepton 
 0   = drab    ! min distance between gamma and b 
 0   = drbl    ! min distance between b and lepton 
 0.4 = dral    ! min distance between gamma and lepton 
 -1  = drjjmax ! max distance between jets
 -1  = drbbmax ! max distance between b's
 -1  = drllmax ! max distance between leptons
 -1  = draamax ! max distance between gammas
 -1  = drbjmax ! max distance between b and jet
 -1  = drajmax ! max distance between gamma and jet
 -1  = drjlmax ! max distance between jet and lepton
 -1  = drabmax ! max distance between gamma and b
 -1  = drblmax ! max distance between b and lepton
 -1  = dralmax ! maxdistance between gamma and lepton
#*********************************************************************
# Minimum and maximum invariant mass for pairs                       *
# WARNING: for four lepton final state mmll cut require to have      *
#          different lepton masses for each flavor!                  *           
#*********************************************************************
 0   = mmjj    ! min invariant mass of a jet pair 
 0   = mmbb    ! min invariant mass of a b pair 
 0   = mmaa    ! min invariant mass of gamma gamma pair
 0   = mmll    ! min invariant mass of l+l- (same flavour) lepton pair
 -1  = mmjjmax ! max invariant mass of a jet pair
 -1  = mmbbmax ! max invariant mass of a b pair
 -1  = mmaamax ! max invariant mass of gamma gamma pair
 -1  = mmllmax ! max invariant mass of l+l- (same flavour) lepton pair
#*********************************************************************
# Minimum and maximum invariant mass for all letpons                 *
#*********************************************************************
 0   = mmnl    ! min invariant mass for all letpons (l+- and vl) 
 -1  = mmnlmax ! max invariant mass for all letpons (l+- and vl) 
#*********************************************************************
# Minimum and maximum pt for 4-momenta sum of leptons                *
#*********************************************************************
 0   = ptllmin  ! Minimum pt for 4-momenta sum of leptons(l and vl)
 -1  = ptllmax  ! Maximum pt for 4-momenta sum of leptons(l and vl)
#*********************************************************************
# Inclusive cuts                                                     *
#*********************************************************************
 0  = xptj ! minimum pt for at least one jet  
 0  = xptb ! minimum pt for at least one b 
 0  = xpta ! minimum pt for at least one photon 
 0  = xptl ! minimum pt for at least one charged lepton 
#*********************************************************************
# Control the pt's of the jets sorted by pt                          *
#*********************************************************************
 0   = ptj1min ! minimum pt for the leading jet in pt
 0   = ptj2min ! minimum pt for the second jet in pt
 0   = ptj3min ! minimum pt for the third jet in pt
 0   = ptj4min ! minimum pt for the fourth jet in pt
 -1  = ptj1max ! maximum pt for the leading jet in pt 
 -1  = ptj2max ! maximum pt for the second jet in pt
 -1  = ptj3max ! maximum pt for the third jet in pt
 -1  = ptj4max ! maximum pt for the fourth jet in pt
 0   = cutuse  ! reject event if fails any (0) / all (1) jet pt cuts
#*********************************************************************
# Control the pt's of leptons sorted by pt                           *
#*********************************************************************
 0   = ptl1min ! minimum pt for the leading lepton in pt
 0   = ptl2min ! minimum pt for the second lepton in pt
 0   = ptl3min ! minimum pt for the third lepton in pt
 0   = ptl4min ! minimum pt for the fourth lepton in pt
 -1  = ptl1max ! maximum pt for the leading lepton in pt 
 -1  = ptl2max ! maximum pt for the second lepton in pt
 -1  = ptl3max ! maximum pt for the third lepton in pt
 -1  = ptl4max ! maximum pt for the fourth lepton in pt
#*********************************************************************
# Control the Ht(k)=Sum of k leading jets                            *
#*********************************************************************
 0   = htjmin ! minimum jet HT=Sum(jet pt)
 -1  = htjmax ! maximum jet HT=Sum(jet pt)
 0   = ihtmin  !inclusive Ht for all partons (including b)
 -1  = ihtmax  !inclusive Ht for all partons (including b)
 0   = ht2min ! minimum Ht for the two leading jets
 0   = ht3min ! minimum Ht for the three leading jets
 0   = ht4min ! minimum Ht for the four leading jets
 -1  = ht2max ! maximum Ht for the two leading jets
 -1  = ht3max ! maximum Ht for the three leading jets
 -1  = ht4max ! maximum Ht for the four leading jets
#***********************************************************************
# Photon-isolation cuts, according to hep-ph/9801442                   *
# When ptgmin=0, all the other parameters are ignored                  *
# When ptgmin>0, pta and draj are not going to be used                 *
#***********************************************************************
   0 = ptgmin ! Min photon transverse momentum
 0.4 = R0gamma ! Radius of isolation code
 1.0 = xn ! n parameter of eq.(3.4) in hep-ph/9801442
 1.0 = epsgamma ! epsilon_gamma parameter of eq.(3.4) in hep-ph/9801442
 .true. = isoEM ! isolate photons from EM energy (photons and leptons)
#*********************************************************************
# WBF cuts                                                           *
#*********************************************************************
 0   = xetamin ! minimum rapidity for two jets in the WBF case  
 0   = deltaeta ! minimum rapidity for two jets in the WBF case 
#*********************************************************************
# KT DURHAM CUT                                                      *
#*********************************************************************
 -1    =  ktdurham        
 0.4  =  dparameter 
#*********************************************************************
# maximal pdg code for quark to be considered as a light jet         *
# (otherwise b cuts are applied)                                     *
#*********************************************************************
 4 = maxjetflavor    ! Maximum jet pdg code
#*********************************************************************
# Jet measure cuts                                                   *
#*********************************************************************
 0   = xqcut   ! minimum kt jet measure between partons
#*********************************************************************
#
#*********************************************************************
# Store info for systematics studies                                 *
# WARNING: If use_syst is T, matched Pythia output is                *
#          meaningful ONLY if plotted taking matchscale              *
#          reweighting into account!                                 *
#*********************************************************************
   F  = use_syst      ! Enable systematics studies
#
#**************************************
# Parameter of the systematics study
#  will be used by SysCalc (if installed)
#**************************************                                  
#
0.5 1 2 = sys_scalefact  # factorization/renormalization scale factor
0.5 1 2 = sys_alpsfact  # \alpha_s emission scale factors
30 50 = sys_matchscale # variation of merging scale
# PDF sets and number of members (0 or none for all members).
CT10nlo.LHgrid = sys_pdf # matching scales
# MSTW2008nlo68cl.LHgrid 1  = sys_pdf
</MGRunCard>
<slha>
######################################################################
## PARAM_CARD AUTOMATICALY GENERATED BY MG5 FOLLOWING UFO MODEL   ####
######################################################################
##                                                                  ##
##  Width set on Auto will be computed following the information    ##
##        present in the decay.py files of the model.               ##
##        See  arXiv:1402.1178 for more details.                    ##
##                                                                  ##
######################################################################

###################################
## INFORMATION FOR CKMBLOCK
###################################
Block ckmblock 
    1 2.277360e-01 # cabi 

###################################
## INFORMATION FOR FRBLOCK
###################################
Block frblock 
    1 1.600000e+00 # gz 

###################################
## INFORMATION FOR MASS
###################################
Block mass 
    1 5.040000e-03 # MD 
    2 2.550000e-03 # MU 
    3 1.010000e-01 # MS 
    4 1.270000e+00 # MC 
    5 4.700000e+00 # MB 
    6 1.720000e+02 # MT 
   11 5.110000e-04 # Me 
   13 1.056600e-01 # MM 
   15 1.777000e+00 # MTA 
   23 9.118760e+01 # MZ 
   25 1.200000e+02 # MH 
  10030 3.600000e+03 # MZph 
  10031 3.000000e+02 # MZpl 
## Dependent parameters, given by model restrictions.
## Those values should be edited following the 
## analytical expression. MG5 ignores those values 
## but they are important for interfacing the output of MG5
## to external program such as Pythia.
  12 0.000000 # ve : 0.0 
  14 0.000000 # vm : 0.0 
  16 0.000000 # vt : 0.0 
  21 0.000000 # g : 0.0 
  22 0.000000 # a : 0.0 
  24 79.824360 # w+ : cmath.sqrt(MZ__exp__2/2. + cmath.sqrt(MZ__exp__4/4. - (aEW*cmath.pi*MZ__exp__2)/(Gf*sqrt__2))) 

###################################
## INFORMATION FOR SMINPUTS
###################################
Block sminputs 
    1 1.279000e+02 # aEWM1 
    2 1.166370e-05 # Gf 
    3 1.184000e-01 # aS 

###################################
## INFORMATION FOR YUKAWA
###################################
Block yukawa 
    1 5.040000e-03 # ymdo 
    2 2.550000e-03 # ymup 
    3 1.010000e-01 # yms 
    4 1.270000e+00 # ymc 
    5 4.700000e+00 # ymb 
    6 1.720000e+02 # ymt 
   11 5.110000e-04 # yme 
   13 1.056600e-01 # ymm 
   15 1.777000e+00 # ymtau 

###################################
## INFORMATION FOR DECAY
###################################
DECAY   6 1.508336e+00 # WT 
DECAY  23 2.495200e+00 # WZ 
DECAY  24 2.085000e+00 # WW 
DECAY  25 5.753088e-03 # WH 
## Dependent parameters, given by model restrictions.
## Those values should be edited following the 
## analytical expression. MG5 ignores those values 
## but they are important for interfacing the output of MG5
## to external program such as Pythia.
DECAY  1 0.000000 # d : 0.0 
DECAY  2 0.000000 # u : 0.0 
DECAY  3 0.000000 # s : 0.0 
DECAY  4 0.000000 # c : 0.0 
DECAY  5 0.000000 # b : 0.0 
DECAY  11 0.000000 # e- : 0.0 
DECAY  12 0.000000 # ve : 0.0 
DECAY  13 0.000000 # mu- : 0.0 
DECAY  14 0.000000 # vm : 0.0 
DECAY  15 0.000000 # ta- : 0.0 
DECAY  16 0.000000 # vt : 0.0 
DECAY  21 0.000000 # g : 0.0 
DECAY  22 0.000000 # a : 0.0 
DECAY  10030 0.308725 # zph : (gz__exp__2*MZph*(5 + cmath.sqrt(1 - (4*MT__exp__2)/MZph__exp__2)))/(144.*cmath.pi) 
DECAY  10031 0.132629 # zpl : (5*gz__exp__2*MZpl)/(144.*cmath.pi) 
#===========================================================
# QUANTUM NUMBERS OF NEW STATE(S) (NON SM PDG CODE)
#===========================================================

Block QNUMBERS 10030  # zph 
        1 0  # 3 times electric charge
        2 3  # number of spin states (2S+1)
        3 1  # colour rep (1: singlet, 3: triplet, 8: octet)
        4 0  # Particle/Antiparticle distinction (0=own anti)
Block QNUMBERS 10031  # zpl 
        1 0  # 3 times electric charge
        2 3  # number of spin states (2S+1)
        3 1  # colour rep (1: singlet, 3: triplet, 8: octet)
        4 0  # Particle/Antiparticle distinction (0=own anti)
</slha>
## END BANNER##
<MGGenerationInfo>
#  Number of Events        :         3880
#  Integrated weight (pb)  :  0.61660E-03
#  Max wgt                 :  0.36166E-06
#  Average wgt             :  0.15892E-06
</MGGenerationInfo>
</header>
<init>
     2212     2212  0.40000000000E+04  0.40000000000E+04 0 0  247000  247000 2   1
  0.61668552598E-03  0.43286003186E-05  0.36165930000E-06   0
</init>
<event>
 5   0  0.2536619E-06  0.2844419E+04  0.7818609E-02  0.8289609E-01
       -2   -1    0    0    0  501  0.00000000000E+00  0.00000000000E+00  0.10533660794E+04  0.10533660794E+04  0.25500000920E-02 0. -1.
        2   -1    0    0  501    0  0.00000000000E+00  0.00000000000E+00 -0.19202063156E+04  0.19202063156E+04  0.25500000920E-02 0.  1.
    10030    2    1    2    0    0  0.00000000000E+00  0.00000000000E+00 -0.86684023627E+03  0.29735723950E+04  0.28444192365E+04 0.  0.
        1    1    3    3  502    0 -0.66504811358E+03  0.38357441933E+03 -0.16849686147E+04  0.18516310542E+04  0.50400001928E-02 0.  1.
       -1    1    3    3    0  502  0.66504811358E+03 -0.38357441933E+03  0.81812837839E+03  0.11219413408E+04  0.50400001928E-02 0. -1.
</event>
<event>
 5   0  0.1566576E-06  0.3662993E+04  0.7818609E-02  0.8076213E-01
       -2   -1    0    0    0  501  0.00000000000E+00  0.00000000000E+00  0.21339142326E+04  0.21339142326E+04  0.25500000920E-02 0.  1.
        2   -1    0    0  501    0  0.00000000000E+00  0.00000000000E+00 -0.15719374351E+04  0.15719374351E+04  0.25500000920E-02 0. -1.
    10030    2    1    2    0    0  0.00000000000E+00  0.00000000000E+00  0.56197679743E+03  0.37058516677E+04  0.36629931289E+04 0.  0.
        4    1    3    3  502    0  0.18208884641E+04 -0.19565471462E+03  0.25923127632E+03  0.18496264579E+04  0.12699999809E+01 0. -1.
       -4    1    3    3    0  502 -0.18208884641E+04  0.19565471462E+03  0.30274552110E+03  0.18562252098E+04  0.12699999809E+01 0.  1.
</event>
<event>
 5   0  0.1513502E-06  0.2120043E+04  0.7818609E-02  0.8552465E-01
       -2   -1    0    0    0  501  0.00000000000E+00  0.00000000000E+00  0.91394490884E+03  0.91394490884E+03  0.25500000920E-02 0.  1.
        2   -1    0    0  501    0  0.00000000000E+00  0.00000000000E+00 -0.12294459408E+04  0.12294459408E+04  0.25500000920E-02 0. -1.
    10030    2    1    2    0    0  0.00000000000E+00  0.00000000000E+00 -0.31550103196E+03  0.21433908496E+04  0.21200432621E+04 0.  0.
        3    1    3    3  502    0  0.93709851162E+03 -0.47537585924E+03 -0.16533995371E+02  0.10509087550E+04  0.10100000352E+00 0.  1.
       -3    1    3    3    0  502 -0.93709851162E+03  0.47537585924E+03 -0.29896703658E+03  0.10924820947E+04  0.10100000352E+00 0. -1.
</event>
<event>
 5   0  0.2536619E-06  0.1959459E+04  0.7818609E-02  0.8625813E-01
        2   -1    0    0  501    0  0.00000000000E+00  0.00000000000E+00  0.21144584457E+04  0.21144584457E+04  0.25500000920E-02 0.  1.
       -2   -1    0    0    0  501  0.00000000000E+00  0.00000000000E+00 -0.45395531541E+03  0.45395531542E+03  0.25500000920E-02 0. -1.
    10030    2    1    2    0    0  0.00000000000E+00  0.00000000000E+00  0.16605031303E+04  0.25684137612E+04  0.19594587525E+04 0.  0.
        1    1    3    3  502    0  0.90103283658E+03 -0.39270439183E+02  0.32860341396E+03  0.95988673482E+03  0.50400001928E-02 0. -1.
       -1    1    3    3    0  502 -0.90103283658E+03  0.39270439183E+02  0.13318997164E+04  0.16085270263E+04  0.50400001928E-02 0.  1.
</event>
<event>
 5   0  0.2536619E-06  0.3555644E+04  0.7818609E-02  0.8100728E-01
       -2   -1    0    0    0  501  0.00000000000E+00  0.00000000000E+00  0.14905154165E+04  0.14905154165E+04  0.25500000920E-02 0. -1.
        2   -1    0    0  501    0  0.00000000000E+00  0.00000000000E+00 -0.21205087922E+04  0.21205087922E+04  0.25500000920E-02 0.  1.
    10030    2    1    2    0    0  0.00000000000E+00  0.00000000000E+00 -0.62999337571E+03  0.36110242088E+04  0.35556439899E+04 0.  0.
        1    1    3    3  502    0  0.34431465546E+02 -0.16111306207E+04  0.44751280424E+03  0.16724817227E+04  0.50400001928E-02 0.  1.
       -1    1    3    3    0  502 -0.34431465546E+02  0.16111306207E+04 -0.10775061800E+04  0.19385424861E+04  0.50400001928E-02 0. -1.
</event>
<event>
 5   0  0.7754556E-07  0.3522254E+04  0.7818609E-02  0.8108536E-01
        1   -1    0    0  501    0  0.00000000000E+00  0.00000000000E+00  0.16231926508E+04  0.16231926508E+04  0.50400001928E-02 0. -1.
       -1   -1    0    0    0  501  0.00000000000E+00  0.00000000000E+00 -0.19107826378E+04  0.19107826378E+04  0.50400001928E-02 0.  1.
    10030    2    1    2    0    0  0.00000000000E+00  0.00000000000E+00 -0.28758998700E+03  0.35339752885E+04  0.35222540140E+04 0.  0.
        4    1    3    3  502    0  0.24179451547E+03 -0.17441861950E+04 -0.11341799194E+03  0.17645156062E+04  0.12699999809E+01 0. -1.
       -4    1    3    3    0  502 -0.24179451547E+03  0.17441861950E+04 -0.17417199506E+03  0.17694596823E+04  0.12699999809E+01 0.  1.
</event>
<event>
 5   0  0.8452742E-07  0.3579489E+04  0.7818609E-02  0.8095206E-01
       -1   -1    0    0    0  501  0.00000000000E+00  0.00000000000E+00  0.20311381183E+04  0.20311381183E+04  0.50400001928E-02 0.  1.
        1   -1    0    0  501    0  0.00000000000E+00  0.00000000000E+00 -0.15770398834E+04  0.15770398834E+04  0.50400001928E-02 0. -1.
    10030    2    1    2    0    0  0.00000000000E+00  0.00000000000E+00  0.45409823485E+03  0.36081780017E+04  0.35794892492E+04 0.  0.
        1    1    3    3  502    0 -0.36889728944E+03 -0.14779352001E+04  0.11741583284E+04  0.19232850662E+04  0.50400001928E-02 0.  1.
       -1    1    3    3    0  502  0.36889728944E+03  0.14779352001E+04 -0.72006009354E+03  0.16848929355E+04  0.50400001928E-02 0. -1.
</event>
<event>
 5   0  0.1566576E-06  0.3597473E+04  0.7818609E-02  0.8091071E-01
        2   -1    0    0  501    0  0.00000000000E+00  0.00000000000E+00  0.14887748031E+04  0.14887748031E+04  0.25500000920E-02 0.  1.
       -2   -1    0    0    0  501  0.00000000000E+00  0.00000000000E+00 -0.21732323802E+04  0.21732323802E+04  0.25500000920E-02 0. -1.
    10030    2    1    2    0    0  0.00000000000E+00  0.00000000000E+00 -0.68445757707E+03  0.36620071833E+04  0.35974733405E+04 0.  0.
        4    1    3    3  502    0 -0.80973662960E+03  0.46589841687E+03  0.12224582458E+04  0.15385514356E+04  0.12699999809E+01 0.  1.
       -4    1    3    3    0  502  0.80973662960E+03 -0.46589841687E+03 -0.19069158229E+04  0.21234557478E+04  0.12699999809E+01 0. -1.
</event>
<event>
 5   0  0.2382711E-06  0.3602931E+04  0.7818609E-02  0.8089821E-01
       -2   -1    0    0    0  501  0.00000000000E+00  0.00000000000E+00  0.11575694529E+04  0.11575694529E+04  0.25500000920E-02 0. -1.
        2   -1    0    0  501    0  0.00000000000E+00  0.00000000000E+00 -0.28035282160E+04  0.28035282160E+04  0.25500000920E-02 0.  1.
    10030    2    1    2    0    0  0.00000000000E+00  0.00000000000E+00 -0.16459587631E+04  0.39610976689E+04  0.36029313749E+04 0.  0.
        5    1    3    3  502    0 -0.63871752268E+03  0.14729445416E+04  0.75401036924E+02  0.16072439462E+04  0.46999998093E+01 0. -1.
       -5    1    3    3    0  502  0.63871752268E+03 -0.14729445416E+04 -0.17213598000E+04  0.23538537226E+04  0.46999998093E+01 0.  1.
</event>
<event>
 5   0  0.2536619E-06  0.3877846E+04  0.7818609E-02  0.8029653E-01
        2   -1    0    0  501    0  0.00000000000E+00  0.00000000000E+00  0.19106291537E+04  0.19106291537E+04  0.25500000920E-02 0.  1.
       -2   -1    0    0    0  501  0.00000000000E+00  0.00000000000E+00 -0.19676355274E+04  0.19676355274E+04  0.25500000920E-02 0. -1.
    10030    2    1    2    0    0  0.00000000000E+00  0.00000000000E+00 -0.57006373709E+02  0.38782646811E+04  0.38778456919E+04 0.  0.
        1    1    3    3  502    0 -0.73025125713E+03 -0.39970533693E+03 -0.17798036212E+04  0.19648745978E+04  0.50400001928E-02 0. -1.
       -1    1    3    3    0  502  0.73025125713E+03  0.39970533693E+03  0.17227972475E+04  0.19133900833E+04  0.50400001928E-02 0.  1.
</event>
<event>
 5   0  0.2382711E-06  0.3488244E+04  0.7818609E-02  0.8116582E-01
        2   -1    0    0  501    0  0.00000000000E+00  0.00000000000E+00  0.13192379142E+04  0.13192379142E+04  0.25500000920E-02 0.  1.
       -2   -1    0    0    0  501  0.00000000000E+00  0.00000000000E+00 -0.23058479987E+04  0.23058479987E+04  0.25500000920E-02 0. -1.
    10030    2    1    2    0    0  0.00000000000E+00  0.00000000000E+00 -0.98661008450E+03  0.36250859129E+04  0.34882443173E+04 0.  0.
        5    1    3    3  502    0  0.16586963454E+04  0.24586566085E+03 -0.99193647852E+03  0.19482514101E+04  0.46999998093E+01 0. -1.
       -5    1    3    3    0  502 -0.16586963454E+04 -0.24586566085E+03  0.53263940182E+01  0.16768345029E+04  0.46999998093E+01 0.  1.
</event>
<event>
 5   0  0.1513502E-06  0.3229895E+04  0.7818609E-02  0.8180966E-01
        2   -1    0    0  501    0  0.00000000000E+00  0.00000000000E+00  0.14592387329E+04  0.14592387329E+04  0.25500000920E-02 0.  1.
       -2   -1    0    0    0  501  0.00000000000E+00  0.00000000000E+00 -0.17872713922E+04  0.17872713922E+04  0.25500000920E-02 0. -1.
    10030    2    1    2    0    0  0.00000000000E+00  0.00000000000E+00 -0.32803265926E+03  0.32465101251E+04  0.32298951324E+04 0.  0.
        3    1    3    3  502    0 -0.10612635374E+03 -0.57623131068E+03  0.13486338494E+04  0.14704144301E+04  0.10100000352E+00 0.  1.
       -3    1    3    3    0  502  0.10612635374E+03  0.57623131068E+03 -0.16766665086E+04  0.17760956950E+04  0.10100000352E+00 0. -1.
</event>
<event>
 5   0  0.1634374E-06  0.3455911E+04  0.7818609E-02  0.8124319E-01
        1   -1    0    0  501    0  0.00000000000E+00  0.00000000000E+00  0.21561391361E+04  0.21561391361E+04  0.50400001928E-02 0.  1.
       -1   -1    0    0    0  501  0.00000000000E+00  0.00000000000E+00 -0.13848041091E+04  0.13848041092E+04  0.50400001928E-02 0. -1.
    10030    2    1    2    0    0  0.00000000000E+00  0.00000000000E+00  0.77133502694E+03  0.35409432452E+04  0.34559110727E+04 0.  0.
        5    1    3    3  502    0  0.16941029832E+03 -0.14653460126E+04 -0.53640254150E+03  0.15696141444E+04  0.46999998093E+01 0. -1.
       -5    1    3    3    0  502 -0.16941029832E+03  0.14653460126E+04  0.13077375684E+04  0.19713291008E+04  0.46999998093E+01 0.  1.
</event>
<event>
 5   0  0.7754556E-07  0.3675566E+04  0.7818609E-02  0.8073398E-01
        1   -1    0    0  501    0  0.00000000000E+00  0.00000000000E+00  0.13808268947E+04  0.13808268947E+04  0.50400001928E-02 0. -1.
       -1   -1    0    0    0  501  0.00000000000E+00  0.00000000000E+00 -0.24459599138E+04  0.24459599138E+04  0.50400001928E-02 0.  1.
    10030    2    1    2    0    0  0.00000000000E+00  0.00000000000E+00 -0.10651330190E+04  0.38267868085E+04  0.36755664774E+04 0.  0.
        4    1    3    3  502    0 -0.16684018716E+04 -0.72827858359E+03 -0.79490769556E+03  0.19864124339E+04  0.12699999809E+01 0. -1.
       -4    1    3    3    0  502  0.16684018716E+04  0.72827858359E+03 -0.27022532349E+03  0.18403743746E+04  0.12699999809E+01 0.  1.
</event>
<event>
 5   0  0.8452742E-07  0.3395156E+04  0.7818609E-02  0.8139096E-01
        1   -1    0    0  501    0  0.00000000000E+00  0.00000000000E+00  0.21918576752E+04  0.21918576752E+04  0.50400001928E-02 0.  1.
       -1   -1    0    0    0  501  0.00000000000E+00  0.00000000000E+00 -0.13147616859E+04  0.13147616859E+04  0.50400001928E-02 0. -1.
    10030    2    1    2    0    0  0.00000000000E+00  0.00000000000E+00  0.87709598939E+03  0.35066193611E+04  0.33951556620E+04 0.  0.
        1    1    3    3  502    0 -0.12652643464E+04 -0.95351335896E+03  0.10682263016E+04  0.19108084737E+04  0.50400001928E-02 0.  1.
       -1    1    3    3    0  502  0.12652643464E+04  0.95351335896E+03 -0.19113031217E+03  0.15958108874E+04  0.50400001928E-02 0. -1.
</event>
<event>
 5   0  0.8452742E-07  0.3592546E+04  0.7818609E-02  0.8092201E-01
       -1   -1    0    0    0  501  0.00000000000E+00  0.00000000000E+00  0.11232768365E+04  0.11232768365E+04  0.50400001928E-02 0.  1.
        1   -1    0    0  501    0  0.00000000000E+00  0.00000000000E+00 -0.28724856900E+04  0.28724856900E+04  0.50400001928E-02 0. -1.
    10030    2    1    2    0    0  0.00000000000E+00  0.00000000000E+00 -0.17492088535E+04  0.39957625265E+04  0.35925459711E+04 0.  0.
        1    1    3    3  502    0  0.13443422699E+04  0.44896066641E+03 -0.21019894803E+04  0.25351886703E+04  0.50400001928E-02 0. -1.
       -1    1    3    3    0  502 -0.13443422699E+04 -0.44896066641E+03  0.35278062678E+03  0.14605738562E+04  0.50400001928E-02 0.  1.
</event>
<event>
 5   0  0.1566576E-06  0.2904059E+04  0.7818609E-02  0.8271671E-01
       -2   -1    0    0    0  501  0.00000000000E+00  0.00000000000E+00  0.83970628978E+03  0.83970628979E+03  0.25500000920E-02 0.  1.
        2   -1    0    0  501    0  0.00000000000E+00  0.00000000000E+00 -0.25108648224E+04  0.25108648224E+04  0.25500000920E-02 0. -1.
    10030    2    1    2    0    0  0.00000000000E+00  0.00000000000E+00 -0.16711585326E+04  0.33505711122E+04  0.29040585285E+04 0.  0.
        4    1    3    3  502    0 -0.84657756569E+02 -0.66043743867E+03  0.65318583213E+03  0.93273677441E+03  0.12699999809E+01 0.  1.
       -4    1    3    3    0  502  0.84657756569E+02  0.66043743867E+03 -0.23243443648E+04  0.24178343378E+04  0.12699999809E+01 0. -1.
</event>
<event>
 5   0  0.8423692E-07  0.3617537E+04  0.7818609E-02  0.8086486E-01
       -1   -1    0    0    0  501  0.00000000000E+00  0.00000000000E+00  0.29161017101E+04  0.29161017101E+04  0.50400001928E-02 0. -1.
        1   -1    0    0  501    0  0.00000000000E+00  0.00000000000E+00 -0.11219237621E+04  0.11219237621E+04  0.50400001928E-02 0.  1.
    10030    2    1    2    0    0  0.00000000000E+00  0.00000000000E+00  0.17941779480E+04  0.40380254721E+04  0.36175371739E+04 0.  0.
        2    1    3    3  502    0 -0.73996065468E+03 -0.32857493572E+03  0.27025436362E+04  0.28212134561E+04  0.25500000920E-02 0. -1.
       -2    1    3    3    0  502  0.73996065468E+03  0.32857493572E+03 -0.90836568824E+03  0.12168120161E+04  0.25500000920E-02 0.  1.
</event>
<event>
 5   0  0.7754556E-07  0.3596768E+04  0.7818609E-02  0.8091232E-01
       -1   -1    0    0    0  501  0.00000000000E+00  0.00000000000E+00  0.24013165948E+04  0.24013165948E+04  0.50400001928E-02 0. -1.
        1   -1    0    0  501    0  0.00000000000E+00  0.00000000000E+00 -0.13468384014E+04  0.13468384014E+04  0.50400001928E-02 0.  1.
    10030    2    1    2    0    0  0.00000000000E+00  0.00000000000E+00  0.10544781934E+04  0.37481549962E+04  0.35967682182E+04 0.  0.
        4    1    3    3  502    0 -0.36782767076E+03  0.46776992805E+03 -0.12412696266E+04  0.13765383394E+04  0.12699999809E+01 0.  1.
       -4    1    3    3    0  502  0.36782767076E+03 -0.46776992805E+03  0.22957478200E+04  0.23716166568E+04  0.12699999809E+01 0. -1.
</event>
<event>
 5   0  0.2422436E-06  0.2206276E+04  0.7818609E-02  0.8515820E-01
       -2   -1    0    0    0  501  0.00000000000E+00  0.00000000000E+00  0.16004432849E+04  0.16004432849E+04  0.25500000920E-02 0. -1.
        2   -1    0    0  501    0  0.00000000000E+00  0.00000000000E+00 -0.76036023433E+03  0.76036023434E+03  0.25500000920E-02 0.  1.
    10030    2    1    2    0    0  0.00000000000E+00  0.00000000000E+00  0.84008305060E+03  0.23608035193E+04  0.22062759856E+04 0.  0.
        2    1    3    3  502    0  0.17473143335E+03  0.14759094501E+03  0.15747923015E+04  0.15913154790E+04  0.25500000920E-02 0. -1.
       -2    1    3    3    0  502 -0.17473143335E+03 -0.14759094501E+03 -0.73470925087E+03  0.76948804030E+03  0.25500000920E-02 0.  1.
</event>
<event>
 5   0  0.8452742E-07  0.3635313E+04  0.7818609E-02  0.8082450E-01
       -1   -1    0    0    0  501  0.00000000000E+00  0.00000000000E+00  0.14815767940E+04  0.14815767940E+04  0.50400001928E-02 0. -1.
        1   -1    0    0  501    0  0.00000000000E+00  0.00000000000E+00 -0.22299728514E+04  0.22299728514E+04  0.50400001928E-02 0.  1.
    10030    2    1    2    0    0  0.00000000000E+00  0.00000000000E+00 -0.74839605741E+03  0.37115496453E+04  0.36353134818E+04 0.  0.
        1    1    3    3  502    0 -0.14674448269E+04  0.95135660837E+03  0.13157158252E+03  0.17537915491E+04  0.50400001928E-02 0. -1.
       -1    1    3    3    0  502  0.14674448269E+04 -0.95135660837E+03 -0.87996763993E+03  0.19577580963E+04  0.50400001928E-02 0.  1.
</event>
<event>
 5   0  0.2536619E-06  0.3608008E+04  0.7818609E-02  0.8088660E-01
       -2   -1    0    0    0  501  0.00000000000E+00  0.00000000000E+00  0.28434945396E+04  0.28434945396E+04  0.25500000920E-02 0. -1.
        2   -1    0    0  501    0  0.00000000000E+00  0.00000000000E+00 -0.11445178198E+04  0.11445178198E+04  0.25500000920E-02 0.  1.
    10030    2    1    2    0    0  0.00000000000E+00  0.00000000000E+00  0.16989767198E+04  0.39880123595E+04  0.36080078554E+04 0.  0.
        1    1    3    3  502    0  0.10245684472E+04  0.13842278423E+04  0.14432872797E+04  0.22469769456E+04  0.50400001928E-02 0. -1.
       -1    1    3    3    0  502 -0.10245684472E+04 -0.13842278423E+04  0.25568944016E+03  0.17410354138E+04  0.50400001928E-02 0.  1.
</event>
<event>
 5   0  0.7754556E-07  0.1827223E+04  0.7818609E-02  0.8691955E-01
       -1   -1    0    0    0  501  0.00000000000E+00  0.00000000000E+00  0.85062704742E+03  0.85062704744E+03  0.50400001928E-02 0.  1.
        1   -1    0    0  501    0  0.00000000000E+00  0.00000000000E+00 -0.98125983321E+03  0.98125983322E+03  0.50400001928E-02 0. -1.
    10030    2    1    2    0    0  0.00000000000E+00  0.00000000000E+00 -0.13063278579E+03  0.18318868807E+04  0.18272231990E+04 0.  0.
        4    1    3    3  502    0  0.10974061319E+03 -0.33632478148E+03  0.77916788885E+03  0.85572283640E+03  0.12699999809E+01 0.  1.
       -4    1    3    3    0  502 -0.10974061319E+03  0.33632478148E+03 -0.90980067464E+03  0.97616404426E+03  0.12699999809E+01 0. -1.
</event>
<event>
 5   0  0.2422436E-06  0.2464168E+04  0.7818609E-02  0.8415863E-01
       -2   -1    0    0    0  501  0.00000000000E+00  0.00000000000E+00  0.88794109898E+03  0.88794109899E+03  0.25500000920E-02 0. -1.
        2   -1    0    0  501    0  0.00000000000E+00  0.00000000000E+00 -0.17096074283E+04  0.17096074283E+04  0.25500000920E-02 0.  1.
    10030    2    1    2    0    0  0.00000000000E+00  0.00000000000E+00 -0.82166632936E+03  0.25975485273E+04  0.24641677693E+04 0.  0.
        2    1    3    3  502    0 -0.42966416993E+03  0.41764248805E+03 -0.15456715556E+04  0.16577506159E+04  0.25500000920E-02 0.  1.
       -2    1    3    3    0  502  0.42966416993E+03 -0.41764248805E+03  0.72400522622E+03  0.93979791144E+03  0.25500000920E-02 0. -1.
</event>
<event>
 5   0  0.2382711E-06  0.3533191E+04  0.7818609E-02  0.8105969E-01
       -2   -1    0    0    0  501  0.00000000000E+00  0.00000000000E+00  0.12416464840E+04  0.12416464840E+04  0.25500000920E-02 0. -1.
        2   -1    0    0  501    0  0.00000000000E+00  0.00000000000E+00 -0.25134841701E+04  0.25134841701E+04  0.25500000920E-02 0.  1.
    10030    2    1    2    0    0  0.00000000000E+00  0.00000000000E+00 -0.12718376860E+04  0.37551306541E+04  0.35331905029E+04 0.  0.
        5    1    3    3  502    0  0.66520432785E+03  0.12812704028E+04  0.44621660842E+03  0.15110532732E+04  0.46999998093E+01 0. -1.
       -5    1    3    3    0  502 -0.66520432785E+03 -0.12812704028E+04 -0.17180542944E+04  0.22440773809E+04  0.46999998093E+01 0.  1.
</event>
<event>
 5   0  0.2536619E-06  0.2307915E+04  0.7818609E-02  0.8474807E-01
       -2   -1    0    0    0  501  0.00000000000E+00  0.00000000000E+00  0.17243223403E+04  0.17243223403E+04  0.25500000920E-02 0. -1.
        2   -1    0    0  501    0  0.00000000000E+00  0.00000000000E+00 -0.77225551551E+03  0.77225551551E+03  0.25500000920E-02 0.  1.
    10030    2    1    2    0    0  0.00000000000E+00  0.00000000000E+00  0.95206682475E+03  0.24965778558E+04  0.23079145892E+04 0.  0.
        1    1    3    3  502    0 -0.42590062156E+03  0.18344700756E+03 -0.66702651455E+03  0.81238446266E+03  0.50400001928E-02 0.  1.
       -1    1    3    3    0  502  0.42590062156E+03 -0.18344700756E+03  0.16190933393E+04  0.16841933931E+04  0.50400001928E-02 0. -1.
</event>
<event>
 5   0  0.1513502E-06  0.2442518E+04  0.7818609E-02  0.8423755E-01
        2   -1    0    0  501    0  0.00000000000E+00  0.00000000000E+00  0.14456861802E+04  0.14456861802E+04  0.25500000920E-02 0. -1.
       -2   -1    0    0    0  501  0.00000000000E+00  0.00000000000E+00 -0.10316717006E+04  0.10316717006E+04  0.25500000920E-02 0.  1.
    10030    2    1    2    0    0  0.00000000000E+00  0.00000000000E+00  0.41401447960E+03  0.24773578807E+04  0.24425179794E+04 0.  0.
        3    1    3    3  502    0 -0.10397767383E+04 -0.44583938375E+03 -0.25951567662E+03  0.11607139261E+04  0.10100000352E+00 0.  1.
       -3    1    3    3    0  502  0.10397767383E+04  0.44583938375E+03  0.67353015622E+03  0.13166439546E+04  0.10100000352E+00 0. -1.
</event>
<event>
 5   0  0.2382711E-06  0.2083455E+04  0.7818609E-02  0.8568567E-01
        2   -1    0    0  501    0  0.00000000000E+00  0.00000000000E+00  0.95929953292E+03  0.95929953292E+03  0.25500000920E-02 0. -1.
       -2   -1    0    0    0  501  0.00000000000E+00  0.00000000000E+00 -0.11312380522E+04  0.11312380522E+04  0.25500000920E-02 0.  1.
    10030    2    1    2    0    0  0.00000000000E+00  0.00000000000E+00 -0.17193851933E+03  0.20905375852E+04  0.20834549528E+04 0.  0.
        5    1    3    3  502    0 -0.99331296765E+03 -0.20056077316E+03  0.15626136696E+03  0.10253462733E+04  0.46999998093E+01 0.  1.
       -5    1    3    3    0  502  0.99331296765E+03  0.20056077316E+03 -0.32819988629E+03  0.10651913118E+04  0.46999998093E+01 0. -1.
</event>
<event>
 5   0  0.2536619E-06  0.2491652E+04  0.7818609E-02  0.8405966E-01
       -2   -1    0    0    0  501  0.00000000000E+00  0.00000000000E+00  0.70157215325E+03  0.70157215325E+03  0.25500000920E-02 0. -1.
        2   -1    0    0  501    0  0.00000000000E+00  0.00000000000E+00 -0.22122920262E+04  0.22122920262E+04  0.25500000920E-02 0.  1.
    10030    2    1    2    0    0  0.00000000000E+00  0.00000000000E+00 -0.15107198729E+04  0.29138641794E+04  0.24916520467E+04 0.  0.
        1    1    3    3  502    0  0.48879319962E+03 -0.58608998001E+03 -0.19069347267E+04  0.20539767060E+04  0.50400001928E-02 0.  1.
       -1    1    3    3    0  502 -0.48879319962E+03  0.58608998001E+03  0.39621485378E+03  0.85988747348E+03  0.50400001928E-02 0. -1.
</event>
<event>
 5   0  0.2536619E-06  0.3468449E+04  0.7818609E-02  0.8121308E-01
       -2   -1    0    0    0  501  0.00000000000E+00  0.00000000000E+00  0.12003576677E+04  0.12003576677E+04  0.25500000920E-02 0. -1.
        2   -1    0    0  501    0  0.00000000000E+00  0.00000000000E+00 -0.25055315515E+04  0.25055315515E+04  0.25500000920E-02 0.  1.
    10030    2    1    2    0    0  0.00000000000E+00  0.00000000000E+00 -0.13051738838E+04  0.37058892192E+04  0.34684486501E+04 0.  0.
        1    1    3    3  502    0 -0.53803825563E+03 -0.16412469609E+04 -0.48583482155E+03  0.17942163261E+04  0.50400001928E-02 0.  1.
       -1    1    3    3    0  502  0.53803825563E+03  0.16412469609E+04 -0.81933906220E+03  0.19116728930E+04  0.50400001928E-02 0. -1.
</event>
<event>
 5   0  0.1908273E-06  0.3649980E+04  0.7818609E-02  0.8079138E-01
        1   -1    0    0  501    0  0.00000000000E+00  0.00000000000E+00  0.18781929175E+04  0.18781929175E+04  0.50400001928E-02 0. -1.
       -1   -1    0    0    0  501  0.00000000000E+00  0.00000000000E+00 -0.17732937903E+04  0.17732937904E+04  0.50400001928E-02 0.  1.
    10030    2    1    2    0    0  0.00000000000E+00  0.00000000000E+00  0.10489912714E+03  0.36514867079E+04  0.36499796370E+04 0.  0.
        3    1    3    3  502    0  0.13957196600E+04 -0.48905363173E+01 -0.11238465157E+04  0.17919509724E+04  0.10100000352E+00 0.  1.
       -3    1    3    3    0  502 -0.13957196600E+04  0.48905363173E+01  0.12287456428E+04  0.18595357355E+04  0.10100000352E+00 0. -1.
</event>
<event>
 5   0  0.1538737E-06  0.1988789E+04  0.7818609E-02  0.8611880E-01
       -2   -1    0    0    0  501  0.00000000000E+00  0.00000000000E+00  0.11262153935E+04  0.11262153935E+04  0.25500000920E-02 0. -1.
        2   -1    0    0  501    0  0.00000000000E+00  0.00000000000E+00 -0.87800320600E+03  0.87800320600E+03  0.25500000920E-02 0.  1.
    10030    2    1    2    0    0  0.00000000000E+00  0.00000000000E+00  0.24821218754E+03  0.20042185995E+04  0.19887893063E+04 0.  0.
        3    1    3    3  502    0 -0.12135665568E+03  0.42194910633E+03  0.10232456282E+04  0.11134631166E+04  0.10100000352E+00 0. -1.
       -3    1    3    3    0  502  0.12135665568E+03 -0.42194910633E+03 -0.77503344061E+03  0.89075548299E+03  0.10100000352E+00 0.  1.
</event>
<event>
 5   0  0.8423692E-07  0.3613587E+04  0.7818609E-02  0.8087387E-01
        1   -1    0    0  501    0  0.00000000000E+00  0.00000000000E+00  0.14088265064E+04  0.14088265064E+04  0.50400001928E-02 0. -1.
       -1   -1    0    0    0  501  0.00000000000E+00  0.00000000000E+00 -0.23171782726E+04  0.23171782726E+04  0.50400001928E-02 0.  1.
    10030    2    1    2    0    0  0.00000000000E+00  0.00000000000E+00 -0.90835176617E+03  0.37260047790E+04  0.36135866783E+04 0.  0.
        2    1    3    3  502    0  0.16123379263E+04 -0.34208046469E+03 -0.12173709961E+04  0.20490594855E+04  0.25500000920E-02 0.  1.
       -2    1    3    3    0  502 -0.16123379263E+04  0.34208046469E+03  0.30901922996E+03  0.16769452935E+04  0.25500000920E-02 0. -1.
</event>
<event>
 5   0  0.7754556E-07  0.3516035E+04  0.7818609E-02  0.8110000E-01
        1   -1    0    0  501    0  0.00000000000E+00  0.00000000000E+00  0.16616201441E+04  0.16616201441E+04  0.50400001928E-02 0.  1.
       -1   -1    0    0    0  501  0.00000000000E+00  0.00000000000E+00 -0.18600072967E+04  0.18600072967E+04  0.50400001928E-02 0. -1.
    10030    2    1    2    0    0  0.00000000000E+00  0.00000000000E+00 -0.19838715262E+03  0.35216274408E+04  0.35160350353E+04 0.  0.
        4    1    3    3  502    0  0.13279763450E+04  0.10346907029E+04 -0.60647516545E+03  0.17893908916E+04  0.12699999809E+01 0. -1.
       -4    1    3    3    0  502 -0.13279763450E+04 -0.10346907029E+04  0.40808801283E+03  0.17322365493E+04  0.12699999809E+01 0.  1.
</event>
<event>
 5   0  0.8452742E-07  0.3218136E+04  0.7818609E-02  0.8184044E-01
        1   -1    0    0  501    0  0.00000000000E+00  0.00000000000E+00  0.19006202273E+04  0.19006202273E+04  0.50400001928E-02 0. -1.
       -1   -1    0    0    0  501  0.00000000000E+00  0.00000000000E+00 -0.13622395570E+04  0.13622395570E+04  0.50400001928E-02 0.  1.
    10030    2    1    2    0    0  0.00000000000E+00  0.00000000000E+00  0.53838067037E+03  0.32628597843E+04  0.32181361416E+04 0.  0.
        1    1    3    3  502    0 -0.13061488189E+04 -0.79474504503E+03 -0.23923207207E+03  0.15475388228E+04  0.50400001928E-02 0.  1.
       -1    1    3    3    0  502  0.13061488189E+04  0.79474504503E+03  0.77761274244E+03  0.17153209615E+04  0.50400001928E-02 0. -1.
</event>
<event>
 5   0  0.2430186E-06  0.1793305E+04  0.7818609E-02  0.8709868E-01
        2   -1    0    0  501    0  0.00000000000E+00  0.00000000000E+00  0.83476772128E+03  0.83476772128E+03  0.25500000920E-02 0.  1.
       -2   -1    0    0    0  501  0.00000000000E+00  0.00000000000E+00 -0.96312477631E+03  0.96312477632E+03  0.25500000920E-02 0. -1.
    10030    2    1    2    0    0  0.00000000000E+00  0.00000000000E+00 -0.12835705504E+03  0.17978924976E+04  0.17933047425E+04 0.  0.
        4    1    3    3  502    0  0.19283879672E+03 -0.26539486488E+03 -0.90079680896E+03  0.95867499172E+03  0.12699999809E+01 0. -1.
       -4    1    3    3    0  502 -0.19283879672E+03  0.26539486488E+03  0.77243975392E+03  0.83921750587E+03  0.12699999809E+01 0.  1.
</event>
<event>
 5   0  0.1566576E-06  0.3583907E+04  0.7818609E-02  0.8094188E-01
        2   -1    0    0  501    0  0.00000000000E+00  0.00000000000E+00  0.22619916481E+04  0.22619916481E+04  0.25500000920E-02 0.  1.
       -2   -1    0    0    0  501  0.00000000000E+00  0.00000000000E+00 -0.14195885796E+04  0.14195885796E+04  0.25500000920E-02 0. -1.
    10030    2    1    2    0    0  0.00000000000E+00  0.00000000000E+00  0.84240306852E+03  0.36815802277E+04  0.35839070919E+04 0.  0.
        4    1    3    3  502    0  0.16877183590E+03  0.12388730310E+04  0.17398544842E+04  0.21425185084E+04  0.12699999809E+01 0.  1.
       -4    1    3    3    0  502 -0.16877183590E+03 -0.12388730310E+04 -0.89745141572E+03  0.15390617194E+04  0.12699999809E+01 0. -1.
</event>
<event>
 5   0  0.2382711E-06  0.1960719E+04  0.7818609E-02  0.8625209E-01
       -2   -1    0    0    0  501  0.00000000000E+00  0.00000000000E+00  0.44021980101E+03  0.44021980102E+03  0.25500000920E-02 0. -1.
        2   -1    0    0  501    0  0.00000000000E+00  0.00000000000E+00 -0.21832377978E+04  0.21832377978E+04  0.25500000920E-02 0.  1.
    10030    2    1    2    0    0  0.00000000000E+00  0.00000000000E+00 -0.17430179968E+04  0.26234575988E+04  0.19607187549E+04 0.  0.
        5    1    3    3  502    0  0.38715907136E+03 -0.81645283882E+03 -0.36272266657E+03  0.97369256308E+03  0.46999998093E+01 0. -1.
       -5    1    3    3    0  502 -0.38715907136E+03  0.81645283882E+03 -0.13802953302E+04  0.16497650358E+04  0.46999998093E+01 0.  1.
</event>
<event>
 5   0  0.1908273E-06  0.1891688E+04  0.7818609E-02  0.8659005E-01
       -1   -1    0    0    0  501  0.00000000000E+00  0.00000000000E+00  0.80459817134E+03  0.80459817135E+03  0.50400001928E-02 0.  1.
        1   -1    0    0  501    0  0.00000000000E+00  0.00000000000E+00 -0.11118848965E+04  0.11118848965E+04  0.50400001928E-02 0. -1.
    10030    2    1    2    0    0  0.00000000000E+00  0.00000000000E+00 -0.30728672511E+03  0.19164830678E+04  0.18916876639E+04 0.  0.
        3    1    3    3  502    0 -0.94434844115E+01 -0.93614722366E+03 -0.17118931974E+02  0.93635136129E+03  0.10100000352E+00 0. -1.
       -3    1    3    3    0  502  0.94434844115E+01  0.93614722366E+03 -0.29016779314E+03  0.98013170653E+03  0.10100000352E+00 0.  1.
</event>
<event>
 5   0  0.1908273E-06  0.2850659E+04  0.7818609E-02  0.8287711E-01
        1   -1    0    0  501    0  0.00000000000E+00  0.00000000000E+00  0.19370827753E+04  0.19370827753E+04  0.50400001928E-02 0.  1.
       -1   -1    0    0    0  501  0.00000000000E+00  0.00000000000E+00 -0.10487747519E+04  0.10487747519E+04  0.50400001928E-02 0. -1.
    10030    2    1    2    0    0  0.00000000000E+00  0.00000000000E+00  0.88830802333E+03  0.29858575272E+04  0.28506585254E+04 0.  0.
        3    1    3    3  502    0  0.10081945299E+04 -0.88164960869E+03 -0.66622543145E+02  0.13409701026E+04  0.10100000352E+00 0. -1.
       -3    1    3    3    0  502 -0.10081945299E+04  0.88164960869E+03  0.95493056648E+03  0.16448874246E+04  0.10100000352E+00 0.  1.
</event>
<event>
 5   0  0.2422436E-06  0.3011539E+04  0.7818609E-02  0.8240444E-01
        2   -1    0    0  501    0  0.00000000000E+00  0.00000000000E+00  0.11370476036E+04  0.11370476036E+04  0.25500000920E-02 0.  1.
       -2   -1    0    0    0  501  0.00000000000E+00  0.00000000000E+00 -0.19940600642E+04  0.19940600642E+04  0.25500000920E-02 0. -1.
    10030    2    1    2    0    0  0.00000000000E+00  0.00000000000E+00 -0.85701246054E+03  0.31311076678E+04  0.30115386217E+04 0.  0.
        2    1    3    3  502    0 -0.12288147167E+04  0.67869227428E+03  0.13785309245E+03  0.14105361698E+04  0.25500000920E-02 0.  1.
       -2    1    3    3    0  502  0.12288147167E+04 -0.67869227428E+03 -0.99486555299E+03  0.17205714980E+04  0.25500000920E-02 0. -1.
</event>
<event>
 5   0  0.1513502E-06  0.3686446E+04  0.7818609E-02  0.8070972E-01
        2   -1    0    0  501    0  0.00000000000E+00  0.00000000000E+00  0.16697726158E+04  0.16697726158E+04  0.25500000920E-02 0. -1.
       -2   -1    0    0    0  501  0.00000000000E+00  0.00000000000E+00 -0.20346911733E+04  0.20346911733E+04  0.25500000920E-02 0.  1.
    10030    2    1    2    0    0  0.00000000000E+00  0.00000000000E+00 -0.36491855746E+03  0.37044637892E+04  0.36864463120E+04 0.  0.
        3    1    3    3  502    0  0.34644619963E+03 -0.13228484695E+04 -0.14244280821E+04  0.19745755022E+04  0.10100000352E+00 0.  1.
       -3    1    3    3    0  502 -0.34644619963E+03  0.13228484695E+04  0.10595095247E+04  0.17298882870E+04  0.10100000352E+00 0. -1.
</event>
<event>
 5   0  0.1566576E-06  0.2925148E+04  0.7818609E-02  0.8265434E-01
        2   -1    0    0  501    0  0.00000000000E+00  0.00000000000E+00  0.19075097820E+04  0.19075097820E+04  0.25500000920E-02 0. -1.
       -2   -1    0    0    0  501  0.00000000000E+00  0.00000000000E+00 -0.11214215573E+04  0.11214215573E+04  0.25500000920E-02 0.  1.
    10030    2    1    2    0    0  0.00000000000E+00  0.00000000000E+00  0.78608822468E+03  0.30289313393E+04  0.29251479212E+04 0.  0.
        4    1    3    3  502    0  0.48006429592E+03  0.87954173103E+03 -0.71015035595E+03  0.12281573701E+04  0.12699999809E+01 0.  1.
       -4    1    3    3    0  502 -0.48006429592E+03 -0.87954173103E+03  0.14962385806E+04  0.18007739691E+04  0.12699999809E+01 0. -1.
</event>
<event>
 5   0  0.2422436E-06  0.3520736E+04  0.7818609E-02  0.8108893E-01
        2   -1    0    0  501    0  0.00000000000E+00  0.00000000000E+00  0.14060903095E+04  0.14060903095E+04  0.25500000920E-02 0. -1.
       -2   -1    0    0    0  501  0.00000000000E+00  0.00000000000E+00 -0.22039097873E+04  0.22039097873E+04  0.25500000920E-02 0.  1.
    10030    2    1    2    0    0  0.00000000000E+00  0.00000000000E+00 -0.79781947773E+03  0.36100000968E+04  0.35207363974E+04 0.  0.
        2    1    3    3  502    0  0.87492590642E+03  0.42881927239E+03  0.11043842883E+04  0.14727681305E+04  0.25500000920E-02 0. -1.
       -2    1    3    3    0  502 -0.87492590642E+03 -0.42881927239E+03 -0.19022037660E+04  0.21372319663E+04  0.25500000920E-02 0.  1.
</event>
<event>
 5   0  0.2536619E-06  0.3634839E+04  0.7818609E-02  0.8082558E-01
       -2   -1    0    0    0  501  0.00000000000E+00  0.00000000000E+00  0.27392605310E+04  0.27392605310E+04  0.25500000920E-02 0.  1.
        2   -1    0    0  501    0  0.00000000000E+00  0.00000000000E+00 -0.12058050029E+04  0.12058050029E+04  0.25500000920E-02 0. -1.
    10030    2    1    2    0    0  0.00000000000E+00  0.00000000000E+00  0.15334555281E+04  0.39450655339E+04  0.36348392276E+04 0.  0.
        1    1    3    3  502    0  0.72587354754E+03  0.78495278925E+03  0.23618462643E+04  0.25925587871E+04  0.50400001928E-02 0.  1.
       -1    1    3    3    0  502 -0.72587354754E+03 -0.78495278925E+03 -0.82839073623E+03  0.13525067468E+04  0.50400001928E-02 0. -1.
</event>
<event>
 5   0  0.8452742E-07  0.2145453E+04  0.7818609E-02  0.8541481E-01
       -1   -1    0    0    0  501  0.00000000000E+00  0.00000000000E+00  0.16103466156E+04  0.16103466156E+04  0.50400001928E-02 0.  1.
        1   -1    0    0  501    0  0.00000000000E+00  0.00000000000E+00 -0.71459297567E+03  0.71459297569E+03  0.50400001928E-02 0. -1.
    10030    2    1    2    0    0  0.00000000000E+00  0.00000000000E+00  0.89575363996E+03  0.23249395913E+04  0.21454532201E+04 0.  0.
        1    1    3    3  502    0  0.31753819803E+02 -0.36069504389E+03 -0.64636825124E+03  0.74087862434E+03  0.50400001928E-02 0. -1.
       -1    1    3    3    0  502 -0.31753819803E+02  0.36069504389E+03  0.15421218912E+04  0.15840609670E+04  0.50400001928E-02 0.  1.
</event>
<event>
 5   0  0.1513502E-06  0.2962190E+04  0.7818609E-02  0.8254611E-01
        2   -1    0    0  501    0  0.00000000000E+00  0.00000000000E+00  0.10690158165E+04  0.10690158165E+04  0.25500000920E-02 0. -1.
       -2   -1    0    0    0  501  0.00000000000E+00  0.00000000000E+00 -0.20520203111E+04  0.20520203111E+04  0.25500000920E-02 0.  1.
    10030    2    1    2    0    0  0.00000000000E+00  0.00000000000E+00 -0.98300449462E+03  0.31210361276E+04  0.29621898442E+04 0.  0.
        3    1    3    3  502    0  0.73220725165E+03 -0.38626376806E+03 -0.17854952632E+04  0.19680753296E+04  0.10100000352E+00 0.  1.
       -3    1    3    3    0  502 -0.73220725165E+03  0.38626376806E+03  0.80249076856E+03  0.11529607980E+04  0.10100000352E+00 0. -1.
</event>
<event>
 5   0  0.1634374E-06  0.2654351E+04  0.7818609E-02  0.8349970E-01
        1   -1    0    0  501    0  0.00000000000E+00  0.00000000000E+00  0.17043965866E+04  0.17043965867E+04  0.50400001928E-02 0.  1.
       -1   -1    0    0    0  501  0.00000000000E+00  0.00000000000E+00 -0.10334422394E+04  0.10334422394E+04  0.50400001928E-02 0. -1.
    10030    2    1    2    0    0  0.00000000000E+00  0.00000000000E+00  0.67095434725E+03  0.27378388261E+04  0.26543514653E+04 0.  0.
        5    1    3    3  502    0 -0.68272145674E+03  0.11370550890E+04  0.28525830800E+03  0.13566124190E+04  0.46999998093E+01 0. -1.
       -5    1    3    3    0  502  0.68272145674E+03 -0.11370550890E+04  0.38569603924E+03  0.13812264071E+04  0.46999998093E+01 0.  1.
</event>
<event>
 5   0  0.8452742E-07  0.2728454E+04  0.7818609E-02  0.8325831E-01
       -1   -1    0    0    0  501  0.00000000000E+00  0.00000000000E+00  0.16510786196E+04  0.16510786196E+04  0.50400001928E-02 0. -1.
        1   -1    0    0  501    0  0.00000000000E+00  0.00000000000E+00 -0.11272120986E+04  0.11272120986E+04  0.50400001928E-02 0.  1.
    10030    2    1    2    0    0  0.00000000000E+00  0.00000000000E+00  0.52386652101E+03  0.27782907182E+04  0.27284543579E+04 0.  0.
        1    1    3    3  502    0 -0.68657914410E+03 -0.65985040088E+02 -0.93658323938E+03  0.11631565290E+04  0.50400001928E-02 0.  1.
       -1    1    3    3    0  502  0.68657914410E+03  0.65985040088E+02  0.14604497604E+04  0.16151341893E+04  0.50400001928E-02 0. -1.
</event>
<event>
 5   0  0.2536619E-06  0.2579090E+04  0.7818609E-02  0.8375339E-01
       -2   -1    0    0    0  501  0.00000000000E+00  0.00000000000E+00  0.59280844700E+03  0.59280844700E+03  0.25500000920E-02 0.  1.
        2   -1    0    0  501    0  0.00000000000E+00  0.00000000000E+00 -0.28051657811E+04  0.28051657811E+04  0.25500000920E-02 0. -1.
    10030    2    1    2    0    0  0.00000000000E+00  0.00000000000E+00 -0.22123573341E+04  0.33979742281E+04  0.25790897389E+04 0.  0.
        1    1    3    3  502    0 -0.61787947849E+03  0.71110434804E+03  0.54038682045E+02  0.94359134318E+03  0.50400001928E-02 0.  1.
       -1    1    3    3    0  502  0.61787947849E+03 -0.71110434804E+03 -0.22663960162E+04  0.24543828850E+04  0.50400001928E-02 0. -1.
</event>
<event>
 5   0  0.7754556E-07  0.2895368E+04  0.7818609E-02  0.8274257E-01
       -1   -1    0    0    0  501  0.00000000000E+00  0.00000000000E+00  0.12679214873E+04  0.12679214873E+04  0.50400001928E-02 0.  1.
        1   -1    0    0  501    0  0.00000000000E+00  0.00000000000E+00 -0.16529328998E+04  0.16529328998E+04  0.50400001928E-02 0. -1.
    10030    2    1    2    0    0  0.00000000000E+00  0.00000000000E+00 -0.38501141247E+03  0.29208543871E+04  0.28953681222E+04 0.  0.
        4    1    3    3  502    0 -0.11545795144E+04 -0.82462256828E+03  0.97656619342E+02  0.14221795468E+04  0.12699999809E+01 0. -1.
       -4    1    3    3    0  502  0.11545795144E+04  0.82462256828E+03 -0.48266803181E+03  0.14986748403E+04  0.12699999809E+01 0.  1.
</event>
<event>
 5   0  0.8452742E-07  0.3434390E+04  0.7818609E-02  0.8129517E-01
        1   -1    0    0  501    0  0.00000000000E+00  0.00000000000E+00  0.18896123094E+04  0.18896123094E+04  0.50400001928E-02 0.  1.
       -1   -1    0    0    0  501  0.00000000000E+00  0.00000000000E+00 -0.15605101513E+04  0.15605101513E+04  0.50400001928E-02 0. -1.
    10030    2    1    2    0    0  0.00000000000E+00  0.00000000000E+00  0.32910215813E+03  0.34501224608E+04  0.34343903045E+04 0.  0.
        1    1    3    3  502    0  0.14614160046E+04 -0.88405773457E+03 -0.13643468844E+02  0.17080635119E+04  0.50400001928E-02 0. -1.
       -1    1    3    3    0  502 -0.14614160046E+04  0.88405773457E+03  0.34274562698E+03  0.17420589489E+04  0.50400001928E-02 0.  1.
</event>
<event>
 5   0  0.8423692E-07  0.3083011E+04  0.7818609E-02  0.8220416E-01
        1   -1    0    0  501    0  0.00000000000E+00  0.00000000000E+00  0.18154218652E+04  0.18154218652E+04  0.50400001928E-02 0. -1.
       -1   -1    0    0    0  501  0.00000000000E+00  0.00000000000E+00 -0.13089187968E+04  0.13089187968E+04  0.50400001928E-02 0.  1.
    10030    2    1    2    0    0  0.00000000000E+00  0.00000000000E+00  0.50650306842E+03  0.31243406620E+04  0.30830113873E+04 0.  0.
        2    1    3    3  502    0 -0.16294087694E+03 -0.13025227473E+04  0.10722465563E+04  0.16949418616E+04  0.25500000920E-02 0. -1.
       -2    1    3    3    0  502  0.16294087694E+03  0.13025227473E+04 -0.56574348788E+03  0.14293988005E+04  0.25500000920E-02 0.  1.
</event>
<event>
 5   0  0.1908273E-06  0.2698500E+04  0.7818609E-02  0.8335492E-01
        1   -1    0    0  501    0  0.00000000000E+00  0.00000000000E+00  0.15752468321E+04  0.15752468321E+04  0.50400001928E-02 0.  1.
       -1   -1    0    0    0  501  0.00000000000E+00  0.00000000000E+00 -0.11556762560E+04  0.11556762560E+04  0.50400001928E-02 0. -1.
    10030    2    1    2    0    0  0.00000000000E+00  0.00000000000E+00  0.41957057612E+03  0.27309230882E+04  0.26984998509E+04 0.  0.
        3    1    3    3  502    0  0.60698267502E+03 -0.10011516449E+04  0.88847171629E+03  0.14697328276E+04  0.10100000352E+00 0.  1.
       -3    1    3    3    0  502 -0.60698267502E+03  0.10011516449E+04 -0.46890114018E+03  0.12611902605E+04  0.10100000352E+00 0. -1.
</event>
<event>
 5   0  0.1566576E-06  0.3465000E+04  0.7818609E-02  0.8122135E-01
       -2   -1    0    0    0  501  0.00000000000E+00  0.00000000000E+00  0.19621093682E+04  0.19621093682E+04  0.25500000920E-02 0.  1.
        2   -1    0    0  501    0  0.00000000000E+00  0.00000000000E+00 -0.15297601364E+04  0.15297601364E+04  0.25500000920E-02 0. -1.
    10030    2    1    2    0    0  0.00000000000E+00  0.00000000000E+00  0.43234923180E+03  0.34918695047E+04  0.34650002568E+04 0.  0.
        4    1    3    3  502    0 -0.84657496490E+03 -0.80988697101E+03 -0.10700253048E+04  0.15866826534E+04  0.12699999809E+01 0. -1.
       -4    1    3    3    0  502  0.84657496490E+03  0.80988697101E+03  0.15023745366E+04  0.19051868512E+04  0.12699999809E+01 0.  1.
</event>
<event>
 5   0  0.2536619E-06  0.3344929E+04  0.7818609E-02  0.8151556E-01
        2   -1    0    0  501    0  0.00000000000E+00  0.00000000000E+00  0.16415969199E+04  0.16415969199E+04  0.25500000920E-02 0. -1.
       -2   -1    0    0    0  501  0.00000000000E+00  0.00000000000E+00 -0.17039125115E+04  0.17039125115E+04  0.25500000920E-02 0.  1.
    10030    2    1    2    0    0  0.00000000000E+00  0.00000000000E+00 -0.62315591571E+02  0.33455094314E+04  0.33449290161E+04 0.  0.
        1    1    3    3  502    0 -0.13222309864E+04  0.83712158249E+03  0.55891932699E+03  0.16617635630E+04  0.50400001928E-02 0. -1.
       -1    1    3    3    0  502  0.13222309864E+04 -0.83712158249E+03 -0.62123491856E+03  0.16837458684E+04  0.50400001928E-02 0.  1.
</event>
<event>
 5   0  0.9158886E-07  0.2163855E+04  0.7818609E-02  0.8533625E-01
       -1   -1    0    0    0  501  0.00000000000E+00  0.00000000000E+00  0.95007477949E+03  0.95007477950E+03  0.50400001928E-02 0.  1.
        1   -1    0    0  501    0  0.00000000000E+00  0.00000000000E+00 -0.12320793549E+04  0.12320793549E+04  0.50400001928E-02 0. -1.
    10030    2    1    2    0    0  0.00000000000E+00  0.00000000000E+00 -0.28200457542E+03  0.21821541344E+04  0.21638553754E+04 0.  0.
        2    1    3    3  502    0 -0.13630670801E+03 -0.52067471067E+02 -0.12221114472E+04  0.12307911803E+04  0.25500000920E-02 0. -1.
       -2    1    3    3    0  502  0.13630670801E+03  0.52067471067E+02  0.94010687174E+03  0.95136295413E+03  0.25500000920E-02 0.  1.
</event>
<event>
 5   0  0.2422436E-06  0.3569025E+04  0.7818609E-02  0.8097624E-01
       -2   -1    0    0    0  501  0.00000000000E+00  0.00000000000E+00  0.15284958101E+04  0.15284958101E+04  0.25500000920E-02 0. -1.
        2   -1    0    0  501    0  0.00000000000E+00  0.00000000000E+00 -0.20834114369E+04  0.20834114369E+04  0.25500000920E-02 0.  1.
    10030    2    1    2    0    0  0.00000000000E+00  0.00000000000E+00 -0.55491562684E+03  0.36119072471E+04  0.35690254424E+04 0.  0.
        2    1    3    3  502    0 -0.74195646174E+03  0.11246352166E+04 -0.14616372588E+04  0.19878851169E+04  0.25500000920E-02 0.  1.
       -2    1    3    3    0  502  0.74195646174E+03 -0.11246352166E+04  0.90672163193E+03  0.16240221302E+04  0.25500000920E-02 0. -1.
</event>
<event>
 5   0  0.1908273E-06  0.2194145E+04  0.7818609E-02  0.8520869E-01
       -1   -1    0    0    0  501  0.00000000000E+00  0.00000000000E+00  0.10153698124E+04  0.10153698124E+04  0.50400001928E-02 0.  1.
        1   -1    0    0  501    0  0.00000000000E+00  0.00000000000E+00 -0.11853491032E+04  0.11853491032E+04  0.50400001928E-02 0. -1.
    10030    2    1    2    0    0  0.00000000000E+00  0.00000000000E+00 -0.16997929073E+03  0.22007189156E+04  0.21941446594E+04 0.  0.
        3    1    3    3  502    0  0.31107738420E+03 -0.80534888328E+03 -0.76393124229E+03  0.11527995992E+04  0.10100000352E+00 0. -1.
       -3    1    3    3    0  502 -0.31107738420E+03  0.80534888328E+03  0.59395195156E+03  0.10479193164E+04  0.10100000352E+00 0.  1.
</event>
<event>
 5   0  0.2422436E-06  0.3557726E+04  0.7818609E-02  0.8100244E-01
        2   -1    0    0  501    0  0.00000000000E+00  0.00000000000E+00  0.10766191552E+04  0.10766191552E+04  0.25500000920E-02 0. -1.
       -2   -1    0    0    0  501  0.00000000000E+00  0.00000000000E+00 -0.29391574077E+04  0.29391574077E+04  0.25500000920E-02 0.  1.
    10030    2    1    2    0    0  0.00000000000E+00  0.00000000000E+00 -0.18625382525E+04  0.40157765629E+04  0.35577257709E+04 0.  0.
        2    1    3    3  502    0  0.29157645619E+03 -0.22759939960E+03  0.10327316110E+04  0.10969744286E+04  0.25500000920E-02 0. -1.
       -2    1    3    3    0  502 -0.29157645619E+03  0.22759939960E+03 -0.28952698635E+04  0.29188021343E+04  0.25500000920E-02 0.  1.
</event>
<event>
 5   0  0.8423692E-07  0.2269353E+04  0.7818609E-02  0.8490104E-01
       -1   -1    0    0    0  501  0.00000000000E+00  0.00000000000E+00  0.13683422500E+04  0.13683422500E+04  0.50400001928E-02 0.  1.
        1   -1    0    0  501    0  0.00000000000E+00  0.00000000000E+00 -0.94091322051E+03  0.94091322052E+03  0.50400001928E-02 0. -1.
    10030    2    1    2    0    0  0.00000000000E+00  0.00000000000E+00  0.42742902950E+03  0.23092554705E+04  0.22693534879E+04 0.  0.
        2    1    3    3  502    0  0.88970479445E+03 -0.10288510035E+03  0.92262108845E+03  0.12858419957E+04  0.25500000920E-02 0.  1.
       -2    1    3    3    0  502 -0.88970479445E+03  0.10288510035E+03 -0.49519205895E+03  0.10234134748E+04  0.25500000920E-02 0. -1.
</event>
<event>
 5   0  0.8423692E-07  0.3669689E+04  0.7818609E-02  0.8074712E-01
        1   -1    0    0  501    0  0.00000000000E+00  0.00000000000E+00  0.18115376661E+04  0.18115376661E+04  0.50400001928E-02 0. -1.
       -1   -1    0    0    0  501  0.00000000000E+00  0.00000000000E+00 -0.18584511835E+04  0.18584511835E+04  0.50400001928E-02 0.  1.
    10030    2    1    2    0    0  0.00000000000E+00  0.00000000000E+00 -0.46913517457E+02  0.36699888496E+04  0.36696889893E+04 0.  0.
        2    1    3    3  502    0 -0.49198435391E+03 -0.50099054124E+03  0.16718555528E+04  0.18133232244E+04  0.25500000920E-02 0. -1.
       -2    1    3    3    0  502  0.49198435391E+03  0.50099054124E+03 -0.17187690702E+04  0.18566656252E+04  0.25500000920E-02 0.  1.
</event>
<event>
 5   0  0.8423692E-07  0.1909660E+04  0.7818609E-02  0.8650063E-01
        1   -1    0    0  501    0  0.00000000000E+00  0.00000000000E+00  0.23499151989E+04  0.23499151989E+04  0.50400001928E-02 0.  1.
       -1   -1    0    0    0  501  0.00000000000E+00  0.00000000000E+00 -0.38797140954E+03  0.38797140957E+03  0.50400001928E-02 0. -1.
    10030    2    1    2    0    0  0.00000000000E+00  0.00000000000E+00  0.19619437894E+04  0.27378866085E+04  0.19096595635E+04 0.  0.
        2    1    3    3  502    0  0.79668443631E+03 -0.51795787449E+03  0.84714146944E+03  0.12730416804E+04  0.25500000920E-02 0. -1.
       -2    1    3    3    0  502 -0.79668443631E+03  0.51795787449E+03  0.11148023200E+04  0.14648449281E+04  0.25500000920E-02 0.  1.
</event>
<event>
 5   0  0.1566576E-06  0.2678234E+04  0.7818609E-02  0.8342102E-01
       -2   -1    0    0    0  501  0.00000000000E+00  0.00000000000E+00  0.10395158672E+04  0.10395158672E+04  0.25500000920E-02 0.  1.
        2   -1    0    0  501    0  0.00000000000E+00  0.00000000000E+00 -0.17250665606E+04  0.17250665606E+04  0.25500000920E-02 0. -1.
    10030    2    1    2    0    0  0.00000000000E+00  0.00000000000E+00 -0.68555069341E+03  0.27645824279E+04  0.26782337925E+04 0.  0.
        4    1    3    3  502    0  0.86933724122E+03 -0.33184567391E+03  0.65126976561E+03  0.11357916670E+04  0.12699999809E+01 0.  1.
       -4    1    3    3    0  502 -0.86933724122E+03  0.33184567391E+03 -0.13368204590E+04  0.16287907609E+04  0.12699999809E+01 0. -1.
</event>
<event>
 5   0  0.7707500E-07  0.3517178E+04  0.7818609E-02  0.8109731E-01
       -3   -1    0    0    0  501  0.00000000000E+00  0.00000000000E+00  0.23120070292E+04  0.23120070314E+04  0.10100000352E+00 0. -1.
        3   -1    0    0  501    0  0.00000000000E+00  0.00000000000E+00 -0.13376405634E+04  0.13376405672E+04  0.10100000352E+00 0.  1.
    10030    2    1    2    0    0  0.00000000000E+00  0.00000000000E+00  0.97436646585E+03  0.36496475986E+04  0.35171775025E+04 0.  0.
        3    1    3    3  502    0 -0.41578060176E+03 -0.14710793908E+04 -0.41486014114E+03  0.15840003251E+04  0.10100000352E+00 0.  1.
       -3    1    3    3    0  502  0.41578060176E+03  0.14710793908E+04  0.13892266070E+04  0.20656472735E+04  0.10100000352E+00 0. -1.
</event>
<event>
 5   0  0.2635560E-06  0.2009909E+04  0.7818609E-02  0.8602002E-01
       -2   -1    0    0    0  501  0.00000000000E+00  0.00000000000E+00  0.55396517685E+03  0.55396517686E+03  0.25500000920E-02 0.  1.
        2   -1    0    0  501    0  0.00000000000E+00  0.00000000000E+00 -0.18230992132E+04  0.18230992132E+04  0.25500000920E-02 0. -1.
    10030    2    1    2    0    0  0.00000000000E+00  0.00000000000E+00 -0.12691340364E+04  0.23770643901E+04  0.20099089313E+04 0.  0.
        3    1    3    3  502    0  0.16086482348E+03  0.62515003355E+02 -0.18054415565E+04  0.18136716465E+04  0.10100000352E+00 0. -1.
       -3    1    3    3    0  502 -0.16086482348E+03 -0.62515003355E+02  0.53630752019E+03  0.56339274355E+03  0.10100000352E+00 0.  1.
</event>
<event>
 5   0  0.1513502E-06  0.3493042E+04  0.7818609E-02  0.8115441E-01
        2   -1    0    0  501    0  0.00000000000E+00  0.00000000000E+00  0.23121323319E+04  0.23121323319E+04  0.25500000920E-02 0.  1.
       -2   -1    0    0    0  501  0.00000000000E+00  0.00000000000E+00 -0.13192734722E+04  0.13192734722E+04  0.25500000920E-02 0. -1.
    10030    2    1    2    0    0  0.00000000000E+00  0.00000000000E+00  0.99285885965E+03  0.36314058041E+04  0.34930415684E+04 0.  0.
        3    1    3    3  502    0 -0.31339050667E+03 -0.16464694034E+04 -0.14208947303E+02  0.16760897979E+04  0.10100000352E+00 0. -1.
       -3    1    3    3    0  502  0.31339050667E+03  0.16464694034E+04  0.10070678070E+04  0.19553160062E+04  0.10100000352E+00 0.  1.
</event>
<event>
 5   0  0.1566576E-06  0.3586395E+04  0.7818609E-02  0.8093615E-01
       -2   -1    0    0    0  501  0.00000000000E+00  0.00000000000E+00  0.25188278765E+04  0.25188278765E+04  0.25500000920E-02 0. -1.
        2   -1    0    0  501    0  0.00000000000E+00  0.00000000000E+00 -0.12766087747E+04  0.12766087747E+04  0.25500000920E-02 0.  1.
    10030    2    1    2    0    0  0.00000000000E+00  0.00000000000E+00  0.12422191018E+04  0.37954366512E+04  0.35863952761E+04 0.  0.
        4    1    3    3  502    0  0.12797444060E+03  0.35381914205E+03 -0.12343644309E+04  0.12904350444E+04  0.12699999809E+01 0.  1.
       -4    1    3    3    0  502 -0.12797444060E+03 -0.35381914205E+03  0.24765835327E+04  0.25050016068E+04  0.12699999809E+01 0. -1.
</event>
<event>
 5   0  0.8423692E-07  0.2061155E+04  0.7818609E-02  0.8578551E-01
        1   -1    0    0  501    0  0.00000000000E+00  0.00000000000E+00  0.13042455117E+04  0.13042455117E+04  0.50400001928E-02 0.  1.
       -1   -1    0    0    0  501  0.00000000000E+00  0.00000000000E+00 -0.81433271597E+03  0.81433271598E+03  0.50400001928E-02 0. -1.
    10030    2    1    2    0    0  0.00000000000E+00  0.00000000000E+00  0.48991279571E+03  0.21185782277E+04  0.20611548121E+04 0.  0.
        2    1    3    3  502    0 -0.79790286046E+03 -0.63599658794E+03  0.39372700984E+03  0.10936917266E+04  0.25500000920E-02 0.  1.
       -2    1    3    3    0  502  0.79790286046E+03  0.63599658794E+03  0.96185785867E+02  0.10248865010E+04  0.25500000920E-02 0. -1.
</event>
<event>
 5   0  0.2382711E-06  0.3673568E+04  0.7818609E-02  0.8073845E-01
       -2   -1    0    0    0  501  0.00000000000E+00  0.00000000000E+00  0.20011944206E+04  0.20011944206E+04  0.25500000920E-02 0. -1.
        2   -1    0    0  501    0  0.00000000000E+00  0.00000000000E+00 -0.16858808096E+04  0.16858808096E+04  0.25500000920E-02 0.  1.
    10030    2    1    2    0    0  0.00000000000E+00  0.00000000000E+00  0.31531361095E+03  0.36870752302E+04  0.36735678951E+04 0.  0.
        5    1    3    3  502    0 -0.46459072596E+03 -0.14507133370E+04 -0.87244014904E+03  0.17554451380E+04  0.46999998093E+01 0.  1.
       -5    1    3    3    0  502  0.46459072596E+03  0.14507133370E+04  0.11877537600E+04  0.19316300922E+04  0.46999998093E+01 0. -1.
</event>
<event>
 5   0  0.2422436E-06  0.3451266E+04  0.7818609E-02  0.8125437E-01
        2   -1    0    0  501    0  0.00000000000E+00  0.00000000000E+00  0.18832356245E+04  0.18832356245E+04  0.25500000920E-02 0. -1.
       -2   -1    0    0    0  501  0.00000000000E+00  0.00000000000E+00 -0.15812192554E+04  0.15812192554E+04  0.25500000920E-02 0.  1.
    10030    2    1    2    0    0  0.00000000000E+00  0.00000000000E+00  0.30201636905E+03  0.34644548799E+04  0.34512655255E+04 0.  0.
        2    1    3    3  502    0  0.10893033772E+04 -0.13332471633E+04  0.33605740178E+02  0.17219927966E+04  0.25500000920E-02 0.  1.
       -2    1    3    3    0  502 -0.10893033772E+04  0.13332471633E+04  0.26841062887E+03  0.17424620832E+04  0.25500000920E-02 0. -1.
</event>
<event>
 5   0  0.2382711E-06  0.3650927E+04  0.7818609E-02  0.8078925E-01
       -2   -1    0    0    0  501  0.00000000000E+00  0.00000000000E+00  0.20102838093E+04  0.20102838093E+04  0.25500000920E-02 0. -1.
        2   -1    0    0  501    0  0.00000000000E+00  0.00000000000E+00 -0.16576351308E+04  0.16576351308E+04  0.25500000920E-02 0.  1.
    10030    2    1    2    0    0  0.00000000000E+00  0.00000000000E+00  0.35264867853E+03  0.36679189401E+04  0.36509270413E+04 0.  0.
        5    1    3    3  502    0 -0.10856322909E+04 -0.35390534010E+03 -0.12545403607E+04  0.16963903051E+04  0.46999998093E+01 0.  1.
       -5    1    3    3    0  502  0.10856322909E+04  0.35390534010E+03  0.16071890392E+04  0.19715286350E+04  0.46999998093E+01 0. -1.
</event>
<event>
 5   0  0.1513502E-06  0.3573620E+04  0.7818609E-02  0.8096561E-01
       -2   -1    0    0    0  501  0.00000000000E+00  0.00000000000E+00  0.13419495826E+04  0.13419495826E+04  0.25500000920E-02 0.  1.
        2   -1    0    0  501    0  0.00000000000E+00  0.00000000000E+00 -0.23791425896E+04  0.23791425896E+04  0.25500000920E-02 0. -1.
    10030    2    1    2    0    0  0.00000000000E+00  0.00000000000E+00 -0.10371930070E+04  0.37210921722E+04  0.35736196804E+04 0.  0.
        3    1    3    3  502    0  0.15409033468E+04 -0.28691642781E+03 -0.14118950908E+04  0.21095383188E+04  0.10100000352E+00 0. -1.
       -3    1    3    3    0  502 -0.15409033468E+04  0.28691642781E+03  0.37470208381E+03  0.16115538534E+04  0.10100000352E+00 0.  1.
</event>
<event>
 5   0  0.1513502E-06  0.3247837E+04  0.7818609E-02  0.8176296E-01
       -2   -1    0    0    0  501  0.00000000000E+00  0.00000000000E+00  0.13555487356E+04  0.13555487356E+04  0.25500000920E-02 0.  1.
        2   -1    0    0  501    0  0.00000000000E+00  0.00000000000E+00 -0.19454201962E+04  0.19454201962E+04  0.25500000920E-02 0. -1.
    10030    2    1    2    0    0  0.00000000000E+00  0.00000000000E+00 -0.58987146061E+03  0.33009689318E+04  0.32478373649E+04 0.  0.
        3    1    3    3  502    0  0.55054056688E+03 -0.12902897711E+04 -0.11263455636E+04  0.17990544594E+04  0.10100000352E+00 0. -1.
       -3    1    3    3    0  502 -0.55054056688E+03  0.12902897711E+04  0.53647410296E+03  0.15019144724E+04  0.10100000352E+00 0.  1.
</event>
<event>
 5   0  0.1634374E-06  0.3527879E+04  0.7818609E-02  0.8107215E-01
       -1   -1    0    0    0  501  0.00000000000E+00  0.00000000000E+00  0.13495470234E+04  0.13495470234E+04  0.50400001928E-02 0.  1.
        1   -1    0    0  501    0  0.00000000000E+00  0.00000000000E+00 -0.23055755740E+04  0.23055755740E+04  0.50400001928E-02 0. -1.
    10030    2    1    2    0    0  0.00000000000E+00  0.00000000000E+00 -0.95602855056E+03  0.36551225975E+04  0.35278790530E+04 0.  0.
        5    1    3    3  502    0 -0.16550537320E+03  0.77119549824E+03 -0.21126807339E+04  0.22551222802E+04  0.46999998093E+01 0. -1.
       -5    1    3    3    0  502  0.16550537320E+03 -0.77119549824E+03  0.11566521834E+04  0.14000003173E+04  0.46999998093E+01 0.  1.
</event>
<event>
 5   0  0.8452742E-07  0.2249526E+04  0.7818609E-02  0.8498093E-01
        1   -1    0    0  501    0  0.00000000000E+00  0.00000000000E+00  0.96513279177E+03  0.96513279179E+03  0.50400001928E-02 0. -1.
       -1   -1    0    0    0  501  0.00000000000E+00  0.00000000000E+00 -0.13107951097E+04  0.13107951097E+04  0.50400001928E-02 0.  1.
    10030    2    1    2    0    0  0.00000000000E+00  0.00000000000E+00 -0.34566231788E+03  0.22759279014E+04  0.22495255888E+04 0.  0.
        1    1    3    3  502    0  0.52485108495E+03  0.84058488526E+03 -0.71109011556E+03  0.12197133939E+04  0.50400001928E-02 0.  1.
       -1    1    3    3    0  502 -0.52485108495E+03 -0.84058488526E+03  0.36542779768E+03  0.10562145076E+04  0.50400001928E-02 0. -1.
</event>
<event>
 5   0  0.2536619E-06  0.3572208E+04  0.7818609E-02  0.8096888E-01
        2   -1    0    0  501    0  0.00000000000E+00  0.00000000000E+00  0.11789055032E+04  0.11789055032E+04  0.25500000920E-02 0.  1.
       -2   -1    0    0    0  501  0.00000000000E+00  0.00000000000E+00 -0.27060411836E+04  0.27060411836E+04  0.25500000920E-02 0. -1.
    10030    2    1    2    0    0  0.00000000000E+00  0.00000000000E+00 -0.15271356803E+04  0.38849466868E+04  0.35722076330E+04 0.  0.
        1    1    3    3  502    0 -0.69717633232E+03  0.92550277752E+03 -0.22418156587E+04  0.25235585345E+04  0.50400001928E-02 0. -1.
       -1    1    3    3    0  502  0.69717633232E+03 -0.92550277752E+03  0.71467997840E+03  0.13613881523E+04  0.50400001928E-02 0.  1.
</event>
<event>
 5   0  0.1566576E-06  0.2967899E+04  0.7818609E-02  0.8252957E-01
       -2   -1    0    0    0  501  0.00000000000E+00  0.00000000000E+00  0.15556603399E+04  0.15556603399E+04  0.25500000920E-02 0. -1.
        2   -1    0    0  501    0  0.00000000000E+00  0.00000000000E+00 -0.14155439453E+04  0.14155439453E+04  0.25500000920E-02 0.  1.
    10030    2    1    2    0    0  0.00000000000E+00  0.00000000000E+00  0.14011639458E+03  0.29712042852E+04  0.29678986338E+04 0.  0.
        4    1    3    3  502    0 -0.78311632396E+02  0.14446969607E+03  0.15465227978E+04  0.15552294306E+04  0.12699999809E+01 0. -1.
       -4    1    3    3    0  502  0.78311632396E+02 -0.14446969607E+03 -0.14064064032E+04  0.14159748546E+04  0.12699999809E+01 0.  1.
</event>
<event>
 5   0  0.1566576E-06  0.3528462E+04  0.7818609E-02  0.8107078E-01
       -2   -1    0    0    0  501  0.00000000000E+00  0.00000000000E+00  0.23196770837E+04  0.23196770837E+04  0.25500000920E-02 0. -1.
        2   -1    0    0  501    0  0.00000000000E+00  0.00000000000E+00 -0.13417864123E+04  0.13417864123E+04  0.25500000920E-02 0.  1.
    10030    2    1    2    0    0  0.00000000000E+00  0.00000000000E+00  0.97789067141E+03  0.36614634960E+04  0.35284620966E+04 0.  0.
        4    1    3    3  502    0  0.78769654350E+03 -0.12519312231E+04  0.14868119357E+04  0.20972384168E+04  0.12699999809E+01 0. -1.
       -4    1    3    3    0  502 -0.78769654350E+03  0.12519312231E+04 -0.50892126427E+03  0.15642250791E+04  0.12699999809E+01 0.  1.
</event>
<event>
 5   0  0.2422436E-06  0.2774765E+04  0.7818609E-02  0.8311146E-01
        2   -1    0    0  501    0  0.00000000000E+00  0.00000000000E+00  0.23630328175E+04  0.23630328175E+04  0.25500000920E-02 0. -1.
       -2   -1    0    0    0  501  0.00000000000E+00  0.00000000000E+00 -0.81455929565E+03  0.81455929566E+03  0.25500000920E-02 0.  1.
    10030    2    1    2    0    0  0.00000000000E+00  0.00000000000E+00  0.15484735218E+04  0.31775921132E+04  0.27747651053E+04 0.  0.
        2    1    3    3  502    0  0.78225107118E+03 -0.62891968103E+03  0.18710812409E+04  0.21232997230E+04  0.25500000920E-02 0. -1.
       -2    1    3    3    0  502 -0.78225107118E+03  0.62891968103E+03 -0.32260771907E+03  0.10542923902E+04  0.25500000920E-02 0.  1.
</event>
<event>
 5   0  0.7754556E-07  0.3524258E+04  0.7818609E-02  0.8108065E-01
        1   -1    0    0  501    0  0.00000000000E+00  0.00000000000E+00  0.14908574124E+04  0.14908574124E+04  0.50400001928E-02 0. -1.
       -1   -1    0    0    0  501  0.00000000000E+00  0.00000000000E+00 -0.20827598550E+04  0.20827598550E+04  0.50400001928E-02 0.  1.
    10030    2    1    2    0    0  0.00000000000E+00  0.00000000000E+00 -0.59190244261E+03  0.35736172674E+04  0.35242576342E+04 0.  0.
        4    1    3    3  502    0  0.26769608792E+03  0.78268131250E+03  0.12817468390E+04  0.15254926433E+04  0.12699999809E+01 0. -1.
       -4    1    3    3    0  502 -0.26769608792E+03 -0.78268131250E+03 -0.18736492816E+04  0.20481246241E+04  0.12699999809E+01 0.  1.
</event>
<event>
 5   0  0.1601451E-06  0.1928822E+04  0.7818609E-02  0.8640641E-01
       -2   -1    0    0    0  501  0.00000000000E+00  0.00000000000E+00  0.47869059963E+03  0.47869059964E+03  0.25500000920E-02 0.  1.
        2   -1    0    0  501    0  0.00000000000E+00  0.00000000000E+00 -0.19429845444E+04  0.19429845444E+04  0.25500000920E-02 0. -1.
    10030    2    1    2    0    0  0.00000000000E+00  0.00000000000E+00 -0.14642939448E+04  0.24216751441E+04  0.19288218546E+04 0.  0.
        4    1    3    3  502    0  0.72121299374E+03  0.62142210887E+03 -0.53856379017E+03  0.10937852571E+04  0.12699999809E+01 0. -1.
       -4    1    3    3    0  502 -0.72121299374E+03 -0.62142210887E+03 -0.92573015463E+03  0.13278898869E+04  0.12699999809E+01 0.  1.
</event>
<event>
 5   0  0.1566576E-06  0.3558493E+04  0.7818609E-02  0.8100066E-01
        2   -1    0    0  501    0  0.00000000000E+00  0.00000000000E+00  0.26183744778E+04  0.26183744778E+04  0.25500000920E-02 0.  1.
       -2   -1    0    0    0  501  0.00000000000E+00  0.00000000000E+00 -0.12090397640E+04  0.12090397640E+04  0.25500000920E-02 0. -1.
    10030    2    1    2    0    0  0.00000000000E+00  0.00000000000E+00  0.14093347138E+04  0.38274142418E+04  0.35584934232E+04 0.  0.
        4    1    3    3  502    0  0.80637536762E+03 -0.11396461568E+04  0.18910586722E+04  0.23505614458E+04  0.12699999809E+01 0.  1.
       -4    1    3    3    0  502 -0.80637536762E+03  0.11396461568E+04 -0.48172395835E+03  0.14768527960E+04  0.12699999809E+01 0. -1.
</event>
<event>
 5   0  0.1513502E-06  0.3517721E+04  0.7818609E-02  0.8109603E-01
       -2   -1    0    0    0  501  0.00000000000E+00  0.00000000000E+00  0.20398037183E+04  0.20398037183E+04  0.25500000920E-02 0.  1.
        2   -1    0    0  501    0  0.00000000000E+00  0.00000000000E+00 -0.15166120094E+04  0.15166120094E+04  0.25500000920E-02 0. -1.
    10030    2    1    2    0    0  0.00000000000E+00  0.00000000000E+00  0.52319170888E+03  0.35564157277E+04  0.35177213170E+04 0.  0.
        3    1    3    3  502    0 -0.10968060041E+03  0.13632564338E+04  0.13796962688E+04  0.19426939395E+04  0.10100000352E+00 0.  1.
       -3    1    3    3    0  502  0.10968060041E+03 -0.13632564338E+04 -0.85650455995E+03  0.16137217882E+04  0.10100000352E+00 0. -1.
</event>
<event>
 5   0  0.1908273E-06  0.3609020E+04  0.7818609E-02  0.8088429E-01
        1   -1    0    0  501    0  0.00000000000E+00  0.00000000000E+00  0.19343264428E+04  0.19343264428E+04  0.50400001928E-02 0.  1.
       -1   -1    0    0    0  501  0.00000000000E+00  0.00000000000E+00 -0.16834059873E+04  0.16834059873E+04  0.50400001928E-02 0. -1.
    10030    2    1    2    0    0  0.00000000000E+00  0.00000000000E+00  0.25092045553E+03  0.36177324302E+04  0.36090202079E+04 0.  0.
        3    1    3    3  502    0 -0.55187834529E+03  0.14542091960E+04  0.10425253106E+04  0.18724724637E+04  0.10100000352E+00 0.  1.
       -3    1    3    3    0  502  0.55187834529E+03 -0.14542091960E+04 -0.79160485506E+03  0.17452599665E+04  0.10100000352E+00 0. -1.
</event>
<event>
 5   0  0.2382711E-06  0.3639748E+04  0.7818609E-02  0.8081447E-01
       -2   -1    0    0    0  501  0.00000000000E+00  0.00000000000E+00  0.19018370345E+04  0.19018370345E+04  0.25500000920E-02 0. -1.
        2   -1    0    0  501    0  0.00000000000E+00  0.00000000000E+00 -0.17414433686E+04  0.17414433686E+04  0.25500000920E-02 0.  1.
    10030    2    1    2    0    0  0.00000000000E+00  0.00000000000E+00  0.16039366592E+03  0.36432804031E+04  0.36397480638E+04 0.  0.
        5    1    3    3  502    0 -0.32234939950E+03  0.38769234806E+03 -0.16701296321E+04  0.17445829215E+04  0.46999998093E+01 0.  1.
       -5    1    3    3    0  502  0.32234939950E+03 -0.38769234806E+03  0.18305232980E+04  0.18986974816E+04  0.46999998093E+01 0. -1.
</event>
<event>
 5   0  0.1566576E-06  0.4167278E+04  0.7818609E-02  0.7971626E-01
       -2   -1    0    0    0  501  0.00000000000E+00  0.00000000000E+00  0.15659380718E+04  0.15659380718E+04  0.25500000920E-02 0. -1.
        2   -1    0    0  501    0  0.00000000000E+00  0.00000000000E+00 -0.27724917868E+04  0.27724917868E+04  0.25500000920E-02 0.  1.
    10030    2    1    2    0    0  0.00000000000E+00  0.00000000000E+00 -0.12065537150E+04  0.43384298586E+04  0.41672775010E+04 0.  0.
        4    1    3    3  502    0  0.14286376532E+04  0.14991422224E+04 -0.36334254426E+03  0.21024871853E+04  0.12699999809E+01 0. -1.
       -4    1    3    3    0  502 -0.14286376532E+04 -0.14991422224E+04 -0.84321117077E+03  0.22359426733E+04  0.12699999809E+01 0.  1.
</event>
<event>
 5   0  0.1566576E-06  0.3661679E+04  0.7818609E-02  0.8076508E-01
        2   -1    0    0  501    0  0.00000000000E+00  0.00000000000E+00  0.27157834512E+04  0.27157834512E+04  0.25500000920E-02 0. -1.
       -2   -1    0    0    0  501  0.00000000000E+00  0.00000000000E+00 -0.12342565558E+04  0.12342565558E+04  0.25500000920E-02 0.  1.
    10030    2    1    2    0    0  0.00000000000E+00  0.00000000000E+00  0.14815268954E+04  0.39500400069E+04  0.36616791387E+04 0.  0.
        4    1    3    3  502    0  0.10279015177E+04  0.13635301379E+04  0.14532096334E+04  0.22422345592E+04  0.12699999809E+01 0.  1.
       -4    1    3    3    0  502 -0.10279015177E+04 -0.13635301379E+04  0.28317261988E+02  0.17078054477E+04  0.12699999809E+01 0. -1.
</event>
<event>
 5   0  0.2536619E-06  0.3557571E+04  0.7818609E-02  0.8100280E-01
        2   -1    0    0  501    0  0.00000000000E+00  0.00000000000E+00  0.17403396744E+04  0.17403396744E+04  0.25500000920E-02 0. -1.
       -2   -1    0    0    0  501  0.00000000000E+00  0.00000000000E+00 -0.18180801486E+04  0.18180801486E+04  0.25500000920E-02 0.  1.
    10030    2    1    2    0    0  0.00000000000E+00  0.00000000000E+00 -0.77740474171E+02  0.35584198230E+04  0.35575705271E+04 0.  0.
        1    1    3    3  502    0  0.62039618727E+03  0.33586477516E+03  0.15944251052E+04  0.17435274567E+04  0.50400001928E-02 0. -1.
       -1    1    3    3    0  502 -0.62039618727E+03 -0.33586477516E+03 -0.16721655793E+04  0.18148923663E+04  0.50400001928E-02 0.  1.
</event>
<event>
 5   0  0.7754556E-07  0.3588019E+04  0.7818609E-02  0.8093242E-01
        1   -1    0    0  501    0  0.00000000000E+00  0.00000000000E+00  0.92088448605E+03  0.92088448607E+03  0.50400001928E-02 0.  1.
       -1   -1    0    0    0  501  0.00000000000E+00  0.00000000000E+00 -0.34949774605E+04  0.34949774605E+04  0.50400001928E-02 0. -1.
    10030    2    1    2    0    0  0.00000000000E+00  0.00000000000E+00 -0.25740929745E+04  0.44158619466E+04  0.35880192433E+04 0.  0.
        4    1    3    3  502    0 -0.45422011672E+01 -0.12815968266E+03 -0.34893287089E+04  0.34916846918E+04  0.12699999809E+01 0. -1.
       -4    1    3    3    0  502  0.45422011672E+01  0.12815968266E+03  0.91523573438E+03  0.92417725477E+03  0.12699999809E+01 0.  1.
</event>
<event>
 5   0  0.2422436E-06  0.3354128E+04  0.7818609E-02  0.8149258E-01
       -2   -1    0    0    0  501  0.00000000000E+00  0.00000000000E+00  0.22727529888E+04  0.22727529888E+04  0.25500000920E-02 0.  1.
        2   -1    0    0  501    0  0.00000000000E+00  0.00000000000E+00 -0.12375051192E+04  0.12375051192E+04  0.25500000920E-02 0. -1.
    10030    2    1    2    0    0  0.00000000000E+00  0.00000000000E+00  0.10352478696E+04  0.35102581079E+04  0.33541278796E+04 0.  0.
        2    1    3    3  502    0  0.52230531261E+03 -0.15429501954E+04  0.10025523896E+03  0.16320383752E+04  0.25500000920E-02 0.  1.
       -2    1    3    3    0  502 -0.52230531261E+03  0.15429501954E+04  0.93499263065E+03  0.18782197327E+04  0.25500000920E-02 0. -1.
</event>
<event>
 5   0  0.7754556E-07  0.3559281E+04  0.7818609E-02  0.8099883E-01
        1   -1    0    0  501    0  0.00000000000E+00  0.00000000000E+00  0.23400192673E+04  0.23400192673E+04  0.50400001928E-02 0.  1.
       -1   -1    0    0    0  501  0.00000000000E+00  0.00000000000E+00 -0.13534587276E+04  0.13534587276E+04  0.50400001928E-02 0. -1.
    10030    2    1    2    0    0  0.00000000000E+00  0.00000000000E+00  0.98656053966E+03  0.36934779949E+04  0.35592805453E+04 0.  0.
        4    1    3    3  502    0  0.16142982835E+04 -0.36845435648E+03  0.11700987439E+04  0.20275231797E+04  0.12699999809E+01 0.  1.
       -4    1    3    3    0  502 -0.16142982835E+04  0.36845435648E+03 -0.18353820421E+03  0.16659548152E+04  0.12699999809E+01 0. -1.
</event>
<event>
 5   0  0.2382711E-06  0.2144855E+04  0.7818609E-02  0.8541738E-01
        2   -1    0    0  501    0  0.00000000000E+00  0.00000000000E+00  0.16105087972E+04  0.16105087972E+04  0.25500000920E-02 0. -1.
       -2   -1    0    0    0  501  0.00000000000E+00  0.00000000000E+00 -0.71412265810E+03  0.71412265811E+03  0.25500000920E-02 0.  1.
    10030    2    1    2    0    0  0.00000000000E+00  0.00000000000E+00  0.89638613905E+03  0.23246314553E+04  0.21448550749E+04 0.  0.
        5    1    3    3  502    0 -0.10323428586E+04 -0.43631389729E+02  0.75938887048E+03  0.12823139329E+04  0.46999998093E+01 0. -1.
       -5    1    3    3    0  502  0.10323428586E+04  0.43631389729E+02  0.13699726857E+03  0.10423175224E+04  0.46999998093E+01 0.  1.
</event>
<event>
 5   0  0.1513502E-06  0.3369366E+04  0.7818609E-02  0.8145466E-01
        2   -1    0    0  501    0  0.00000000000E+00  0.00000000000E+00  0.20768086188E+04  0.20768086188E+04  0.25500000920E-02 0.  1.
       -2   -1    0    0    0  501  0.00000000000E+00  0.00000000000E+00 -0.13665953611E+04  0.13665953611E+04  0.25500000920E-02 0. -1.
    10030    2    1    2    0    0  0.00000000000E+00  0.00000000000E+00  0.71021325769E+03  0.34434039798E+04  0.33693661269E+04 0.  0.
        3    1    3    3  502    0 -0.85508688137E+03  0.10133124314E+04 -0.70704889025E+03  0.15026289634E+04  0.10100000352E+00 0. -1.
       -3    1    3    3    0  502  0.85508688137E+03 -0.10133124314E+04  0.14172621479E+04  0.19407750164E+04  0.10100000352E+00 0.  1.
</event>
<event>
 5   0  0.7754556E-07  0.1806841E+04  0.7818609E-02  0.8702670E-01
        1   -1    0    0  501    0  0.00000000000E+00  0.00000000000E+00  0.15192597993E+04  0.15192597993E+04  0.50400001928E-02 0. -1.
       -1   -1    0    0    0  501  0.00000000000E+00  0.00000000000E+00 -0.53721439968E+03  0.53721439971E+03  0.50400001928E-02 0.  1.
    10030    2    1    2    0    0  0.00000000000E+00  0.00000000000E+00  0.98204539965E+03  0.20564741991E+04  0.18068406029E+04 0.  0.
        4    1    3    3  502    0 -0.66881633252E+03 -0.18642590727E+03 -0.16684646581E+03  0.71407931044E+03  0.12699999809E+01 0.  1.
       -4    1    3    3    0  502  0.66881633252E+03  0.18642590727E+03  0.11488918655E+04  0.13423948886E+04  0.12699999809E+01 0. -1.
</event>
<event>
 5   0  0.1566576E-06  0.3611104E+04  0.7818609E-02  0.8087953E-01
        2   -1    0    0  501    0  0.00000000000E+00  0.00000000000E+00  0.20233673990E+04  0.20233673990E+04  0.25500000920E-02 0. -1.
       -2   -1    0    0    0  501  0.00000000000E+00  0.00000000000E+00 -0.16111845876E+04  0.16111845876E+04  0.25500000920E-02 0.  1.
    10030    2    1    2    0    0  0.00000000000E+00  0.00000000000E+00  0.41218281145E+03  0.36345519866E+04  0.36111041903E+04 0.  0.
        4    1    3    3  502    0  0.14090818130E+04  0.10069586835E+04  0.71983637019E+03  0.18755381518E+04  0.12699999809E+01 0.  1.
       -4    1    3    3    0  502 -0.14090818130E+04 -0.10069586835E+04 -0.30765355874E+03  0.17590138348E+04  0.12699999809E+01 0. -1.
</event>
<event>
 5   0  0.7707500E-07  0.3558425E+04  0.7818609E-02  0.8100082E-01
       -3   -1    0    0    0  501  0.00000000000E+00  0.00000000000E+00  0.15268899745E+04  0.15268899778E+04  0.10100000352E+00 0.  1.
        3   -1    0    0  501    0  0.00000000000E+00  0.00000000000E+00 -0.20732316415E+04  0.20732316440E+04  0.10100000352E+00 0. -1.
    10030    2    1    2    0    0  0.00000000000E+00  0.00000000000E+00 -0.54634166703E+03  0.36001216218E+04  0.35584247181E+04 0.  0.
        5    1    3    3  502    0 -0.11708752160E+03  0.88952075969E+03  0.12812629787E+04  0.15641654581E+04  0.46999998093E+01 0.  1.
       -5    1    3    3    0  502  0.11708752160E+03 -0.88952075969E+03 -0.18276046457E+04  0.20359561637E+04  0.46999998093E+01 0. -1.
</event>
<event>
 5   0  0.2536619E-06  0.2098296E+04  0.7818609E-02  0.8561994E-01
       -2   -1    0    0    0  501  0.00000000000E+00  0.00000000000E+00  0.85182264942E+03  0.85182264942E+03  0.25500000920E-02 0.  1.
        2   -1    0    0  501    0  0.00000000000E+00  0.00000000000E+00 -0.12921842617E+04  0.12921842617E+04  0.25500000920E-02 0. -1.
    10030    2    1    2    0    0  0.00000000000E+00  0.00000000000E+00 -0.44036161230E+03  0.21440069111E+04  0.20982962816E+04 0.  0.
        1    1    3    3  502    0 -0.40746248863E+02 -0.64539533094E+02 -0.12893436648E+04  0.12916008262E+04  0.50400001928E-02 0. -1.
       -1    1    3    3    0  502  0.40746248863E+02  0.64539533094E+02  0.84898205253E+03  0.85240608496E+03  0.50400001928E-02 0.  1.
</event>
<event>
 5   0  0.1513502E-06  0.3655155E+04  0.7818609E-02  0.8077973E-01
       -2   -1    0    0    0  501  0.00000000000E+00  0.00000000000E+00  0.15669460123E+04  0.15669460123E+04  0.25500000920E-02 0. -1.
        2   -1    0    0  501    0  0.00000000000E+00  0.00000000000E+00 -0.21315602869E+04  0.21315602869E+04  0.25500000920E-02 0.  1.
    10030    2    1    2    0    0  0.00000000000E+00  0.00000000000E+00 -0.56461427464E+03  0.36985062992E+04  0.36551552041E+04 0.  0.
        3    1    3    3  502    0 -0.51765165304E+03 -0.28366565238E+02 -0.20555967875E+04  0.21199636929E+04  0.10100000352E+00 0.  1.
       -3    1    3    3    0  502  0.51765165304E+03  0.28366565238E+02  0.14909825129E+04  0.15785426063E+04  0.10100000352E+00 0. -1.
</event>
<event>
 5   0  0.8452742E-07  0.2347885E+04  0.7818609E-02  0.8459276E-01
        1   -1    0    0  501    0  0.00000000000E+00  0.00000000000E+00  0.17534430403E+04  0.17534430403E+04  0.50400001928E-02 0. -1.
       -1   -1    0    0    0  501  0.00000000000E+00  0.00000000000E+00 -0.78596301976E+03  0.78596301978E+03  0.50400001928E-02 0.  1.
    10030    2    1    2    0    0  0.00000000000E+00  0.00000000000E+00  0.96748002056E+03  0.25394060601E+04  0.23478853354E+04 0.  0.
        1    1    3    3  502    0 -0.71568022658E+03 -0.77337455058E+03 -0.76003332021E+02  0.10564482423E+04  0.50400001928E-02 0.  1.
       -1    1    3    3    0  502  0.71568022658E+03  0.77337455058E+03  0.10434833526E+04  0.14829578178E+04  0.50400001928E-02 0. -1.
</event>
<event>
 5   0  0.2422436E-06  0.2268499E+04  0.7818609E-02  0.8490446E-01
        2   -1    0    0  501    0  0.00000000000E+00  0.00000000000E+00  0.25127697585E+04  0.25127697585E+04  0.25500000920E-02 0. -1.
       -2   -1    0    0    0  501  0.00000000000E+00  0.00000000000E+00 -0.51199344304E+03  0.51199344305E+03  0.25500000920E-02 0.  1.
    10030    2    1    2    0    0  0.00000000000E+00  0.00000000000E+00  0.20007763155E+04  0.30247632015E+04  0.22684987461E+04 0.  0.
        2    1    3    3  502    0 -0.90679319977E+02  0.90624431404E+03  0.98982024015E+02  0.91613259787E+03  0.25500000920E-02 0.  1.
       -2    1    3    3    0  502  0.90679319977E+02 -0.90624431404E+03  0.19017942914E+04  0.21086306037E+04  0.25500000920E-02 0. -1.
</event>
<event>
 5   0  0.1566576E-06  0.3536795E+04  0.7818609E-02  0.8105125E-01
        2   -1    0    0  501    0  0.00000000000E+00  0.00000000000E+00  0.20753250122E+04  0.20753250122E+04  0.25500000920E-02 0. -1.
       -2   -1    0    0    0  501  0.00000000000E+00  0.00000000000E+00 -0.15068627908E+04  0.15068627908E+04  0.25500000920E-02 0.  1.
    10030    2    1    2    0    0  0.00000000000E+00  0.00000000000E+00  0.56846222144E+03  0.35821878030E+04  0.35367951819E+04 0.  0.
        4    1    3    3  502    0  0.75865316950E+03 -0.66484585755E+03 -0.11868751193E+04  0.15576420666E+04  0.12699999809E+01 0.  1.
       -4    1    3    3    0  502 -0.75865316950E+03  0.66484585755E+03  0.17553373407E+04  0.20245457364E+04  0.12699999809E+01 0. -1.
</event>
<event>
 5   0  0.1566576E-06  0.3579089E+04  0.7818609E-02  0.8095299E-01
        2   -1    0    0  501    0  0.00000000000E+00  0.00000000000E+00  0.18910508139E+04  0.18910508139E+04  0.25500000920E-02 0.  1.
       -2   -1    0    0    0  501  0.00000000000E+00  0.00000000000E+00 -0.16934863828E+04  0.16934863828E+04  0.25500000920E-02 0. -1.
    10030    2    1    2    0    0  0.00000000000E+00  0.00000000000E+00  0.19756443111E+03  0.35845371967E+04  0.35790886005E+04 0.  0.
        4    1    3    3  502    0  0.94424710659E+03 -0.12465502439E+04  0.97015101857E+03  0.18402947374E+04  0.12699999809E+01 0.  1.
       -4    1    3    3    0  502 -0.94424710659E+03  0.12465502439E+04 -0.77258658746E+03  0.17442424593E+04  0.12699999809E+01 0. -1.
</event>
<event>
 5   0  0.8423692E-07  0.3449242E+04  0.7818609E-02  0.8125925E-01
       -1   -1    0    0    0  501  0.00000000000E+00  0.00000000000E+00  0.11519210551E+04  0.11519210551E+04  0.50400001928E-02 0. -1.
        1   -1    0    0  501    0  0.00000000000E+00  0.00000000000E+00 -0.25820495993E+04  0.25820495993E+04  0.50400001928E-02 0.  1.
    10030    2    1    2    0    0  0.00000000000E+00  0.00000000000E+00 -0.14301285442E+04  0.37339706544E+04  0.34492418290E+04 0.  0.
        2    1    3    3  502    0 -0.13808891400E+04 -0.81157732640E+03 -0.14072222193E+04  0.21320851175E+04  0.25500000920E-02 0.  1.
       -2    1    3    3    0  502  0.13808891400E+04  0.81157732640E+03 -0.22906324938E+02  0.16018855369E+04  0.25500000920E-02 0. -1.
</event>
<event>
 5   0  0.1908273E-06  0.3432102E+04  0.7818609E-02  0.8130072E-01
        1   -1    0    0  501    0  0.00000000000E+00  0.00000000000E+00  0.11311428077E+04  0.11311428077E+04  0.50400001928E-02 0. -1.
       -1   -1    0    0    0  501  0.00000000000E+00  0.00000000000E+00 -0.26034125093E+04  0.26034125094E+04  0.50400001928E-02 0.  1.
    10030    2    1    2    0    0  0.00000000000E+00  0.00000000000E+00 -0.14722697017E+04  0.37345553170E+04  0.34321021753E+04 0.  0.
        3    1    3    3  502    0 -0.99174732331E+02  0.73498543619E+02 -0.25985752426E+04  0.26015055189E+04  0.10100000352E+00 0.  1.
       -3    1    3    3    0  502  0.99174732331E+02 -0.73498543619E+02  0.11263055409E+04  0.11330497981E+04  0.10100000352E+00 0. -1.
</event>
<event>
 5   0  0.7754556E-07  0.2382970E+04  0.7818609E-02  0.8445907E-01
       -1   -1    0    0    0  501  0.00000000000E+00  0.00000000000E+00  0.57894926380E+03  0.57894926382E+03  0.50400001928E-02 0. -1.
        1   -1    0    0  501    0  0.00000000000E+00  0.00000000000E+00 -0.24520906566E+04  0.24520906566E+04  0.50400001928E-02 0.  1.
    10030    2    1    2    0    0  0.00000000000E+00  0.00000000000E+00 -0.18731413928E+04  0.30310399204E+04  0.23829696435E+04 0.  0.
        4    1    3    3  502    0  0.11881540977E+03  0.93068522919E+03 -0.18706966014E+04  0.20927970481E+04  0.12699999809E+01 0.  1.
       -4    1    3    3    0  502 -0.11881540977E+03 -0.93068522919E+03 -0.24447913905E+01  0.93824287225E+03  0.12699999809E+01 0. -1.
</event>
<event>
 5   0  0.8423692E-07  0.3419506E+04  0.7818609E-02  0.8133135E-01
        1   -1    0    0  501    0  0.00000000000E+00  0.00000000000E+00  0.14354525088E+04  0.14354525088E+04  0.50400001928E-02 0. -1.
       -1   -1    0    0    0  501  0.00000000000E+00  0.00000000000E+00 -0.20364701287E+04  0.20364701287E+04  0.50400001928E-02 0.  1.
    10030    2    1    2    0    0  0.00000000000E+00  0.00000000000E+00 -0.60101761992E+03  0.34719226375E+04  0.34195064880E+04 0.  0.
        2    1    3    3  502    0 -0.97516223876E+03  0.11582772552E+04  0.50583632739E+03  0.15963765164E+04  0.25500000920E-02 0. -1.
       -2    1    3    3    0  502  0.97516223876E+03 -0.11582772552E+04 -0.11068539473E+04  0.18755461212E+04  0.25500000920E-02 0.  1.
</event>
<event>
 5   0  0.7754556E-07  0.3608734E+04  0.7818609E-02  0.8088494E-01
       -1   -1    0    0    0  501  0.00000000000E+00  0.00000000000E+00  0.15035838321E+04  0.15035838321E+04  0.50400001928E-02 0. -1.
        1   -1    0    0  501    0  0.00000000000E+00  0.00000000000E+00 -0.21653202355E+04  0.21653202355E+04  0.50400001928E-02 0.  1.
    10030    2    1    2    0    0  0.00000000000E+00  0.00000000000E+00 -0.66173640340E+03  0.36689040676E+04  0.36087341257E+04 0.  0.
        4    1    3    3  502    0  0.10467269078E+04  0.14056986366E+04  0.10537001235E+03  0.17557705798E+04  0.12699999809E+01 0. -1.
       -4    1    3    3    0  502 -0.10467269078E+04 -0.14056986366E+04 -0.76710641575E+03  0.19131334879E+04  0.12699999809E+01 0.  1.
</event>
<event>
 5   0  0.2422436E-06  0.2084884E+04  0.7818609E-02  0.8567931E-01
       -2   -1    0    0    0  501  0.00000000000E+00  0.00000000000E+00  0.18974703388E+04  0.18974703388E+04  0.25500000920E-02 0.  1.
        2   -1    0    0  501    0  0.00000000000E+00  0.00000000000E+00 -0.57270223136E+03  0.57270223137E+03  0.25500000920E-02 0. -1.
    10030    2    1    2    0    0  0.00000000000E+00  0.00000000000E+00  0.13247681074E+04  0.24701725701E+04  0.20848841665E+04 0.  0.
        2    1    3    3  502    0  0.50405628901E+03  0.89042454059E+03  0.42614506406E+03  0.11083899226E+04  0.25500000920E-02 0. -1.
       -2    1    3    3    0  502 -0.50405628901E+03 -0.89042454059E+03  0.89862304334E+03  0.13617826475E+04  0.25500000920E-02 0.  1.
</event>
<event>
 5   0  0.8423692E-07  0.3297301E+04  0.7818609E-02  0.8163583E-01
       -1   -1    0    0    0  501  0.00000000000E+00  0.00000000000E+00  0.15967864880E+04  0.15967864880E+04  0.50400001928E-02 0. -1.
        1   -1    0    0  501    0  0.00000000000E+00  0.00000000000E+00 -0.17021987206E+04  0.17021987206E+04  0.50400001928E-02 0.  1.
    10030    2    1    2    0    0  0.00000000000E+00  0.00000000000E+00 -0.10541223260E+03  0.32989852087E+04  0.32973006639E+04 0.  0.
        2    1    3    3  502    0  0.19244799150E+03 -0.72987994864E+03 -0.15191584914E+04  0.16963500496E+04  0.25500000920E-02 0.  1.
       -2    1    3    3    0  502 -0.19244799150E+03  0.72987994864E+03  0.14137462588E+04  0.16026351591E+04  0.25500000920E-02 0. -1.
</event>
<event>
 5   0  0.1566576E-06  0.3658009E+04  0.7818609E-02  0.8077332E-01
        2   -1    0    0  501    0  0.00000000000E+00  0.00000000000E+00  0.23754820459E+04  0.23754820459E+04  0.25500000920E-02 0.  1.
       -2   -1    0    0    0  501  0.00000000000E+00  0.00000000000E+00 -0.14082434918E+04  0.14082434918E+04  0.25500000920E-02 0. -1.
    10030    2    1    2    0    0  0.00000000000E+00  0.00000000000E+00  0.96723855407E+03  0.37837255376E+04  0.36580088195E+04 0.  0.
        4    1    3    3  502    0 -0.54292999373E+02 -0.18216258769E+04  0.64381924336E+03  0.19328148892E+04  0.12699999809E+01 0.  1.
       -4    1    3    3    0  502  0.54292999373E+02  0.18216258769E+04  0.32341931071E+03  0.18509106484E+04  0.12699999809E+01 0. -1.
</event>
<event>
 5   0  0.7754556E-07  0.3609037E+04  0.7818609E-02  0.8088425E-01
       -1   -1    0    0    0  501  0.00000000000E+00  0.00000000000E+00  0.23285505729E+04  0.23285505729E+04  0.50400001928E-02 0.  1.
        1   -1    0    0  501    0  0.00000000000E+00  0.00000000000E+00 -0.13984176571E+04  0.13984176571E+04  0.50400001928E-02 0. -1.
    10030    2    1    2    0    0  0.00000000000E+00  0.00000000000E+00  0.93013291575E+03  0.37269682300E+04  0.36090365676E+04 0.  0.
        4    1    3    3  502    0 -0.13839113602E+04  0.18479686342E+03 -0.71549768916E+03  0.15688527942E+04  0.12699999809E+01 0. -1.
       -4    1    3    3    0  502  0.13839113602E+04 -0.18479686342E+03  0.16456306049E+04  0.21581154358E+04  0.12699999809E+01 0.  1.
</event>
<event>
 5   0  0.8452742E-07  0.2160971E+04  0.7818609E-02  0.8534850E-01
        1   -1    0    0  501    0  0.00000000000E+00  0.00000000000E+00  0.13231716679E+04  0.13231716679E+04  0.50400001928E-02 0.  1.
       -1   -1    0    0    0  501  0.00000000000E+00  0.00000000000E+00 -0.88231137247E+03  0.88231137249E+03  0.50400001928E-02 0. -1.
    10030    2    1    2    0    0  0.00000000000E+00  0.00000000000E+00  0.44086029538E+03  0.22054830404E+04  0.21609714578E+04 0.  0.
        1    1    3    3  502    0 -0.74306670586E+03 -0.71804141653E+03  0.54271585583E+03  0.11671641296E+04  0.50400001928E-02 0.  1.
       -1    1    3    3    0  502  0.74306670586E+03  0.71804141653E+03 -0.10185556046E+03  0.10383189108E+04  0.50400001928E-02 0. -1.
</event>
<event>
 5   0  0.2422436E-06  0.3618675E+04  0.7818609E-02  0.8086227E-01
       -2   -1    0    0    0  501  0.00000000000E+00  0.00000000000E+00  0.12719046092E+04  0.12719046092E+04  0.25500000920E-02 0. -1.
        2   -1    0    0  501    0  0.00000000000E+00  0.00000000000E+00 -0.25738579197E+04  0.25738579197E+04  0.25500000920E-02 0.  1.
    10030    2    1    2    0    0  0.00000000000E+00  0.00000000000E+00 -0.13019533105E+04  0.38457625289E+04  0.36186747582E+04 0.  0.
        2    1    3    3  502    0  0.10788948595E+04 -0.64386921579E+03 -0.20346486310E+04  0.23913127643E+04  0.25500000920E-02 0.  1.
       -2    1    3    3    0  502 -0.10788948595E+04  0.64386921579E+03  0.73269532053E+03  0.14544497646E+04  0.25500000920E-02 0. -1.
</event>
<event>
 5   0  0.2536619E-06  0.2029173E+04  0.7818609E-02  0.8593101E-01
       -2   -1    0    0    0  501  0.00000000000E+00  0.00000000000E+00  0.59240574792E+03  0.59240574793E+03  0.25500000920E-02 0. -1.
        2   -1    0    0  501    0  0.00000000000E+00  0.00000000000E+00 -0.17376372107E+04  0.17376372107E+04  0.25500000920E-02 0.  1.
    10030    2    1    2    0    0  0.00000000000E+00  0.00000000000E+00 -0.11452314628E+04  0.23300429586E+04  0.20291734982E+04 0.  0.
        1    1    3    3  502    0 -0.82818551483E+03  0.13920090732E+03  0.81111249951E+02  0.84371036171E+03  0.50400001928E-02 0. -1.
       -1    1    3    3    0  502  0.82818551483E+03 -0.13920090732E+03 -0.12263427127E+04  0.14863325969E+04  0.50400001928E-02 0.  1.
</event>
<event>
 5   0  0.1513502E-06  0.2306987E+04  0.7818609E-02  0.8475171E-01
        2   -1    0    0  501    0  0.00000000000E+00  0.00000000000E+00  0.15075084538E+04  0.15075084538E+04  0.25500000920E-02 0.  1.
       -2   -1    0    0    0  501  0.00000000000E+00  0.00000000000E+00 -0.88261347982E+03  0.88261347982E+03  0.25500000920E-02 0. -1.
    10030    2    1    2    0    0  0.00000000000E+00  0.00000000000E+00  0.62489497397E+03  0.23901219336E+04  0.23069870240E+04 0.  0.
        3    1    3    3  502    0 -0.55905882746E+03  0.53207713400E+03 -0.57570468321E+03  0.96285447580E+03  0.10100000352E+00 0. -1.
       -3    1    3    3    0  502  0.55905882746E+03 -0.53207713400E+03  0.12005996572E+04  0.14272674578E+04  0.10100000352E+00 0.  1.
</event>
<event>
 5   0  0.8423692E-07  0.3569240E+04  0.7818609E-02  0.8097574E-01
       -1   -1    0    0    0  501  0.00000000000E+00  0.00000000000E+00  0.13822195995E+04  0.13822195995E+04  0.50400001928E-02 0. -1.
        1   -1    0    0  501    0  0.00000000000E+00  0.00000000000E+00 -0.23041696575E+04  0.23041696575E+04  0.50400001928E-02 0.  1.
    10030    2    1    2    0    0  0.00000000000E+00  0.00000000000E+00 -0.92195005800E+03  0.36863892570E+04  0.35692399534E+04 0.  0.
        2    1    3    3  502    0 -0.30128244988E+03  0.13581717950E+04 -0.16154586953E+04  0.21319260155E+04  0.25500000920E-02 0.  1.
       -2    1    3    3    0  502  0.30128244988E+03 -0.13581717950E+04  0.69350863733E+03  0.15544632415E+04  0.25500000920E-02 0. -1.
</event>
<event>
 5   0  0.7754556E-07  0.3340077E+04  0.7818609E-02  0.8152772E-01
       -1   -1    0    0    0  501  0.00000000000E+00  0.00000000000E+00  0.24953074170E+04  0.24953074170E+04  0.50400001928E-02 0.  1.
        1   -1    0    0  501    0  0.00000000000E+00  0.00000000000E+00 -0.11177094996E+04  0.11177094996E+04  0.50400001928E-02 0. -1.
    10030    2    1    2    0    0  0.00000000000E+00  0.00000000000E+00  0.13775979174E+04  0.36130169166E+04  0.33400771275E+04 0.  0.
        4    1    3    3  502    0 -0.12002567866E+04 -0.87306110872E+03  0.15169836467E+04  0.21222848656E+04  0.12699999809E+01 0.  1.
       -4    1    3    3    0  502  0.12002567866E+04  0.87306110872E+03 -0.13938572930E+03  0.14907320510E+04  0.12699999809E+01 0. -1.
</event>
<event>
 5   0  0.8452742E-07  0.3579383E+04  0.7818609E-02  0.8095231E-01
        1   -1    0    0  501    0  0.00000000000E+00  0.00000000000E+00  0.11126683990E+04  0.11126683990E+04  0.50400001928E-02 0.  1.
       -1   -1    0    0    0  501  0.00000000000E+00  0.00000000000E+00 -0.28786620446E+04  0.28786620446E+04  0.50400001928E-02 0. -1.
    10030    2    1    2    0    0  0.00000000000E+00  0.00000000000E+00 -0.17659936456E+04  0.39913304436E+04  0.35793833482E+04 0.  0.
        1    1    3    3  502    0  0.29012452245E+03 -0.36118263039E+02 -0.28518533151E+04  0.28668003241E+04  0.50400001928E-02 0. -1.
       -1    1    3    3    0  502 -0.29012452245E+03  0.36118263039E+02  0.10858596696E+04  0.11245301194E+04  0.50400001928E-02 0.  1.
</event>
<event>
 5   0  0.2536619E-06  0.3221277E+04  0.7818609E-02  0.8183221E-01
        2   -1    0    0  501    0  0.00000000000E+00  0.00000000000E+00  0.21003217614E+04  0.21003217614E+04  0.25500000920E-02 0.  1.
       -2   -1    0    0    0  501  0.00000000000E+00  0.00000000000E+00 -0.12351230276E+04  0.12351230276E+04  0.25500000920E-02 0. -1.
    10030    2    1    2    0    0  0.00000000000E+00  0.00000000000E+00  0.86519873378E+03  0.33354447889E+04  0.32212766244E+04 0.  0.
        1    1    3    3  502    0  0.19621532039E+03 -0.15416881872E+04 -0.52993501052E+01  0.15541335212E+04  0.50400001928E-02 0. -1.
       -1    1    3    3    0  502 -0.19621532039E+03  0.15416881872E+04  0.87049808388E+03  0.17813112678E+04  0.50400001928E-02 0.  1.
</event>
<event>
 5   0  0.2422436E-06  0.3555874E+04  0.7818609E-02  0.8100675E-01
        2   -1    0    0  501    0  0.00000000000E+00  0.00000000000E+00  0.18154525537E+04  0.18154525537E+04  0.25500000920E-02 0. -1.
       -2   -1    0    0    0  501  0.00000000000E+00  0.00000000000E+00 -0.17411966483E+04  0.17411966483E+04  0.25500000920E-02 0.  1.
    10030    2    1    2    0    0  0.00000000000E+00  0.00000000000E+00  0.74255905410E+02  0.35566492019E+04  0.35558739581E+04 0.  0.
        2    1    3    3  502    0 -0.11017478585E+04 -0.24698019468E+03  0.14108218365E+04  0.18070046527E+04  0.25500000920E-02 0. -1.
       -2    1    3    3    0  502  0.11017478585E+04  0.24698019468E+03 -0.13365659311E+04  0.17496445492E+04  0.25500000920E-02 0.  1.
</event>
<event>
 5   0  0.2382711E-06  0.3219372E+04  0.7818609E-02  0.8183720E-01
        2   -1    0    0  501    0  0.00000000000E+00  0.00000000000E+00  0.15794908469E+04  0.15794908469E+04  0.25500000920E-02 0.  1.
       -2   -1    0    0    0  501  0.00000000000E+00  0.00000000000E+00 -0.16404585408E+04  0.16404585408E+04  0.25500000920E-02 0. -1.
    10030    2    1    2    0    0  0.00000000000E+00  0.00000000000E+00 -0.60967693931E+02  0.32199493877E+04  0.32193721437E+04 0.  0.
        5    1    3    3  502    0  0.72212476505E+03  0.14135361814E+04 -0.29796112986E+03  0.16150392061E+04  0.46999998093E+01 0. -1.
       -5    1    3    3    0  502 -0.72212476505E+03 -0.14135361814E+04  0.23699343593E+03  0.16049101816E+04  0.46999998093E+01 0.  1.
</event>
<event>
 5   0  0.2382711E-06  0.1786302E+04  0.7818609E-02  0.8713618E-01
        2   -1    0    0  501    0  0.00000000000E+00  0.00000000000E+00  0.66899955742E+03  0.66899955742E+03  0.25500000920E-02 0. -1.
       -2   -1    0    0    0  501  0.00000000000E+00  0.00000000000E+00 -0.11924060842E+04  0.11924060842E+04  0.25500000920E-02 0.  1.
    10030    2    1    2    0    0  0.00000000000E+00  0.00000000000E+00 -0.52340652674E+03  0.18614056416E+04  0.17863024857E+04 0.  0.
        5    1    3    3  502    0 -0.41763661764E+03 -0.21952060578E+03 -0.10519322461E+04  0.11529064060E+04  0.46999998093E+01 0.  1.
       -5    1    3    3    0  502  0.41763661764E+03  0.21952060578E+03  0.52852571934E+03  0.70849923554E+03  0.46999998093E+01 0. -1.
</event>
<event>
 5   0  0.1566576E-06  0.3662859E+04  0.7818609E-02  0.8076243E-01
        2   -1    0    0  501    0  0.00000000000E+00  0.00000000000E+00  0.19117809555E+04  0.19117809555E+04  0.25500000920E-02 0.  1.
       -2   -1    0    0    0  501  0.00000000000E+00  0.00000000000E+00 -0.17544554523E+04  0.17544554523E+04  0.25500000920E-02 0. -1.
    10030    2    1    2    0    0  0.00000000000E+00  0.00000000000E+00  0.15732550319E+03  0.36662364079E+04  0.36628592772E+04 0.  0.
        4    1    3    3  502    0  0.72384924694E+02  0.63431950082E+03  0.17967919582E+04  0.19068465487E+04  0.12699999809E+01 0.  1.
       -4    1    3    3    0  502 -0.72384924694E+02 -0.63431950082E+03 -0.16394664550E+04  0.17593898591E+04  0.12699999809E+01 0. -1.
</event>
<event>
 5   0  0.8452742E-07  0.1916248E+04  0.7818609E-02  0.8646811E-01
       -1   -1    0    0    0  501  0.00000000000E+00  0.00000000000E+00  0.53678987264E+03  0.53678987267E+03  0.50400001928E-02 0.  1.
        1   -1    0    0  501    0  0.00000000000E+00  0.00000000000E+00 -0.17101695808E+04  0.17101695809E+04  0.50400001928E-02 0. -1.
    10030    2    1    2    0    0  0.00000000000E+00  0.00000000000E+00 -0.11733797082E+04  0.22469594535E+04  0.19162481171E+04 0.  0.
        1    1    3    3  502    0  0.39198167645E+03 -0.67748592111E+03 -0.12346571025E+04  0.14618532651E+04  0.50400001928E-02 0. -1.
       -1    1    3    3    0  502 -0.39198167645E+03  0.67748592111E+03  0.61277394301E+02  0.78510618839E+03  0.50400001928E-02 0.  1.
</event>
<event>
 5   0  0.2536619E-06  0.3408942E+04  0.7818609E-02  0.8135715E-01
        2   -1    0    0  501    0  0.00000000000E+00  0.00000000000E+00  0.23209927469E+04  0.23209927469E+04  0.25500000920E-02 0.  1.
       -2   -1    0    0    0  501  0.00000000000E+00  0.00000000000E+00 -0.12517150445E+04  0.12517150445E+04  0.25500000920E-02 0. -1.
    10030    2    1    2    0    0  0.00000000000E+00  0.00000000000E+00  0.10692777024E+04  0.35727077914E+04  0.34089420877E+04 0.  0.
        1    1    3    3  502    0  0.48519466091E+03 -0.14867698499E+04  0.12449310004E+04  0.19989376282E+04  0.50400001928E-02 0.  1.
       -1    1    3    3    0  502 -0.48519466091E+03  0.14867698499E+04 -0.17565329802E+03  0.15737701632E+04  0.50400001928E-02 0. -1.
</event>
<event>
 5   0  0.2382711E-06  0.3130266E+04  0.7818609E-02  0.8207481E-01
       -2   -1    0    0    0  501  0.00000000000E+00  0.00000000000E+00  0.11945114658E+04  0.11945114658E+04  0.25500000920E-02 0.  1.
        2   -1    0    0  501    0  0.00000000000E+00  0.00000000000E+00 -0.20507467979E+04  0.20507467979E+04  0.25500000920E-02 0. -1.
    10030    2    1    2    0    0  0.00000000000E+00  0.00000000000E+00 -0.85623533217E+03  0.32452582637E+04  0.31302655245E+04 0.  0.
        5    1    3    3  502    0  0.71387155765E+03  0.16979564624E+03 -0.18613557828E+04  0.20007774995E+04  0.46999998093E+01 0. -1.
       -5    1    3    3    0  502 -0.71387155765E+03 -0.16979564624E+03  0.10051204506E+04  0.12444807642E+04  0.46999998093E+01 0.  1.
</event>
<event>
 5   0  0.8423692E-07  0.3588949E+04  0.7818609E-02  0.8093028E-01
       -1   -1    0    0    0  501  0.00000000000E+00  0.00000000000E+00  0.11538526756E+04  0.11538526756E+04  0.50400001928E-02 0. -1.
        1   -1    0    0  501    0  0.00000000000E+00  0.00000000000E+00 -0.27907703899E+04  0.27907703899E+04  0.50400001928E-02 0.  1.
    10030    2    1    2    0    0  0.00000000000E+00  0.00000000000E+00 -0.16369177144E+04  0.39446230655E+04  0.35889485264E+04 0.  0.
        2    1    3    3  502    0 -0.30090366390E+02 -0.47673268851E+03  0.10826897043E+04  0.11833834891E+04  0.25500000920E-02 0. -1.
       -2    1    3    3    0  502  0.30090366390E+02  0.47673268851E+03 -0.27196074187E+04  0.27612395764E+04  0.25500000920E-02 0.  1.
</event>
<event>
 5   0  0.1566576E-06  0.3392638E+04  0.7818609E-02  0.8139716E-01
        2   -1    0    0  501    0  0.00000000000E+00  0.00000000000E+00  0.17801784643E+04  0.17801784643E+04  0.25500000920E-02 0.  1.
       -2   -1    0    0    0  501  0.00000000000E+00  0.00000000000E+00 -0.16164095137E+04  0.16164095137E+04  0.25500000920E-02 0. -1.
    10030    2    1    2    0    0  0.00000000000E+00  0.00000000000E+00  0.16376895062E+03  0.33965879780E+04  0.33926375614E+04 0.  0.
        4    1    3    3  502    0 -0.42814290639E+03 -0.13998011491E+04  0.94005594617E+03  0.17396713483E+04  0.12699999809E+01 0.  1.
       -4    1    3    3    0  502  0.42814290639E+03  0.13998011491E+04 -0.77628699555E+03  0.16569166297E+04  0.12699999809E+01 0. -1.
</event>
<event>
 5   0  0.2422436E-06  0.3616748E+04  0.7818609E-02  0.8086666E-01
       -2   -1    0    0    0  501  0.00000000000E+00  0.00000000000E+00  0.13850327440E+04  0.13850327440E+04  0.25500000920E-02 0.  1.
        2   -1    0    0  501    0  0.00000000000E+00  0.00000000000E+00 -0.23611109806E+04  0.23611109806E+04  0.25500000920E-02 0. -1.
    10030    2    1    2    0    0  0.00000000000E+00  0.00000000000E+00 -0.97607823652E+03  0.37461437246E+04  0.36167477216E+04 0.  0.
        2    1    3    3  502    0 -0.43727998752E+03 -0.16865780686E+04  0.13491553453E+02  0.17423953027E+04  0.25500000920E-02 0. -1.
       -2    1    3    3    0  502  0.43727998752E+03  0.16865780686E+04 -0.98956978998E+03  0.20037484219E+04  0.25500000920E-02 0.  1.
</event>
<event>
 5   0  0.1908273E-06  0.3980670E+04  0.7818609E-02  0.8008457E-01
       -1   -1    0    0    0  501  0.00000000000E+00  0.00000000000E+00  0.28765226879E+04  0.28765226879E+04  0.50400001928E-02 0. -1.
        1   -1    0    0  501    0  0.00000000000E+00  0.00000000000E+00 -0.13771603420E+04  0.13771603420E+04  0.50400001928E-02 0.  1.
    10030    2    1    2    0    0  0.00000000000E+00  0.00000000000E+00  0.14993623458E+04  0.42536830299E+04  0.39806697772E+04 0.  0.
        3    1    3    3  502    0  0.17730872469E+04 -0.90382473763E+03  0.72150178193E+03  0.21169086832E+04  0.10100000352E+00 0.  1.
       -3    1    3    3    0  502 -0.17730872469E+04  0.90382473763E+03  0.77786056391E+03  0.21367743467E+04  0.10100000352E+00 0. -1.
</event>
<event>
 5   0  0.1513502E-06  0.3501861E+04  0.7818609E-02  0.8113349E-01
       -2   -1    0    0    0  501  0.00000000000E+00  0.00000000000E+00  0.10595066103E+04  0.10595066103E+04  0.25500000920E-02 0.  1.
        2   -1    0    0  501    0  0.00000000000E+00  0.00000000000E+00 -0.28935717525E+04  0.28935717525E+04  0.25500000920E-02 0. -1.
    10030    2    1    2    0    0  0.00000000000E+00  0.00000000000E+00 -0.18340651422E+04  0.39530783627E+04  0.35018614473E+04 0.  0.
        3    1    3    3  502    0  0.25917961903E+03 -0.56608428734E+03 -0.27643967845E+04  0.28336399008E+04  0.10100000352E+00 0. -1.
       -3    1    3    3    0  502 -0.25917961903E+03  0.56608428734E+03  0.93033164224E+03  0.11194384619E+04  0.10100000352E+00 0.  1.
</event>
<event>
 5   0  0.2422436E-06  0.3530997E+04  0.7818609E-02  0.8106483E-01
       -2   -1    0    0    0  501  0.00000000000E+00  0.00000000000E+00  0.14947090177E+04  0.14947090177E+04  0.25500000920E-02 0.  1.
        2   -1    0    0  501    0  0.00000000000E+00  0.00000000000E+00 -0.20853457740E+04  0.20853457740E+04  0.25500000920E-02 0. -1.
    10030    2    1    2    0    0  0.00000000000E+00  0.00000000000E+00 -0.59063675631E+03  0.35800547917E+04  0.35309971019E+04 0.  0.
        2    1    3    3  502    0 -0.90974142223E+03  0.45120924398E+03 -0.17596016245E+04  0.20316045664E+04  0.25500000920E-02 0. -1.
       -2    1    3    3    0  502  0.90974142223E+03 -0.45120924398E+03  0.11689648682E+04  0.15484502253E+04  0.25500000920E-02 0.  1.
</event>
<event>
 5   0  0.2382711E-06  0.1970207E+04  0.7818609E-02  0.8620678E-01
        2   -1    0    0  501    0  0.00000000000E+00  0.00000000000E+00  0.83088989218E+03  0.83088989219E+03  0.25500000920E-02 0. -1.
       -2   -1    0    0    0  501  0.00000000000E+00  0.00000000000E+00 -0.11679386552E+04  0.11679386552E+04  0.25500000920E-02 0.  1.
    10030    2    1    2    0    0  0.00000000000E+00  0.00000000000E+00 -0.33704876306E+03  0.19988285474E+04  0.19702065103E+04 0.  0.
        5    1    3    3  502    0  0.41041014234E+03  0.80777515876E+03  0.22370449445E+03  0.93327540570E+03  0.46999998093E+01 0. -1.
       -5    1    3    3    0  502 -0.41041014234E+03 -0.80777515876E+03 -0.56075325751E+03  0.10655531417E+04  0.46999998093E+01 0.  1.
</event>
<event>
 5   0  0.8452742E-07  0.3536985E+04  0.7818609E-02  0.8105081E-01
       -1   -1    0    0    0  501  0.00000000000E+00  0.00000000000E+00  0.21703117085E+04  0.21703117085E+04  0.50400001928E-02 0.  1.
        1   -1    0    0  501    0  0.00000000000E+00  0.00000000000E+00 -0.14410674069E+04  0.14410674069E+04  0.50400001928E-02 0. -1.
    10030    2    1    2    0    0  0.00000000000E+00  0.00000000000E+00  0.72924430154E+03  0.36113791154E+04  0.35369848549E+04 0.  0.
        1    1    3    3  502    0 -0.11568201728E+04 -0.10512249221E+04  0.12092201559E+04  0.19762388860E+04  0.50400001928E-02 0.  1.
       -1    1    3    3    0  502  0.11568201728E+04  0.10512249221E+04 -0.47997585439E+03  0.16351402294E+04  0.50400001928E-02 0. -1.
</event>
<event>
 5   0  0.2536619E-06  0.3321565E+04  0.7818609E-02  0.8157430E-01
       -2   -1    0    0    0  501  0.00000000000E+00  0.00000000000E+00  0.23261822086E+04  0.23261822086E+04  0.25500000920E-02 0. -1.
        2   -1    0    0  501    0  0.00000000000E+00  0.00000000000E+00 -0.11857187795E+04  0.11857187795E+04  0.25500000920E-02 0.  1.
    10030    2    1    2    0    0  0.00000000000E+00  0.00000000000E+00  0.11404634291E+04  0.35119009881E+04  0.33215646490E+04 0.  0.
        1    1    3    3  502    0 -0.97938380171E+03  0.13405428116E+04  0.52353925352E+03  0.17407874686E+04  0.50400001928E-02 0. -1.
       -1    1    3    3    0  502  0.97938380171E+03 -0.13405428116E+04  0.61692417555E+03  0.17711135195E+04  0.50400001928E-02 0.  1.
</event>
<event>
 5   0  0.8452742E-07  0.3576689E+04  0.7818609E-02  0.8095852E-01
        1   -1    0    0  501    0  0.00000000000E+00  0.00000000000E+00  0.25245695826E+04  0.25245695826E+04  0.50400001928E-02 0. -1.
       -1   -1    0    0    0  501  0.00000000000E+00  0.00000000000E+00 -0.12668202526E+04  0.12668202527E+04  0.50400001928E-02 0.  1.
    10030    2    1    2    0    0  0.00000000000E+00  0.00000000000E+00  0.12577493299E+04  0.37913898352E+04  0.35766889026E+04 0.  0.
        1    1    3    3  502    0 -0.96694065862E+03 -0.52158719506E+03 -0.86691005629E+03  0.13994857931E+04  0.50400001928E-02 0.  1.
       -1    1    3    3    0  502  0.96694065862E+03  0.52158719506E+03  0.21246593862E+04  0.23919040422E+04  0.50400001928E-02 0. -1.
</event>
<event>
 5   0  0.2422436E-06  0.3571290E+04  0.7818609E-02  0.8097100E-01
       -2   -1    0    0    0  501  0.00000000000E+00  0.00000000000E+00  0.13666797785E+04  0.13666797785E+04  0.25500000920E-02 0. -1.
        2   -1    0    0  501    0  0.00000000000E+00  0.00000000000E+00 -0.23330475254E+04  0.23330475254E+04  0.25500000920E-02 0.  1.
    10030    2    1    2    0    0  0.00000000000E+00  0.00000000000E+00 -0.96636774692E+03  0.36997273039E+04  0.35712904532E+04 0.  0.
        2    1    3    3  502    0 -0.16693376293E+04  0.25340408673E+03 -0.10851377368E+04  0.20070938343E+04  0.25500000920E-02 0. -1.
       -2    1    3    3    0  502  0.16693376293E+04 -0.25340408673E+03  0.11876998984E+03  0.16926334696E+04  0.25500000920E-02 0.  1.
</event>
<event>
 5   0  0.2536619E-06  0.3498806E+04  0.7818609E-02  0.8114073E-01
        2   -1    0    0  501    0  0.00000000000E+00  0.00000000000E+00  0.25081878397E+04  0.25081878397E+04  0.25500000920E-02 0. -1.
       -2   -1    0    0    0  501  0.00000000000E+00  0.00000000000E+00 -0.12201681304E+04  0.12201681304E+04  0.25500000920E-02 0.  1.
    10030    2    1    2    0    0  0.00000000000E+00  0.00000000000E+00  0.12880197093E+04  0.37283559701E+04  0.34988060060E+04 0.  0.
        1    1    3    3  502    0  0.47838075693E+03  0.16435832277E+04  0.25950855194E+03  0.17313459110E+04  0.50400001928E-02 0. -1.
       -1    1    3    3    0  502 -0.47838075693E+03 -0.16435832277E+04  0.10285111574E+04  0.19970100590E+04  0.50400001928E-02 0.  1.
</event>
<event>
 5   0  0.1566576E-06  0.3574039E+04  0.7818609E-02  0.8096464E-01
       -2   -1    0    0    0  501  0.00000000000E+00  0.00000000000E+00  0.10581353036E+04  0.10581353036E+04  0.25500000920E-02 0. -1.
        2   -1    0    0  501    0  0.00000000000E+00  0.00000000000E+00 -0.30179877989E+04  0.30179877989E+04  0.25500000920E-02 0.  1.
    10030    2    1    2    0    0  0.00000000000E+00  0.00000000000E+00 -0.19598524953E+04  0.40761231024E+04  0.35740394154E+04 0.  0.
        4    1    3    3  502    0  0.33850345711E+03 -0.11335105309E+04  0.54763992907E+03  0.13035880557E+04  0.12699999809E+01 0. -1.
       -4    1    3    3    0  502 -0.33850345711E+03  0.11335105309E+04 -0.25074924244E+04  0.27725350467E+04  0.12699999809E+01 0.  1.
</event>
<event>
 5   0  0.1663656E-06  0.1986068E+04  0.7818609E-02  0.8613162E-01
       -2   -1    0    0    0  501  0.00000000000E+00  0.00000000000E+00  0.59140432625E+03  0.59140432626E+03  0.25500000920E-02 0.  1.
        2   -1    0    0  501    0  0.00000000000E+00  0.00000000000E+00 -0.16674154047E+04  0.16674154047E+04  0.25500000920E-02 0. -1.
    10030    2    1    2    0    0  0.00000000000E+00  0.00000000000E+00 -0.10760110784E+04  0.22588197309E+04  0.19860681599E+04 0.  0.
        3    1    3    3  502    0  0.36713157591E+03 -0.64378604253E+03 -0.12897389256E+04  0.14875054854E+04  0.10100000352E+00 0. -1.
       -3    1    3    3    0  502 -0.36713157591E+03  0.64378604253E+03  0.21372784715E+03  0.77131424558E+03  0.10100000352E+00 0.  1.
</event>
<event>
 5   0  0.8423692E-07  0.3575393E+04  0.7818609E-02  0.8096152E-01
        1   -1    0    0  501    0  0.00000000000E+00  0.00000000000E+00  0.14199100501E+04  0.14199100502E+04  0.50400001928E-02 0.  1.
       -1   -1    0    0    0  501  0.00000000000E+00  0.00000000000E+00 -0.22507472093E+04  0.22507472093E+04  0.50400001928E-02 0. -1.
    10030    2    1    2    0    0  0.00000000000E+00  0.00000000000E+00 -0.83083715917E+03  0.36706572595E+04  0.35753928919E+04 0.  0.
        2    1    3    3  502    0 -0.50745392599E+03 -0.65284171143E+03  0.12117875418E+04  0.14670176664E+04  0.25500000920E-02 0.  1.
       -2    1    3    3    0  502  0.50745392599E+03  0.65284171143E+03 -0.20426247009E+04  0.22036395931E+04  0.25500000920E-02 0. -1.
</event>
<event>
 5   0  0.1908273E-06  0.2183061E+04  0.7818609E-02  0.8525512E-01
       -1   -1    0    0    0  501  0.00000000000E+00  0.00000000000E+00  0.83656389745E+03  0.83656389746E+03  0.50400001928E-02 0.  1.
        1   -1    0    0  501    0  0.00000000000E+00  0.00000000000E+00 -0.14242049738E+04  0.14242049738E+04  0.50400001928E-02 0. -1.
    10030    2    1    2    0    0  0.00000000000E+00  0.00000000000E+00 -0.58764107638E+03  0.22607688713E+04  0.21830606622E+04 0.  0.
        3    1    3    3  502    0  0.73374006640E+02 -0.10850603031E+04 -0.19723297341E+03  0.11052784546E+04  0.10100000352E+00 0. -1.
       -3    1    3    3    0  502 -0.73374006640E+02  0.10850603031E+04 -0.39040810298E+03  0.11554904167E+04  0.10100000352E+00 0.  1.
</event>
<event>
 5   0  0.1566576E-06  0.3743803E+04  0.7818609E-02  0.8058323E-01
        2   -1    0    0  501    0  0.00000000000E+00  0.00000000000E+00  0.16144013664E+04  0.16144013664E+04  0.25500000920E-02 0.  1.
       -2   -1    0    0    0  501  0.00000000000E+00  0.00000000000E+00 -0.21704730606E+04  0.21704730606E+04  0.25500000920E-02 0. -1.
    10030    2    1    2    0    0  0.00000000000E+00  0.00000000000E+00 -0.55607169424E+03  0.37848744270E+04  0.37438027056E+04 0.  0.
        4    1    3    3  502    0 -0.10987813349E+04  0.10645818431E+04 -0.13684594355E+04  0.20526416546E+04  0.12699999809E+01 0. -1.
       -4    1    3    3    0  502  0.10987813349E+04 -0.10645818431E+04  0.81238774121E+03  0.17322327724E+04  0.12699999809E+01 0.  1.
</event>
<event>
 5   0  0.8423692E-07  0.2136121E+04  0.7818609E-02  0.8545496E-01
        1   -1    0    0  501    0  0.00000000000E+00  0.00000000000E+00  0.20096250459E+04  0.20096250459E+04  0.50400001928E-02 0. -1.
       -1   -1    0    0    0  501  0.00000000000E+00  0.00000000000E+00 -0.56764502212E+03  0.56764502214E+03  0.50400001928E-02 0.  1.
    10030    2    1    2    0    0  0.00000000000E+00  0.00000000000E+00  0.14419800238E+04  0.25772700681E+04  0.21361213951E+04 0.  0.
        2    1    3    3  502    0 -0.40853079662E+03  0.13414887422E+01  0.19116315367E+04  0.19547977756E+04  0.25500000920E-02 0. -1.
       -2    1    3    3    0  502  0.40853079662E+03 -0.13414887422E+01 -0.46965151287E+03  0.62247229249E+03  0.25500000920E-02 0.  1.
</event>
<event>
 5   0  0.7754556E-07  0.3598977E+04  0.7818609E-02  0.8090726E-01
       -1   -1    0    0    0  501  0.00000000000E+00  0.00000000000E+00  0.15723170526E+04  0.15723170526E+04  0.50400001928E-02 0. -1.
        1   -1    0    0  501    0  0.00000000000E+00  0.00000000000E+00 -0.20594821257E+04  0.20594821257E+04  0.50400001928E-02 0.  1.
    10030    2    1    2    0    0  0.00000000000E+00  0.00000000000E+00 -0.48716507316E+03  0.36317991783E+04  0.35989770023E+04 0.  0.
        4    1    3    3  502    0  0.90468445708E+03 -0.11424181649E+04 -0.13089493425E+04  0.19588065817E+04  0.12699999809E+01 0.  1.
       -4    1    3    3    0  502 -0.90468445708E+03  0.11424181649E+04  0.82178426929E+03  0.16729925967E+04  0.12699999809E+01 0. -1.
</event>
<event>
 5   0  0.2536619E-06  0.2805627E+04  0.7818609E-02  0.8301524E-01
       -2   -1    0    0    0  501  0.00000000000E+00  0.00000000000E+00  0.16072752064E+04  0.16072752064E+04  0.25500000920E-02 0. -1.
        2   -1    0    0  501    0  0.00000000000E+00  0.00000000000E+00 -0.12243612167E+04  0.12243612167E+04  0.25500000920E-02 0.  1.
    10030    2    1    2    0    0  0.00000000000E+00  0.00000000000E+00  0.38291398968E+03  0.28316364231E+04  0.28056267944E+04 0.  0.
        1    1    3    3  502    0 -0.88794317179E+03  0.83959058615E+03 -0.50379048907E+03  0.13218019086E+04  0.50400001928E-02 0.  1.
       -1    1    3    3    0  502  0.88794317179E+03 -0.83959058615E+03  0.88670447875E+03  0.15098345145E+04  0.50400001928E-02 0. -1.
</event>
<event>
 5   0  0.1908273E-06  0.2046537E+04  0.7818609E-02  0.8585167E-01
        1   -1    0    0  501    0  0.00000000000E+00  0.00000000000E+00  0.18125551249E+04  0.18125551249E+04  0.50400001928E-02 0. -1.
       -1   -1    0    0    0  501  0.00000000000E+00  0.00000000000E+00 -0.57768113587E+03  0.57768113589E+03  0.50400001928E-02 0.  1.
    10030    2    1    2    0    0  0.00000000000E+00  0.00000000000E+00  0.12348739891E+04  0.23902362608E+04  0.20465374694E+04 0.  0.
        3    1    3    3  502    0  0.53694612385E+03  0.82370946302E+03  0.94833872892E+03  0.13660727559E+04  0.10100000352E+00 0. -1.
       -3    1    3    3    0  502 -0.53694612385E+03 -0.82370946302E+03  0.28653526015E+03  0.10241635050E+04  0.10100000352E+00 0.  1.
</event>
<event>
 5   0  0.1566576E-06  0.3549390E+04  0.7818609E-02  0.8102184E-01
        2   -1    0    0  501    0  0.00000000000E+00  0.00000000000E+00  0.19133035690E+04  0.19133035690E+04  0.25500000920E-02 0.  1.
       -2   -1    0    0    0  501  0.00000000000E+00  0.00000000000E+00 -0.16461274588E+04  0.16461274588E+04  0.25500000920E-02 0. -1.
    10030    2    1    2    0    0  0.00000000000E+00  0.00000000000E+00  0.26717611024E+03  0.35594310278E+04  0.35493895486E+04 0.  0.
        4    1    3    3  502    0  0.43088091298E+03  0.17056179844E+04 -0.10105864617E+03  0.17621025886E+04  0.12699999809E+01 0. -1.
       -4    1    3    3    0  502 -0.43088091298E+03 -0.17056179844E+04  0.36823475641E+03  0.17973284393E+04  0.12699999809E+01 0.  1.
</event>
<event>
 5   0  0.1566576E-06  0.2768419E+04  0.7818609E-02  0.8313141E-01
        2   -1    0    0  501    0  0.00000000000E+00  0.00000000000E+00  0.13829053547E+04  0.13829053547E+04  0.25500000920E-02 0. -1.
       -2   -1    0    0    0  501  0.00000000000E+00  0.00000000000E+00 -0.13855148516E+04  0.13855148516E+04  0.25500000920E-02 0.  1.
    10030    2    1    2    0    0  0.00000000000E+00  0.00000000000E+00 -0.26094968603E+01  0.27684202063E+04  0.27684189765E+04 0.  0.
        4    1    3    3  502    0  0.59006968268E+03  0.10070819186E+02 -0.12534038003E+04  0.13853903245E+04  0.12699999809E+01 0.  1.
       -4    1    3    3    0  502 -0.59006968268E+03 -0.10070819186E+02  0.12507943034E+04  0.13830298819E+04  0.12699999809E+01 0. -1.
</event>
<event>
 5   0  0.2536619E-06  0.2076499E+04  0.7818609E-02  0.8571667E-01
        2   -1    0    0  501    0  0.00000000000E+00  0.00000000000E+00  0.14238208645E+04  0.14238208645E+04  0.25500000920E-02 0. -1.
       -2   -1    0    0    0  501  0.00000000000E+00  0.00000000000E+00 -0.75709110171E+03  0.75709110171E+03  0.25500000920E-02 0.  1.
    10030    2    1    2    0    0  0.00000000000E+00  0.00000000000E+00  0.66672976280E+03  0.21809119662E+04  0.20764990797E+04 0.  0.
        1    1    3    3  502    0 -0.41937235979E+03  0.45307768790E+03 -0.54336021048E+03  0.82243108270E+03  0.50400001928E-02 0.  1.
       -1    1    3    3    0  502  0.41937235979E+03 -0.45307768790E+03  0.12100899733E+04  0.13584808835E+04  0.50400001928E-02 0. -1.
</event>
<event>
 5   0  0.2422436E-06  0.2635935E+04  0.7818609E-02  0.8356096E-01
        2   -1    0    0  501    0  0.00000000000E+00  0.00000000000E+00  0.10125093116E+04  0.10125093116E+04  0.25500000920E-02 0. -1.
       -2   -1    0    0    0  501  0.00000000000E+00  0.00000000000E+00 -0.17155774562E+04  0.17155774562E+04  0.25500000920E-02 0.  1.
    10030    2    1    2    0    0  0.00000000000E+00  0.00000000000E+00 -0.70306814454E+03  0.27280867678E+04  0.26359348620E+04 0.  0.
        2    1    3    3  502    0  0.36395139594E+03  0.12597775072E+04 -0.21447254836E+03  0.13287206103E+04  0.25500000920E-02 0. -1.
       -2    1    3    3    0  502 -0.36395139594E+03 -0.12597775072E+04 -0.48859559618E+03  0.13993661575E+04  0.25500000920E-02 0.  1.
</event>
<event>
 5   0  0.2536619E-06  0.3627675E+04  0.7818609E-02  0.8084182E-01
       -2   -1    0    0    0  501  0.00000000000E+00  0.00000000000E+00  0.18150554322E+04  0.18150554322E+04  0.25500000920E-02 0. -1.
        2   -1    0    0  501    0  0.00000000000E+00  0.00000000000E+00 -0.18126208337E+04  0.18126208337E+04  0.25500000920E-02 0.  1.
    10030    2    1    2    0    0  0.00000000000E+00  0.00000000000E+00  0.24345985162E+01  0.36276762660E+04  0.36276754490E+04 0.  0.
        1    1    3    3  502    0 -0.11637616499E+04  0.16885582313E+03 -0.13797804137E+04  0.18129113207E+04  0.50400001928E-02 0.  1.
       -1    1    3    3    0  502  0.11637616499E+04 -0.16885582313E+03  0.13822150122E+04  0.18147649453E+04  0.50400001928E-02 0. -1.
</event>
<event>
 5   0  0.1513502E-06  0.2736921E+04  0.7818609E-02  0.8323124E-01
        2   -1    0    0  501    0  0.00000000000E+00  0.00000000000E+00  0.13560806759E+04  0.13560806759E+04  0.25500000920E-02 0. -1.
       -2   -1    0    0    0  501  0.00000000000E+00  0.00000000000E+00 -0.13809537769E+04  0.13809537769E+04  0.25500000920E-02 0.  1.
    10030    2    1    2    0    0  0.00000000000E+00  0.00000000000E+00 -0.24873101017E+02  0.27370344529E+04  0.27369214320E+04 0.  0.
        3    1    3    3  502    0 -0.65524222490E+03  0.42623024122E+03  0.11108507379E+04  0.13583092299E+04  0.10100000352E+00 0. -1.
       -3    1    3    3    0  502  0.65524222490E+03 -0.42623024122E+03 -0.11357238390E+04  0.13787252230E+04  0.10100000352E+00 0.  1.
</event>
<event>
 5   0  0.2422436E-06  0.3630862E+04  0.7818609E-02  0.8083459E-01
        2   -1    0    0  501    0  0.00000000000E+00  0.00000000000E+00  0.13605613214E+04  0.13605613214E+04  0.25500000920E-02 0. -1.
       -2   -1    0    0    0  501  0.00000000000E+00  0.00000000000E+00 -0.24223746580E+04  0.24223746580E+04  0.25500000920E-02 0.  1.
    10030    2    1    2    0    0  0.00000000000E+00  0.00000000000E+00 -0.10618133366E+04  0.37829359794E+04  0.36308617520E+04 0.  0.
        2    1    3    3  502    0  0.95453796526E+03 -0.10340883836E+04 -0.17258105406E+04  0.22268595677E+04  0.25500000920E-02 0.  1.
       -2    1    3    3    0  502 -0.95453796526E+03  0.10340883836E+04  0.66399720394E+03  0.15560764117E+04  0.25500000920E-02 0. -1.
</event>
<event>
 5   0  0.8452742E-07  0.3560237E+04  0.7818609E-02  0.8099661E-01
       -1   -1    0    0    0  501  0.00000000000E+00  0.00000000000E+00  0.19539072537E+04  0.19539072537E+04  0.50400001928E-02 0. -1.
        1   -1    0    0  501    0  0.00000000000E+00  0.00000000000E+00 -0.16217874045E+04  0.16217874045E+04  0.50400001928E-02 0.  1.
    10030    2    1    2    0    0  0.00000000000E+00  0.00000000000E+00  0.33211984927E+03  0.35756946582E+04  0.35602371683E+04 0.  0.
        1    1    3    3  502    0 -0.12517478191E+04 -0.12169053020E+04  0.51555215951E+03  0.18203090798E+04  0.50400001928E-02 0.  1.
       -1    1    3    3    0  502  0.12517478191E+04  0.12169053020E+04 -0.18343231024E+03  0.17553855785E+04  0.50400001928E-02 0. -1.
</event>
<event>
 5   0  0.7754556E-07  0.3227621E+04  0.7818609E-02  0.8181560E-01
       -1   -1    0    0    0  501  0.00000000000E+00  0.00000000000E+00  0.16631230209E+04  0.16631230209E+04  0.50400001928E-02 0.  1.
        1   -1    0    0  501    0  0.00000000000E+00  0.00000000000E+00 -0.15659604296E+04  0.15659604296E+04  0.50400001928E-02 0. -1.
    10030    2    1    2    0    0  0.00000000000E+00  0.00000000000E+00  0.97162591245E+02  0.32290834505E+04  0.32276213163E+04 0.  0.
        4    1    3    3  502    0  0.78899239127E+03  0.13867437582E+04 -0.19404863503E+03  0.16072410304E+04  0.12699999809E+01 0.  1.
       -4    1    3    3    0  502 -0.78899239127E+03 -0.13867437582E+04  0.29121122627E+03  0.16218424201E+04  0.12699999809E+01 0. -1.
</event>
<event>
 5   0  0.1566576E-06  0.3614394E+04  0.7818609E-02  0.8087202E-01
       -2   -1    0    0    0  501  0.00000000000E+00  0.00000000000E+00  0.19942772198E+04  0.19942772198E+04  0.25500000920E-02 0.  1.
        2   -1    0    0  501    0  0.00000000000E+00  0.00000000000E+00 -0.16376668272E+04  0.16376668272E+04  0.25500000920E-02 0. -1.
    10030    2    1    2    0    0  0.00000000000E+00  0.00000000000E+00  0.35661039254E+03  0.36319440470E+04  0.36143943598E+04 0.  0.
        4    1    3    3  502    0 -0.89246899605E+03  0.57355272467E+03 -0.12918421488E+04  0.16716223818E+04  0.12699999809E+01 0. -1.
       -4    1    3    3    0  502  0.89246899605E+03 -0.57355272467E+03  0.16484525414E+04  0.19603216652E+04  0.12699999809E+01 0.  1.
</event>
<event>
 5   0  0.1513502E-06  0.3458605E+04  0.7818609E-02  0.8123671E-01
        2   -1    0    0  501    0  0.00000000000E+00  0.00000000000E+00  0.17997353364E+04  0.17997353364E+04  0.25500000920E-02 0. -1.
       -2   -1    0    0    0  501  0.00000000000E+00  0.00000000000E+00 -0.16616258708E+04  0.16616258708E+04  0.25500000920E-02 0.  1.
    10030    2    1    2    0    0  0.00000000000E+00  0.00000000000E+00  0.13810946560E+03  0.34613612071E+04  0.34586048027E+04 0.  0.
        3    1    3    3  502    0  0.14764972300E+04 -0.89911296608E+03  0.23868008981E+02  0.17288776382E+04  0.10100000352E+00 0.  1.
       -3    1    3    3    0  502 -0.14764972300E+04  0.89911296608E+03  0.11424145662E+03  0.17324835689E+04  0.10100000352E+00 0. -1.
</event>
<event>
 5   0  0.1513502E-06  0.2500619E+04  0.7818609E-02  0.8402765E-01
       -2   -1    0    0    0  501  0.00000000000E+00  0.00000000000E+00  0.88559647792E+03  0.88559647792E+03  0.25500000920E-02 0. -1.
        2   -1    0    0  501    0  0.00000000000E+00  0.00000000000E+00 -0.17652218641E+04  0.17652218641E+04  0.25500000920E-02 0.  1.
    10030    2    1    2    0    0  0.00000000000E+00  0.00000000000E+00 -0.87962538622E+03  0.26508183421E+04  0.25006193358E+04 0.  0.
        3    1    3    3  502    0  0.39704491863E+02 -0.12085743102E+04 -0.77678315074E+03  0.14372266291E+04  0.10100000352E+00 0.  1.
       -3    1    3    3    0  502 -0.39704491863E+02  0.12085743102E+04 -0.10284223548E+03  0.12135917129E+04  0.10100000352E+00 0. -1.
</event>
<event>
 5   0  0.8423692E-07  0.3577825E+04  0.7818609E-02  0.8095590E-01
        1   -1    0    0  501    0  0.00000000000E+00  0.00000000000E+00  0.13250144148E+04  0.13250144148E+04  0.50400001928E-02 0. -1.
       -1   -1    0    0    0  501  0.00000000000E+00  0.00000000000E+00 -0.24152248967E+04  0.24152248967E+04  0.50400001928E-02 0.  1.
    10030    2    1    2    0    0  0.00000000000E+00  0.00000000000E+00 -0.10902104818E+04  0.37402393115E+04  0.35778249276E+04 0.  0.
        2    1    3    3  502    0 -0.26406420422E+03  0.87727065970E+03  0.10611579893E+04  0.14019236757E+04  0.25500000920E-02 0. -1.
       -2    1    3    3    0  502  0.26406420422E+03 -0.87727065970E+03 -0.21513684711E+04  0.23383156358E+04  0.25500000920E-02 0.  1.
</event>
<event>
 5   0  0.1634374E-06  0.2203637E+04  0.7818609E-02  0.8516916E-01
        1   -1    0    0  501    0  0.00000000000E+00  0.00000000000E+00  0.66371434459E+03  0.66371434461E+03  0.50400001928E-02 0.  1.
       -1   -1    0    0    0  501  0.00000000000E+00  0.00000000000E+00 -0.18291066294E+04  0.18291066294E+04  0.50400001928E-02 0. -1.
    10030    2    1    2    0    0  0.00000000000E+00  0.00000000000E+00 -0.11653922848E+04  0.24928209740E+04  0.22036372730E+04 0.  0.
        5    1    3    3  502    0 -0.96113644237E+03  0.27960580911E+03 -0.11035776425E+04  0.14899222706E+04  0.46999998093E+01 0. -1.
       -5    1    3    3    0  502  0.96113644237E+03 -0.27960580911E+03 -0.61814642279E+02  0.10028987034E+04  0.46999998093E+01 0.  1.
</event>
<event>
 5   0  0.2536619E-06  0.3083209E+04  0.7818609E-02  0.8220361E-01
        2   -1    0    0  501    0  0.00000000000E+00  0.00000000000E+00  0.25060346782E+04  0.25060346782E+04  0.25500000920E-02 0. -1.
       -2   -1    0    0    0  501  0.00000000000E+00  0.00000000000E+00 -0.94832851846E+03  0.94832851847E+03  0.25500000920E-02 0.  1.
    10030    2    1    2    0    0  0.00000000000E+00  0.00000000000E+00  0.15577061597E+04  0.34543631967E+04  0.30832088178E+04 0.  0.
        1    1    3    3  502    0 -0.90080721838E+03  0.12510047922E+04  0.76898873199E+03  0.17227333818E+04  0.50400001928E-02 0. -1.
       -1    1    3    3    0  502  0.90080721838E+03 -0.12510047922E+04  0.78871742775E+03  0.17316298149E+04  0.50400001928E-02 0.  1.
</event>
<event>
 5   0  0.1566576E-06  0.3561897E+04  0.7818609E-02  0.8099276E-01
        2   -1    0    0  501    0  0.00000000000E+00  0.00000000000E+00  0.15842503674E+04  0.15842503674E+04  0.25500000920E-02 0.  1.
       -2   -1    0    0    0  501  0.00000000000E+00  0.00000000000E+00 -0.20020682254E+04  0.20020682254E+04  0.25500000920E-02 0. -1.
    10030    2    1    2    0    0  0.00000000000E+00  0.00000000000E+00 -0.41781785802E+03  0.35863185928E+04  0.35618968664E+04 0.  0.
        4    1    3    3  502    0  0.13612718047E+03  0.15009948972E+04  0.74641655716E+03  0.16818607494E+04  0.12699999809E+01 0. -1.
       -4    1    3    3    0  502 -0.13612718047E+03 -0.15009948972E+04 -0.11642344152E+04  0.19044578434E+04  0.12699999809E+01 0.  1.
</event>
<event>
 5   0  0.2422436E-06  0.3558060E+04  0.7818609E-02  0.8100167E-01
       -2   -1    0    0    0  501  0.00000000000E+00  0.00000000000E+00  0.17137198151E+04  0.17137198151E+04  0.25500000920E-02 0. -1.
        2   -1    0    0  501    0  0.00000000000E+00  0.00000000000E+00 -0.18468289567E+04  0.18468289567E+04  0.25500000920E-02 0.  1.
    10030    2    1    2    0    0  0.00000000000E+00  0.00000000000E+00 -0.13310914153E+03  0.35605487718E+04  0.35580597961E+04 0.  0.
        2    1    3    3  502    0  0.50042574944E+03  0.13843051529E+04  0.93325428775E+03  0.17428970861E+04  0.25500000920E-02 0. -1.
       -2    1    3    3    0  502 -0.50042574944E+03 -0.13843051529E+04 -0.10663634293E+04  0.18176516857E+04  0.25500000920E-02 0.  1.
</event>
<event>
 5   0  0.2422436E-06  0.3614484E+04  0.7818609E-02  0.8087182E-01
       -2   -1    0    0    0  501  0.00000000000E+00  0.00000000000E+00  0.32023349045E+04  0.32023349045E+04  0.25500000920E-02 0. -1.
        2   -1    0    0  501    0  0.00000000000E+00  0.00000000000E+00 -0.10199195743E+04  0.10199195743E+04  0.25500000920E-02 0.  1.
    10030    2    1    2    0    0  0.00000000000E+00  0.00000000000E+00  0.21824153302E+04  0.42222544788E+04  0.36144842246E+04 0.  0.
        2    1    3    3  502    0 -0.15492819625E+04  0.59876387985E+03  0.25916827515E+03  0.16810594808E+04  0.25500000920E-02 0. -1.
       -2    1    3    3    0  502  0.15492819625E+04 -0.59876387985E+03  0.19232470551E+04  0.25411949980E+04  0.25500000920E-02 0.  1.
</event>
<event>
 5   0  0.2382711E-06  0.3146855E+04  0.7818609E-02  0.8202995E-01
       -2   -1    0    0    0  501  0.00000000000E+00  0.00000000000E+00  0.18220419087E+04  0.18220419087E+04  0.25500000920E-02 0. -1.
        2   -1    0    0  501    0  0.00000000000E+00  0.00000000000E+00 -0.13587357567E+04  0.13587357567E+04  0.25500000920E-02 0.  1.
    10030    2    1    2    0    0  0.00000000000E+00  0.00000000000E+00  0.46330615202E+03  0.31807776655E+04  0.31468546148E+04 0.  0.
        5    1    3    3  502    0  0.54110119493E+03 -0.13950078689E+04 -0.26022817619E+03  0.15187423254E+04  0.46999998093E+01 0. -1.
       -5    1    3    3    0  502 -0.54110119493E+03  0.13950078689E+04  0.72353432822E+03  0.16620353400E+04  0.46999998093E+01 0.  1.
</event>
<event>
 5   0  0.8452742E-07  0.3452809E+04  0.7818609E-02  0.8125065E-01
       -1   -1    0    0    0  501  0.00000000000E+00  0.00000000000E+00  0.19030622415E+04  0.19030622415E+04  0.50400001928E-02 0.  1.
        1   -1    0    0  501    0  0.00000000000E+00  0.00000000000E+00 -0.15661460136E+04  0.15661460137E+04  0.50400001928E-02 0. -1.
    10030    2    1    2    0    0  0.00000000000E+00  0.00000000000E+00  0.33691622786E+03  0.34692082552E+04  0.34528094898E+04 0.  0.
        1    1    3    3  502    0 -0.23581664556E+03  0.20336879232E+03 -0.15376954118E+04  0.15689090272E+04  0.50400001928E-02 0. -1.
       -1    1    3    3    0  502  0.23581664556E+03 -0.20336879232E+03  0.18746116397E+04  0.19002992280E+04  0.50400001928E-02 0.  1.
</event>
<event>
 5   0  0.1513502E-06  0.3648803E+04  0.7818609E-02  0.8079403E-01
        2   -1    0    0  501    0  0.00000000000E+00  0.00000000000E+00  0.19019637869E+04  0.19019637869E+04  0.25500000920E-02 0. -1.
       -2   -1    0    0    0  501  0.00000000000E+00  0.00000000000E+00 -0.17500019296E+04  0.17500019296E+04  0.25500000920E-02 0.  1.
    10030    2    1    2    0    0  0.00000000000E+00  0.00000000000E+00  0.15196185737E+03  0.36519657165E+04  0.36488027061E+04 0.  0.
        3    1    3    3  502    0 -0.11839212414E+03  0.13776136971E+04  0.12672244637E+04  0.18755516643E+04  0.10100000352E+00 0. -1.
       -3    1    3    3    0  502  0.11839212414E+03 -0.13776136971E+04 -0.11152626064E+04  0.17764140522E+04  0.10100000352E+00 0.  1.
</event>
<event>
 5   0  0.1566576E-06  0.3672441E+04  0.7818609E-02  0.8074097E-01
        2   -1    0    0  501    0  0.00000000000E+00  0.00000000000E+00  0.28922437472E+04  0.28922437472E+04  0.25500000920E-02 0.  1.
       -2   -1    0    0    0  501  0.00000000000E+00  0.00000000000E+00 -0.11657751509E+04  0.11657751509E+04  0.25500000920E-02 0. -1.
    10030    2    1    2    0    0  0.00000000000E+00  0.00000000000E+00  0.17264685962E+04  0.40580188981E+04  0.36724410905E+04 0.  0.
        4    1    3    3  502    0 -0.51196550986E+03  0.37566469471E+03 -0.10405847980E+04  0.12190369071E+04  0.12699999809E+01 0. -1.
       -4    1    3    3    0  502  0.51196550986E+03 -0.37566469471E+03  0.27670533942E+04  0.28389819910E+04  0.12699999809E+01 0.  1.
</event>
<event>
 5   0  0.8423692E-07  0.3557816E+04  0.7818609E-02  0.8100223E-01
        1   -1    0    0  501    0  0.00000000000E+00  0.00000000000E+00  0.22878511101E+04  0.22878511101E+04  0.50400001928E-02 0. -1.
       -1   -1    0    0    0  501  0.00000000000E+00  0.00000000000E+00 -0.13831818779E+04  0.13831818779E+04  0.50400001928E-02 0.  1.
    10030    2    1    2    0    0  0.00000000000E+00  0.00000000000E+00  0.90466923219E+03  0.36710329880E+04  0.35578162936E+04 0.  0.
        2    1    3    3  502    0 -0.82090517490E+02  0.10298625680E+04 -0.10419054867E+04  0.14672841597E+04  0.25500000920E-02 0.  1.
       -2    1    3    3    0  502  0.82090517490E+02 -0.10298625680E+04  0.19465747189E+04  0.22037488283E+04  0.25500000920E-02 0. -1.
</event>
<event>
 5   0  0.8452742E-07  0.3647558E+04  0.7818609E-02  0.8079684E-01
       -1   -1    0    0    0  501  0.00000000000E+00  0.00000000000E+00  0.11792447514E+04  0.11792447514E+04  0.50400001928E-02 0.  1.
        1   -1    0    0  501    0  0.00000000000E+00  0.00000000000E+00 -0.28205940132E+04  0.28205940132E+04  0.50400001928E-02 0. -1.
    10030    2    1    2    0    0  0.00000000000E+00  0.00000000000E+00 -0.16413492619E+04  0.39998387646E+04  0.36475584634E+04 0.  0.
        1    1    3    3  502    0 -0.64676945803E+03 -0.83218564056E+03 -0.24528211578E+04  0.26696770038E+04  0.50400001928E-02 0. -1.
       -1    1    3    3    0  502  0.64676945803E+03  0.83218564056E+03  0.81147189594E+03  0.13301617609E+04  0.50400001928E-02 0.  1.
</event>
<event>
 5   0  0.1513502E-06  0.3578543E+04  0.7818609E-02  0.8095424E-01
       -2   -1    0    0    0  501  0.00000000000E+00  0.00000000000E+00  0.16387118768E+04  0.16387118768E+04  0.25500000920E-02 0. -1.
        2   -1    0    0  501    0  0.00000000000E+00  0.00000000000E+00 -0.19536640024E+04  0.19536640024E+04  0.25500000920E-02 0.  1.
    10030    2    1    2    0    0  0.00000000000E+00  0.00000000000E+00 -0.31495212563E+03  0.35923758792E+04  0.35785429460E+04 0.  0.
        3    1    3    3  502    0 -0.13973623642E+04  0.89706395154E+03 -0.82649582341E+03  0.18548424910E+04  0.10100000352E+00 0.  1.
       -3    1    3    3    0  502  0.13973623642E+04 -0.89706395154E+03  0.51154369779E+03  0.17375333882E+04  0.10100000352E+00 0. -1.
</event>
<event>
 5   0  0.2382711E-06  0.3558419E+04  0.7818609E-02  0.8100083E-01
       -2   -1    0    0    0  501  0.00000000000E+00  0.00000000000E+00  0.16066304212E+04  0.16066304212E+04  0.25500000920E-02 0.  1.
        2   -1    0    0  501    0  0.00000000000E+00  0.00000000000E+00 -0.19703263603E+04  0.19703263603E+04  0.25500000920E-02 0. -1.
    10030    2    1    2    0    0  0.00000000000E+00  0.00000000000E+00 -0.36369593913E+03  0.35769567815E+04  0.35584189018E+04 0.  0.
        5    1    3    3  502    0 -0.16615031441E+04  0.19277014935E+03 -0.79148181028E+03  0.18504644213E+04  0.46999998093E+01 0. -1.
       -5    1    3    3    0  502  0.16615031441E+04 -0.19277014935E+03  0.42778587115E+03  0.17264923602E+04  0.46999998093E+01 0.  1.
</event>
<event>
 5   0  0.2422436E-06  0.1882724E+04  0.7818609E-02  0.8663504E-01
        2   -1    0    0  501    0  0.00000000000E+00  0.00000000000E+00  0.12740980680E+04  0.12740980680E+04  0.25500000920E-02 0.  1.
       -2   -1    0    0    0  501  0.00000000000E+00  0.00000000000E+00 -0.69552133630E+03  0.69552133630E+03  0.25500000920E-02 0. -1.
    10030    2    1    2    0    0  0.00000000000E+00  0.00000000000E+00  0.57857673173E+03  0.19696194043E+04  0.18827239743E+04 0.  0.
        2    1    3    3  502    0  0.87306569060E+03  0.12346132784E+03  0.63416396380E+03  0.10861170897E+04  0.25500000920E-02 0.  1.
       -2    1    3    3    0  502 -0.87306569060E+03 -0.12346132784E+03 -0.55587232069E+02  0.88350231462E+03  0.25500000920E-02 0. -1.
</event>
<event>
 5   0  0.1566576E-06  0.3426723E+04  0.7818609E-02  0.8131379E-01
       -2   -1    0    0    0  501  0.00000000000E+00  0.00000000000E+00  0.12495635674E+04  0.12495635674E+04  0.25500000920E-02 0.  1.
        2   -1    0    0  501    0  0.00000000000E+00  0.00000000000E+00 -0.23493057807E+04  0.23493057807E+04  0.25500000920E-02 0. -1.
    10030    2    1    2    0    0  0.00000000000E+00  0.00000000000E+00 -0.10997422133E+04  0.35988693481E+04  0.34267225813E+04 0.  0.
        4    1    3    3  502    0 -0.30443727037E+03 -0.16810861647E+04 -0.68629095341E+03  0.18411218401E+04  0.12699999809E+01 0. -1.
       -4    1    3    3    0  502  0.30443727037E+03  0.16810861647E+04 -0.41345125985E+03  0.17577475080E+04  0.12699999809E+01 0.  1.
</event>
<event>
 5   0  0.7754556E-07  0.3716491E+04  0.7818609E-02  0.8064317E-01
        1   -1    0    0  501    0  0.00000000000E+00  0.00000000000E+00  0.13926566562E+04  0.13926566563E+04  0.50400001928E-02 0. -1.
       -1   -1    0    0    0  501  0.00000000000E+00  0.00000000000E+00 -0.24794888917E+04  0.24794888917E+04  0.50400001928E-02 0.  1.
    10030    2    1    2    0    0  0.00000000000E+00  0.00000000000E+00 -0.10868322355E+04  0.38721455480E+04  0.37164911996E+04 0.  0.
        4    1    3    3  502    0  0.76952567332E+03  0.73913244747E+03 -0.21285117371E+04  0.23809767669E+04  0.12699999809E+01 0.  1.
       -4    1    3    3    0  502 -0.76952567332E+03 -0.73913244747E+03  0.10416795016E+04  0.14911687811E+04  0.12699999809E+01 0. -1.
</event>
<event>
 5   0  0.7754556E-07  0.2211485E+04  0.7818609E-02  0.8513663E-01
        1   -1    0    0  501    0  0.00000000000E+00  0.00000000000E+00  0.73656711916E+03  0.73656711917E+03  0.50400001928E-02 0.  1.
       -1   -1    0    0    0  501  0.00000000000E+00  0.00000000000E+00 -0.16599532718E+04  0.16599532718E+04  0.50400001928E-02 0. -1.
    10030    2    1    2    0    0  0.00000000000E+00  0.00000000000E+00 -0.92338615266E+03  0.23965203910E+04  0.22114854731E+04 0.  0.
        4    1    3    3  502    0 -0.58360654190E+03 -0.56923122863E+01 -0.14794411495E+04  0.15904014354E+04  0.12699999809E+01 0. -1.
       -4    1    3    3    0  502  0.58360654190E+03  0.56923122863E+01  0.55605499680E+03  0.80611895558E+03  0.12699999809E+01 0.  1.
</event>
<event>
 5   0  0.1908273E-06  0.2099283E+04  0.7818609E-02  0.8561559E-01
        1   -1    0    0  501    0  0.00000000000E+00  0.00000000000E+00  0.80527771990E+03  0.80527771991E+03  0.50400001928E-02 0.  1.
       -1   -1    0    0    0  501  0.00000000000E+00  0.00000000000E+00 -0.13681579237E+04  0.13681579237E+04  0.50400001928E-02 0. -1.
    10030    2    1    2    0    0  0.00000000000E+00  0.00000000000E+00 -0.56288020382E+03  0.21734356436E+04  0.20992828235E+04 0.  0.
        3    1    3    3  502    0 -0.13007221448E+03  0.99776843362E+03  0.27923077750E+02  0.10065983989E+04  0.10100000352E+00 0.  1.
       -3    1    3    3    0  502  0.13007221448E+03 -0.99776843362E+03 -0.59080328157E+03  0.11668372448E+04  0.10100000352E+00 0. -1.
</event>
<event>
 5   0  0.1566576E-06  0.3646587E+04  0.7818609E-02  0.8079903E-01
        2   -1    0    0  501    0  0.00000000000E+00  0.00000000000E+00  0.26794971925E+04  0.26794971925E+04  0.25500000920E-02 0.  1.
       -2   -1    0    0    0  501  0.00000000000E+00  0.00000000000E+00 -0.12406802359E+04  0.12406802359E+04  0.25500000920E-02 0. -1.
    10030    2    1    2    0    0  0.00000000000E+00  0.00000000000E+00  0.14388169566E+04  0.39201774283E+04  0.36465870119E+04 0.  0.
        4    1    3    3  502    0  0.11804349740E+04 -0.47678100658E+03  0.21225756842E+04  0.24750911103E+04  0.12699999809E+01 0.  1.
       -4    1    3    3    0  502 -0.11804349740E+04  0.47678100658E+03 -0.68375872765E+03  0.14450863180E+04  0.12699999809E+01 0. -1.
</event>
<event>
 5   0  0.1566576E-06  0.3563246E+04  0.7818609E-02  0.8098963E-01
       -2   -1    0    0    0  501  0.00000000000E+00  0.00000000000E+00  0.10885720616E+04  0.10885720616E+04  0.25500000920E-02 0. -1.
        2   -1    0    0  501    0  0.00000000000E+00  0.00000000000E+00 -0.29159116022E+04  0.29159116022E+04  0.25500000920E-02 0.  1.
    10030    2    1    2    0    0  0.00000000000E+00  0.00000000000E+00 -0.18273395405E+04  0.40044836638E+04  0.35632456577E+04 0.  0.
        4    1    3    3  502    0  0.36765757956E+03 -0.62779639710E+03  0.91402459923E+03  0.11682221505E+04  0.12699999809E+01 0. -1.
       -4    1    3    3    0  502 -0.36765757956E+03  0.62779639710E+03 -0.27413641398E+04  0.28362615133E+04  0.12699999809E+01 0.  1.
</event>
<event>
 5   0  0.8423692E-07  0.3374070E+04  0.7818609E-02  0.8144300E-01
       -1   -1    0    0    0  501  0.00000000000E+00  0.00000000000E+00  0.15097090698E+04  0.15097090698E+04  0.50400001928E-02 0.  1.
        1   -1    0    0  501    0  0.00000000000E+00  0.00000000000E+00 -0.18851895972E+04  0.18851895972E+04  0.50400001928E-02 0. -1.
    10030    2    1    2    0    0  0.00000000000E+00  0.00000000000E+00 -0.37548052744E+03  0.33948986670E+04  0.33740704398E+04 0.  0.
        2    1    3    3  502    0 -0.12563823111E+04  0.96242307330E+03 -0.77558401327E+03  0.17624656721E+04  0.25500000920E-02 0. -1.
       -2    1    3    3    0  502  0.12563823111E+04 -0.96242307330E+03  0.40010348583E+03  0.16324329949E+04  0.25500000920E-02 0.  1.
</event>
<event>
 5   0  0.1634374E-06  0.3096995E+04  0.7818609E-02  0.8216563E-01
        1   -1    0    0  501    0  0.00000000000E+00  0.00000000000E+00  0.18542115393E+04  0.18542115393E+04  0.50400001928E-02 0. -1.
       -1   -1    0    0    0  501  0.00000000000E+00  0.00000000000E+00 -0.12931882156E+04  0.12931882156E+04  0.50400001928E-02 0.  1.
    10030    2    1    2    0    0  0.00000000000E+00  0.00000000000E+00  0.56102332372E+03  0.31473997550E+04  0.30969950029E+04 0.  0.
        5    1    3    3  502    0 -0.33375162285E+03 -0.13862848776E+04 -0.33317606134E+03  0.14643101739E+04  0.46999998093E+01 0.  1.
       -5    1    3    3    0  502  0.33375162285E+03  0.13862848776E+04  0.89419938506E+03  0.16830895810E+04  0.46999998093E+01 0. -1.
</event>
<event>
 5   0  0.1566576E-06  0.3075240E+04  0.7818609E-02  0.8222566E-01
       -2   -1    0    0    0  501  0.00000000000E+00  0.00000000000E+00  0.86291770631E+03  0.86291770632E+03  0.25500000920E-02 0. -1.
        2   -1    0    0  501    0  0.00000000000E+00  0.00000000000E+00 -0.27398613823E+04  0.27398613823E+04  0.25500000920E-02 0.  1.
    10030    2    1    2    0    0  0.00000000000E+00  0.00000000000E+00 -0.18769436760E+04  0.36027790886E+04  0.30752397628E+04 0.  0.
        4    1    3    3  502    0  0.41846219300E+03 -0.23579585946E+03  0.77276998830E+03  0.90988205941E+03  0.12699999809E+01 0. -1.
       -4    1    3    3    0  502 -0.41846219300E+03  0.23579585946E+03 -0.26497136643E+04  0.26928970292E+04  0.12699999809E+01 0.  1.
</event>
<event>
 5   0  0.8452742E-07  0.3277015E+04  0.7818609E-02  0.8168769E-01
       -1   -1    0    0    0  501  0.00000000000E+00  0.00000000000E+00  0.11012897149E+04  0.11012897149E+04  0.50400001928E-02 0.  1.
        1   -1    0    0  501    0  0.00000000000E+00  0.00000000000E+00 -0.24377846465E+04  0.24377846465E+04  0.50400001928E-02 0. -1.
    10030    2    1    2    0    0  0.00000000000E+00  0.00000000000E+00 -0.13364949317E+04  0.35390743614E+04  0.32770152018E+04 0.  0.
        1    1    3    3  502    0 -0.38396078759E+02 -0.17352339139E+03 -0.24273448623E+04  0.24338421697E+04  0.50400001928E-02 0. -1.
       -1    1    3    3    0  502  0.38396078759E+02  0.17352339139E+03  0.10908499307E+04  0.11052321917E+04  0.50400001928E-02 0.  1.
</event>
<event>
 5   0  0.2422436E-06  0.3682568E+04  0.7818609E-02  0.8071836E-01
       -2   -1    0    0    0  501  0.00000000000E+00  0.00000000000E+00  0.12034207462E+04  0.12034207462E+04  0.25500000920E-02 0. -1.
        2   -1    0    0  501    0  0.00000000000E+00  0.00000000000E+00 -0.28172418916E+04  0.28172418916E+04  0.25500000920E-02 0.  1.
    10030    2    1    2    0    0  0.00000000000E+00  0.00000000000E+00 -0.16138211454E+04  0.40206626379E+04  0.36825683101E+04 0.  0.
        2    1    3    3  502    0  0.82992206777E+03 -0.29752567853E+02  0.98733838334E+03  0.12901522922E+04  0.25500000920E-02 0. -1.
       -2    1    3    3    0  502 -0.82992206777E+03  0.29752567853E+02 -0.26011595287E+04  0.27305103457E+04  0.25500000920E-02 0.  1.
</event>
<event>
 5   0  0.2422436E-06  0.1796135E+04  0.7818609E-02  0.8708357E-01
        2   -1    0    0  501    0  0.00000000000E+00  0.00000000000E+00  0.52273746024E+03  0.52273746025E+03  0.25500000920E-02 0.  1.
       -2   -1    0    0    0  501  0.00000000000E+00  0.00000000000E+00 -0.15428879385E+04  0.15428879385E+04  0.25500000920E-02 0. -1.
    10030    2    1    2    0    0  0.00000000000E+00  0.00000000000E+00 -0.10201504782E+04  0.20656253987E+04  0.17961350978E+04 0.  0.
        2    1    3    3  502    0  0.56382095735E+02 -0.14302965760E+03  0.50749086774E+03  0.53026729535E+03  0.25500000920E-02 0.  1.
       -2    1    3    3    0  502 -0.56382095735E+02  0.14302965760E+03 -0.15276413460E+04  0.15353581034E+04  0.25500000920E-02 0. -1.
</event>
<event>
 5   0  0.1566576E-06  0.2835393E+04  0.7818609E-02  0.8292364E-01
       -2   -1    0    0    0  501  0.00000000000E+00  0.00000000000E+00  0.12144656657E+04  0.12144656657E+04  0.25500000920E-02 0.  1.
        2   -1    0    0  501    0  0.00000000000E+00  0.00000000000E+00 -0.16549366800E+04  0.16549366800E+04  0.25500000920E-02 0. -1.
    10030    2    1    2    0    0  0.00000000000E+00  0.00000000000E+00 -0.44047101431E+03  0.28694023457E+04  0.28353932896E+04 0.  0.
        4    1    3    3  502    0  0.88139575633E+03  0.11085973035E+04 -0.15610584607E+03  0.14248568731E+04  0.12699999809E+01 0.  1.
       -4    1    3    3    0  502 -0.88139575633E+03 -0.11085973035E+04 -0.28436516824E+03  0.14445454726E+04  0.12699999809E+01 0. -1.
</event>
<event>
 5   0  0.1513502E-06  0.3124846E+04  0.7818609E-02  0.8208952E-01
        2   -1    0    0  501    0  0.00000000000E+00  0.00000000000E+00  0.79661181909E+03  0.79661181909E+03  0.25500000920E-02 0. -1.
       -2   -1    0    0    0  501  0.00000000000E+00  0.00000000000E+00 -0.30644350968E+04  0.30644350968E+04  0.25500000920E-02 0.  1.
    10030    2    1    2    0    0  0.00000000000E+00  0.00000000000E+00 -0.22678232777E+04  0.38610469159E+04  0.31248457350E+04 0.  0.
        3    1    3    3  502    0  0.60307817560E+03 -0.55981545216E+03  0.50718527563E+03  0.96660930079E+03  0.10100000352E+00 0. -1.
       -3    1    3    3    0  502 -0.60307817560E+03  0.55981545216E+03 -0.27750085534E+04  0.28944376151E+04  0.10100000352E+00 0.  1.
</event>
<event>
 5   0  0.2536619E-06  0.2504808E+04  0.7818609E-02  0.8401275E-01
        2   -1    0    0  501    0  0.00000000000E+00  0.00000000000E+00  0.22231002193E+04  0.22231002193E+04  0.25500000920E-02 0. -1.
       -2   -1    0    0    0  501  0.00000000000E+00  0.00000000000E+00 -0.70555350982E+03  0.70555350983E+03  0.25500000920E-02 0.  1.
    10030    2    1    2    0    0  0.00000000000E+00  0.00000000000E+00  0.15175467095E+04  0.29286537291E+04  0.25048083060E+04 0.  0.
        1    1    3    3  502    0 -0.12658338306E+03  0.11970903897E+04  0.35464599621E+03  0.12549193347E+04  0.50400001928E-02 0.  1.
       -1    1    3    3    0  502  0.12658338306E+03 -0.11970903897E+04  0.11629007133E+04  0.16737343944E+04  0.50400001928E-02 0. -1.
</event>
<event>
 5   0  0.1513502E-06  0.2219644E+04  0.7818609E-02  0.8510296E-01
        2   -1    0    0  501    0  0.00000000000E+00  0.00000000000E+00  0.19128683911E+04  0.19128683911E+04  0.25500000920E-02 0.  1.
       -2   -1    0    0    0  501  0.00000000000E+00  0.00000000000E+00 -0.64390461227E+03  0.64390461228E+03  0.25500000920E-02 0. -1.
    10030    2    1    2    0    0  0.00000000000E+00  0.00000000000E+00  0.12689637789E+04  0.25567730034E+04  0.22196439172E+04 0.  0.
        3    1    3    3  502    0 -0.25924756224E+03 -0.32973859873E+03 -0.54908578532E+03  0.69096458076E+03  0.10100000352E+00 0. -1.
       -3    1    3    3    0  502  0.25924756224E+03  0.32973859873E+03  0.18180495642E+04  0.18658084227E+04  0.10100000352E+00 0.  1.
</event>
<event>
 5   0  0.8423692E-07  0.3580718E+04  0.7818609E-02  0.8094923E-01
        1   -1    0    0  501    0  0.00000000000E+00  0.00000000000E+00  0.21782458054E+04  0.21782458054E+04  0.50400001928E-02 0.  1.
       -1   -1    0    0    0  501  0.00000000000E+00  0.00000000000E+00 -0.14715441433E+04  0.14715441433E+04  0.50400001928E-02 0. -1.
    10030    2    1    2    0    0  0.00000000000E+00  0.00000000000E+00  0.70670166214E+03  0.36497899488E+04  0.35807177257E+04 0.  0.
        2    1    3    3  502    0  0.14339952514E+04 -0.61759784248E+03 -0.53968651071E+03  0.16519779072E+04  0.25500000920E-02 0. -1.
       -2    1    3    3    0  502 -0.14339952514E+04  0.61759784248E+03  0.12463881728E+04  0.19978120416E+04  0.25500000920E-02 0.  1.
</event>
<event>
 5   0  0.1908273E-06  0.3173180E+04  0.7818609E-02  0.8195936E-01
       -1   -1    0    0    0  501  0.00000000000E+00  0.00000000000E+00  0.15203908238E+04  0.15203908238E+04  0.50400001928E-02 0. -1.
        1   -1    0    0  501    0  0.00000000000E+00  0.00000000000E+00 -0.16556714669E+04  0.16556714669E+04  0.50400001928E-02 0.  1.
    10030    2    1    2    0    0  0.00000000000E+00  0.00000000000E+00 -0.13528064308E+03  0.31760622907E+04  0.31731799228E+04 0.  0.
        3    1    3    3  502    0  0.13673646921E+04 -0.80074875409E+03 -0.14760611570E+03  0.15914371945E+04  0.10100000352E+00 0. -1.
       -3    1    3    3    0  502 -0.13673646921E+04  0.80074875409E+03  0.12325472629E+02  0.15846250963E+04  0.10100000352E+00 0.  1.
</event>
<event>
 5   0  0.1566576E-06  0.3588151E+04  0.7818609E-02  0.8093211E-01
       -2   -1    0    0    0  501  0.00000000000E+00  0.00000000000E+00  0.14127148534E+04  0.14127148534E+04  0.25500000920E-02 0. -1.
        2   -1    0    0  501    0  0.00000000000E+00  0.00000000000E+00 -0.22783842702E+04  0.22783842702E+04  0.25500000920E-02 0.  1.
    10030    2    1    2    0    0  0.00000000000E+00  0.00000000000E+00 -0.86566941684E+03  0.36910991236E+04  0.35881512233E+04 0.  0.
        4    1    3    3  502    0  0.14532144032E+04 -0.10373324330E+04 -0.25225617568E+03  0.18031986772E+04  0.12699999809E+01 0.  1.
       -4    1    3    3    0  502 -0.14532144032E+04  0.10373324330E+04 -0.61341324117E+03  0.18879004464E+04  0.12699999809E+01 0. -1.
</event>
<event>
 5   0  0.2422436E-06  0.2147499E+04  0.7818609E-02  0.8540603E-01
        2   -1    0    0  501    0  0.00000000000E+00  0.00000000000E+00  0.14868827224E+04  0.14868827224E+04  0.25500000920E-02 0. -1.
       -2   -1    0    0    0  501  0.00000000000E+00  0.00000000000E+00 -0.77540622999E+03  0.77540622999E+03  0.25500000920E-02 0.  1.
    10030    2    1    2    0    0  0.00000000000E+00  0.00000000000E+00  0.71147649239E+03  0.22622889524E+04  0.21474991280E+04 0.  0.
        2    1    3    3  502    0 -0.20472834351E+03  0.44758207561E+02 -0.75365365160E+03  0.78224728721E+03  0.25500000920E-02 0.  1.
       -2    1    3    3    0  502  0.20472834351E+03 -0.44758207561E+02  0.14651301440E+04  0.14800416652E+04  0.25500000920E-02 0. -1.
</event>
<event>
 5   0  0.1634374E-06  0.3636556E+04  0.7818609E-02  0.8082169E-01
        1   -1    0    0  501    0  0.00000000000E+00  0.00000000000E+00  0.17620116247E+04  0.17620116247E+04  0.50400001928E-02 0.  1.
       -1   -1    0    0    0  501  0.00000000000E+00  0.00000000000E+00 -0.18763415567E+04  0.18763415567E+04  0.50400001928E-02 0. -1.
    10030    2    1    2    0    0  0.00000000000E+00  0.00000000000E+00 -0.11432993202E+03  0.36383531815E+04  0.36365564123E+04 0.  0.
        5    1    3    3  502    0  0.21112712614E+03 -0.14340882091E+04 -0.11554003054E+04  0.18536870314E+04  0.46999998093E+01 0. -1.
       -5    1    3    3    0  502 -0.21112712614E+03  0.14340882091E+04  0.10410703734E+04  0.17846661500E+04  0.46999998093E+01 0.  1.
</event>
<event>
 5   0  0.8423692E-07  0.2151456E+04  0.7818609E-02  0.8538909E-01
       -1   -1    0    0    0  501  0.00000000000E+00  0.00000000000E+00  0.69993272025E+03  0.69993272027E+03  0.50400001928E-02 0. -1.
        1   -1    0    0  501    0  0.00000000000E+00  0.00000000000E+00 -0.16532891461E+04  0.16532891461E+04  0.50400001928E-02 0.  1.
    10030    2    1    2    0    0  0.00000000000E+00  0.00000000000E+00 -0.95335642585E+03  0.23532218664E+04  0.21514564085E+04 0.  0.
        2    1    3    3  502    0 -0.42915761978E+03 -0.91839224452E+03 -0.87039464942E+03  0.13361165455E+04  0.25500000920E-02 0.  1.
       -2    1    3    3    0  502  0.42915761978E+03  0.91839224452E+03 -0.82961776428E+02  0.10171053209E+04  0.25500000920E-02 0. -1.
</event>
<event>
 5   0  0.1513502E-06  0.3157470E+04  0.7818609E-02  0.8200140E-01
       -2   -1    0    0    0  501  0.00000000000E+00  0.00000000000E+00  0.15112254008E+04  0.15112254008E+04  0.25500000920E-02 0.  1.
        2   -1    0    0  501    0  0.00000000000E+00  0.00000000000E+00 -0.16492600009E+04  0.16492600009E+04  0.25500000920E-02 0. -1.
    10030    2    1    2    0    0  0.00000000000E+00  0.00000000000E+00 -0.13803460007E+03  0.31604854017E+04  0.31574696235E+04 0.  0.
        3    1    3    3  502    0 -0.29102056631E+03  0.51470444317E+03  0.13962080004E+04  0.15162488003E+04  0.10100000352E+00 0.  1.
       -3    1    3    3    0  502  0.29102056631E+03 -0.51470444317E+03 -0.15342426005E+04  0.16442366013E+04  0.10100000352E+00 0. -1.
</event>
<event>
 5   0  0.2382711E-06  0.3839777E+04  0.7818609E-02  0.8037672E-01
        2   -1    0    0  501    0  0.00000000000E+00  0.00000000000E+00  0.33106015815E+04  0.33106015815E+04  0.25500000920E-02 0. -1.
       -2   -1    0    0    0  501  0.00000000000E+00  0.00000000000E+00 -0.11133841148E+04  0.11133841148E+04  0.25500000920E-02 0.  1.
    10030    2    1    2    0    0  0.00000000000E+00  0.00000000000E+00  0.21972174668E+04  0.44239856963E+04  0.38397766660E+04 0.  0.
        5    1    3    3  502    0  0.61913039190E+03 -0.61806762001E+03  0.30676064353E+04  0.31899155721E+04  0.46999998093E+01 0. -1.
       -5    1    3    3    0  502 -0.61913039190E+03  0.61806762001E+03 -0.87038896852E+03  0.12340701243E+04  0.46999998093E+01 0.  1.
</event>
<event>
 5   0  0.8452742E-07  0.3625583E+04  0.7818609E-02  0.8084657E-01
       -1   -1    0    0    0  501  0.00000000000E+00  0.00000000000E+00  0.12500709145E+04  0.12500709145E+04  0.50400001928E-02 0. -1.
        1   -1    0    0  501    0  0.00000000000E+00  0.00000000000E+00 -0.26288206360E+04  0.26288206360E+04  0.50400001928E-02 0.  1.
    10030    2    1    2    0    0  0.00000000000E+00  0.00000000000E+00 -0.13787497215E+04  0.38788915506E+04  0.36255825555E+04 0.  0.
        1    1    3    3  502    0  0.21041914936E+03  0.17979466217E+04 -0.58606788306E+03  0.19027253708E+04  0.50400001928E-02 0. -1.
       -1    1    3    3    0  502 -0.21041914936E+03 -0.17979466217E+04 -0.79268183845E+03  0.19761661798E+04  0.50400001928E-02 0.  1.
</event>
<event>
 5   0  0.7754556E-07  0.3437319E+04  0.7818609E-02  0.8128807E-01
        1   -1    0    0  501    0  0.00000000000E+00  0.00000000000E+00  0.18934070409E+04  0.18934070409E+04  0.50400001928E-02 0. -1.
       -1   -1    0    0    0  501  0.00000000000E+00  0.00000000000E+00 -0.15600394812E+04  0.15600394812E+04  0.50400001928E-02 0.  1.
    10030    2    1    2    0    0  0.00000000000E+00  0.00000000000E+00  0.33336755974E+03  0.34534465221E+04  0.34373185699E+04 0.  0.
        4    1    3    3  502    0  0.16980457483E+03 -0.11744549797E+04  0.14157426700E+04  0.18472972185E+04  0.12699999809E+01 0. -1.
       -4    1    3    3    0  502 -0.16980457483E+03  0.11744549797E+04 -0.10823751103E+04  0.16061493035E+04  0.12699999809E+01 0.  1.
</event>
<event>
 5   0  0.1566576E-06  0.3644017E+04  0.7818609E-02  0.8080483E-01
        2   -1    0    0  501    0  0.00000000000E+00  0.00000000000E+00  0.12992602291E+04  0.12992602291E+04  0.25500000920E-02 0. -1.
       -2   -1    0    0    0  501  0.00000000000E+00  0.00000000000E+00 -0.25550808150E+04  0.25550808150E+04  0.25500000920E-02 0.  1.
    10030    2    1    2    0    0  0.00000000000E+00  0.00000000000E+00 -0.12558205859E+04  0.38543410442E+04  0.36440169512E+04 0.  0.
        4    1    3    3  502    0 -0.99413982234E+03 -0.51244797569E+03  0.89343789908E+03  0.14314851751E+04  0.12699999809E+01 0. -1.
       -4    1    3    3    0  502  0.99413982234E+03  0.51244797569E+03 -0.21492584850E+04  0.24228558691E+04  0.12699999809E+01 0.  1.
</event>
<event>
 5   0  0.1513502E-06  0.3361815E+04  0.7818609E-02  0.8147342E-01
       -2   -1    0    0    0  501  0.00000000000E+00  0.00000000000E+00  0.25488024617E+04  0.25488024617E+04  0.25500000920E-02 0.  1.
        2   -1    0    0  501    0  0.00000000000E+00  0.00000000000E+00 -0.11085402503E+04  0.11085402503E+04  0.25500000920E-02 0. -1.
    10030    2    1    2    0    0  0.00000000000E+00  0.00000000000E+00  0.14402622114E+04  0.36573427121E+04  0.33618150568E+04 0.  0.
        3    1    3    3  502    0 -0.55834886734E+03  0.11515881643E+04  0.19056711025E+04  0.22955372179E+04  0.10100000352E+00 0.  1.
       -3    1    3    3    0  502  0.55834886734E+03 -0.11515881643E+04 -0.46540889113E+03  0.13618054941E+04  0.10100000352E+00 0. -1.
</event>
<event>
 5   0  0.1513502E-06  0.3724246E+04  0.7818609E-02  0.8062610E-01
       -2   -1    0    0    0  501  0.00000000000E+00  0.00000000000E+00  0.19169955928E+04  0.19169955928E+04  0.25500000920E-02 0. -1.
        2   -1    0    0  501    0  0.00000000000E+00  0.00000000000E+00 -0.18088213133E+04  0.18088213133E+04  0.25500000920E-02 0.  1.
    10030    2    1    2    0    0  0.00000000000E+00  0.00000000000E+00  0.10817427946E+03  0.37258169061E+04  0.37242462248E+04 0.  0.
        3    1    3    3  502    0 -0.12646688530E+04  0.19126578996E+03 -0.12998248846E+04  0.18235993669E+04  0.10100000352E+00 0.  1.
       -3    1    3    3    0  502  0.12646688530E+04 -0.19126578996E+03  0.14079991640E+04  0.19022175392E+04  0.10100000352E+00 0. -1.
</event>
<event>
 5   0  0.1566576E-06  0.3674862E+04  0.7818609E-02  0.8073556E-01
        2   -1    0    0  501    0  0.00000000000E+00  0.00000000000E+00  0.26510411797E+04  0.26510411797E+04  0.25500000920E-02 0. -1.
       -2   -1    0    0    0  501  0.00000000000E+00  0.00000000000E+00 -0.12735194423E+04  0.12735194423E+04  0.25500000920E-02 0.  1.
    10030    2    1    2    0    0  0.00000000000E+00  0.00000000000E+00  0.13775217374E+04  0.39245606220E+04  0.36748618938E+04 0.  0.
        4    1    3    3  502    0 -0.13654355121E+04  0.85116027893E+03  0.16363278439E+04  0.22948765509E+04  0.12699999809E+01 0. -1.
       -4    1    3    3    0  502  0.13654355121E+04 -0.85116027893E+03 -0.25880610642E+03  0.16296840712E+04  0.12699999809E+01 0.  1.
</event>
<event>
 5   0  0.1566576E-06  0.3604668E+04  0.7818609E-02  0.8089423E-01
        2   -1    0    0  501    0  0.00000000000E+00  0.00000000000E+00  0.18949552472E+04  0.18949552472E+04  0.25500000920E-02 0. -1.
       -2   -1    0    0    0  501  0.00000000000E+00  0.00000000000E+00 -0.17142399012E+04  0.17142399012E+04  0.25500000920E-02 0.  1.
    10030    2    1    2    0    0  0.00000000000E+00  0.00000000000E+00  0.18071534607E+03  0.36091951484E+04  0.36046680267E+04 0.  0.
        4    1    3    3  502    0  0.23079129377E+03  0.86538065627E+03 -0.14756584113E+04  0.17261858710E+04  0.12699999809E+01 0.  1.
       -4    1    3    3    0  502 -0.23079129377E+03 -0.86538065627E+03  0.16563737574E+04  0.18830092774E+04  0.12699999809E+01 0. -1.
</event>
<event>
 5   0  0.2382711E-06  0.3510184E+04  0.7818609E-02  0.8111381E-01
       -2   -1    0    0    0  501  0.00000000000E+00  0.00000000000E+00  0.11158251725E+04  0.11158251725E+04  0.25500000920E-02 0.  1.
        2   -1    0    0  501    0  0.00000000000E+00  0.00000000000E+00 -0.27606002517E+04  0.27606002517E+04  0.25500000920E-02 0. -1.
    10030    2    1    2    0    0  0.00000000000E+00  0.00000000000E+00 -0.16447750792E+04  0.38764254242E+04  0.35101836146E+04 0.  0.
        5    1    3    3  502    0  0.12582328320E+04 -0.11934859843E+04 -0.11202853870E+04  0.20646113660E+04  0.46999998093E+01 0.  1.
       -5    1    3    3    0  502 -0.12582328320E+04  0.11934859843E+04 -0.52448969215E+03  0.18118140582E+04  0.46999998093E+01 0. -1.
</event>
<event>
 5   0  0.8452742E-07  0.3091158E+04  0.7818609E-02  0.8218169E-01
        1   -1    0    0  501    0  0.00000000000E+00  0.00000000000E+00  0.13911715687E+04  0.13911715688E+04  0.50400001928E-02 0. -1.
       -1   -1    0    0    0  501  0.00000000000E+00  0.00000000000E+00 -0.17171241344E+04  0.17171241344E+04  0.50400001928E-02 0.  1.
    10030    2    1    2    0    0  0.00000000000E+00  0.00000000000E+00 -0.32595256563E+03  0.31082957031E+04  0.30911578903E+04 0.  0.
        1    1    3    3  502    0 -0.21078568637E+03  0.92285870510E+03 -0.13915172918E+04  0.16829792538E+04  0.50400001928E-02 0.  1.
       -1    1    3    3    0  502  0.21078568637E+03 -0.92285870510E+03  0.10655647262E+04  0.14253164494E+04  0.50400001928E-02 0. -1.
</event>
<event>
 5   0  0.1513502E-06  0.3609066E+04  0.7818609E-02  0.8088418E-01
        2   -1    0    0  501    0  0.00000000000E+00  0.00000000000E+00  0.21555621552E+04  0.21555621552E+04  0.25500000920E-02 0. -1.
       -2   -1    0    0    0  501  0.00000000000E+00  0.00000000000E+00 -0.15106682360E+04  0.15106682360E+04  0.25500000920E-02 0.  1.
    10030    2    1    2    0    0  0.00000000000E+00  0.00000000000E+00  0.64489391923E+03  0.36662303912E+04  0.36090659615E+04 0.  0.
        3    1    3    3  502    0  0.66660202133E+03 -0.96308108473E+03 -0.10720511045E+04  0.15878214672E+04  0.10100000352E+00 0.  1.
       -3    1    3    3    0  502 -0.66660202133E+03  0.96308108473E+03  0.17169450238E+04  0.20784089240E+04  0.10100000352E+00 0. -1.
</event>
<event>
 5   0  0.1513502E-06  0.3509205E+04  0.7818609E-02  0.8111612E-01
        2   -1    0    0  501    0  0.00000000000E+00  0.00000000000E+00  0.19810969507E+04  0.19810969507E+04  0.25500000920E-02 0. -1.
       -2   -1    0    0    0  501  0.00000000000E+00  0.00000000000E+00 -0.15540027688E+04  0.15540027688E+04  0.25500000920E-02 0.  1.
    10030    2    1    2    0    0  0.00000000000E+00  0.00000000000E+00  0.42709418188E+03  0.35350997195E+04  0.35092051218E+04 0.  0.
        3    1    3    3  502    0 -0.15828319678E+04 -0.12112346662E+02  0.97618452251E+03  0.18596881404E+04  0.10100000352E+00 0. -1.
       -3    1    3    3    0  502  0.15828319678E+04  0.12112346662E+02 -0.54909034063E+03  0.16754115792E+04  0.10100000352E+00 0.  1.
</event>
<event>
 5   0  0.8423692E-07  0.3479427E+04  0.7818609E-02  0.8118683E-01
       -1   -1    0    0    0  501  0.00000000000E+00  0.00000000000E+00  0.15790690618E+04  0.15790690618E+04  0.50400001928E-02 0. -1.
        1   -1    0    0  501    0  0.00000000000E+00  0.00000000000E+00 -0.19167004488E+04  0.19167004488E+04  0.50400001928E-02 0.  1.
    10030    2    1    2    0    0  0.00000000000E+00  0.00000000000E+00 -0.33763138696E+03  0.34957695106E+04  0.34794266076E+04 0.  0.
        2    1    3    3  502    0  0.10325552946E+04  0.13789542261E+03 -0.15687075952E+04  0.18830903067E+04  0.25500000920E-02 0.  1.
       -2    1    3    3    0  502 -0.10325552946E+04 -0.13789542261E+03  0.12310762083E+04  0.16126792039E+04  0.25500000920E-02 0. -1.
</event>
<event>
 5   0  0.7754556E-07  0.3597038E+04  0.7818609E-02  0.8091170E-01
        1   -1    0    0  501    0  0.00000000000E+00  0.00000000000E+00  0.29767522467E+04  0.29767522467E+04  0.50400001928E-02 0.  1.
       -1   -1    0    0    0  501  0.00000000000E+00  0.00000000000E+00 -0.10866442900E+04  0.10866442900E+04  0.50400001928E-02 0. -1.
    10030    2    1    2    0    0  0.00000000000E+00  0.00000000000E+00  0.18901079567E+04  0.40633965367E+04  0.35970381325E+04 0.  0.
        4    1    3    3  502    0  0.90353044921E+03 -0.78676032657E+03  0.24603489335E+04  0.27365448236E+04  0.12699999809E+01 0.  1.
       -4    1    3    3    0  502 -0.90353044921E+03  0.78676032657E+03 -0.57024097678E+03  0.13268517131E+04  0.12699999809E+01 0. -1.
</event>
<event>
 5   0  0.1513502E-06  0.3470376E+04  0.7818609E-02  0.8120846E-01
       -2   -1    0    0    0  501  0.00000000000E+00  0.00000000000E+00  0.15350806948E+04  0.15350806948E+04  0.25500000920E-02 0.  1.
        2   -1    0    0  501    0  0.00000000000E+00  0.00000000000E+00 -0.19613809250E+04  0.19613809250E+04  0.25500000920E-02 0. -1.
    10030    2    1    2    0    0  0.00000000000E+00  0.00000000000E+00 -0.42630023022E+03  0.34964616198E+04  0.34703763445E+04 0.  0.
        3    1    3    3  502    0  0.10726539766E+04  0.11722015202E+03  0.11559425026E+04  0.15813064842E+04  0.10100000352E+00 0.  1.
       -3    1    3    3    0  502 -0.10726539766E+04 -0.11722015202E+03 -0.15822427328E+04  0.19151551356E+04  0.10100000352E+00 0. -1.
</event>
<event>
 5   0  0.7754556E-07  0.3418294E+04  0.7818609E-02  0.8133431E-01
        1   -1    0    0  501    0  0.00000000000E+00  0.00000000000E+00  0.25253708911E+04  0.25253708911E+04  0.50400001928E-02 0. -1.
       -1   -1    0    0    0  501  0.00000000000E+00  0.00000000000E+00 -0.11567342495E+04  0.11567342495E+04  0.50400001928E-02 0.  1.
    10030    2    1    2    0    0  0.00000000000E+00  0.00000000000E+00  0.13686366416E+04  0.36821051406E+04  0.34182937278E+04 0.  0.
        4    1    3    3  502    0  0.17867312397E+03 -0.65900498967E+03 -0.10034385236E+04  0.12137141942E+04  0.12699999809E+01 0.  1.
       -4    1    3    3    0  502 -0.17867312397E+03  0.65900498967E+03  0.23720751653E+04  0.24683909464E+04  0.12699999809E+01 0. -1.
</event>
<event>
 5   0  0.7754556E-07  0.2306336E+04  0.7818609E-02  0.8475427E-01
        1   -1    0    0  501    0  0.00000000000E+00  0.00000000000E+00  0.77110079552E+03  0.77110079554E+03  0.50400001928E-02 0. -1.
       -1   -1    0    0    0  501  0.00000000000E+00  0.00000000000E+00 -0.17245422007E+04  0.17245422007E+04  0.50400001928E-02 0.  1.
    10030    2    1    2    0    0  0.00000000000E+00  0.00000000000E+00 -0.95344140517E+03  0.24956429962E+04  0.23063355028E+04 0.  0.
        4    1    3    3  502    0  0.80202090457E+03  0.81462776068E+03 -0.31283507275E+03  0.11852102410E+04  0.12699999809E+01 0. -1.
       -4    1    3    3    0  502 -0.80202090457E+03 -0.81462776068E+03 -0.64060633243E+03  0.13104327552E+04  0.12699999809E+01 0.  1.
</event>
<event>
 5   0  0.1566576E-06  0.3641786E+04  0.7818609E-02  0.8080987E-01
       -2   -1    0    0    0  501  0.00000000000E+00  0.00000000000E+00  0.11043261005E+04  0.11043261005E+04  0.25500000920E-02 0. -1.
        2   -1    0    0  501    0  0.00000000000E+00  0.00000000000E+00 -0.30024198987E+04  0.30024198987E+04  0.25500000920E-02 0.  1.
    10030    2    1    2    0    0  0.00000000000E+00  0.00000000000E+00 -0.18980937983E+04  0.41067459992E+04  0.36417856383E+04 0.  0.
        4    1    3    3  502    0 -0.15581629686E+03  0.18044907348E+04 -0.11605676991E+04  0.21511356367E+04  0.12699999809E+01 0. -1.
       -4    1    3    3    0  502  0.15581629686E+03 -0.18044907348E+04 -0.73752609917E+03  0.19556103625E+04  0.12699999809E+01 0.  1.
</event>
<event>
 5   0  0.8452742E-07  0.2551609E+04  0.7818609E-02  0.8384827E-01
        1   -1    0    0  501    0  0.00000000000E+00  0.00000000000E+00  0.11897908779E+04  0.11897908779E+04  0.50400001928E-02 0.  1.
       -1   -1    0    0    0  501  0.00000000000E+00  0.00000000000E+00 -0.13680367733E+04  0.13680367733E+04  0.50400001928E-02 0. -1.
    10030    2    1    2    0    0  0.00000000000E+00  0.00000000000E+00 -0.17824589546E+03  0.25578276512E+04  0.25516094321E+04 0.  0.
        1    1    3    3  502    0  0.17438872512E+03  0.94501213280E+03 -0.93034517042E+03  0.13375356050E+04  0.50400001928E-02 0. -1.
       -1    1    3    3    0  502 -0.17438872512E+03 -0.94501213280E+03  0.75209927495E+03  0.12202920462E+04  0.50400001928E-02 0.  1.
</event>
<event>
 5   0  0.7754556E-07  0.1804243E+04  0.7818609E-02  0.8704046E-01
       -1   -1    0    0    0  501  0.00000000000E+00  0.00000000000E+00  0.63040423142E+03  0.63040423144E+03  0.50400001928E-02 0. -1.
        1   -1    0    0  501    0  0.00000000000E+00  0.00000000000E+00 -0.12909542636E+04  0.12909542636E+04  0.50400001928E-02 0.  1.
    10030    2    1    2    0    0  0.00000000000E+00  0.00000000000E+00 -0.66055003217E+03  0.19213584950E+04  0.18042428111E+04 0.  0.
        4    1    3    3  502    0  0.52108344125E+02 -0.11167552307E+03 -0.12819475021E+04  0.12878578000E+04  0.12699999809E+01 0.  1.
       -4    1    3    3    0  502 -0.52108344125E+02  0.11167552307E+03  0.62139746997E+03  0.63350069500E+03  0.12699999809E+01 0. -1.
</event>
<event>
 5   0  0.7754556E-07  0.1848147E+04  0.7818609E-02  0.8681106E-01
        1   -1    0    0  501    0  0.00000000000E+00  0.00000000000E+00  0.11052759054E+04  0.11052759055E+04  0.50400001928E-02 0. -1.
       -1   -1    0    0    0  501  0.00000000000E+00  0.00000000000E+00 -0.77257809702E+03  0.77257809704E+03  0.50400001928E-02 0.  1.
    10030    2    1    2    0    0  0.00000000000E+00  0.00000000000E+00  0.33269780842E+03  0.18778540025E+04  0.18481471324E+04 0.  0.
        4    1    3    3  502    0  0.63702166532E+02  0.25882559221E+03  0.10653656924E+04  0.10982050467E+04  0.12699999809E+01 0. -1.
       -4    1    3    3    0  502 -0.63702166532E+02 -0.25882559221E+03 -0.73266788395E+03  0.77964895580E+03  0.12699999809E+01 0.  1.
</event>
<event>
 5   0  0.1634374E-06  0.3653365E+04  0.7818609E-02  0.8078376E-01
        1   -1    0    0  501    0  0.00000000000E+00  0.00000000000E+00  0.13008537648E+04  0.13008537648E+04  0.50400001928E-02 0. -1.
       -1   -1    0    0    0  501  0.00000000000E+00  0.00000000000E+00 -0.25650601805E+04  0.25650601805E+04  0.50400001928E-02 0.  1.
    10030    2    1    2    0    0  0.00000000000E+00  0.00000000000E+00 -0.12642064157E+04  0.38659139453E+04  0.36533645823E+04 0.  0.
        5    1    3    3  502    0 -0.15541064664E+04 -0.82782431118E+03 -0.11781717935E+03  0.17647784498E+04  0.46999998093E+01 0. -1.
       -5    1    3    3    0  502  0.15541064664E+04  0.82782431118E+03 -0.11463892364E+04  0.21011354955E+04  0.46999998093E+01 0.  1.
</event>
<event>
 5   0  0.1908273E-06  0.2080089E+04  0.7818609E-02  0.8570065E-01
       -1   -1    0    0    0  501  0.00000000000E+00  0.00000000000E+00  0.17941821820E+04  0.17941821820E+04  0.50400001928E-02 0. -1.
        1   -1    0    0  501    0  0.00000000000E+00  0.00000000000E+00 -0.60288920155E+03  0.60288920157E+03  0.50400001928E-02 0.  1.
    10030    2    1    2    0    0  0.00000000000E+00  0.00000000000E+00  0.11912929805E+04  0.23970713836E+04  0.20800894819E+04 0.  0.
        3    1    3    3  502    0 -0.19313502694E+03 -0.47161094577E+03  0.16404346969E+04  0.17177729849E+04  0.10100000352E+00 0. -1.
       -3    1    3    3    0  502  0.19313502694E+03  0.47161094577E+03 -0.44914171641E+03  0.67929839866E+03  0.10100000352E+00 0.  1.
</event>
<event>
 5   0  0.2382711E-06  0.2799377E+04  0.7818609E-02  0.8303462E-01
       -2   -1    0    0    0  501  0.00000000000E+00  0.00000000000E+00  0.90526178728E+03  0.90526178729E+03  0.25500000920E-02 0. -1.
        2   -1    0    0  501    0  0.00000000000E+00  0.00000000000E+00 -0.21641559217E+04  0.21641559217E+04  0.25500000920E-02 0.  1.
    10030    2    1    2    0    0  0.00000000000E+00  0.00000000000E+00 -0.12588941344E+04  0.30694177090E+04  0.27993768290E+04 0.  0.
        5    1    3    3  502    0 -0.48822317062E+03 -0.95732361999E+03 -0.16127718093E+04  0.19380106750E+04  0.46999998093E+01 0.  1.
       -5    1    3    3    0  502  0.48822317062E+03  0.95732361999E+03  0.35387767486E+03  0.11314070340E+04  0.46999998093E+01 0. -1.
</event>
<event>
 5   0  0.2382711E-06  0.3054215E+04  0.7818609E-02  0.8228417E-01
       -2   -1    0    0    0  501  0.00000000000E+00  0.00000000000E+00  0.99382319712E+03  0.99382319712E+03  0.25500000920E-02 0. -1.
        2   -1    0    0  501    0  0.00000000000E+00  0.00000000000E+00 -0.23465507472E+04  0.23465507472E+04  0.25500000920E-02 0.  1.
    10030    2    1    2    0    0  0.00000000000E+00  0.00000000000E+00 -0.13527275501E+04  0.33403739443E+04  0.30542145084E+04 0.  0.
        5    1    3    3  502    0 -0.92886610863E+02 -0.31662513470E+03  0.95436010390E+03  0.10098042861E+04  0.46999998093E+01 0. -1.
       -5    1    3    3    0  502  0.92886610863E+02  0.31662513470E+03 -0.23070876540E+04  0.23305696582E+04  0.46999998093E+01 0.  1.
</event>
<event>
 5   0  0.2382711E-06  0.3611610E+04  0.7818609E-02  0.8087837E-01
        2   -1    0    0  501    0  0.00000000000E+00  0.00000000000E+00  0.24040407125E+04  0.24040407125E+04  0.25500000920E-02 0. -1.
       -2   -1    0    0    0  501  0.00000000000E+00  0.00000000000E+00 -0.13564379303E+04  0.13564379303E+04  0.25500000920E-02 0.  1.
    10030    2    1    2    0    0  0.00000000000E+00  0.00000000000E+00  0.10476027822E+04  0.37604786427E+04  0.36116101718E+04 0.  0.
        5    1    3    3  502    0 -0.16882773008E+04  0.39549999269E+03 -0.11729620170E+01  0.17339907597E+04  0.46999998093E+01 0.  1.
       -5    1    3    3    0  502  0.16882773008E+04 -0.39549999269E+03  0.10487757442E+04  0.20264878831E+04  0.46999998093E+01 0. -1.
</event>
<event>
 5   0  0.1513502E-06  0.2925455E+04  0.7818609E-02  0.8265344E-01
        2   -1    0    0  501    0  0.00000000000E+00  0.00000000000E+00  0.19752848952E+04  0.19752848952E+04  0.25500000920E-02 0. -1.
       -2   -1    0    0    0  501  0.00000000000E+00  0.00000000000E+00 -0.10831709714E+04  0.10831709714E+04  0.25500000920E-02 0.  1.
    10030    2    1    2    0    0  0.00000000000E+00  0.00000000000E+00  0.89211392385E+03  0.30584558666E+04  0.29254546714E+04 0.  0.
        3    1    3    3  502    0 -0.93405522149E+03  0.69575332091E+03 -0.47906854335E+03  0.12593802126E+04  0.10100000352E+00 0.  1.
       -3    1    3    3    0  502  0.93405522149E+03 -0.69575332091E+03  0.13711824672E+04  0.17990756540E+04  0.10100000352E+00 0. -1.
</event>
<event>
 5   0  0.7754556E-07  0.3570684E+04  0.7818609E-02  0.8097240E-01
       -1   -1    0    0    0  501  0.00000000000E+00  0.00000000000E+00  0.23688014965E+04  0.23688014965E+04  0.50400001928E-02 0. -1.
        1   -1    0    0  501    0  0.00000000000E+00  0.00000000000E+00 -0.13455940793E+04  0.13455940793E+04  0.50400001928E-02 0.  1.
    10030    2    1    2    0    0  0.00000000000E+00  0.00000000000E+00  0.10232074172E+04  0.37143955757E+04  0.35706835584E+04 0.  0.
        4    1    3    3  502    0  0.10980525495E+04  0.64643870432E+03 -0.78926396788E+03  0.14988467646E+04  0.12699999809E+01 0.  1.
       -4    1    3    3    0  502 -0.10980525495E+04 -0.64643870432E+03  0.18124713851E+04  0.22155488111E+04  0.12699999809E+01 0. -1.
</event>
<event>
 5   0  0.1513502E-06  0.3269252E+04  0.7818609E-02  0.8170764E-01
       -2   -1    0    0    0  501  0.00000000000E+00  0.00000000000E+00  0.13016474695E+04  0.13016474695E+04  0.25500000920E-02 0. -1.
        2   -1    0    0  501    0  0.00000000000E+00  0.00000000000E+00 -0.20527849133E+04  0.20527849133E+04  0.25500000920E-02 0.  1.
    10030    2    1    2    0    0  0.00000000000E+00  0.00000000000E+00 -0.75113744382E+03  0.33544323828E+04  0.32692520782E+04 0.  0.
        3    1    3    3  502    0 -0.71474472685E+03  0.10784275158E+04 -0.14006671525E+04  0.19067601878E+04  0.10100000352E+00 0.  1.
       -3    1    3    3    0  502  0.71474472685E+03 -0.10784275158E+04  0.64952970866E+03  0.14476721950E+04  0.10100000352E+00 0. -1.
</event>
<event>
 5   0  0.8423692E-07  0.1897483E+04  0.7818609E-02  0.8656110E-01
       -1   -1    0    0    0  501  0.00000000000E+00  0.00000000000E+00  0.78638653513E+03  0.78638653515E+03  0.50400001928E-02 0.  1.
        1   -1    0    0  501    0  0.00000000000E+00  0.00000000000E+00 -0.11446154460E+04  0.11446154460E+04  0.50400001928E-02 0. -1.
    10030    2    1    2    0    0  0.00000000000E+00  0.00000000000E+00 -0.35822891084E+03  0.19310019811E+04  0.18974827268E+04 0.  0.
        2    1    3    3  502    0  0.54657098097E+03 -0.41690816530E+03 -0.84454443863E+03  0.10889479163E+04  0.25500000920E-02 0.  1.
       -2    1    3    3    0  502 -0.54657098097E+03  0.41690816530E+03  0.48631552780E+03  0.84205406484E+03  0.25500000920E-02 0. -1.
</event>
<event>
 5   0  0.1566576E-06  0.3549247E+04  0.7818609E-02  0.8102217E-01
        2   -1    0    0  501    0  0.00000000000E+00  0.00000000000E+00  0.25017396309E+04  0.25017396309E+04  0.25500000920E-02 0. -1.
       -2   -1    0    0    0  501  0.00000000000E+00  0.00000000000E+00 -0.12588396113E+04  0.12588396113E+04  0.25500000920E-02 0.  1.
    10030    2    1    2    0    0  0.00000000000E+00  0.00000000000E+00  0.12429000195E+04  0.37605792422E+04  0.35492472129E+04 0.  0.
        4    1    3    3  502    0 -0.52484483963E+03  0.81354856953E+03 -0.95437328772E+03  0.13594680452E+04  0.12699999809E+01 0.  1.
       -4    1    3    3    0  502  0.52484483963E+03 -0.81354856953E+03  0.21972733073E+04  0.24011111970E+04  0.12699999809E+01 0. -1.
</event>
<event>
 5   0  0.2536619E-06  0.3607113E+04  0.7818609E-02  0.8088864E-01
        2   -1    0    0  501    0  0.00000000000E+00  0.00000000000E+00  0.20233266619E+04  0.20233266619E+04  0.25500000920E-02 0. -1.
       -2   -1    0    0    0  501  0.00000000000E+00  0.00000000000E+00 -0.16076577019E+04  0.16076577019E+04  0.25500000920E-02 0.  1.
    10030    2    1    2    0    0  0.00000000000E+00  0.00000000000E+00  0.41566896007E+03  0.36309843638E+04  0.36071133564E+04 0.  0.
        1    1    3    3  502    0  0.11883013251E+04  0.14589169833E+03 -0.11499702210E+04  0.16600529920E+04  0.50400001928E-02 0.  1.
       -1    1    3    3    0  502 -0.11883013251E+04 -0.14589169833E+03  0.15656391811E+04  0.19709313718E+04  0.50400001928E-02 0. -1.
</event>
<event>
 5   0  0.8452742E-07  0.3634285E+04  0.7818609E-02  0.8082683E-01
        1   -1    0    0  501    0  0.00000000000E+00  0.00000000000E+00  0.19203841294E+04  0.19203841294E+04  0.50400001928E-02 0. -1.
       -1   -1    0    0    0  501  0.00000000000E+00  0.00000000000E+00 -0.17194511274E+04  0.17194511274E+04  0.50400001928E-02 0.  1.
    10030    2    1    2    0    0  0.00000000000E+00  0.00000000000E+00  0.20093300194E+03  0.36398352568E+04  0.36342848850E+04 0.  0.
        1    1    3    3  502    0  0.16438163869E+04  0.22997290263E+03  0.84118157876E+03  0.18608079692E+04  0.50400001928E-02 0. -1.
       -1    1    3    3    0  502 -0.16438163869E+04 -0.22997290263E+03 -0.64024857682E+03  0.17790272876E+04  0.50400001928E-02 0.  1.
</event>
<event>
 5   0  0.1513502E-06  0.3545997E+04  0.7818609E-02  0.8102975E-01
       -2   -1    0    0    0  501  0.00000000000E+00  0.00000000000E+00  0.22018353044E+04  0.22018353044E+04  0.25500000920E-02 0.  1.
        2   -1    0    0  501    0  0.00000000000E+00  0.00000000000E+00 -0.14276834563E+04  0.14276834563E+04  0.25500000920E-02 0. -1.
    10030    2    1    2    0    0  0.00000000000E+00  0.00000000000E+00  0.77415184807E+03  0.36295187607E+04  0.35459970883E+04 0.  0.
        3    1    3    3  502    0 -0.10446558812E+04  0.93154412961E+03  0.15010314099E+04  0.20523585650E+04  0.10100000352E+00 0.  1.
       -3    1    3    3    0  502  0.10446558812E+04 -0.93154412961E+03 -0.72687956181E+03  0.15771601958E+04  0.10100000352E+00 0. -1.
</event>
<event>
 5   0  0.8423692E-07  0.2304839E+04  0.7818609E-02  0.8476016E-01
        1   -1    0    0  501    0  0.00000000000E+00  0.00000000000E+00  0.13581335935E+04  0.13581335935E+04  0.50400001928E-02 0. -1.
       -1   -1    0    0    0  501  0.00000000000E+00  0.00000000000E+00 -0.97786416239E+03  0.97786416240E+03  0.50400001928E-02 0.  1.
    10030    2    1    2    0    0  0.00000000000E+00  0.00000000000E+00  0.38026943110E+03  0.23359977559E+04  0.23048385356E+04 0.  0.
        2    1    3    3  502    0  0.11755513334E+03 -0.11456806149E+04  0.23151420516E+03  0.11747349097E+04  0.25500000920E-02 0.  1.
       -2    1    3    3    0  502 -0.11755513334E+03  0.11456806149E+04  0.14875522594E+03  0.11612628462E+04  0.25500000920E-02 0. -1.
</event>
<event>
 5   0  0.2422436E-06  0.1802343E+04  0.7818609E-02  0.8705055E-01
       -2   -1    0    0    0  501  0.00000000000E+00  0.00000000000E+00  0.17819740633E+04  0.17819740633E+04  0.25500000920E-02 0.  1.
        2   -1    0    0  501    0  0.00000000000E+00  0.00000000000E+00 -0.45573603630E+03  0.45573603631E+03  0.25500000920E-02 0. -1.
    10030    2    1    2    0    0  0.00000000000E+00  0.00000000000E+00  0.13262380270E+04  0.22377100996E+04  0.18023426937E+04 0.  0.
        2    1    3    3  502    0 -0.18559779382E+03  0.75847578323E+03  0.12216507100E+04  0.14498836201E+04  0.25500000920E-02 0.  1.
       -2    1    3    3    0  502  0.18559779382E+03 -0.75847578323E+03  0.10458731702E+03  0.78782647944E+03  0.25500000920E-02 0. -1.
</event>
<event>
 5   0  0.8423692E-07  0.1843699E+04  0.7818609E-02  0.8683400E-01
        1   -1    0    0  501    0  0.00000000000E+00  0.00000000000E+00  0.88543051674E+03  0.88543051676E+03  0.50400001928E-02 0.  1.
       -1   -1    0    0    0  501  0.00000000000E+00  0.00000000000E+00 -0.95976645308E+03  0.95976645309E+03  0.50400001928E-02 0. -1.
    10030    2    1    2    0    0  0.00000000000E+00  0.00000000000E+00 -0.74335936333E+02  0.18451969698E+04  0.18436990064E+04 0.  0.
        2    1    3    3  502    0  0.30359909249E+03  0.10733047459E+03 -0.90164883031E+03  0.95742511611E+03  0.25500000920E-02 0. -1.
       -2    1    3    3    0  502 -0.30359909249E+03 -0.10733047459E+03  0.82731289398E+03  0.88777185374E+03  0.25500000920E-02 0.  1.
</event>
<event>
 5   0  0.8423692E-07  0.2168807E+04  0.7818609E-02  0.8531524E-01
       -1   -1    0    0    0  501  0.00000000000E+00  0.00000000000E+00  0.69609087031E+03  0.69609087033E+03  0.50400001928E-02 0.  1.
        1   -1    0    0  501    0  0.00000000000E+00  0.00000000000E+00 -0.16893358339E+04  0.16893358339E+04  0.50400001928E-02 0. -1.
    10030    2    1    2    0    0  0.00000000000E+00  0.00000000000E+00 -0.99324496354E+03  0.23854267042E+04  0.21688072767E+04 0.  0.
        2    1    3    3  502    0 -0.31885468060E+03  0.83650030647E+03  0.17649136585E+03  0.91244192817E+03  0.25500000920E-02 0.  1.
       -2    1    3    3    0  502  0.31885468060E+03 -0.83650030647E+03 -0.11697363294E+04  0.14729847760E+04  0.25500000920E-02 0. -1.
</event>
<event>
 5   0  0.2382711E-06  0.3588357E+04  0.7818609E-02  0.8093164E-01
       -2   -1    0    0    0  501  0.00000000000E+00  0.00000000000E+00  0.13158742991E+04  0.13158742991E+04  0.25500000920E-02 0.  1.
        2   -1    0    0  501    0  0.00000000000E+00  0.00000000000E+00 -0.24463410570E+04  0.24463410570E+04  0.25500000920E-02 0. -1.
    10030    2    1    2    0    0  0.00000000000E+00  0.00000000000E+00 -0.11304667578E+04  0.37622153561E+04  0.35883574648E+04 0.  0.
        5    1    3    3  502    0 -0.87616221216E+03 -0.11486461345E+04 -0.16807409473E+04  0.22162942915E+04  0.46999998093E+01 0. -1.
       -5    1    3    3    0  502  0.87616221216E+03  0.11486461345E+04  0.55027418951E+03  0.15459210646E+04  0.46999998093E+01 0.  1.
</event>
<event>
 5   0  0.2422436E-06  0.3599674E+04  0.7818609E-02  0.8090566E-01
       -2   -1    0    0    0  501  0.00000000000E+00  0.00000000000E+00  0.24613169795E+04  0.24613169795E+04  0.25500000920E-02 0. -1.
        2   -1    0    0  501    0  0.00000000000E+00  0.00000000000E+00 -0.13161303743E+04  0.13161303743E+04  0.25500000920E-02 0.  1.
    10030    2    1    2    0    0  0.00000000000E+00  0.00000000000E+00  0.11451866052E+04  0.37774473538E+04  0.35996744506E+04 0.  0.
        2    1    3    3  502    0  0.10652424953E+02 -0.17320799440E+04  0.59359269210E+02  0.17331295189E+04  0.25500000920E-02 0.  1.
       -2    1    3    3    0  502 -0.10652424953E+02  0.17320799440E+04  0.10858273360E+04  0.20443178349E+04  0.25500000920E-02 0. -1.
</event>
<event>
 5   0  0.1566576E-06  0.3545860E+04  0.7818609E-02  0.8103007E-01
       -2   -1    0    0    0  501  0.00000000000E+00  0.00000000000E+00  0.11224853745E+04  0.11224853745E+04  0.25500000920E-02 0. -1.
        2   -1    0    0  501    0  0.00000000000E+00  0.00000000000E+00 -0.28002865553E+04  0.28002865553E+04  0.25500000920E-02 0.  1.
    10030    2    1    2    0    0  0.00000000000E+00  0.00000000000E+00 -0.16778011808E+04  0.39227719299E+04  0.35458599537E+04 0.  0.
        4    1    3    3  502    0  0.36181662928E+03  0.72187987204E+03 -0.25850474588E+04  0.27082270584E+04  0.12699999809E+01 0.  1.
       -4    1    3    3    0  502 -0.36181662928E+03 -0.72187987204E+03  0.90724627798E+03  0.12145448714E+04  0.12699999809E+01 0. -1.
</event>
<event>
 5   0  0.2382711E-06  0.3618425E+04  0.7818609E-02  0.8086284E-01
       -2   -1    0    0    0  501  0.00000000000E+00  0.00000000000E+00  0.19670142942E+04  0.19670142942E+04  0.25500000920E-02 0. -1.
        2   -1    0    0  501    0  0.00000000000E+00  0.00000000000E+00 -0.16640703797E+04  0.16640703797E+04  0.25500000920E-02 0.  1.
    10030    2    1    2    0    0  0.00000000000E+00  0.00000000000E+00  0.30294391445E+03  0.36310846739E+04  0.36184251953E+04 0.  0.
        5    1    3    3  502    0  0.10975206605E+04  0.10853850992E+04  0.10984980736E+04  0.18945533831E+04  0.46999998093E+01 0. -1.
       -5    1    3    3    0  502 -0.10975206605E+04 -0.10853850992E+04 -0.79555415913E+03  0.17365312908E+04  0.46999998093E+01 0.  1.
</event>
<event>
 5   0  0.1566576E-06  0.3595398E+04  0.7818609E-02  0.8091547E-01
        2   -1    0    0  501    0  0.00000000000E+00  0.00000000000E+00  0.16328923991E+04  0.16328923991E+04  0.25500000920E-02 0. -1.
       -2   -1    0    0    0  501  0.00000000000E+00  0.00000000000E+00 -0.19791397757E+04  0.19791397757E+04  0.25500000920E-02 0.  1.
    10030    2    1    2    0    0  0.00000000000E+00  0.00000000000E+00 -0.34624737664E+03  0.36120321748E+04  0.35953983348E+04 0.  0.
        4    1    3    3  502    0  0.16105671218E+04  0.26553757800E+03 -0.92979082796E+03  0.18785497747E+04  0.12699999809E+01 0. -1.
       -4    1    3    3    0  502 -0.16105671218E+04 -0.26553757800E+03  0.58354345132E+03  0.17334824002E+04  0.12699999809E+01 0.  1.
</event>
<event>
 5   0  0.7754556E-07  0.3568261E+04  0.7818609E-02  0.8097801E-01
       -1   -1    0    0    0  501  0.00000000000E+00  0.00000000000E+00  0.20223780236E+04  0.20223780236E+04  0.50400001928E-02 0. -1.
        1   -1    0    0  501    0  0.00000000000E+00  0.00000000000E+00 -0.15739499507E+04  0.15739499507E+04  0.50400001928E-02 0.  1.
    10030    2    1    2    0    0  0.00000000000E+00  0.00000000000E+00  0.44842807290E+03  0.35963279743E+04  0.35682610838E+04 0.  0.
        4    1    3    3  502    0 -0.11636237956E+04  0.11170527662E+04  0.99263675878E+03  0.18939790304E+04  0.12699999809E+01 0.  1.
       -4    1    3    3    0  502  0.11636237956E+04 -0.11170527662E+04 -0.54420868589E+03  0.17023489439E+04  0.12699999809E+01 0. -1.
</event>
<event>
 5   0  0.1513502E-06  0.3588917E+04  0.7818609E-02  0.8093035E-01
       -2   -1    0    0    0  501  0.00000000000E+00  0.00000000000E+00  0.13384025432E+04  0.13384025432E+04  0.25500000920E-02 0.  1.
        2   -1    0    0  501    0  0.00000000000E+00  0.00000000000E+00 -0.24059135189E+04  0.24059135189E+04  0.25500000920E-02 0. -1.
    10030    2    1    2    0    0  0.00000000000E+00  0.00000000000E+00 -0.10675109758E+04  0.37443160621E+04  0.35889167014E+04 0.  0.
        3    1    3    3  502    0 -0.88801792853E+03 -0.13926754367E+04 -0.12655245433E+04  0.20807866525E+04  0.10100000352E+00 0. -1.
       -3    1    3    3    0  502  0.88801792853E+03  0.13926754367E+04  0.19801356756E+03  0.16635294096E+04  0.10100000352E+00 0.  1.
</event>
<event>
 5   0  0.1566576E-06  0.2332190E+04  0.7818609E-02  0.8465336E-01
       -2   -1    0    0    0  501  0.00000000000E+00  0.00000000000E+00  0.90450335001E+03  0.90450335002E+03  0.25500000920E-02 0.  1.
        2   -1    0    0  501    0  0.00000000000E+00  0.00000000000E+00 -0.15033414588E+04  0.15033414588E+04  0.25500000920E-02 0. -1.
    10030    2    1    2    0    0  0.00000000000E+00  0.00000000000E+00 -0.59883810883E+03  0.24078448089E+04  0.23321898600E+04 0.  0.
        4    1    3    3  502    0 -0.70663997389E+03 -0.20306399205E+03  0.63503888046E+03  0.97151995871E+03  0.12699999809E+01 0.  1.
       -4    1    3    3    0  502  0.70663997389E+03  0.20306399205E+03 -0.12338769893E+04  0.14363248502E+04  0.12699999809E+01 0. -1.
</event>
<event>
 5   0  0.1566576E-06  0.3601019E+04  0.7818609E-02  0.8090258E-01
       -2   -1    0    0    0  501  0.00000000000E+00  0.00000000000E+00  0.20556690143E+04  0.20556690143E+04  0.25500000920E-02 0.  1.
        2   -1    0    0  501    0  0.00000000000E+00  0.00000000000E+00 -0.15770217418E+04  0.15770217418E+04  0.25500000920E-02 0. -1.
    10030    2    1    2    0    0  0.00000000000E+00  0.00000000000E+00  0.47864727244E+03  0.36326907561E+04  0.36010191499E+04 0.  0.
        4    1    3    3  502    0  0.57792511944E+03  0.12612678611E+03 -0.14762000311E+04  0.15903061197E+04  0.12699999809E+01 0. -1.
       -4    1    3    3    0  502 -0.57792511944E+03 -0.12612678611E+03  0.19548473035E+04  0.20423846364E+04  0.12699999809E+01 0.  1.
</event>
<event>
 5   0  0.2382711E-06  0.3694527E+04  0.7818609E-02  0.8069176E-01
        2   -1    0    0  501    0  0.00000000000E+00  0.00000000000E+00  0.26058064714E+04  0.26058064714E+04  0.25500000920E-02 0. -1.
       -2   -1    0    0    0  501  0.00000000000E+00  0.00000000000E+00 -0.13095305601E+04  0.13095305601E+04  0.25500000920E-02 0.  1.
    10030    2    1    2    0    0  0.00000000000E+00  0.00000000000E+00  0.12962759113E+04  0.39153370315E+04  0.36945274166E+04 0.  0.
        5    1    3    3  502    0  0.20068169200E+03  0.63775350628E+03 -0.11768031632E+04  0.13534734763E+04  0.46999998093E+01 0.  1.
       -5    1    3    3    0  502 -0.20068169200E+03 -0.63775350628E+03  0.24730790745E+04  0.25618635551E+04  0.46999998093E+01 0. -1.
</event>
<event>
 5   0  0.8452742E-07  0.1863886E+04  0.7818609E-02  0.8673045E-01
       -1   -1    0    0    0  501  0.00000000000E+00  0.00000000000E+00  0.18720771441E+04  0.18720771441E+04  0.50400001928E-02 0.  1.
        1   -1    0    0  501    0  0.00000000000E+00  0.00000000000E+00 -0.46393245953E+03  0.46393245956E+03  0.50400001928E-02 0. -1.
    10030    2    1    2    0    0  0.00000000000E+00  0.00000000000E+00  0.14081446845E+04  0.23360096036E+04  0.18638855694E+04 0.  0.
        1    1    3    3  502    0  0.15246893086E+03 -0.57490667249E+03 -0.19512450944E+03  0.62596967272E+03  0.50400001928E-02 0. -1.
       -1    1    3    3    0  502 -0.15246893086E+03  0.57490667249E+03  0.16032691940E+04  0.17100399309E+04  0.50400001928E-02 0.  1.
</event>
<event>
 5   0  0.1634374E-06  0.1888963E+04  0.7818609E-02  0.8660370E-01
        1   -1    0    0  501    0  0.00000000000E+00  0.00000000000E+00  0.97078892192E+03  0.97078892193E+03  0.50400001928E-02 0. -1.
       -1   -1    0    0    0  501  0.00000000000E+00  0.00000000000E+00 -0.91888737685E+03  0.91888737687E+03  0.50400001928E-02 0.  1.
    10030    2    1    2    0    0  0.00000000000E+00  0.00000000000E+00  0.51901545067E+02  0.18896762988E+04  0.18889634046E+04 0.  0.
        5    1    3    3  502    0  0.24000727499E+03  0.24191542001E+03 -0.85523183658E+03  0.92063572969E+03  0.46999998093E+01 0.  1.
       -5    1    3    3    0  502 -0.24000727499E+03 -0.24191542001E+03  0.90713338165E+03  0.96904056911E+03  0.46999998093E+01 0. -1.
</event>
<event>
 5   0  0.1566576E-06  0.3219941E+04  0.7818609E-02  0.8183571E-01
        2   -1    0    0  501    0  0.00000000000E+00  0.00000000000E+00  0.11994240325E+04  0.11994240326E+04  0.25500000920E-02 0. -1.
       -2   -1    0    0    0  501  0.00000000000E+00  0.00000000000E+00 -0.21610407651E+04  0.21610407651E+04  0.25500000920E-02 0.  1.
    10030    2    1    2    0    0  0.00000000000E+00  0.00000000000E+00 -0.96161673251E+03  0.33604647976E+04  0.32199405143E+04 0.  0.
        4    1    3    3  502    0  0.66973541920E+03 -0.84202982695E+03  0.76914303446E+03  0.13225514665E+04  0.12699999809E+01 0. -1.
       -4    1    3    3    0  502 -0.66973541920E+03  0.84202982695E+03 -0.17307597670E+04  0.20379133311E+04  0.12699999809E+01 0.  1.
</event>
<event>
 5   0  0.1513502E-06  0.3657947E+04  0.7818609E-02  0.8077346E-01
       -2   -1    0    0    0  501  0.00000000000E+00  0.00000000000E+00  0.29256070364E+04  0.29256070364E+04  0.25500000920E-02 0. -1.
        2   -1    0    0  501    0  0.00000000000E+00  0.00000000000E+00 -0.11434019348E+04  0.11434019348E+04  0.25500000920E-02 0.  1.
    10030    2    1    2    0    0  0.00000000000E+00  0.00000000000E+00  0.17822051016E+04  0.40690089712E+04  0.36579473731E+04 0.  0.
        3    1    3    3  502    0 -0.17871072567E+04  0.38249067232E+03  0.81171548744E+03  0.19997333582E+04  0.10100000352E+00 0. -1.
       -3    1    3    3    0  502  0.17871072567E+04 -0.38249067232E+03  0.97048961413E+03  0.20692756130E+04  0.10100000352E+00 0.  1.
</event>
<event>
 5   0  0.2536619E-06  0.1817915E+04  0.7818609E-02  0.8696830E-01
       -2   -1    0    0    0  501  0.00000000000E+00  0.00000000000E+00  0.92693746703E+03  0.92693746704E+03  0.25500000920E-02 0. -1.
        2   -1    0    0  501    0  0.00000000000E+00  0.00000000000E+00 -0.89132640572E+03  0.89132640572E+03  0.25500000920E-02 0.  1.
    10030    2    1    2    0    0  0.00000000000E+00  0.00000000000E+00  0.35611061316E+02  0.18182638728E+04  0.18179151144E+04 0.  0.
        1    1    3    3  502    0  0.10248345235E+03  0.82308408541E+03 -0.35406355266E+03  0.90184880606E+03  0.50400001928E-02 0.  1.
       -1    1    3    3    0  502 -0.10248345235E+03 -0.82308408541E+03  0.38967461398E+03  0.91641506669E+03  0.50400001928E-02 0. -1.
</event>
<event>
 5   0  0.1566576E-06  0.3607530E+04  0.7818609E-02  0.8088769E-01
        2   -1    0    0  501    0  0.00000000000E+00  0.00000000000E+00  0.19024107865E+04  0.19024107865E+04  0.25500000920E-02 0. -1.
       -2   -1    0    0    0  501  0.00000000000E+00  0.00000000000E+00 -0.17102341648E+04  0.17102341648E+04  0.25500000920E-02 0.  1.
    10030    2    1    2    0    0  0.00000000000E+00  0.00000000000E+00  0.19217662170E+03  0.36126449513E+04  0.36075298599E+04 0.  0.
        4    1    3    3  502    0  0.16021827148E+04 -0.78958241232E+03  0.34771430462E+03  0.18197078579E+04  0.12699999809E+01 0. -1.
       -4    1    3    3    0  502 -0.16021827148E+04  0.78958241232E+03 -0.15553768292E+03  0.17929370935E+04  0.12699999809E+01 0.  1.
</event>
<event>
 5   0  0.7707500E-07  0.1834234E+04  0.7818609E-02  0.8688303E-01
       -3   -1    0    0    0  501  0.00000000000E+00  0.00000000000E+00  0.33185947622E+03  0.33185949159E+03  0.10100000352E+00 0.  1.
        3   -1    0    0  501    0  0.00000000000E+00  0.00000000000E+00 -0.25345170295E+04  0.25345170315E+04  0.10100000352E+00 0. -1.
    10030    2    1    2    0    0  0.00000000000E+00  0.00000000000E+00 -0.22026575533E+04  0.28663765231E+04  0.18342339205E+04 0.  0.
        1    1    3    3  502    0 -0.54034353572E+03 -0.69594518002E+03 -0.14991074713E+04  0.17388599831E+04  0.50400001928E-02 0. -1.
       -1    1    3    3    0  502  0.54034353572E+03  0.69594518002E+03 -0.70355008199E+03  0.11275165400E+04  0.50400001928E-02 0.  1.
</event>
<event>
 5   0  0.7707500E-07  0.3649341E+04  0.7818609E-02  0.8079282E-01
       -3   -1    0    0    0  501  0.00000000000E+00  0.00000000000E+00  0.12695780320E+04  0.12695780361E+04  0.10100000352E+00 0.  1.
        3   -1    0    0  501    0  0.00000000000E+00  0.00000000000E+00 -0.26224641669E+04  0.26224641688E+04  0.10100000352E+00 0. -1.
    10030    2    1    2    0    0  0.00000000000E+00  0.00000000000E+00 -0.13528861348E+04  0.38920422049E+04  0.36493412598E+04 0.  0.
        3    1    3    3  502    0 -0.54158926925E+03  0.61175396435E+03 -0.24164691339E+04  0.25508596462E+04  0.10100000352E+00 0. -1.
       -3    1    3    3    0  502  0.54158926925E+03 -0.61175396435E+03  0.10635829991E+04  0.13411825586E+04  0.10100000352E+00 0.  1.
</event>
<event>
 5   0  0.1566576E-06  0.3266474E+04  0.7818609E-02  0.8171479E-01
       -2   -1    0    0    0  501  0.00000000000E+00  0.00000000000E+00  0.16206081274E+04  0.16206081274E+04  0.25500000920E-02 0.  1.
        2   -1    0    0  501    0  0.00000000000E+00  0.00000000000E+00 -0.16459645949E+04  0.16459645949E+04  0.25500000920E-02 0. -1.
    10030    2    1    2    0    0  0.00000000000E+00  0.00000000000E+00 -0.25356467513E+02  0.32665727223E+04  0.32664743073E+04 0.  0.
        4    1    3    3  502    0 -0.12956407432E+04  0.35511298183E+03  0.91615103211E+03  0.16260764102E+04  0.12699999809E+01 0.  1.
       -4    1    3    3    0  502  0.12956407432E+04 -0.35511298183E+03 -0.94150749962E+03  0.16404963121E+04  0.12699999809E+01 0. -1.
</event>
<event>
 5   0  0.8423692E-07  0.2794550E+04  0.7818609E-02  0.8304962E-01
       -1   -1    0    0    0  501  0.00000000000E+00  0.00000000000E+00  0.17705582124E+04  0.17705582124E+04  0.50400001928E-02 0. -1.
        1   -1    0    0  501    0  0.00000000000E+00  0.00000000000E+00 -0.11026902674E+04  0.11026902674E+04  0.50400001928E-02 0.  1.
    10030    2    1    2    0    0  0.00000000000E+00  0.00000000000E+00  0.66786794502E+03  0.28732484798E+04  0.27945499163E+04 0.  0.
        2    1    3    3  502    0 -0.85320226044E+03 -0.77849728344E+03  0.11424410600E+04  0.16245564605E+04  0.25500000920E-02 0. -1.
       -2    1    3    3    0  502  0.85320226044E+03  0.77849728344E+03 -0.47457311502E+03  0.12486920193E+04  0.25500000920E-02 0.  1.
</event>
<event>
 5   0  0.1566576E-06  0.3595660E+04  0.7818609E-02  0.8091487E-01
        2   -1    0    0  501    0  0.00000000000E+00  0.00000000000E+00  0.25285354879E+04  0.25285354879E+04  0.25500000920E-02 0.  1.
       -2   -1    0    0    0  501  0.00000000000E+00  0.00000000000E+00 -0.12782865148E+04  0.12782865148E+04  0.25500000920E-02 0. -1.
    10030    2    1    2    0    0  0.00000000000E+00  0.00000000000E+00  0.12502489731E+04  0.38068220027E+04  0.35956600597E+04 0.  0.
        4    1    3    3  502    0 -0.21206984355E+03 -0.14136515978E+04 -0.52923100941E+03  0.15242937817E+04  0.12699999809E+01 0. -1.
       -4    1    3    3    0  502  0.21206984355E+03  0.14136515978E+04  0.17794799825E+04  0.22825282210E+04  0.12699999809E+01 0.  1.
</event>
<event>
 5   0  0.8452742E-07  0.3485671E+04  0.7818609E-02  0.8117194E-01
       -1   -1    0    0    0  501  0.00000000000E+00  0.00000000000E+00  0.16402906023E+04  0.16402906023E+04  0.50400001928E-02 0. -1.
        1   -1    0    0  501    0  0.00000000000E+00  0.00000000000E+00 -0.18517913619E+04  0.18517913619E+04  0.50400001928E-02 0.  1.
    10030    2    1    2    0    0  0.00000000000E+00  0.00000000000E+00 -0.21150075955E+03  0.34920819642E+04  0.34856712228E+04 0.  0.
        1    1    3    3  502    0 -0.80096952732E+02  0.76657771204E+01  0.16384287936E+04  0.16404033643E+04  0.50400001928E-02 0. -1.
       -1    1    3    3    0  502  0.80096952732E+02 -0.76657771204E+01 -0.18499295531E+04  0.18516785999E+04  0.50400001928E-02 0.  1.
</event>
<event>
 5   0  0.8423692E-07  0.2037335E+04  0.7818609E-02  0.8589362E-01
       -1   -1    0    0    0  501  0.00000000000E+00  0.00000000000E+00  0.96852258336E+03  0.96852258338E+03  0.50400001928E-02 0. -1.
        1   -1    0    0  501    0  0.00000000000E+00  0.00000000000E+00 -0.10714084781E+04  0.10714084782E+04  0.50400001928E-02 0.  1.
    10030    2    1    2    0    0  0.00000000000E+00  0.00000000000E+00 -0.10288589478E+03  0.20399310615E+04  0.20373348346E+04 0.  0.
        2    1    3    3  502    0  0.31173897700E+02 -0.91169729719E+03 -0.50536327591E+03  0.10428594413E+04  0.25500000920E-02 0.  1.
       -2    1    3    3    0  502 -0.31173897700E+02  0.91169729719E+03  0.40247738113E+03  0.99707162026E+03  0.25500000920E-02 0. -1.
</event>
<event>
 5   0  0.2382711E-06  0.4456427E+04  0.7818609E-02  0.7918310E-01
       -2   -1    0    0    0  501  0.00000000000E+00  0.00000000000E+00  0.17041300741E+04  0.17041300741E+04  0.25500000920E-02 0. -1.
        2   -1    0    0  501    0  0.00000000000E+00  0.00000000000E+00 -0.29134722074E+04  0.29134722074E+04  0.25500000920E-02 0.  1.
    10030    2    1    2    0    0  0.00000000000E+00  0.00000000000E+00 -0.12093421333E+04  0.46176022815E+04  0.44564270930E+04 0.  0.
        5    1    3    3  502    0 -0.20392163315E+04  0.86124287247E+03 -0.34096508902E+03  0.22397369966E+04  0.46999998093E+01 0. -1.
       -5    1    3    3    0  502  0.20392163315E+04 -0.86124287247E+03 -0.86837704427E+03  0.23778652849E+04  0.46999998093E+01 0.  1.
</event>
<event>
 5   0  0.1566576E-06  0.3614724E+04  0.7818609E-02  0.8087127E-01
       -2   -1    0    0    0  501  0.00000000000E+00  0.00000000000E+00  0.15503080915E+04  0.15503080915E+04  0.25500000920E-02 0.  1.
        2   -1    0    0  501    0  0.00000000000E+00  0.00000000000E+00 -0.21070374293E+04  0.21070374293E+04  0.25500000920E-02 0. -1.
    10030    2    1    2    0    0  0.00000000000E+00  0.00000000000E+00 -0.55672933776E+03  0.36573455208E+04  0.36147238764E+04 0.  0.
        4    1    3    3  502    0 -0.51778333168E+03 -0.14188780562E+04 -0.12826615453E+04  0.19815490833E+04  0.12699999809E+01 0. -1.
       -4    1    3    3    0  502  0.51778333168E+03  0.14188780562E+04  0.72593220759E+03  0.16757964374E+04  0.12699999809E+01 0.  1.
</event>
<event>
 5   0  0.7754556E-07  0.3582710E+04  0.7818609E-02  0.8094464E-01
        1   -1    0    0  501    0  0.00000000000E+00  0.00000000000E+00  0.22252494087E+04  0.22252494087E+04  0.50400001928E-02 0.  1.
       -1   -1    0    0    0  501  0.00000000000E+00  0.00000000000E+00 -0.14420643377E+04  0.14420643377E+04  0.50400001928E-02 0. -1.
    10030    2    1    2    0    0  0.00000000000E+00  0.00000000000E+00  0.78318507105E+03  0.36673137464E+04  0.35827100440E+04 0.  0.
        4    1    3    3  502    0 -0.49838967541E+03  0.14961492794E+04 -0.47823660900E+03  0.16478976916E+04  0.12699999809E+01 0. -1.
       -4    1    3    3    0  502  0.49838967541E+03 -0.14961492794E+04  0.12614216800E+04  0.20194160549E+04  0.12699999809E+01 0.  1.
</event>
<event>
 5   0  0.2536619E-06  0.3499768E+04  0.7818609E-02  0.8113845E-01
        2   -1    0    0  501    0  0.00000000000E+00  0.00000000000E+00  0.21522115405E+04  0.21522115405E+04  0.25500000920E-02 0. -1.
       -2   -1    0    0    0  501  0.00000000000E+00  0.00000000000E+00 -0.14227661139E+04  0.14227661139E+04  0.25500000920E-02 0.  1.
    10030    2    1    2    0    0  0.00000000000E+00  0.00000000000E+00  0.72944542667E+03  0.35749776544E+04  0.34997677922E+04 0.  0.
        1    1    3    3  502    0  0.90701606714E+03  0.52950001731E+03 -0.10650148700E+04  0.14957623768E+04  0.50400001928E-02 0.  1.
       -1    1    3    3    0  502 -0.90701606714E+03 -0.52950001731E+03  0.17944602967E+04  0.20792152777E+04  0.50400001928E-02 0. -1.
</event>
<event>
 5   0  0.2422436E-06  0.1995082E+04  0.7818609E-02  0.8608924E-01
       -2   -1    0    0    0  501  0.00000000000E+00  0.00000000000E+00  0.12647094530E+04  0.12647094530E+04  0.25500000920E-02 0.  1.
        2   -1    0    0  501    0  0.00000000000E+00  0.00000000000E+00 -0.78681145764E+03  0.78681145764E+03  0.25500000920E-02 0. -1.
    10030    2    1    2    0    0  0.00000000000E+00  0.00000000000E+00  0.47789799536E+03  0.20515209106E+04  0.19950818411E+04 0.  0.
        2    1    3    3  502    0  0.80582083614E+03 -0.37135708069E+03 -0.22983647360E+03  0.91655774828E+03  0.25500000920E-02 0. -1.
       -2    1    3    3    0  502 -0.80582083614E+03  0.37135708069E+03  0.70773446897E+03  0.11349631624E+04  0.25500000920E-02 0.  1.
</event>
<event>
 5   0  0.1566576E-06  0.1957365E+04  0.7818609E-02  0.8626817E-01
       -2   -1    0    0    0  501  0.00000000000E+00  0.00000000000E+00  0.57976478104E+03  0.57976478105E+03  0.25500000920E-02 0.  1.
        2   -1    0    0  501    0  0.00000000000E+00  0.00000000000E+00 -0.16520829169E+04  0.16520829169E+04  0.25500000920E-02 0. -1.
    10030    2    1    2    0    0  0.00000000000E+00  0.00000000000E+00 -0.10723181358E+04  0.22318476979E+04  0.19573650560E+04 0.  0.
        4    1    3    3  502    0  0.59183967059E+03 -0.62391138860E+03 -0.10688777983E+04  0.13718749860E+04  0.12699999809E+01 0. -1.
       -4    1    3    3    0  502 -0.59183967059E+03  0.62391138860E+03 -0.34403375437E+01  0.85997271197E+03  0.12699999809E+01 0.  1.
</event>
<event>
 5   0  0.8423692E-07  0.1985546E+04  0.7818609E-02  0.8613408E-01
        1   -1    0    0  501    0  0.00000000000E+00  0.00000000000E+00  0.32823136608E+04  0.32823136608E+04  0.50400001928E-02 0.  1.
       -1   -1    0    0    0  501  0.00000000000E+00  0.00000000000E+00 -0.30027554335E+03  0.30027554339E+03  0.50400001928E-02 0. -1.
    10030    2    1    2    0    0  0.00000000000E+00  0.00000000000E+00  0.29820381174E+04  0.35825892042E+04  0.19855462906E+04 0.  0.
        2    1    3    3  502    0 -0.39973438688E+03  0.11960723279E+03 -0.13438975027E+03  0.43835382418E+03  0.25500000920E-02 0. -1.
       -2    1    3    3    0  502  0.39973438688E+03 -0.11960723279E+03  0.31164278677E+04  0.31442353800E+04  0.25500000920E-02 0.  1.
</event>
<event>
 5   0  0.7754556E-07  0.2100157E+04  0.7818609E-02  0.8561174E-01
        1   -1    0    0  501    0  0.00000000000E+00  0.00000000000E+00  0.10156370300E+04  0.10156370300E+04  0.50400001928E-02 0. -1.
       -1   -1    0    0    0  501  0.00000000000E+00  0.00000000000E+00 -0.10856884344E+04  0.10856884344E+04  0.50400001928E-02 0.  1.
    10030    2    1    2    0    0  0.00000000000E+00  0.00000000000E+00 -0.70051404358E+02  0.21013254644E+04  0.21001574960E+04 0.  0.
        4    1    3    3  502    0  0.81249866869E+03 -0.19082913242E+02  0.63028433137E+03  0.10284834444E+04  0.12699999809E+01 0. -1.
       -4    1    3    3    0  502 -0.81249866869E+03  0.19082913242E+02 -0.70033573573E+03  0.10728420200E+04  0.12699999809E+01 0.  1.
</event>
<event>
 5   0  0.1566576E-06  0.3601367E+04  0.7818609E-02  0.8090179E-01
       -2   -1    0    0    0  501  0.00000000000E+00  0.00000000000E+00  0.32107098493E+04  0.32107098493E+04  0.25500000920E-02 0. -1.
        2   -1    0    0  501    0  0.00000000000E+00  0.00000000000E+00 -0.10098893133E+04  0.10098893133E+04  0.25500000920E-02 0.  1.
    10030    2    1    2    0    0  0.00000000000E+00  0.00000000000E+00  0.22008205360E+04  0.42205991625E+04  0.36013672763E+04 0.  0.
        4    1    3    3  502    0  0.11072081464E+04  0.82409509550E+03 -0.25490449876E+03  0.14035741955E+04  0.12699999809E+01 0.  1.
       -4    1    3    3    0  502 -0.11072081464E+04 -0.82409509550E+03  0.24557250347E+04  0.28170249671E+04  0.12699999809E+01 0. -1.
</event>
<event>
 5   0  0.1513502E-06  0.3799019E+04  0.7818609E-02  0.8046365E-01
        2   -1    0    0  501    0  0.00000000000E+00  0.00000000000E+00  0.23993661968E+04  0.23993661968E+04  0.25500000920E-02 0. -1.
       -2   -1    0    0    0  501  0.00000000000E+00  0.00000000000E+00 -0.15037872822E+04  0.15037872822E+04  0.25500000920E-02 0.  1.
    10030    2    1    2    0    0  0.00000000000E+00  0.00000000000E+00  0.89557891458E+03  0.39031534790E+04  0.37990190166E+04 0.  0.
        3    1    3    3  502    0 -0.89543853294E+03 -0.58555179867E+03 -0.11647728468E+04  0.15815741747E+04  0.10100000352E+00 0.  1.
       -3    1    3    3    0  502  0.89543853294E+03  0.58555179867E+03  0.20603517614E+04  0.23215793043E+04  0.10100000352E+00 0. -1.
</event>
<event>
 5   0  0.2382711E-06  0.3623166E+04  0.7818609E-02  0.8085206E-01
        2   -1    0    0  501    0  0.00000000000E+00  0.00000000000E+00  0.16943890042E+04  0.16943890042E+04  0.25500000920E-02 0.  1.
       -2   -1    0    0    0  501  0.00000000000E+00  0.00000000000E+00 -0.19368825957E+04  0.19368825957E+04  0.25500000920E-02 0. -1.
    10030    2    1    2    0    0  0.00000000000E+00  0.00000000000E+00 -0.24249359147E+03  0.36312715999E+04  0.36231657829E+04 0.  0.
        5    1    3    3  502    0  0.11848395008E+04  0.10573985379E+04 -0.99490461540E+03  0.18739780133E+04  0.46999998093E+01 0. -1.
       -5    1    3    3    0  502 -0.11848395008E+04 -0.10573985379E+04  0.75241102393E+03  0.17572935866E+04  0.46999998093E+01 0.  1.
</event>
<event>
 5   0  0.8452742E-07  0.3197628E+04  0.7818609E-02  0.8189444E-01
        1   -1    0    0  501    0  0.00000000000E+00  0.00000000000E+00  0.18209382221E+04  0.18209382221E+04  0.50400001928E-02 0. -1.
       -1   -1    0    0    0  501  0.00000000000E+00  0.00000000000E+00 -0.14037851376E+04  0.14037851376E+04  0.50400001928E-02 0.  1.
    10030    2    1    2    0    0  0.00000000000E+00  0.00000000000E+00  0.41715308447E+03  0.32247233597E+04  0.31976278787E+04 0.  0.
        1    1    3    3  502    0 -0.47343264050E+02  0.70948814378E+03  0.16526992160E+04  0.17991746745E+04  0.50400001928E-02 0. -1.
       -1    1    3    3    0  502  0.47343264050E+02 -0.70948814378E+03 -0.12355461315E+04  0.14255486852E+04  0.50400001928E-02 0.  1.
</event>
<event>
 5   0  0.2422436E-06  0.3080739E+04  0.7818609E-02  0.8221044E-01
       -2   -1    0    0    0  501  0.00000000000E+00  0.00000000000E+00  0.10308469352E+04  0.10308469353E+04  0.25500000920E-02 0. -1.
        2   -1    0    0  501    0  0.00000000000E+00  0.00000000000E+00 -0.23017367878E+04  0.23017367878E+04  0.25500000920E-02 0.  1.
    10030    2    1    2    0    0  0.00000000000E+00  0.00000000000E+00 -0.12708898526E+04  0.33325837231E+04  0.30807390759E+04 0.  0.
        2    1    3    3  502    0  0.10774295791E+04 -0.10064063064E+04 -0.15284683514E+03  0.14822517690E+04  0.25500000920E-02 0. -1.
       -2    1    3    3    0  502 -0.10774295791E+04  0.10064063064E+04 -0.11180430174E+04  0.18503319541E+04  0.25500000920E-02 0.  1.
</event>
<event>
 5   0  0.1566576E-06  0.2555803E+04  0.7818609E-02  0.8383371E-01
       -2   -1    0    0    0  501  0.00000000000E+00  0.00000000000E+00  0.66287032550E+03  0.66287032551E+03  0.25500000920E-02 0.  1.
        2   -1    0    0  501    0  0.00000000000E+00  0.00000000000E+00 -0.24635779548E+04  0.24635779548E+04  0.25500000920E-02 0. -1.
    10030    2    1    2    0    0  0.00000000000E+00  0.00000000000E+00 -0.18007076293E+04  0.31264482803E+04  0.25558033733E+04 0.  0.
        4    1    3    3  502    0 -0.47662627849E+03 -0.10438569739E+04 -0.21246342254E+03  0.11670271248E+04  0.12699999809E+01 0.  1.
       -4    1    3    3    0  502  0.47662627849E+03  0.10438569739E+04 -0.15882442067E+04  0.19594211555E+04  0.12699999809E+01 0. -1.
</event>
<event>
 5   0  0.7754556E-07  0.2374545E+04  0.7818609E-02  0.8449095E-01
       -1   -1    0    0    0  501  0.00000000000E+00  0.00000000000E+00  0.10672316489E+04  0.10672316489E+04  0.50400001928E-02 0. -1.
        1   -1    0    0  501    0  0.00000000000E+00  0.00000000000E+00 -0.13208156949E+04  0.13208156949E+04  0.50400001928E-02 0.  1.
    10030    2    1    2    0    0  0.00000000000E+00  0.00000000000E+00 -0.25358404604E+03  0.23880473438E+04  0.23745452718E+04 0.  0.
        4    1    3    3  502    0 -0.10255683758E+04 -0.41116304808E+03  0.31015420311E+03  0.11476248464E+04  0.12699999809E+01 0. -1.
       -4    1    3    3    0  502  0.10255683758E+04  0.41116304808E+03 -0.56373824915E+03  0.12404224974E+04  0.12699999809E+01 0.  1.
</event>
<event>
 5   0  0.7754556E-07  0.3620803E+04  0.7818609E-02  0.8085743E-01
        1   -1    0    0  501    0  0.00000000000E+00  0.00000000000E+00  0.23583311071E+04  0.23583311071E+04  0.50400001928E-02 0.  1.
       -1   -1    0    0    0  501  0.00000000000E+00  0.00000000000E+00 -0.13897768689E+04  0.13897768689E+04  0.50400001928E-02 0. -1.
    10030    2    1    2    0    0  0.00000000000E+00  0.00000000000E+00  0.96855423826E+03  0.37481079760E+04  0.36208032379E+04 0.  0.
        4    1    3    3  502    0  0.11567039195E+03 -0.17741541885E+04  0.83767400684E+03  0.19653758111E+04  0.12699999809E+01 0. -1.
       -4    1    3    3    0  502 -0.11567039195E+03  0.17741541885E+04  0.13088023143E+03  0.17827321650E+04  0.12699999809E+01 0.  1.
</event>
<event>
 5   0  0.1513502E-06  0.3770662E+04  0.7818609E-02  0.8052480E-01
       -2   -1    0    0    0  501  0.00000000000E+00  0.00000000000E+00  0.19011488696E+04  0.19011488696E+04  0.25500000920E-02 0. -1.
        2   -1    0    0  501    0  0.00000000000E+00  0.00000000000E+00 -0.18696450660E+04  0.18696450660E+04  0.25500000920E-02 0.  1.
    10030    2    1    2    0    0  0.00000000000E+00  0.00000000000E+00  0.31503803575E+02  0.37707939356E+04  0.37706623311E+04 0.  0.
        3    1    3    3  502    0  0.16982980335E+04 -0.80440467442E+03 -0.13653769662E+03  0.18841246359E+04  0.10100000352E+00 0. -1.
       -3    1    3    3    0  502 -0.16982980335E+04  0.80440467442E+03  0.16804150019E+03  0.18866692998E+04  0.10100000352E+00 0.  1.
</event>
<event>
 5   0  0.8423692E-07  0.3724400E+04  0.7818609E-02  0.8062576E-01
       -1   -1    0    0    0  501  0.00000000000E+00  0.00000000000E+00  0.18787183832E+04  0.18787183832E+04  0.50400001928E-02 0.  1.
        1   -1    0    0  501    0  0.00000000000E+00  0.00000000000E+00 -0.18458269998E+04  0.18458269998E+04  0.50400001928E-02 0. -1.
    10030    2    1    2    0    0  0.00000000000E+00  0.00000000000E+00  0.32891383366E+02  0.37245453830E+04  0.37244001486E+04 0.  0.
        2    1    3    3  502    0  0.15438795503E+04  0.53330957983E+03 -0.87790788585E+03  0.18543746735E+04  0.25500000920E-02 0. -1.
       -2    1    3    3    0  502 -0.15438795503E+04 -0.53330957983E+03  0.91079926922E+03  0.18701707095E+04  0.25500000920E-02 0.  1.
</event>
<event>
 5   0  0.8452742E-07  0.3575669E+04  0.7818609E-02  0.8096088E-01
       -1   -1    0    0    0  501  0.00000000000E+00  0.00000000000E+00  0.11387922602E+04  0.11387922602E+04  0.50400001928E-02 0.  1.
        1   -1    0    0  501    0  0.00000000000E+00  0.00000000000E+00 -0.28067915313E+04  0.28067915313E+04  0.50400001928E-02 0. -1.
    10030    2    1    2    0    0  0.00000000000E+00  0.00000000000E+00 -0.16679992711E+04  0.39455837915E+04  0.35756691524E+04 0.  0.
        1    1    3    3  502    0 -0.11451837877E+03 -0.16532158518E+04 -0.93685810579E+02  0.16598235277E+04  0.50400001928E-02 0.  1.
       -1    1    3    3    0  502  0.11451837877E+03  0.16532158518E+04 -0.15743134605E+04  0.22857602638E+04  0.50400001928E-02 0. -1.
</event>
<event>
 5   0  0.7754556E-07  0.3365614E+04  0.7818609E-02  0.8146398E-01
       -1   -1    0    0    0  501  0.00000000000E+00  0.00000000000E+00  0.20236380341E+04  0.20236380341E+04  0.50400001928E-02 0. -1.
        1   -1    0    0  501    0  0.00000000000E+00  0.00000000000E+00 -0.13993807318E+04  0.13993807318E+04  0.50400001928E-02 0.  1.
    10030    2    1    2    0    0  0.00000000000E+00  0.00000000000E+00  0.62425730226E+03  0.34230187659E+04  0.33656144004E+04 0.  0.
        4    1    3    3  502    0  0.74660936594E+03 -0.11213658179E+04  0.13377689310E+04  0.18985558112E+04  0.12699999809E+01 0. -1.
       -4    1    3    3    0  502 -0.74660936594E+03  0.11213658179E+04 -0.71351162873E+03  0.15244629546E+04  0.12699999809E+01 0.  1.
</event>
<event>
 5   0  0.8452742E-07  0.2946689E+04  0.7818609E-02  0.8259120E-01
       -1   -1    0    0    0  501  0.00000000000E+00  0.00000000000E+00  0.14316852252E+04  0.14316852252E+04  0.50400001928E-02 0. -1.
        1   -1    0    0  501    0  0.00000000000E+00  0.00000000000E+00 -0.15162157794E+04  0.15162157794E+04  0.50400001928E-02 0.  1.
    10030    2    1    2    0    0  0.00000000000E+00  0.00000000000E+00 -0.84530554216E+02  0.29479010046E+04  0.29466888058E+04 0.  0.
        1    1    3    3  502    0  0.58604970702E+03 -0.55902838790E+03 -0.12735342468E+04  0.15092569282E+04  0.50400001928E-02 0.  1.
       -1    1    3    3    0  502 -0.58604970702E+03  0.55902838790E+03  0.11890036926E+04  0.14386440764E+04  0.50400001928E-02 0. -1.
</event>
<event>
 5   0  0.1513502E-06  0.3675220E+04  0.7818609E-02  0.8073476E-01
       -2   -1    0    0    0  501  0.00000000000E+00  0.00000000000E+00  0.13239866286E+04  0.13239866286E+04  0.25500000920E-02 0.  1.
        2   -1    0    0  501    0  0.00000000000E+00  0.00000000000E+00 -0.25504869105E+04  0.25504869105E+04  0.25500000920E-02 0. -1.
    10030    2    1    2    0    0  0.00000000000E+00  0.00000000000E+00 -0.12265002819E+04  0.38744735391E+04  0.36752200292E+04 0.  0.
        3    1    3    3  502    0  0.14062955640E+04 -0.11286280813E+04 -0.98648109784E+03  0.20553864663E+04  0.10100000352E+00 0.  1.
       -3    1    3    3    0  502 -0.14062955640E+04  0.11286280813E+04 -0.24001918409E+03  0.18190870727E+04  0.10100000352E+00 0. -1.
</event>
<event>
 5   0  0.8423692E-07  0.3170246E+04  0.7818609E-02  0.8196720E-01
       -1   -1    0    0    0  501  0.00000000000E+00  0.00000000000E+00  0.16308551754E+04  0.16308551754E+04  0.50400001928E-02 0.  1.
        1   -1    0    0  501    0  0.00000000000E+00  0.00000000000E+00 -0.15406732570E+04  0.15406732570E+04  0.50400001928E-02 0. -1.
    10030    2    1    2    0    0  0.00000000000E+00  0.00000000000E+00  0.90181918440E+02  0.31715284324E+04  0.31702460187E+04 0.  0.
        2    1    3    3  502    0 -0.28876548336E+03 -0.14848758314E+04  0.51896306983E+03  0.15992386961E+04  0.25500000920E-02 0.  1.
       -2    1    3    3    0  502  0.28876548336E+03  0.14848758314E+04 -0.42878115139E+03  0.15722897363E+04  0.25500000920E-02 0. -1.
</event>
<event>
 5   0  0.7754556E-07  0.3647203E+04  0.7818609E-02  0.8079764E-01
        1   -1    0    0  501    0  0.00000000000E+00  0.00000000000E+00  0.10537177813E+04  0.10537177814E+04  0.50400001928E-02 0. -1.
       -1   -1    0    0    0  501  0.00000000000E+00  0.00000000000E+00 -0.31559895169E+04  0.31559895169E+04  0.50400001928E-02 0.  1.
    10030    2    1    2    0    0  0.00000000000E+00  0.00000000000E+00 -0.21022717356E+04  0.42097072983E+04  0.36472029128E+04 0.  0.
        4    1    3    3  502    0  0.85368638722E+03 -0.35007838026E+03 -0.28666853452E+04  0.30115148682E+04  0.12699999809E+01 0. -1.
       -4    1    3    3    0  502 -0.85368638722E+03  0.35007838026E+03  0.76441360963E+03  0.11981924301E+04  0.12699999809E+01 0.  1.
</event>
<event>
 5   0  0.8452742E-07  0.1779370E+04  0.7818609E-02  0.8717348E-01
        1   -1    0    0  501    0  0.00000000000E+00  0.00000000000E+00  0.17331367535E+04  0.17331367535E+04  0.50400001928E-02 0.  1.
       -1   -1    0    0    0  501  0.00000000000E+00  0.00000000000E+00 -0.45670910604E+03  0.45670910607E+03  0.50400001928E-02 0. -1.
    10030    2    1    2    0    0  0.00000000000E+00  0.00000000000E+00  0.12764276474E+04  0.21898458596E+04  0.17793699305E+04 0.  0.
        1    1    3    3  502    0  0.32699344771E+03  0.76223995601E+03  0.24208413881E+03  0.86402499713E+03  0.50400001928E-02 0. -1.
       -1    1    3    3    0  502 -0.32699344771E+03 -0.76223995601E+03  0.10343435086E+04  0.13258208624E+04  0.50400001928E-02 0.  1.
</event>
<event>
 5   0  0.1513502E-06  0.3143762E+04  0.7818609E-02  0.8203829E-01
       -2   -1    0    0    0  501  0.00000000000E+00  0.00000000000E+00  0.10462063500E+04  0.10462063500E+04  0.25500000920E-02 0. -1.
        2   -1    0    0  501    0  0.00000000000E+00  0.00000000000E+00 -0.23616856191E+04  0.23616856191E+04  0.25500000920E-02 0.  1.
    10030    2    1    2    0    0  0.00000000000E+00  0.00000000000E+00 -0.13154792691E+04  0.34078919692E+04  0.31437623902E+04 0.  0.
        3    1    3    3  502    0 -0.13832194736E+04  0.63200382680E+03 -0.22673477421E+03  0.15375739388E+04  0.10100000352E+00 0. -1.
       -3    1    3    3    0  502  0.13832194736E+04 -0.63200382680E+03 -0.10887444949E+04  0.18703180304E+04  0.10100000352E+00 0.  1.
</event>
<event>
 5   0  0.1566576E-06  0.3472956E+04  0.7818609E-02  0.8120229E-01
        2   -1    0    0  501    0  0.00000000000E+00  0.00000000000E+00  0.24522597364E+04  0.24522597364E+04  0.25500000920E-02 0.  1.
       -2   -1    0    0    0  501  0.00000000000E+00  0.00000000000E+00 -0.12296236959E+04  0.12296236959E+04  0.25500000920E-02 0. -1.
    10030    2    1    2    0    0  0.00000000000E+00  0.00000000000E+00  0.12226360406E+04  0.36818834323E+04  0.34729564814E+04 0.  0.
        4    1    3    3  502    0 -0.90004441460E+03 -0.65190602668E+03  0.20258621964E+04  0.23106667149E+04  0.12699999809E+01 0.  1.
       -4    1    3    3    0  502  0.90004441460E+03  0.65190602668E+03 -0.80322615578E+03  0.13712167174E+04  0.12699999809E+01 0. -1.
</event>
<event>
 5   0  0.1634374E-06  0.2166055E+04  0.7818609E-02  0.8532691E-01
        1   -1    0    0  501    0  0.00000000000E+00  0.00000000000E+00  0.23243201571E+04  0.23243201571E+04  0.50400001928E-02 0. -1.
       -1   -1    0    0    0  501  0.00000000000E+00  0.00000000000E+00 -0.50464172736E+03  0.50464172739E+03  0.50400001928E-02 0.  1.
    10030    2    1    2    0    0  0.00000000000E+00  0.00000000000E+00  0.18196784297E+04  0.28289618845E+04  0.21660553447E+04 0.  0.
        5    1    3    3  502    0  0.25472002484E+03  0.34750978939E+03  0.22075503990E+04  0.22492101278E+04  0.46999998093E+01 0. -1.
       -5    1    3    3    0  502 -0.25472002484E+03 -0.34750978939E+03 -0.38787196932E+03  0.57975175667E+03  0.46999998093E+01 0.  1.
</event>
<event>
 5   0  0.1566576E-06  0.3776128E+04  0.7818609E-02  0.8051297E-01
        2   -1    0    0  501    0  0.00000000000E+00  0.00000000000E+00  0.17914819673E+04  0.17914819673E+04  0.25500000920E-02 0.  1.
       -2   -1    0    0    0  501  0.00000000000E+00  0.00000000000E+00 -0.19898531995E+04  0.19898531995E+04  0.25500000920E-02 0. -1.
    10030    2    1    2    0    0  0.00000000000E+00  0.00000000000E+00 -0.19837123224E+03  0.37813351668E+04  0.37761282417E+04 0.  0.
        4    1    3    3  502    0 -0.23315598863E+03  0.56082047496E+03  0.16909883885E+04  0.17967539239E+04  0.12699999809E+01 0.  1.
       -4    1    3    3    0  502  0.23315598863E+03 -0.56082047496E+03 -0.18893596207E+04  0.19845812429E+04  0.12699999809E+01 0. -1.
</event>
<event>
 5   0  0.8452742E-07  0.3622755E+04  0.7818609E-02  0.8085299E-01
        1   -1    0    0  501    0  0.00000000000E+00  0.00000000000E+00  0.14578400001E+04  0.14578400001E+04  0.50400001928E-02 0. -1.
       -1   -1    0    0    0  501  0.00000000000E+00  0.00000000000E+00 -0.22506508187E+04  0.22506508187E+04  0.50400001928E-02 0.  1.
    10030    2    1    2    0    0  0.00000000000E+00  0.00000000000E+00 -0.79281081856E+03  0.37084908188E+04  0.36227551890E+04 0.  0.
        1    1    3    3  502    0  0.14748913574E+03  0.13215183099E+04  0.86271404797E+03  0.15850675750E+04  0.50400001928E-02 0. -1.
       -1    1    3    3    0  502 -0.14748913574E+03 -0.13215183099E+04 -0.16555248665E+04  0.21234232438E+04  0.50400001928E-02 0.  1.
</event>
<event>
 5   0  0.2422436E-06  0.2280452E+04  0.7818609E-02  0.8485669E-01
        2   -1    0    0  501    0  0.00000000000E+00  0.00000000000E+00  0.26966377355E+04  0.26966377355E+04  0.25500000920E-02 0.  1.
       -2   -1    0    0    0  501  0.00000000000E+00  0.00000000000E+00 -0.48212442410E+03  0.48212442411E+03  0.25500000920E-02 0. -1.
    10030    2    1    2    0    0  0.00000000000E+00  0.00000000000E+00  0.22145133114E+04  0.31787621596E+04  0.22804516353E+04 0.  0.
        2    1    3    3  502    0  0.40699789843E+03  0.37120317030E+03 -0.28434242194E+03  0.61991103869E+03  0.25500000920E-02 0. -1.
       -2    1    3    3    0  502 -0.40699789843E+03 -0.37120317030E+03  0.24988557333E+04  0.25588511209E+04  0.25500000920E-02 0.  1.
</event>
<event>
 5   0  0.1566576E-06  0.3579181E+04  0.7818609E-02  0.8095277E-01
       -2   -1    0    0    0  501  0.00000000000E+00  0.00000000000E+00  0.18739939326E+04  0.18739939326E+04  0.25500000920E-02 0.  1.
        2   -1    0    0  501    0  0.00000000000E+00  0.00000000000E+00 -0.17089881295E+04  0.17089881295E+04  0.25500000920E-02 0. -1.
    10030    2    1    2    0    0  0.00000000000E+00  0.00000000000E+00  0.16500580310E+03  0.35829820622E+04  0.35791805686E+04 0.  0.
        4    1    3    3  502    0 -0.79818301784E+03  0.13426778825E+04  0.95678710236E+03  0.18317541315E+04  0.12699999809E+01 0.  1.
       -4    1    3    3    0  502  0.79818301784E+03 -0.13426778825E+04 -0.79178129927E+03  0.17512279306E+04  0.12699999809E+01 0. -1.
</event>
<event>
 5   0  0.8423692E-07  0.3648070E+04  0.7818609E-02  0.8079569E-01
        1   -1    0    0  501    0  0.00000000000E+00  0.00000000000E+00  0.20015645283E+04  0.20015645283E+04  0.50400001928E-02 0. -1.
       -1   -1    0    0    0  501  0.00000000000E+00  0.00000000000E+00 -0.16622511014E+04  0.16622511014E+04  0.50400001928E-02 0.  1.
    10030    2    1    2    0    0  0.00000000000E+00  0.00000000000E+00  0.33931342684E+03  0.36638156297E+04  0.36480695398E+04 0.  0.
        2    1    3    3  502    0 -0.17922236632E+04  0.18576677623E+02  0.50978068027E+03  0.18634073881E+04  0.25500000920E-02 0. -1.
       -2    1    3    3    0  502  0.17922236632E+04 -0.18576677623E+02 -0.17046725343E+03  0.18004082416E+04  0.25500000920E-02 0.  1.
</event>
<event>
 5   0  0.1566576E-06  0.3575621E+04  0.7818609E-02  0.8096099E-01
        2   -1    0    0  501    0  0.00000000000E+00  0.00000000000E+00  0.18674557115E+04  0.18674557115E+04  0.25500000920E-02 0.  1.
       -2   -1    0    0    0  501  0.00000000000E+00  0.00000000000E+00 -0.17115623468E+04  0.17115623468E+04  0.25500000920E-02 0. -1.
    10030    2    1    2    0    0  0.00000000000E+00  0.00000000000E+00  0.15589336474E+03  0.35790180583E+04  0.35756212776E+04 0.  0.
        4    1    3    3  502    0  0.16752066511E+04 -0.42722281957E+03  0.53382265289E+03  0.18093658831E+04  0.12699999809E+01 0.  1.
       -4    1    3    3    0  502 -0.16752066511E+04  0.42722281957E+03 -0.37792928815E+03  0.17696521752E+04  0.12699999809E+01 0. -1.
</event>
<event>
 5   0  0.2382711E-06  0.2135120E+04  0.7818609E-02  0.8545929E-01
        2   -1    0    0  501    0  0.00000000000E+00  0.00000000000E+00  0.24211349155E+04  0.24211349155E+04  0.25500000920E-02 0.  1.
       -2   -1    0    0    0  501  0.00000000000E+00  0.00000000000E+00 -0.47072324846E+03  0.47072324847E+03  0.25500000920E-02 0. -1.
    10030    2    1    2    0    0  0.00000000000E+00  0.00000000000E+00  0.19504116670E+04  0.28918581640E+04  0.21351201300E+04 0.  0.
        5    1    3    3  502    0  0.19396765488E+03  0.27974100897E+03 -0.39523037658E+03  0.52163936183E+03  0.46999998093E+01 0. -1.
       -5    1    3    3    0  502 -0.19396765488E+03 -0.27974100897E+03  0.23456420436E+04  0.23702188021E+04  0.46999998093E+01 0.  1.
</event>
<event>
 5   0  0.1566576E-06  0.3566257E+04  0.7818609E-02  0.8098265E-01
        2   -1    0    0  501    0  0.00000000000E+00  0.00000000000E+00  0.12857199358E+04  0.12857199358E+04  0.25500000920E-02 0.  1.
       -2   -1    0    0    0  501  0.00000000000E+00  0.00000000000E+00 -0.24729697822E+04  0.24729697822E+04  0.25500000920E-02 0. -1.
    10030    2    1    2    0    0  0.00000000000E+00  0.00000000000E+00 -0.11872498464E+04  0.37586897179E+04  0.35662566086E+04 0.  0.
        4    1    3    3  502    0  0.11785005407E+04 -0.68740265118E+03  0.61643753506E+03  0.14971248367E+04  0.12699999809E+01 0.  1.
       -4    1    3    3    0  502 -0.11785005407E+04  0.68740265118E+03 -0.18036873814E+04  0.22615648812E+04  0.12699999809E+01 0. -1.
</event>
<event>
 5   0  0.1513502E-06  0.3637680E+04  0.7818609E-02  0.8081915E-01
       -2   -1    0    0    0  501  0.00000000000E+00  0.00000000000E+00  0.14146876260E+04  0.14146876260E+04  0.25500000920E-02 0.  1.
        2   -1    0    0  501    0  0.00000000000E+00  0.00000000000E+00 -0.23384512618E+04  0.23384512618E+04  0.25500000920E-02 0. -1.
    10030    2    1    2    0    0  0.00000000000E+00  0.00000000000E+00 -0.92376363577E+03  0.37531388878E+04  0.36376795154E+04 0.  0.
        3    1    3    3  502    0  0.17608297926E+04  0.45463472117E+03 -0.49391174529E+03  0.18844530003E+04  0.10100000352E+00 0. -1.
       -3    1    3    3    0  502 -0.17608297926E+04 -0.45463472117E+03 -0.42985189047E+03  0.18686858875E+04  0.10100000352E+00 0.  1.
</event>
<event>
 5   0  0.2382711E-06  0.3432995E+04  0.7818609E-02  0.8129855E-01
        2   -1    0    0  501    0  0.00000000000E+00  0.00000000000E+00  0.12985567725E+04  0.12985567725E+04  0.25500000920E-02 0.  1.
       -2   -1    0    0    0  501  0.00000000000E+00  0.00000000000E+00 -0.22689527830E+04  0.22689527830E+04  0.25500000920E-02 0. -1.
    10030    2    1    2    0    0  0.00000000000E+00  0.00000000000E+00 -0.97039601054E+03  0.35675095555E+04  0.34329951954E+04 0.  0.
        5    1    3    3  502    0 -0.11623774284E+04  0.13304229477E+03 -0.17904051366E+04  0.21387833414E+04  0.46999998093E+01 0. -1.
       -5    1    3    3    0  502  0.11623774284E+04 -0.13304229477E+03  0.82000912605E+03  0.14287262141E+04  0.46999998093E+01 0.  1.
</event>
<event>
 5   0  0.8423692E-07  0.3560017E+04  0.7818609E-02  0.8099712E-01
       -1   -1    0    0    0  501  0.00000000000E+00  0.00000000000E+00  0.30242622264E+04  0.30242622264E+04  0.50400001928E-02 0. -1.
        1   -1    0    0  501    0  0.00000000000E+00  0.00000000000E+00 -0.10476702407E+04  0.10476702407E+04  0.50400001928E-02 0.  1.
    10030    2    1    2    0    0  0.00000000000E+00  0.00000000000E+00  0.19765919857E+04  0.40719324671E+04  0.35600165924E+04 0.  0.
        2    1    3    3  502    0 -0.97112578569E+03  0.54877073049E+02 -0.71681670151E+03  0.12082727210E+04  0.25500000920E-02 0. -1.
       -2    1    3    3    0  502  0.97112578569E+03 -0.54877073049E+02  0.26934086872E+04  0.28636597461E+04  0.25500000920E-02 0.  1.
</event>
<event>
 5   0  0.8452742E-07  0.3401114E+04  0.7818609E-02  0.8137633E-01
        1   -1    0    0  501    0  0.00000000000E+00  0.00000000000E+00  0.14701139340E+04  0.14701139341E+04  0.50400001928E-02 0. -1.
       -1   -1    0    0    0  501  0.00000000000E+00  0.00000000000E+00 -0.19671223132E+04  0.19671223132E+04  0.50400001928E-02 0.  1.
    10030    2    1    2    0    0  0.00000000000E+00  0.00000000000E+00 -0.49700837916E+03  0.34372362473E+04  0.34011138897E+04 0.  0.
        1    1    3    3  502    0  0.41585113171E+03 -0.15808927126E+04 -0.72224713763E+03  0.17871191511E+04  0.50400001928E-02 0.  1.
       -1    1    3    3    0  502 -0.41585113171E+03  0.15808927126E+04  0.22523875847E+03  0.16501170961E+04  0.50400001928E-02 0. -1.
</event>
<event>
 5   0  0.8452742E-07  0.2190500E+04  0.7818609E-02  0.8522393E-01
       -1   -1    0    0    0  501  0.00000000000E+00  0.00000000000E+00  0.78031785506E+03  0.78031785507E+03  0.50400001928E-02 0.  1.
        1   -1    0    0  501    0  0.00000000000E+00  0.00000000000E+00 -0.15372866912E+04  0.15372866912E+04  0.50400001928E-02 0. -1.
    10030    2    1    2    0    0  0.00000000000E+00  0.00000000000E+00 -0.75696883618E+03  0.23176045463E+04  0.21904997179E+04 0.  0.
        1    1    3    3  502    0  0.32764301073E+03 -0.95776853463E+03  0.63995132029E+02  0.10142809696E+04  0.50400001928E-02 0. -1.
       -1    1    3    3    0  502 -0.32764301073E+03  0.95776853463E+03 -0.82096396821E+03  0.13033235767E+04  0.50400001928E-02 0.  1.
</event>
<event>
 5   0  0.2536619E-06  0.3218501E+04  0.7818609E-02  0.8183948E-01
        2   -1    0    0  501    0  0.00000000000E+00  0.00000000000E+00  0.15101275711E+04  0.15101275711E+04  0.25500000920E-02 0. -1.
       -2   -1    0    0    0  501  0.00000000000E+00  0.00000000000E+00 -0.17148802155E+04  0.17148802155E+04  0.25500000920E-02 0.  1.
    10030    2    1    2    0    0  0.00000000000E+00  0.00000000000E+00 -0.20475264444E+03  0.32250077866E+04  0.32185014492E+04 0.  0.
        1    1    3    3  502    0  0.17149851145E+03 -0.10220362466E+04 -0.13360101564E+04  0.16908261197E+04  0.50400001928E-02 0.  1.
       -1    1    3    3    0  502 -0.17149851145E+03  0.10220362466E+04  0.11312575120E+04  0.15341816670E+04  0.50400001928E-02 0. -1.
</event>
<event>
 5   0  0.1513502E-06  0.3434303E+04  0.7818609E-02  0.8129538E-01
        2   -1    0    0  501    0  0.00000000000E+00  0.00000000000E+00  0.11848441779E+04  0.11848441779E+04  0.25500000920E-02 0. -1.
       -2   -1    0    0    0  501  0.00000000000E+00  0.00000000000E+00 -0.24886057004E+04  0.24886057004E+04  0.25500000920E-02 0.  1.
    10030    2    1    2    0    0  0.00000000000E+00  0.00000000000E+00 -0.13037615225E+04  0.36734498783E+04  0.34343034084E+04 0.  0.
        3    1    3    3  502    0  0.15640525771E+04  0.21391963061E+03  0.70885136867E+02  0.15802046656E+04  0.10100000352E+00 0. -1.
       -3    1    3    3    0  502 -0.15640525771E+04 -0.21391963061E+03 -0.13746466594E+04  0.20932452127E+04  0.10100000352E+00 0.  1.
</event>
<event>
 5   0  0.2422436E-06  0.3650216E+04  0.7818609E-02  0.8079085E-01
       -2   -1    0    0    0  501  0.00000000000E+00  0.00000000000E+00  0.25568267269E+04  0.25568267269E+04  0.25500000920E-02 0. -1.
        2   -1    0    0  501    0  0.00000000000E+00  0.00000000000E+00 -0.13027945920E+04  0.13027945920E+04  0.25500000920E-02 0.  1.
    10030    2    1    2    0    0  0.00000000000E+00  0.00000000000E+00  0.12540321348E+04  0.38596213189E+04  0.36502164497E+04 0.  0.
        2    1    3    3  502    0  0.13237694171E+04  0.21829750139E+03  0.19353354707E+04  0.23548975887E+04  0.25500000920E-02 0. -1.
       -2    1    3    3    0  502 -0.13237694171E+04 -0.21829750139E+03 -0.68130333588E+03  0.15047237302E+04  0.25500000920E-02 0.  1.
</event>
<event>
 5   0  0.7754556E-07  0.3466214E+04  0.7818609E-02  0.8121844E-01
       -1   -1    0    0    0  501  0.00000000000E+00  0.00000000000E+00  0.18241811456E+04  0.18241811456E+04  0.50400001928E-02 0. -1.
        1   -1    0    0  501    0  0.00000000000E+00  0.00000000000E+00 -0.16465794724E+04  0.16465794724E+04  0.50400001928E-02 0.  1.
    10030    2    1    2    0    0  0.00000000000E+00  0.00000000000E+00  0.17760167323E+03  0.34707606180E+04  0.34662136278E+04 0.  0.
        4    1    3    3  502    0  0.16671703464E+04 -0.24001930260E+03  0.49749233728E+03  0.17562933890E+04  0.12699999809E+01 0. -1.
       -4    1    3    3    0  502 -0.16671703464E+04  0.24001930260E+03 -0.31989066405E+03  0.17144672291E+04  0.12699999809E+01 0.  1.
</event>
<event>
 5   0  0.2422436E-06  0.3667788E+04  0.7818609E-02  0.8075138E-01
        2   -1    0    0  501    0  0.00000000000E+00  0.00000000000E+00  0.23051418180E+04  0.23051418180E+04  0.25500000920E-02 0. -1.
       -2   -1    0    0    0  501  0.00000000000E+00  0.00000000000E+00 -0.14589848823E+04  0.14589848823E+04  0.25500000920E-02 0.  1.
    10030    2    1    2    0    0  0.00000000000E+00  0.00000000000E+00  0.84615693571E+03  0.37641267002E+04  0.36677879240E+04 0.  0.
        2    1    3    3  502    0 -0.64321250869E+03 -0.10176393279E+04  0.18428371224E+04  0.22012180248E+04  0.25500000920E-02 0. -1.
       -2    1    3    3    0  502  0.64321250869E+03  0.10176393279E+04 -0.99668018673E+03  0.15629086754E+04  0.25500000920E-02 0.  1.
</event>
<event>
 5   0  0.7754556E-07  0.2267119E+04  0.7818609E-02  0.8491000E-01
        1   -1    0    0  501    0  0.00000000000E+00  0.00000000000E+00  0.18444270795E+04  0.18444270795E+04  0.50400001928E-02 0.  1.
       -1   -1    0    0    0  501  0.00000000000E+00  0.00000000000E+00 -0.69666989773E+03  0.69666989774E+03  0.50400001928E-02 0. -1.
    10030    2    1    2    0    0  0.00000000000E+00  0.00000000000E+00  0.11477571818E+04  0.25410969773E+04  0.22671187220E+04 0.  0.
        4    1    3    3  502    0  0.80103924197E+03  0.14672485490E+03  0.14576897280E+04  0.16697463898E+04  0.12699999809E+01 0.  1.
       -4    1    3    3    0  502 -0.80103924197E+03 -0.14672485490E+03 -0.30993254619E+03  0.87135058749E+03  0.12699999809E+01 0. -1.
</event>
<event>
 5   0  0.1634374E-06  0.3484104E+04  0.7818609E-02  0.8117567E-01
       -1   -1    0    0    0  501  0.00000000000E+00  0.00000000000E+00  0.24494248258E+04  0.24494248258E+04  0.50400001928E-02 0. -1.
        1   -1    0    0  501    0  0.00000000000E+00  0.00000000000E+00 -0.12389624651E+04  0.12389624651E+04  0.50400001928E-02 0.  1.
    10030    2    1    2    0    0  0.00000000000E+00  0.00000000000E+00  0.12104623607E+04  0.36883872909E+04  0.34841041433E+04 0.  0.
        5    1    3    3  502    0 -0.50955075806E+03  0.18794621215E+03 -0.11470405610E+04  0.12691295805E+04  0.46999998093E+01 0.  1.
       -5    1    3    3    0  502  0.50955075806E+03 -0.18794621215E+03  0.23575029216E+04  0.24192577104E+04  0.46999998093E+01 0. -1.
</event>
<event>
 5   0  0.1640729E-06  0.1906825E+04  0.7818609E-02  0.8651466E-01
       -2   -1    0    0    0  501  0.00000000000E+00  0.00000000000E+00  0.59845598176E+03  0.59845598176E+03  0.25500000920E-02 0.  1.
        2   -1    0    0  501    0  0.00000000000E+00  0.00000000000E+00 -0.15189014962E+04  0.15189014962E+04  0.25500000920E-02 0. -1.
    10030    2    1    2    0    0  0.00000000000E+00  0.00000000000E+00 -0.92044551448E+03  0.21173574780E+04  0.19068253052E+04 0.  0.
        4    1    3    3  502    0  0.57914404490E+03 -0.14202881781E+03  0.36583112376E+03  0.69958132754E+03  0.12699999809E+01 0.  1.
       -4    1    3    3    0  502 -0.57914404490E+03  0.14202881781E+03 -0.12862766382E+04  0.14177761505E+04  0.12699999809E+01 0. -1.
</event>
<event>
 5   0  0.8452742E-07  0.3614220E+04  0.7818609E-02  0.8087242E-01
       -1   -1    0    0    0  501  0.00000000000E+00  0.00000000000E+00  0.20578270434E+04  0.20578270434E+04  0.50400001928E-02 0.  1.
        1   -1    0    0  501    0  0.00000000000E+00  0.00000000000E+00 -0.15869394099E+04  0.15869394099E+04  0.50400001928E-02 0. -1.
    10030    2    1    2    0    0  0.00000000000E+00  0.00000000000E+00  0.47088763354E+03  0.36447664533E+04  0.36142201559E+04 0.  0.
        1    1    3    3  502    0  0.15911546716E+04 -0.11004095748E+03  0.10921914239E+04  0.19330712113E+04  0.50400001928E-02 0.  1.
       -1    1    3    3    0  502 -0.15911546716E+04  0.11004095748E+03 -0.62130379039E+03  0.17116952420E+04  0.50400001928E-02 0. -1.
</event>
<event>
 5   0  0.7754556E-07  0.3640813E+04  0.7818609E-02  0.8081206E-01
       -1   -1    0    0    0  501  0.00000000000E+00  0.00000000000E+00  0.18914950554E+04  0.18914950554E+04  0.50400001928E-02 0. -1.
        1   -1    0    0  501    0  0.00000000000E+00  0.00000000000E+00 -0.17519896512E+04  0.17519896512E+04  0.50400001928E-02 0.  1.
    10030    2    1    2    0    0  0.00000000000E+00  0.00000000000E+00  0.13950540427E+03  0.36434847066E+04  0.36408129654E+04 0.  0.
        4    1    3    3  502    0 -0.14751942071E+04  0.99367275619E+03  0.45771573796E+03  0.18365970719E+04  0.12699999809E+01 0. -1.
       -4    1    3    3    0  502  0.14751942071E+04 -0.99367275619E+03 -0.31821033369E+03  0.18068876347E+04  0.12699999809E+01 0.  1.
</event>
<event>
 5   0  0.2382711E-06  0.2456836E+04  0.7818609E-02  0.8418526E-01
       -2   -1    0    0    0  501  0.00000000000E+00  0.00000000000E+00  0.10639494355E+04  0.10639494355E+04  0.25500000920E-02 0. -1.
        2   -1    0    0  501    0  0.00000000000E+00  0.00000000000E+00 -0.14183109168E+04  0.14183109168E+04  0.25500000920E-02 0.  1.
    10030    2    1    2    0    0  0.00000000000E+00  0.00000000000E+00 -0.35436148124E+03  0.24822603523E+04  0.24568362577E+04 0.  0.
        5    1    3    3  502    0  0.11296995513E+04 -0.40922219164E+03  0.81012441877E+02  0.12042711422E+04  0.46999998093E+01 0.  1.
       -5    1    3    3    0  502 -0.11296995513E+04  0.40922219164E+03 -0.43537392312E+03  0.12779892101E+04  0.46999998093E+01 0. -1.
</event>
<event>
 5   0  0.8423692E-07  0.3550110E+04  0.7818609E-02  0.8102016E-01
       -1   -1    0    0    0  501  0.00000000000E+00  0.00000000000E+00  0.15473085307E+04  0.15473085307E+04  0.50400001928E-02 0. -1.
        1   -1    0    0  501    0  0.00000000000E+00  0.00000000000E+00 -0.20363229618E+04  0.20363229618E+04  0.50400001928E-02 0.  1.
    10030    2    1    2    0    0  0.00000000000E+00  0.00000000000E+00 -0.48901443114E+03  0.35836314926E+04  0.35501097956E+04 0.  0.
        2    1    3    3  502    0  0.10499943671E+04 -0.11321739772E+04  0.63926745435E+03  0.16712178086E+04  0.25500000920E-02 0. -1.
       -2    1    3    3    0  502 -0.10499943671E+04  0.11321739772E+04 -0.11282818855E+04  0.19124136840E+04  0.25500000920E-02 0.  1.
</event>
<event>
 5   0  0.7707500E-07  0.3510732E+04  0.7818609E-02  0.8111251E-01
        3   -1    0    0  501    0  0.00000000000E+00  0.00000000000E+00  0.10038574961E+04  0.10038575012E+04  0.10100000352E+00 0. -1.
       -3   -1    0    0    0  501  0.00000000000E+00  0.00000000000E+00 -0.30694694344E+04  0.30694694360E+04  0.10100000352E+00 0.  1.
    10030    2    1    2    0    0  0.00000000000E+00  0.00000000000E+00 -0.20656119382E+04  0.40733269372E+04  0.35107320687E+04 0.  0.
        1    1    3    3  502    0  0.13092076417E+04 -0.14291344882E+03  0.31371454293E+03  0.13538337111E+04  0.50400001928E-02 0. -1.
       -1    1    3    3    0  502 -0.13092076417E+04  0.14291344882E+03 -0.23793264812E+04  0.27194932261E+04  0.50400001928E-02 0.  1.
</event>
<event>
 5   0  0.2536619E-06  0.3507285E+04  0.7818609E-02  0.8112066E-01
       -2   -1    0    0    0  501  0.00000000000E+00  0.00000000000E+00  0.14364117503E+04  0.14364117504E+04  0.25500000920E-02 0. -1.
        2   -1    0    0  501    0  0.00000000000E+00  0.00000000000E+00 -0.21409333049E+04  0.21409333050E+04  0.25500000920E-02 0.  1.
    10030    2    1    2    0    0  0.00000000000E+00  0.00000000000E+00 -0.70452155460E+03  0.35773450553E+04  0.35072848507E+04 0.  0.
        1    1    3    3  502    0  0.10455093550E+04  0.13985577090E+04 -0.18713721632E+03  0.17561531296E+04  0.50400001928E-02 0.  1.
       -1    1    3    3    0  502 -0.10455093550E+04 -0.13985577090E+04 -0.51738433828E+03  0.18211919257E+04  0.50400001928E-02 0. -1.
</event>
<event>
 5   0  0.2382711E-06  0.3679244E+04  0.7818609E-02  0.8072577E-01
       -2   -1    0    0    0  501  0.00000000000E+00  0.00000000000E+00  0.14821762594E+04  0.14821762594E+04  0.25500000920E-02 0. -1.
        2   -1    0    0  501    0  0.00000000000E+00  0.00000000000E+00 -0.22832698493E+04  0.22832698493E+04  0.25500000920E-02 0.  1.
    10030    2    1    2    0    0  0.00000000000E+00  0.00000000000E+00 -0.80109358985E+03  0.37654461087E+04  0.36792435986E+04 0.  0.
        5    1    3    3  502    0 -0.23526905008E+03  0.39486213849E+03 -0.22235497030E+04  0.22705644686E+04  0.46999998093E+01 0.  1.
       -5    1    3    3    0  502  0.23526905008E+03 -0.39486213849E+03  0.14224561131E+04  0.14948816401E+04  0.46999998093E+01 0. -1.
</event>
<event>
 5   0  0.2536619E-06  0.2898371E+04  0.7818609E-02  0.8273362E-01
        2   -1    0    0  501    0  0.00000000000E+00  0.00000000000E+00  0.16934493906E+04  0.16934493906E+04  0.25500000920E-02 0.  1.
       -2   -1    0    0    0  501  0.00000000000E+00  0.00000000000E+00 -0.12401539699E+04  0.12401539699E+04  0.25500000920E-02 0. -1.
    10030    2    1    2    0    0  0.00000000000E+00  0.00000000000E+00  0.45329542072E+03  0.29336033605E+04  0.28983705660E+04 0.  0.
        1    1    3    3  502    0 -0.12433044661E+04  0.26021556204E+03 -0.47941356720E+03  0.13577022879E+04  0.50400001928E-02 0. -1.
       -1    1    3    3    0  502  0.12433044661E+04 -0.26021556204E+03  0.93270898792E+03  0.15759010725E+04  0.50400001928E-02 0.  1.
</event>
<event>
 5   0  0.8423692E-07  0.3316694E+04  0.7818609E-02  0.8158661E-01
        1   -1    0    0  501    0  0.00000000000E+00  0.00000000000E+00  0.17250668020E+04  0.17250668020E+04  0.50400001928E-02 0.  1.
       -1   -1    0    0    0  501  0.00000000000E+00  0.00000000000E+00 -0.15942078764E+04  0.15942078764E+04  0.50400001928E-02 0. -1.
    10030    2    1    2    0    0  0.00000000000E+00  0.00000000000E+00  0.13085892561E+03  0.33192746783E+04  0.33166941873E+04 0.  0.
        2    1    3    3  502    0 -0.10859227650E+04  0.10472157331E+04  0.75460596571E+03  0.16868074005E+04  0.25500000920E-02 0.  1.
       -2    1    3    3    0  502  0.10859227650E+04 -0.10472157331E+04 -0.62374704010E+03  0.16324672778E+04  0.25500000920E-02 0. -1.
</event>
<event>
 5   0  0.2536619E-06  0.3138450E+04  0.7818609E-02  0.8205264E-01
       -2   -1    0    0    0  501  0.00000000000E+00  0.00000000000E+00  0.95139324228E+03  0.95139324228E+03  0.25500000920E-02 0.  1.
        2   -1    0    0  501    0  0.00000000000E+00  0.00000000000E+00 -0.25882739730E+04  0.25882739730E+04  0.25500000920E-02 0. -1.
    10030    2    1    2    0    0  0.00000000000E+00  0.00000000000E+00 -0.16368807307E+04  0.35396672153E+04  0.31384495326E+04 0.  0.
        1    1    3    3  502    0 -0.13341769829E+03 -0.89172347302E+03  0.63007407627E+03  0.10999838072E+04  0.50400001928E-02 0.  1.
       -1    1    3    3    0  502  0.13341769829E+03  0.89172347302E+03 -0.22669548070E+04  0.24396834081E+04  0.50400001928E-02 0. -1.
</event>
<event>
 5   0  0.8452742E-07  0.3548420E+04  0.7818609E-02  0.8102410E-01
        1   -1    0    0  501    0  0.00000000000E+00  0.00000000000E+00  0.19814497966E+04  0.19814497966E+04  0.50400001928E-02 0.  1.
       -1   -1    0    0    0  501  0.00000000000E+00  0.00000000000E+00 -0.15886457713E+04  0.15886457713E+04  0.50400001928E-02 0. -1.
    10030    2    1    2    0    0  0.00000000000E+00  0.00000000000E+00  0.39280402531E+03  0.35700955679E+04  0.35484204037E+04 0.  0.
        1    1    3    3  502    0  0.11957779317E+04  0.29012911414E+03  0.14823967146E+04  0.19265408857E+04  0.50400001928E-02 0.  1.
       -1    1    3    3    0  502 -0.11957779317E+04 -0.29012911414E+03 -0.10895926893E+04  0.16435546822E+04  0.50400001928E-02 0. -1.
</event>
<event>
 5   0  0.1566576E-06  0.3777479E+04  0.7818609E-02  0.8051005E-01
        2   -1    0    0  501    0  0.00000000000E+00  0.00000000000E+00  0.17487082375E+04  0.17487082375E+04  0.25500000920E-02 0.  1.
       -2   -1    0    0    0  501  0.00000000000E+00  0.00000000000E+00 -0.20399837218E+04  0.20399837218E+04  0.25500000920E-02 0. -1.
    10030    2    1    2    0    0  0.00000000000E+00  0.00000000000E+00 -0.29127548436E+03  0.37886919593E+04  0.37774787034E+04 0.  0.
        4    1    3    3  502    0  0.70225518229E+03  0.11341863511E+04  0.11954153555E+04  0.17912455179E+04  0.12699999809E+01 0.  1.
       -4    1    3    3    0  502 -0.70225518229E+03 -0.11341863511E+04 -0.14866908399E+04  0.19974464414E+04  0.12699999809E+01 0. -1.
</event>
<event>
 5   0  0.1566576E-06  0.3578704E+04  0.7818609E-02  0.8095387E-01
       -2   -1    0    0    0  501  0.00000000000E+00  0.00000000000E+00  0.17976078446E+04  0.17976078446E+04  0.25500000920E-02 0. -1.
        2   -1    0    0  501    0  0.00000000000E+00  0.00000000000E+00 -0.17811342095E+04  0.17811342095E+04  0.25500000920E-02 0.  1.
    10030    2    1    2    0    0  0.00000000000E+00  0.00000000000E+00  0.16473635053E+02  0.35787420541E+04  0.35787041382E+04 0.  0.
        4    1    3    3  502    0  0.17802444144E+04  0.13022627350E+02 -0.17159681621E+03  0.17885432184E+04  0.12699999809E+01 0.  1.
       -4    1    3    3    0  502 -0.17802444144E+04 -0.13022627350E+02  0.18807045126E+03  0.17901988357E+04  0.12699999809E+01 0. -1.
</event>
<event>
 5   0  0.2034313E-06  0.1870036E+04  0.7818609E-02  0.8669917E-01
        2   -1    0    0  501    0  0.00000000000E+00  0.00000000000E+00  0.12806817006E+04  0.12806817006E+04  0.25500000920E-02 0.  1.
       -2   -1    0    0    0  501  0.00000000000E+00  0.00000000000E+00 -0.68265086694E+03  0.68265086694E+03  0.25500000920E-02 0. -1.
    10030    2    1    2    0    0  0.00000000000E+00  0.00000000000E+00  0.59803083364E+03  0.19633325675E+04  0.18700357998E+04 0.  0.
        3    1    3    3  502    0 -0.51590889865E+03  0.14824361815E+03  0.11027956689E+04  0.12264976395E+04  0.10100000352E+00 0.  1.
       -3    1    3    3    0  502  0.51590889865E+03 -0.14824361815E+03 -0.50476483529E+03  0.73683492804E+03  0.10100000352E+00 0. -1.
</event>
<event>
 5   0  0.2422436E-06  0.3264555E+04  0.7818609E-02  0.8171973E-01
       -2   -1    0    0    0  501  0.00000000000E+00  0.00000000000E+00  0.16577229939E+04  0.16577229939E+04  0.25500000920E-02 0. -1.
        2   -1    0    0  501    0  0.00000000000E+00  0.00000000000E+00 -0.16072225205E+04  0.16072225205E+04  0.25500000920E-02 0.  1.
    10030    2    1    2    0    0  0.00000000000E+00  0.00000000000E+00  0.50500473454E+02  0.32649455144E+04  0.32645549336E+04 0.  0.
        2    1    3    3  502    0 -0.55138657436E+02 -0.23643803281E+03  0.16395643273E+04  0.16574421252E+04  0.25500000920E-02 0. -1.
       -2    1    3    3    0  502  0.55138657436E+02  0.23643803281E+03 -0.15890638539E+04  0.16075033893E+04  0.25500000920E-02 0.  1.
</event>
<event>
 5   0  0.1513502E-06  0.3366754E+04  0.7818609E-02  0.8146114E-01
       -2   -1    0    0    0  501  0.00000000000E+00  0.00000000000E+00  0.11677961531E+04  0.11677961531E+04  0.25500000920E-02 0. -1.
        2   -1    0    0  501    0  0.00000000000E+00  0.00000000000E+00 -0.24265867403E+04  0.24265867403E+04  0.25500000920E-02 0.  1.
    10030    2    1    2    0    0  0.00000000000E+00  0.00000000000E+00 -0.12587905872E+04  0.35943828934E+04  0.33667543186E+04 0.  0.
        3    1    3    3  502    0 -0.14074710425E+04  0.90073004168E+03 -0.84680368408E+03  0.18733301452E+04  0.10100000352E+00 0. -1.
       -3    1    3    3    0  502  0.14074710425E+04 -0.90073004168E+03 -0.41198690309E+03  0.17210527482E+04  0.10100000352E+00 0.  1.
</event>
<event>
 5   0  0.1513502E-06  0.2346809E+04  0.7818609E-02  0.8459690E-01
       -2   -1    0    0    0  501  0.00000000000E+00  0.00000000000E+00  0.79631126440E+03  0.79631126441E+03  0.25500000920E-02 0.  1.
        2   -1    0    0  501    0  0.00000000000E+00  0.00000000000E+00 -0.17290704027E+04  0.17290704027E+04  0.25500000920E-02 0. -1.
    10030    2    1    2    0    0  0.00000000000E+00  0.00000000000E+00 -0.93275913834E+03  0.25253816671E+04  0.23468091006E+04 0.  0.
        3    1    3    3  502    0 -0.85864807064E+03  0.34536312122E+02 -0.13261821559E+04  0.15802621260E+04  0.10100000352E+00 0. -1.
       -3    1    3    3    0  502  0.85864807064E+03 -0.34536312122E+02  0.39342301758E+03  0.94511954113E+03  0.10100000352E+00 0.  1.
</event>
<event>
 5   0  0.2422436E-06  0.3646926E+04  0.7818609E-02  0.8079827E-01
        2   -1    0    0  501    0  0.00000000000E+00  0.00000000000E+00  0.18171466277E+04  0.18171466277E+04  0.25500000920E-02 0. -1.
       -2   -1    0    0    0  501  0.00000000000E+00  0.00000000000E+00 -0.18298011959E+04  0.18298011959E+04  0.25500000920E-02 0.  1.
    10030    2    1    2    0    0  0.00000000000E+00  0.00000000000E+00 -0.12654568267E+02  0.36469478236E+04  0.36469258684E+04 0.  0.
        2    1    3    3  502    0 -0.15930004054E+04  0.21868441911E+03 -0.86629984772E+03  0.18264579362E+04  0.25500000920E-02 0.  1.
       -2    1    3    3    0  502  0.15930004054E+04 -0.21868441911E+03  0.85364527945E+03  0.18204898873E+04  0.25500000920E-02 0. -1.
</event>
<event>
 5   0  0.2382711E-06  0.3073959E+04  0.7818609E-02  0.8222921E-01
        2   -1    0    0  501    0  0.00000000000E+00  0.00000000000E+00  0.19649896981E+04  0.19649896981E+04  0.25500000920E-02 0. -1.
       -2   -1    0    0    0  501  0.00000000000E+00  0.00000000000E+00 -0.12021974149E+04  0.12021974149E+04  0.25500000920E-02 0.  1.
    10030    2    1    2    0    0  0.00000000000E+00  0.00000000000E+00  0.76279228312E+03  0.31671871130E+04  0.30739587085E+04 0.  0.
        5    1    3    3  502    0  0.12365327146E+04  0.91242617581E+03  0.35320267925E+03  0.15768033813E+04  0.46999998093E+01 0.  1.
       -5    1    3    3    0  502 -0.12365327146E+04 -0.91242617581E+03  0.40958960387E+03  0.15903837317E+04  0.46999998093E+01 0. -1.
</event>
<event>
 5   0  0.1513502E-06  0.3594326E+04  0.7818609E-02  0.8091793E-01
       -2   -1    0    0    0  501  0.00000000000E+00  0.00000000000E+00  0.19262915475E+04  0.19262915475E+04  0.25500000920E-02 0. -1.
        2   -1    0    0  501    0  0.00000000000E+00  0.00000000000E+00 -0.16766908612E+04  0.16766908612E+04  0.25500000920E-02 0.  1.
    10030    2    1    2    0    0  0.00000000000E+00  0.00000000000E+00  0.24960068629E+03  0.36029824086E+04  0.35943263255E+04 0.  0.
        3    1    3    3  502    0  0.72901561652E+02  0.74963404004E+03 -0.15108552369E+04  0.16881793118E+04  0.10100000352E+00 0.  1.
       -3    1    3    3    0  502 -0.72901561652E+02 -0.74963404004E+03  0.17604559232E+04  0.19148030968E+04  0.10100000352E+00 0. -1.
</event>
<event>
 5   0  0.7754556E-07  0.3377681E+04  0.7818609E-02  0.8143406E-01
       -1   -1    0    0    0  501  0.00000000000E+00  0.00000000000E+00  0.10725028231E+04  0.10725028231E+04  0.50400001928E-02 0.  1.
        1   -1    0    0  501    0  0.00000000000E+00  0.00000000000E+00 -0.26593709541E+04  0.26593709541E+04  0.50400001928E-02 0. -1.
    10030    2    1    2    0    0  0.00000000000E+00  0.00000000000E+00 -0.15868681310E+04  0.37318737772E+04  0.33776813680E+04 0.  0.
        4    1    3    3  502    0 -0.10746769326E+02  0.60674095028E+03  0.94788376322E+03  0.11254933653E+04  0.12699999809E+01 0.  1.
       -4    1    3    3    0  502  0.10746769326E+02 -0.60674095028E+03 -0.25347518942E+04  0.26063804119E+04  0.12699999809E+01 0. -1.
</event>
<event>
 5   0  0.2536619E-06  0.3506650E+04  0.7818609E-02  0.8112216E-01
        2   -1    0    0  501    0  0.00000000000E+00  0.00000000000E+00  0.18588227025E+04  0.18588227025E+04  0.25500000920E-02 0. -1.
       -2   -1    0    0    0  501  0.00000000000E+00  0.00000000000E+00 -0.16538148019E+04  0.16538148019E+04  0.25500000920E-02 0.  1.
    10030    2    1    2    0    0  0.00000000000E+00  0.00000000000E+00  0.20500790055E+03  0.35126375044E+04  0.35066499680E+04 0.  0.
        1    1    3    3  502    0  0.86298005053E+03  0.11070344364E+04  0.11549590057E+04  0.18177431380E+04  0.50400001928E-02 0. -1.
       -1    1    3    3    0  502 -0.86298005053E+03 -0.11070344364E+04 -0.94995110518E+03  0.16948943664E+04  0.50400001928E-02 0.  1.
</event>
<event>
 5   0  0.2422436E-06  0.2239606E+04  0.7818609E-02  0.8502122E-01
       -2   -1    0    0    0  501  0.00000000000E+00  0.00000000000E+00  0.14039226266E+04  0.14039226267E+04  0.25500000920E-02 0.  1.
        2   -1    0    0  501    0  0.00000000000E+00  0.00000000000E+00 -0.89318228748E+03  0.89318228748E+03  0.25500000920E-02 0. -1.
    10030    2    1    2    0    0  0.00000000000E+00  0.00000000000E+00  0.51074033917E+03  0.22971049141E+04  0.22396060574E+04 0.  0.
        2    1    3    3  502    0 -0.21337480092E+02 -0.72194832984E+03 -0.62234171324E+03  0.95340122041E+03  0.25500000920E-02 0. -1.
       -2    1    3    3    0  502  0.21337480092E+02  0.72194832984E+03  0.11330820524E+04  0.13437036937E+04  0.25500000920E-02 0.  1.
</event>
<event>
 5   0  0.7707500E-07  0.3611277E+04  0.7818609E-02  0.8087914E-01
        4   -1    0    0  501    0  0.00000000000E+00  0.00000000000E+00  0.18137364782E+04  0.18137369228E+04  0.12699999809E+01 0.  1.
       -4   -1    0    0    0  501  0.00000000000E+00  0.00000000000E+00 -0.17975754141E+04  0.17975758627E+04  0.12699999809E+01 0. -1.
    10030    2    1    2    0    0  0.00000000000E+00  0.00000000000E+00  0.16161064066E+02  0.36113127855E+04  0.36112766240E+04 0.  0.
        2    1    3    3  502    0 -0.12077766605E+04  0.13368123140E+04 -0.11249467414E+03  0.18051168040E+04  0.25500000920E-02 0.  1.
       -2    1    3    3    0  502  0.12077766605E+04 -0.13368123140E+04  0.12865573821E+03  0.18061959815E+04  0.25500000920E-02 0. -1.
</event>
<event>
 5   0  0.1513502E-06  0.3505569E+04  0.7818609E-02  0.8112472E-01
       -2   -1    0    0    0  501  0.00000000000E+00  0.00000000000E+00  0.14614801832E+04  0.14614801832E+04  0.25500000920E-02 0. -1.
        2   -1    0    0  501    0  0.00000000000E+00  0.00000000000E+00 -0.21021514990E+04  0.21021514990E+04  0.25500000920E-02 0.  1.
    10030    2    1    2    0    0  0.00000000000E+00  0.00000000000E+00 -0.64067131580E+03  0.35636316823E+04  0.35055685747E+04 0.  0.
        3    1    3    3  502    0  0.15969890300E+04  0.20556620138E+03  0.38368205424E+03  0.16552472184E+04  0.10100000352E+00 0.  1.
       -3    1    3    3    0  502 -0.15969890300E+04 -0.20556620138E+03 -0.10243533700E+04  0.19083844639E+04  0.10100000352E+00 0. -1.
</event>
<event>
 5   0  0.8452742E-07  0.1920055E+04  0.7818609E-02  0.8644938E-01
       -1   -1    0    0    0  501  0.00000000000E+00  0.00000000000E+00  0.74227647079E+03  0.74227647081E+03  0.50400001928E-02 0. -1.
        1   -1    0    0  501    0  0.00000000000E+00  0.00000000000E+00 -0.12416571546E+04  0.12416571546E+04  0.50400001928E-02 0.  1.
    10030    2    1    2    0    0  0.00000000000E+00  0.00000000000E+00 -0.49938068383E+03  0.19839336254E+04  0.19200550937E+04 0.  0.
        1    1    3    3  502    0  0.39056122780E+03 -0.78405843067E+03 -0.65565754969E+03  0.10941537908E+04  0.50400001928E-02 0.  1.
       -1    1    3    3    0  502 -0.39056122780E+03  0.78405843067E+03  0.15627686586E+03  0.88977983467E+03  0.50400001928E-02 0. -1.
</event>
<event>
 5   0  0.8452742E-07  0.3709424E+04  0.7818609E-02  0.8065876E-01
       -1   -1    0    0    0  501  0.00000000000E+00  0.00000000000E+00  0.11906760263E+04  0.11906760263E+04  0.50400001928E-02 0.  1.
        1   -1    0    0  501    0  0.00000000000E+00  0.00000000000E+00 -0.28890792190E+04  0.28890792190E+04  0.50400001928E-02 0. -1.
    10030    2    1    2    0    0  0.00000000000E+00  0.00000000000E+00 -0.16984031927E+04  0.40797552453E+04  0.37094244104E+04 0.  0.
        1    1    3    3  502    0  0.51942718940E+03  0.70374674104E+03 -0.26479930439E+04  0.27887149803E+04  0.50400001928E-02 0. -1.
       -1    1    3    3    0  502 -0.51942718940E+03 -0.70374674104E+03  0.94958985115E+03  0.12910402651E+04  0.50400001928E-02 0.  1.
</event>
<event>
 5   0  0.8423692E-07  0.3577578E+04  0.7818609E-02  0.8095647E-01
       -1   -1    0    0    0  501  0.00000000000E+00  0.00000000000E+00  0.25402737989E+04  0.25402737989E+04  0.50400001928E-02 0. -1.
        1   -1    0    0  501    0  0.00000000000E+00  0.00000000000E+00 -0.12596147874E+04  0.12596147874E+04  0.50400001928E-02 0.  1.
    10030    2    1    2    0    0  0.00000000000E+00  0.00000000000E+00  0.12806590115E+04  0.37998885863E+04  0.35775781983E+04 0.  0.
        2    1    3    3  502    0  0.68104372468E+03  0.30519602818E+03  0.23670179453E+04  0.24818821737E+04  0.25500000920E-02 0. -1.
       -2    1    3    3    0  502 -0.68104372468E+03 -0.30519602818E+03 -0.10863589339E+04  0.13180064126E+04  0.25500000920E-02 0.  1.
</event>
<event>
 5   0  0.1566576E-06  0.3709842E+04  0.7818609E-02  0.8065784E-01
       -2   -1    0    0    0  501  0.00000000000E+00  0.00000000000E+00  0.24418237316E+04  0.24418237316E+04  0.25500000920E-02 0. -1.
        2   -1    0    0  501    0  0.00000000000E+00  0.00000000000E+00 -0.14090827715E+04  0.14090827715E+04  0.25500000920E-02 0.  1.
    10030    2    1    2    0    0  0.00000000000E+00  0.00000000000E+00  0.10327409601E+04  0.38509065030E+04  0.37098419110E+04 0.  0.
        4    1    3    3  502    0  0.15457698501E+04 -0.60117490036E+03 -0.34582390677E+03  0.16942288740E+04  0.12699999809E+01 0.  1.
       -4    1    3    3    0  502 -0.15457698501E+04  0.60117490036E+03  0.13785648669E+04  0.21566776290E+04  0.12699999809E+01 0. -1.
</event>
<event>
 5   0  0.2422436E-06  0.1784730E+04  0.7818609E-02  0.8714462E-01
        2   -1    0    0  501    0  0.00000000000E+00  0.00000000000E+00  0.15580805086E+04  0.15580805086E+04  0.25500000920E-02 0.  1.
       -2   -1    0    0    0  501  0.00000000000E+00  0.00000000000E+00 -0.51108754614E+03  0.51108754615E+03  0.25500000920E-02 0. -1.
    10030    2    1    2    0    0  0.00000000000E+00  0.00000000000E+00  0.10469929624E+04  0.20691680547E+04  0.17847302808E+04 0.  0.
        2    1    3    3  502    0  0.10536392230E+02  0.47554425476E+03 -0.35185866859E+03  0.59165689083E+03  0.25500000920E-02 0. -1.
       -2    1    3    3    0  502 -0.10536392230E+02 -0.47554425476E+03  0.13988516310E+04  0.14775111639E+04  0.25500000920E-02 0.  1.
</event>
<event>
 5   0  0.1566576E-06  0.3470554E+04  0.7818609E-02  0.8120804E-01
       -2   -1    0    0    0  501  0.00000000000E+00  0.00000000000E+00  0.15539054793E+04  0.15539054793E+04  0.25500000920E-02 0. -1.
        2   -1    0    0  501    0  0.00000000000E+00  0.00000000000E+00 -0.19378182529E+04  0.19378182529E+04  0.25500000920E-02 0.  1.
    10030    2    1    2    0    0  0.00000000000E+00  0.00000000000E+00 -0.38391277356E+03  0.34917237322E+04  0.34705540774E+04 0.  0.
        4    1    3    3  502    0 -0.11512287281E+04  0.88183873231E+03  0.76686128217E+03  0.16404404814E+04  0.12699999809E+01 0.  1.
       -4    1    3    3    0  502  0.11512287281E+04 -0.88183873231E+03 -0.11507740557E+04  0.18512832507E+04  0.12699999809E+01 0. -1.
</event>
<event>
 5   0  0.2536619E-06  0.2856779E+04  0.7818609E-02  0.8285854E-01
        2   -1    0    0  501    0  0.00000000000E+00  0.00000000000E+00  0.19601614366E+04  0.19601614366E+04  0.25500000920E-02 0. -1.
       -2   -1    0    0    0  501  0.00000000000E+00  0.00000000000E+00 -0.10408818419E+04  0.10408818419E+04  0.25500000920E-02 0.  1.
    10030    2    1    2    0    0  0.00000000000E+00  0.00000000000E+00  0.91927959470E+03  0.30010432785E+04  0.28567789180E+04 0.  0.
        1    1    3    3  502    0  0.11755162422E+04  0.20945447956E+03  0.12831846397E+04  0.17527899002E+04  0.50400001928E-02 0. -1.
       -1    1    3    3    0  502 -0.11755162422E+04 -0.20945447956E+03 -0.36390504500E+03  0.12482533783E+04  0.50400001928E-02 0.  1.
</event>
<event>
 5   0  0.1513502E-06  0.3585438E+04  0.7818609E-02  0.8093835E-01
       -2   -1    0    0    0  501  0.00000000000E+00  0.00000000000E+00  0.20467833161E+04  0.20467833161E+04  0.25500000920E-02 0.  1.
        2   -1    0    0  501    0  0.00000000000E+00  0.00000000000E+00 -0.15701915769E+04  0.15701915769E+04  0.25500000920E-02 0. -1.
    10030    2    1    2    0    0  0.00000000000E+00  0.00000000000E+00  0.47659173925E+03  0.36169748930E+04  0.35854382843E+04 0.  0.
        3    1    3    3  502    0 -0.17544155846E+04  0.36459437647E+03  0.18360825717E+03  0.18012815175E+04  0.10100000352E+00 0.  1.
       -3    1    3    3    0  502  0.17544155846E+04 -0.36459437647E+03  0.29298348208E+03  0.18156933755E+04  0.10100000352E+00 0. -1.
</event>
<event>
 5   0  0.7754556E-07  0.3381869E+04  0.7818609E-02  0.8142371E-01
        1   -1    0    0  501    0  0.00000000000E+00  0.00000000000E+00  0.17081498417E+04  0.17081498417E+04  0.50400001928E-02 0. -1.
       -1   -1    0    0    0  501  0.00000000000E+00  0.00000000000E+00 -0.16738927089E+04  0.16738927089E+04  0.50400001928E-02 0.  1.
    10030    2    1    2    0    0  0.00000000000E+00  0.00000000000E+00  0.34257132826E+02  0.33820425506E+04  0.33818690487E+04 0.  0.
        4    1    3    3  502    0  0.68359275202E+03 -0.10233015369E+04 -0.11425915971E+04  0.16792743244E+04  0.12699999809E+01 0.  1.
       -4    1    3    3    0  502 -0.68359275202E+03  0.10233015369E+04  0.11768487299E+04  0.17027682262E+04  0.12699999809E+01 0. -1.
</event>
<event>
 5   0  0.2422436E-06  0.3584328E+04  0.7818609E-02  0.8094091E-01
       -2   -1    0    0    0  501  0.00000000000E+00  0.00000000000E+00  0.26823424090E+04  0.26823424090E+04  0.25500000920E-02 0.  1.
        2   -1    0    0  501    0  0.00000000000E+00  0.00000000000E+00 -0.11974054424E+04  0.11974054424E+04  0.25500000920E-02 0. -1.
    10030    2    1    2    0    0  0.00000000000E+00  0.00000000000E+00  0.14849369666E+04  0.38797478514E+04  0.35843277746E+04 0.  0.
        2    1    3    3  502    0  0.14720089121E+03  0.95591306800E+03 -0.89066378628E+03  0.13148079237E+04  0.25500000920E-02 0. -1.
       -2    1    3    3    0  502 -0.14720089121E+03 -0.95591306800E+03  0.23756007529E+04  0.25649399277E+04  0.25500000920E-02 0.  1.
</event>
<event>
 5   0  0.8423692E-07  0.3586078E+04  0.7818609E-02  0.8093688E-01
        1   -1    0    0  501    0  0.00000000000E+00  0.00000000000E+00  0.15655135322E+04  0.15655135323E+04  0.50400001928E-02 0.  1.
       -1   -1    0    0    0  501  0.00000000000E+00  0.00000000000E+00 -0.20536321838E+04  0.20536321838E+04  0.50400001928E-02 0. -1.
    10030    2    1    2    0    0  0.00000000000E+00  0.00000000000E+00 -0.48811865153E+03  0.36191457160E+04  0.35860780661E+04 0.  0.
        2    1    3    3  502    0 -0.81954963628E+03  0.48497244840E+03 -0.17773213427E+04  0.20163657995E+04  0.25500000920E-02 0. -1.
       -2    1    3    3    0  502  0.81954963628E+03 -0.48497244840E+03  0.12892026912E+04  0.16027799166E+04  0.25500000920E-02 0.  1.
</event>
<event>
 5   0  0.1566576E-06  0.3530236E+04  0.7818609E-02  0.8106662E-01
       -2   -1    0    0    0  501  0.00000000000E+00  0.00000000000E+00  0.18521878449E+04  0.18521878449E+04  0.25500000920E-02 0.  1.
        2   -1    0    0  501    0  0.00000000000E+00  0.00000000000E+00 -0.16821414748E+04  0.16821414748E+04  0.25500000920E-02 0. -1.
    10030    2    1    2    0    0  0.00000000000E+00  0.00000000000E+00  0.17004637011E+03  0.35343293196E+04  0.35302362487E+04 0.  0.
        4    1    3    3  502    0  0.10567724272E+04  0.13346741553E+04 -0.38190507719E+03  0.17446994482E+04  0.12699999809E+01 0. -1.
       -4    1    3    3    0  502 -0.10567724272E+04 -0.13346741553E+04  0.55195144730E+03  0.17896298714E+04  0.12699999809E+01 0.  1.
</event>
<event>
 5   0  0.1566576E-06  0.3041681E+04  0.7818609E-02  0.8231928E-01
        2   -1    0    0  501    0  0.00000000000E+00  0.00000000000E+00  0.22409746560E+04  0.22409746560E+04  0.25500000920E-02 0. -1.
       -2   -1    0    0    0  501  0.00000000000E+00  0.00000000000E+00 -0.10321205560E+04  0.10321205560E+04  0.25500000920E-02 0.  1.
    10030    2    1    2    0    0  0.00000000000E+00  0.00000000000E+00  0.12088541001E+04  0.32730952120E+04  0.30416811193E+04 0.  0.
        4    1    3    3  502    0  0.18515574378E+03  0.14835990692E+04  0.90419923989E+03  0.17472626379E+04  0.12699999809E+01 0. -1.
       -4    1    3    3    0  502 -0.18515574378E+03 -0.14835990692E+04  0.30465486017E+03  0.15258325741E+04  0.12699999809E+01 0.  1.
</event>
<event>
 5   0  0.7754556E-07  0.3576469E+04  0.7818609E-02  0.8095903E-01
        1   -1    0    0  501    0  0.00000000000E+00  0.00000000000E+00  0.21923463589E+04  0.21923463589E+04  0.50400001928E-02 0. -1.
       -1   -1    0    0    0  501  0.00000000000E+00  0.00000000000E+00 -0.14586116238E+04  0.14586116238E+04  0.50400001928E-02 0.  1.
    10030    2    1    2    0    0  0.00000000000E+00  0.00000000000E+00  0.73373473509E+03  0.36509579827E+04  0.35764685837E+04 0.  0.
        4    1    3    3  502    0  0.13239001418E+04  0.11549141705E+04  0.26391211510E+02  0.17570533389E+04  0.12699999809E+01 0.  1.
       -4    1    3    3    0  502 -0.13239001418E+04 -0.11549141705E+04  0.70734352358E+03  0.18939046438E+04  0.12699999809E+01 0. -1.
</event>
<event>
 5   0  0.8452742E-07  0.2851299E+04  0.7818609E-02  0.8287517E-01
        1   -1    0    0  501    0  0.00000000000E+00  0.00000000000E+00  0.19702565629E+04  0.19702565629E+04  0.50400001928E-02 0.  1.
       -1   -1    0    0    0  501  0.00000000000E+00  0.00000000000E+00 -0.10315794741E+04  0.10315794741E+04  0.50400001928E-02 0. -1.
    10030    2    1    2    0    0  0.00000000000E+00  0.00000000000E+00  0.93867708878E+03  0.30018360370E+04  0.28512988122E+04 0.  0.
        1    1    3    3  502    0 -0.39895455037E+03 -0.11506421565E+04  0.12496401894E+04  0.17449191123E+04  0.50400001928E-02 0.  1.
       -1    1    3    3    0  502  0.39895455037E+03  0.11506421565E+04 -0.31096310062E+03  0.12569169247E+04  0.50400001928E-02 0. -1.
</event>
<event>
 5   0  0.1513502E-06  0.2841219E+04  0.7818609E-02  0.8290584E-01
       -2   -1    0    0    0  501  0.00000000000E+00  0.00000000000E+00  0.10121861665E+04  0.10121861665E+04  0.25500000920E-02 0. -1.
        2   -1    0    0  501    0  0.00000000000E+00  0.00000000000E+00 -0.19938346328E+04  0.19938346328E+04  0.25500000920E-02 0.  1.
    10030    2    1    2    0    0  0.00000000000E+00  0.00000000000E+00 -0.98164846630E+03  0.30060207993E+04  0.28412193394E+04 0.  0.
        3    1    3    3  502    0  0.10385063997E+04  0.88643919608E+03 -0.75819863114E+02  0.13674862531E+04  0.10100000352E+00 0. -1.
       -3    1    3    3    0  502 -0.10385063997E+04 -0.88643919608E+03 -0.90582860319E+03  0.16385345462E+04  0.10100000352E+00 0.  1.
</event>
<event>
 5   0  0.1634374E-06  0.3683591E+04  0.7818609E-02  0.8071608E-01
        1   -1    0    0  501    0  0.00000000000E+00  0.00000000000E+00  0.21507382474E+04  0.21507382474E+04  0.50400001928E-02 0.  1.
       -1   -1    0    0    0  501  0.00000000000E+00  0.00000000000E+00 -0.15772306595E+04  0.15772306595E+04  0.50400001928E-02 0. -1.
    10030    2    1    2    0    0  0.00000000000E+00  0.00000000000E+00  0.57350758787E+03  0.37279689068E+04  0.36835908048E+04 0.  0.
        5    1    3    3  502    0 -0.16760722116E+04  0.35241564995E+03  0.97224201959E+03  0.19694393831E+04  0.46999998093E+01 0.  1.
       -5    1    3    3    0  502  0.16760722116E+04 -0.35241564995E+03 -0.39873443172E+03  0.17585295238E+04  0.46999998093E+01 0. -1.
</event>
<event>
 5   0  0.8423692E-07  0.1822898E+04  0.7818609E-02  0.8694217E-01
       -1   -1    0    0    0  501  0.00000000000E+00  0.00000000000E+00  0.78640897735E+03  0.78640897737E+03  0.50400001928E-02 0.  1.
        1   -1    0    0  501    0  0.00000000000E+00  0.00000000000E+00 -0.10563703294E+04  0.10563703295E+04  0.50400001928E-02 0. -1.
    10030    2    1    2    0    0  0.00000000000E+00  0.00000000000E+00 -0.26996135210E+03  0.18427793068E+04  0.18228978145E+04 0.  0.
        2    1    3    3  502    0  0.48665521139E+03  0.30961384071E+03  0.57843940905E+03  0.81687586271E+03  0.25500000920E-02 0.  1.
       -2    1    3    3    0  502 -0.48665521139E+03 -0.30961384071E+03 -0.84840076115E+03  0.10259034441E+04  0.25500000920E-02 0. -1.
</event>
<event>
 5   0  0.1566576E-06  0.3549522E+04  0.7818609E-02  0.8102153E-01
        2   -1    0    0  501    0  0.00000000000E+00  0.00000000000E+00  0.23041044295E+04  0.23041044295E+04  0.25500000920E-02 0.  1.
       -2   -1    0    0    0  501  0.00000000000E+00  0.00000000000E+00 -0.13670283476E+04  0.13670283476E+04  0.25500000920E-02 0. -1.
    10030    2    1    2    0    0  0.00000000000E+00  0.00000000000E+00  0.93707608189E+03  0.36711327771E+04  0.35495216979E+04 0.  0.
        4    1    3    3  502    0 -0.14686895677E+04 -0.96471779649E+03  0.21091565457E+03  0.17698069102E+04  0.12699999809E+01 0. -1.
       -4    1    3    3    0  502  0.14686895677E+04  0.96471779649E+03  0.72616042732E+03  0.19013258669E+04  0.12699999809E+01 0.  1.
</event>
<event>
 5   0  0.2536619E-06  0.3690711E+04  0.7818609E-02  0.8070024E-01
       -2   -1    0    0    0  501  0.00000000000E+00  0.00000000000E+00  0.16265305094E+04  0.16265305094E+04  0.25500000920E-02 0.  1.
        2   -1    0    0  501    0  0.00000000000E+00  0.00000000000E+00 -0.20936196035E+04  0.20936196035E+04  0.25500000920E-02 0. -1.
    10030    2    1    2    0    0  0.00000000000E+00  0.00000000000E+00 -0.46708909408E+03  0.37201501129E+04  0.36907105875E+04 0.  0.
        1    1    3    3  502    0  0.15275194750E+04 -0.25374363294E+03  0.77827253247E+03  0.17330348273E+04  0.50400001928E-02 0.  1.
       -1    1    3    3    0  502 -0.15275194750E+04  0.25374363294E+03 -0.12453616266E+04  0.19871152857E+04  0.50400001928E-02 0. -1.
</event>
<event>
 5   0  0.2382711E-06  0.3513135E+04  0.7818609E-02  0.8110684E-01
       -2   -1    0    0    0  501  0.00000000000E+00  0.00000000000E+00  0.11129218188E+04  0.11129218188E+04  0.25500000920E-02 0. -1.
        2   -1    0    0  501    0  0.00000000000E+00  0.00000000000E+00 -0.27724582836E+04  0.27724582837E+04  0.25500000920E-02 0.  1.
    10030    2    1    2    0    0  0.00000000000E+00  0.00000000000E+00 -0.16595364648E+04  0.38853801025E+04  0.35131349622E+04 0.  0.
        5    1    3    3  502    0 -0.17011629954E+04  0.20144897728E+03 -0.12594866844E+04  0.21262328249E+04  0.46999998093E+01 0.  1.
       -5    1    3    3    0  502  0.17011629954E+04 -0.20144897728E+03 -0.40004978040E+03  0.17591472776E+04  0.46999998093E+01 0. -1.
</event>
<event>
 5   0  0.2422436E-06  0.3592031E+04  0.7818609E-02  0.8092319E-01
       -2   -1    0    0    0  501  0.00000000000E+00  0.00000000000E+00  0.16552871032E+04  0.16552871032E+04  0.25500000920E-02 0. -1.
        2   -1    0    0  501    0  0.00000000000E+00  0.00000000000E+00 -0.19487086178E+04  0.19487086178E+04  0.25500000920E-02 0.  1.
    10030    2    1    2    0    0  0.00000000000E+00  0.00000000000E+00 -0.29342151457E+03  0.36039957210E+04  0.35920313156E+04 0.  0.
        2    1    3    3  502    0  0.67550238514E+03 -0.16178572129E+04 -0.53776119238E+03  0.18338354707E+04  0.25500000920E-02 0.  1.
       -2    1    3    3    0  502 -0.67550238514E+03  0.16178572129E+04  0.24433967781E+03  0.17701602503E+04  0.25500000920E-02 0. -1.
</event>
<event>
 5   0  0.1566576E-06  0.2280904E+04  0.7818609E-02  0.8485489E-01
        2   -1    0    0  501    0  0.00000000000E+00  0.00000000000E+00  0.84306882365E+03  0.84306882365E+03  0.25500000920E-02 0.  1.
       -2   -1    0    0    0  501  0.00000000000E+00  0.00000000000E+00 -0.15427342744E+04  0.15427342744E+04  0.25500000920E-02 0. -1.
    10030    2    1    2    0    0  0.00000000000E+00  0.00000000000E+00 -0.69966545073E+03  0.23858030980E+04  0.22809043557E+04 0.  0.
        4    1    3    3  502    0 -0.34690659508E+03 -0.14707361506E+03  0.77607951812E+03  0.86271424313E+03  0.12699999809E+01 0.  1.
       -4    1    3    3    0  502  0.34690659508E+03  0.14707361506E+03 -0.14757449689E+04  0.15230888549E+04  0.12699999809E+01 0. -1.
</event>
<event>
 5   0  0.1513502E-06  0.3585760E+04  0.7818609E-02  0.8093761E-01
       -2   -1    0    0    0  501  0.00000000000E+00  0.00000000000E+00  0.25915560417E+04  0.25915560417E+04  0.25500000920E-02 0.  1.
        2   -1    0    0  501    0  0.00000000000E+00  0.00000000000E+00 -0.12403432269E+04  0.12403432269E+04  0.25500000920E-02 0. -1.
    10030    2    1    2    0    0  0.00000000000E+00  0.00000000000E+00  0.13512128148E+04  0.38318992685E+04  0.35857601611E+04 0.  0.
        3    1    3    3  502    0 -0.27294721547E+03  0.17679349817E+04  0.80350786075E+03  0.19610505283E+04  0.10100000352E+00 0.  1.
       -3    1    3    3    0  502  0.27294721547E+03 -0.17679349817E+04  0.54770495405E+03  0.18708487402E+04  0.10100000352E+00 0. -1.
</event>
<event>
 5   0  0.2422436E-06  0.1835469E+04  0.7818609E-02  0.8687662E-01
       -2   -1    0    0    0  501  0.00000000000E+00  0.00000000000E+00  0.53419388943E+03  0.53419388944E+03  0.25500000920E-02 0. -1.
        2   -1    0    0  501    0  0.00000000000E+00  0.00000000000E+00 -0.15766500212E+04  0.15766500212E+04  0.25500000920E-02 0.  1.
    10030    2    1    2    0    0  0.00000000000E+00  0.00000000000E+00 -0.10424561318E+04  0.21108439107E+04  0.18354692121E+04 0.  0.
        2    1    3    3  502    0 -0.73150242007E+03  0.42930150609E+03 -0.11815748607E+03  0.85636251974E+03  0.25500000920E-02 0. -1.
       -2    1    3    3    0  502  0.73150242007E+03 -0.42930150609E+03 -0.92429864573E+03  0.12544813909E+04  0.25500000920E-02 0.  1.
</event>
<event>
 5   0  0.1634374E-06  0.3676029E+04  0.7818609E-02  0.8073295E-01
        1   -1    0    0  501    0  0.00000000000E+00  0.00000000000E+00  0.19124588344E+04  0.19124588344E+04  0.50400001928E-02 0.  1.
       -1   -1    0    0    0  501  0.00000000000E+00  0.00000000000E+00 -0.17664677035E+04  0.17664677035E+04  0.50400001928E-02 0. -1.
    10030    2    1    2    0    0  0.00000000000E+00  0.00000000000E+00  0.14599113088E+03  0.36789265378E+04  0.36760287078E+04 0.  0.
        5    1    3    3  502    0  0.17821077529E+04  0.21259463702E+03  0.46975499622E+03  0.18552079046E+04  0.46999998093E+01 0. -1.
       -5    1    3    3    0  502 -0.17821077529E+04 -0.21259463702E+03 -0.32376386534E+03  0.18237186332E+04  0.46999998093E+01 0.  1.
</event>
<event>
 5   0  0.1566576E-06  0.3229303E+04  0.7818609E-02  0.8181121E-01
        2   -1    0    0  501    0  0.00000000000E+00  0.00000000000E+00  0.18214623639E+04  0.18214623639E+04  0.25500000920E-02 0.  1.
       -2   -1    0    0    0  501  0.00000000000E+00  0.00000000000E+00 -0.14313218165E+04  0.14313218165E+04  0.25500000920E-02 0. -1.
    10030    2    1    2    0    0  0.00000000000E+00  0.00000000000E+00  0.39014054739E+03  0.32527841804E+04  0.32293025993E+04 0.  0.
        4    1    3    3  502    0 -0.15842935135E+04  0.18392427219E+03 -0.58320319773E+02  0.15960002968E+04  0.12699999809E+01 0. -1.
       -4    1    3    3    0  502  0.15842935135E+04 -0.18392427219E+03  0.44846086716E+03  0.16567838836E+04  0.12699999809E+01 0.  1.
</event>
<event>
 5   0  0.8452742E-07  0.3422813E+04  0.7818609E-02  0.8132330E-01
        1   -1    0    0  501    0  0.00000000000E+00  0.00000000000E+00  0.21725133809E+04  0.21725133809E+04  0.50400001928E-02 0.  1.
       -1   -1    0    0    0  501  0.00000000000E+00  0.00000000000E+00 -0.13481673245E+04  0.13481673245E+04  0.50400001928E-02 0. -1.
    10030    2    1    2    0    0  0.00000000000E+00  0.00000000000E+00  0.82434605636E+03  0.35206807054E+04  0.34228126167E+04 0.  0.
        1    1    3    3  502    0 -0.76869925063E+03 -0.13790244006E+04  0.10915932521E+04  0.19194224817E+04  0.50400001928E-02 0.  1.
       -1    1    3    3    0  502  0.76869925063E+03  0.13790244006E+04 -0.26724719573E+03  0.16012582237E+04  0.50400001928E-02 0. -1.
</event>
<event>
 5   0  0.8452742E-07  0.2662690E+04  0.7818609E-02  0.8347213E-01
        1   -1    0    0  501    0  0.00000000000E+00  0.00000000000E+00  0.14465417359E+04  0.14465417360E+04  0.50400001928E-02 0. -1.
       -1   -1    0    0    0  501  0.00000000000E+00  0.00000000000E+00 -0.12253218151E+04  0.12253218151E+04  0.50400001928E-02 0.  1.
    10030    2    1    2    0    0  0.00000000000E+00  0.00000000000E+00  0.22121992088E+03  0.26718635510E+04  0.26626897269E+04 0.  0.
        1    1    3    3  502    0 -0.28722463818E+03 -0.15115374578E+03 -0.11850138710E+04  0.12286591562E+04  0.50400001928E-02 0.  1.
       -1    1    3    3    0  502  0.28722463818E+03  0.15115374578E+03  0.14062337919E+04  0.14432043948E+04  0.50400001928E-02 0. -1.
</event>
<event>
 5   0  0.1513502E-06  0.2324828E+04  0.7818609E-02  0.8468196E-01
        2   -1    0    0  501    0  0.00000000000E+00  0.00000000000E+00  0.17425828549E+04  0.17425828549E+04  0.25500000920E-02 0.  1.
       -2   -1    0    0    0  501  0.00000000000E+00  0.00000000000E+00 -0.77540452409E+03  0.77540452409E+03  0.25500000920E-02 0. -1.
    10030    2    1    2    0    0  0.00000000000E+00  0.00000000000E+00  0.96717833083E+03  0.25179873790E+04  0.23248282769E+04 0.  0.
        3    1    3    3  502    0  0.60354996654E+03  0.99342056966E+03  0.47595907835E+03  0.12560629143E+04  0.10100000352E+00 0. -1.
       -3    1    3    3    0  502 -0.60354996654E+03 -0.99342056966E+03  0.49121925249E+03  0.12619244647E+04  0.10100000352E+00 0.  1.
</event>
<event>
 5   0  0.8452742E-07  0.3577406E+04  0.7818609E-02  0.8095687E-01
        1   -1    0    0  501    0  0.00000000000E+00  0.00000000000E+00  0.13722362413E+04  0.13722362413E+04  0.50400001928E-02 0.  1.
       -1   -1    0    0    0  501  0.00000000000E+00  0.00000000000E+00 -0.23315649672E+04  0.23315649672E+04  0.50400001928E-02 0. -1.
    10030    2    1    2    0    0  0.00000000000E+00  0.00000000000E+00 -0.95932872591E+03  0.37038012085E+04  0.35774057342E+04 0.  0.
        1    1    3    3  502    0 -0.10675602760E+04 -0.98378554751E+03  0.60221455793E+03  0.15716810491E+04  0.50400001928E-02 0.  1.
       -1    1    3    3    0  502  0.10675602760E+04  0.98378554751E+03 -0.15615432838E+04  0.21321201593E+04  0.50400001928E-02 0. -1.
</event>
<event>
 5   0  0.8423692E-07  0.2068645E+04  0.7818609E-02  0.8575182E-01
       -1   -1    0    0    0  501  0.00000000000E+00  0.00000000000E+00  0.77687699981E+03  0.77687699982E+03  0.50400001928E-02 0. -1.
        1   -1    0    0  501    0  0.00000000000E+00  0.00000000000E+00 -0.13770821440E+04  0.13770821440E+04  0.50400001928E-02 0.  1.
    10030    2    1    2    0    0  0.00000000000E+00  0.00000000000E+00 -0.60020514415E+03  0.21539591438E+04  0.20686453969E+04 0.  0.
        2    1    3    3  502    0 -0.55124531176E+03  0.26273022754E+03 -0.11693519612E+04  0.13191977014E+04  0.25500000920E-02 0.  1.
       -2    1    3    3    0  502  0.55124531176E+03 -0.26273022754E+03  0.56914681710E+03  0.83476144234E+03  0.25500000920E-02 0. -1.
</event>
<event>
 5   0  0.1634374E-06  0.3422643E+04  0.7818609E-02  0.8132371E-01
        1   -1    0    0  501    0  0.00000000000E+00  0.00000000000E+00  0.11510421231E+04  0.11510421231E+04  0.50400001928E-02 0. -1.
       -1   -1    0    0    0  501  0.00000000000E+00  0.00000000000E+00 -0.25443222056E+04  0.25443222056E+04  0.50400001928E-02 0.  1.
    10030    2    1    2    0    0  0.00000000000E+00  0.00000000000E+00 -0.13932800825E+04  0.36953643288E+04  0.34226434424E+04 0.  0.
        5    1    3    3  502    0 -0.11848811401E+04  0.10903526689E+04 -0.70995030161E+02  0.16117923697E+04  0.46999998093E+01 0. -1.
       -5    1    3    3    0  502  0.11848811401E+04 -0.10903526689E+04 -0.13222850524E+04  0.20835719590E+04  0.46999998093E+01 0.  1.
</event>
<event>
 5   0  0.8423692E-07  0.3649260E+04  0.7818609E-02  0.8079300E-01
       -1   -1    0    0    0  501  0.00000000000E+00  0.00000000000E+00  0.15268729410E+04  0.15268729410E+04  0.50400001928E-02 0. -1.
        1   -1    0    0  501    0  0.00000000000E+00  0.00000000000E+00 -0.21804526810E+04  0.21804526810E+04  0.50400001928E-02 0.  1.
    10030    2    1    2    0    0  0.00000000000E+00  0.00000000000E+00 -0.65357974000E+03  0.37073256220E+04  0.36492597593E+04 0.  0.
        2    1    3    3  502    0  0.11811814315E+04 -0.55361462959E+03 -0.16228620545E+04  0.20821527274E+04  0.25500000920E-02 0.  1.
       -2    1    3    3    0  502 -0.11811814315E+04  0.55361462959E+03  0.96928231446E+03  0.16251728946E+04  0.25500000920E-02 0. -1.
</event>
<event>
 5   0  0.2536619E-06  0.3353813E+04  0.7818609E-02  0.8149336E-01
        2   -1    0    0  501    0  0.00000000000E+00  0.00000000000E+00  0.27737318366E+04  0.27737318366E+04  0.25500000920E-02 0. -1.
       -2   -1    0    0    0  501  0.00000000000E+00  0.00000000000E+00 -0.10138023375E+04  0.10138023375E+04  0.25500000920E-02 0.  1.
    10030    2    1    2    0    0  0.00000000000E+00  0.00000000000E+00  0.17599294991E+04  0.37875341741E+04  0.33538132445E+04 0.  0.
        1    1    3    3  502    0 -0.51920687024E+03  0.51095075468E+03  0.25857151738E+04  0.26863673256E+04  0.50400001928E-02 0. -1.
       -1    1    3    3    0  502  0.51920687024E+03 -0.51095075468E+03 -0.82578567474E+03  0.11011668486E+04  0.50400001928E-02 0.  1.
</event>
<event>
 5   0  0.7754556E-07  0.3451817E+04  0.7818609E-02  0.8125305E-01
       -1   -1    0    0    0  501  0.00000000000E+00  0.00000000000E+00  0.19837971375E+04  0.19837971375E+04  0.50400001928E-02 0. -1.
        1   -1    0    0  501    0  0.00000000000E+00  0.00000000000E+00 -0.15015447034E+04  0.15015447034E+04  0.50400001928E-02 0.  1.
    10030    2    1    2    0    0  0.00000000000E+00  0.00000000000E+00  0.48225243403E+03  0.34853418409E+04  0.34518169618E+04 0.  0.
        4    1    3    3  502    0 -0.55790647409E+03 -0.82902216694E+03 -0.11797441655E+04  0.15460709220E+04  0.12699999809E+01 0.  1.
       -4    1    3    3    0  502  0.55790647409E+03  0.82902216694E+03  0.16619965995E+04  0.19392709189E+04  0.12699999809E+01 0. -1.
</event>
<event>
 5   0  0.1513502E-06  0.3626025E+04  0.7818609E-02  0.8084556E-01
        2   -1    0    0  501    0  0.00000000000E+00  0.00000000000E+00  0.23453852265E+04  0.23453852265E+04  0.25500000920E-02 0. -1.
       -2   -1    0    0    0  501  0.00000000000E+00  0.00000000000E+00 -0.14014815913E+04  0.14014815913E+04  0.25500000920E-02 0.  1.
    10030    2    1    2    0    0  0.00000000000E+00  0.00000000000E+00  0.94390363520E+03  0.37468668178E+04  0.36260249417E+04 0.  0.
        3    1    3    3  502    0 -0.66875539804E+03 -0.12503438016E+03 -0.12645734443E+04  0.14359712340E+04  0.10100000352E+00 0.  1.
       -3    1    3    3    0  502  0.66875539804E+03  0.12503438016E+03  0.22084770795E+04  0.23108955839E+04  0.10100000352E+00 0. -1.
</event>
<event>
 5   0  0.1566576E-06  0.3342207E+04  0.7818609E-02  0.8152238E-01
       -2   -1    0    0    0  501  0.00000000000E+00  0.00000000000E+00  0.10710017818E+04  0.10710017818E+04  0.25500000920E-02 0.  1.
        2   -1    0    0  501    0  0.00000000000E+00  0.00000000000E+00 -0.26074530520E+04  0.26074530520E+04  0.25500000920E-02 0. -1.
    10030    2    1    2    0    0  0.00000000000E+00  0.00000000000E+00 -0.15364512702E+04  0.36784548338E+04  0.33422069742E+04 0.  0.
        4    1    3    3  502    0  0.95453899752E+03 -0.13676584217E+04 -0.65305045760E+03  0.17911199762E+04  0.12699999809E+01 0.  1.
       -4    1    3    3    0  502 -0.95453899752E+03  0.13676584217E+04 -0.88340081255E+03  0.18873348576E+04  0.12699999809E+01 0. -1.
</event>
<event>
 5   0  0.8423692E-07  0.3547590E+04  0.7818609E-02  0.8102603E-01
        1   -1    0    0  501    0  0.00000000000E+00  0.00000000000E+00  0.16944920082E+04  0.16944920082E+04  0.50400001928E-02 0.  1.
       -1   -1    0    0    0  501  0.00000000000E+00  0.00000000000E+00 -0.18568093047E+04  0.18568093047E+04  0.50400001928E-02 0. -1.
    10030    2    1    2    0    0  0.00000000000E+00  0.00000000000E+00 -0.16231729653E+03  0.35513013129E+04  0.35475899017E+04 0.  0.
        2    1    3    3  502    0 -0.57010302282E+03  0.15527322030E+04 -0.72241743559E+03  0.18049603048E+04  0.25500000920E-02 0. -1.
       -2    1    3    3    0  502  0.57010302282E+03 -0.15527322030E+04  0.56010013907E+03  0.17463410081E+04  0.25500000920E-02 0.  1.
</event>
<event>
 5   0  0.7754556E-07  0.1806197E+04  0.7818609E-02  0.8703011E-01
        1   -1    0    0  501    0  0.00000000000E+00  0.00000000000E+00  0.13482505949E+04  0.13482505949E+04  0.50400001928E-02 0. -1.
       -1   -1    0    0    0  501  0.00000000000E+00  0.00000000000E+00 -0.60492207980E+03  0.60492207982E+03  0.50400001928E-02 0.  1.
    10030    2    1    2    0    0  0.00000000000E+00  0.00000000000E+00  0.74332851511E+03  0.19531726747E+04  0.18061966161E+04 0.  0.
        4    1    3    3  502    0 -0.21969786942E+03  0.35461251179E+03  0.12378217754E+04  0.13062241569E+04  0.12699999809E+01 0. -1.
       -4    1    3    3    0  502  0.21969786942E+03 -0.35461251179E+03 -0.49449326033E+03  0.64694851786E+03  0.12699999809E+01 0.  1.
</event>
<event>
 5   0  0.2422436E-06  0.1787584E+04  0.7818609E-02  0.8712930E-01
       -2   -1    0    0    0  501  0.00000000000E+00  0.00000000000E+00  0.45198446906E+03  0.45198446907E+03  0.25500000920E-02 0.  1.
        2   -1    0    0  501    0  0.00000000000E+00  0.00000000000E+00 -0.17674596029E+04  0.17674596029E+04  0.25500000920E-02 0. -1.
    10030    2    1    2    0    0  0.00000000000E+00  0.00000000000E+00 -0.13154751338E+04  0.22194440720E+04  0.17875841689E+04 0.  0.
        2    1    3    3  502    0  0.46546304663E+03  0.30398278799E+03  0.21119962280E+03  0.59469880094E+03  0.25500000920E-02 0.  1.
       -2    1    3    3    0  502 -0.46546304663E+03 -0.30398278799E+03 -0.15266747566E+04  0.16247452710E+04  0.25500000920E-02 0. -1.
</event>
<event>
 5   0  0.1513502E-06  0.3509549E+04  0.7818609E-02  0.8111531E-01
       -2   -1    0    0    0  501  0.00000000000E+00  0.00000000000E+00  0.15956698057E+04  0.15956698057E+04  0.25500000920E-02 0. -1.
        2   -1    0    0  501    0  0.00000000000E+00  0.00000000000E+00 -0.19297435676E+04  0.19297435676E+04  0.25500000920E-02 0.  1.
    10030    2    1    2    0    0  0.00000000000E+00  0.00000000000E+00 -0.33407376185E+03  0.35254133733E+04  0.35095489987E+04 0.  0.
        3    1    3    3  502    0  0.80561946996E+03 -0.98750484445E+03  0.10446682522E+04  0.16478835867E+04  0.10100000352E+00 0. -1.
       -3    1    3    3    0  502 -0.80561946996E+03  0.98750484445E+03 -0.13787420140E+04  0.18775297866E+04  0.10100000352E+00 0.  1.
</event>
<event>
 5   0  0.8423692E-07  0.2440983E+04  0.7818609E-02  0.8424318E-01
       -1   -1    0    0    0  501  0.00000000000E+00  0.00000000000E+00  0.10588665345E+04  0.10588665345E+04  0.50400001928E-02 0. -1.
        1   -1    0    0  501    0  0.00000000000E+00  0.00000000000E+00 -0.14067866101E+04  0.14067866101E+04  0.50400001928E-02 0.  1.
    10030    2    1    2    0    0  0.00000000000E+00  0.00000000000E+00 -0.34792007568E+03  0.24656531446E+04  0.24409828042E+04 0.  0.
        2    1    3    3  502    0  0.97073487160E+03  0.16558968641E+03 -0.90225548120E+03  0.13355939085E+04  0.25500000920E-02 0.  1.
       -2    1    3    3    0  502 -0.97073487160E+03 -0.16558968641E+03  0.55433540552E+03  0.11300592361E+04  0.25500000920E-02 0. -1.
</event>
<event>
 5   0  0.2382711E-06  0.3600459E+04  0.7818609E-02  0.8090386E-01
        2   -1    0    0  501    0  0.00000000000E+00  0.00000000000E+00  0.19586575839E+04  0.19586575839E+04  0.25500000920E-02 0. -1.
       -2   -1    0    0    0  501  0.00000000000E+00  0.00000000000E+00 -0.16546162998E+04  0.16546162998E+04  0.25500000920E-02 0.  1.
    10030    2    1    2    0    0  0.00000000000E+00  0.00000000000E+00  0.30404128413E+03  0.36132738837E+04  0.36004592840E+04 0.  0.
        5    1    3    3  502    0  0.88982764368E+03 -0.15587369792E+04  0.29162170268E+03  0.18183837640E+04  0.46999998093E+01 0.  1.
       -5    1    3    3    0  502 -0.88982764368E+03  0.15587369792E+04  0.12419581449E+02  0.17948901197E+04  0.46999998093E+01 0. -1.
</event>
<event>
 5   0  0.7754556E-07  0.3422008E+04  0.7818609E-02  0.8132526E-01
       -1   -1    0    0    0  501  0.00000000000E+00  0.00000000000E+00  0.96073036958E+03  0.96073036959E+03  0.50400001928E-02 0. -1.
        1   -1    0    0  501    0  0.00000000000E+00  0.00000000000E+00 -0.30471977369E+04  0.30471977369E+04  0.50400001928E-02 0.  1.
    10030    2    1    2    0    0  0.00000000000E+00  0.00000000000E+00 -0.20864673674E+04  0.40079281065E+04  0.34220084208E+04 0.  0.
        4    1    3    3  502    0 -0.12277384890E+04 -0.87878060754E+03 -0.10046506291E+03  0.15131728240E+04  0.12699999809E+01 0. -1.
       -4    1    3    3    0  502  0.12277384890E+04  0.87878060754E+03 -0.19860023044E+04  0.24947552825E+04  0.12699999809E+01 0.  1.
</event>
<event>
 5   0  0.2422436E-06  0.2847627E+04  0.7818609E-02  0.8288633E-01
        2   -1    0    0  501    0  0.00000000000E+00  0.00000000000E+00  0.11136041215E+04  0.11136041215E+04  0.25500000920E-02 0.  1.
       -2   -1    0    0    0  501  0.00000000000E+00  0.00000000000E+00 -0.18204354312E+04  0.18204354312E+04  0.25500000920E-02 0. -1.
    10030    2    1    2    0    0  0.00000000000E+00  0.00000000000E+00 -0.70683130972E+03  0.29340395527E+04  0.28476266603E+04 0.  0.
        2    1    3    3  502    0  0.56355616714E+02  0.14169841731E+04 -0.48465554389E+03  0.14986364131E+04  0.25500000920E-02 0. -1.
       -2    1    3    3    0  502 -0.56355616714E+02 -0.14169841731E+04 -0.22217576583E+03  0.14354031396E+04  0.25500000920E-02 0.  1.
</event>
<event>
 5   0  0.1908273E-06  0.3651786E+04  0.7818609E-02  0.8078731E-01
       -1   -1    0    0    0  501  0.00000000000E+00  0.00000000000E+00  0.22254242529E+04  0.22254242529E+04  0.50400001928E-02 0. -1.
        1   -1    0    0  501    0  0.00000000000E+00  0.00000000000E+00 -0.14980898279E+04  0.14980898279E+04  0.50400001928E-02 0.  1.
    10030    2    1    2    0    0  0.00000000000E+00  0.00000000000E+00  0.72733442497E+03  0.37235140808E+04  0.36517861033E+04 0.  0.
        3    1    3    3  502    0 -0.28603489674E+02  0.16829090871E+04 -0.35796575550E+03  0.17207965154E+04  0.10100000352E+00 0.  1.
       -3    1    3    3    0  502  0.28603489674E+02 -0.16829090871E+04  0.10853001805E+04  0.20027175654E+04  0.10100000352E+00 0. -1.
</event>
<event>
 5   0  0.8452742E-07  0.2200356E+04  0.7818609E-02  0.8518280E-01
       -1   -1    0    0    0  501  0.00000000000E+00  0.00000000000E+00  0.15497730918E+04  0.15497730918E+04  0.50400001928E-02 0.  1.
        1   -1    0    0  501    0  0.00000000000E+00  0.00000000000E+00 -0.78101250785E+03  0.78101250787E+03  0.50400001928E-02 0. -1.
    10030    2    1    2    0    0  0.00000000000E+00  0.00000000000E+00  0.76876058392E+03  0.23307855996E+04  0.22003564884E+04 0.  0.
        1    1    3    3  502    0  0.24336060312E+03 -0.96541600775E+03 -0.11149198317E+03  0.10018397644E+04  0.50400001928E-02 0. -1.
       -1    1    3    3    0  502 -0.24336060312E+03  0.96541600775E+03  0.88025256709E+03  0.13289458353E+04  0.50400001928E-02 0.  1.
</event>
<event>
 5   0  0.2536619E-06  0.2262740E+04  0.7818609E-02  0.8492759E-01
        2   -1    0    0  501    0  0.00000000000E+00  0.00000000000E+00  0.16127971743E+04  0.16127971743E+04  0.25500000920E-02 0.  1.
       -2   -1    0    0    0  501  0.00000000000E+00  0.00000000000E+00 -0.79365072119E+03  0.79365072119E+03  0.25500000920E-02 0. -1.
    10030    2    1    2    0    0  0.00000000000E+00  0.00000000000E+00  0.81914645308E+03  0.24064478955E+04  0.22627396143E+04 0.  0.
        1    1    3    3  502    0  0.10623262838E+04 -0.34088663210E+03  0.60926648245E+03  0.12711988341E+04  0.50400001928E-02 0.  1.
       -1    1    3    3    0  502 -0.10623262838E+04  0.34088663210E+03  0.20987997063E+03  0.11352490613E+04  0.50400001928E-02 0. -1.
</event>
<event>
 5   0  0.1513502E-06  0.3611073E+04  0.7818609E-02  0.8087960E-01
       -2   -1    0    0    0  501  0.00000000000E+00  0.00000000000E+00  0.19406337456E+04  0.19406337456E+04  0.25500000920E-02 0.  1.
        2   -1    0    0  501    0  0.00000000000E+00  0.00000000000E+00 -0.16798441364E+04  0.16798441364E+04  0.25500000920E-02 0. -1.
    10030    2    1    2    0    0  0.00000000000E+00  0.00000000000E+00  0.26078960926E+03  0.36204778820E+04  0.36110730917E+04 0.  0.
        3    1    3    3  502    0  0.57492944384E+03  0.16620517032E+04  0.54011849737E+03  0.18397520841E+04  0.10100000352E+00 0. -1.
       -3    1    3    3    0  502 -0.57492944384E+03 -0.16620517032E+04 -0.27932888811E+03  0.17807257979E+04  0.10100000352E+00 0.  1.
</event>
<event>
 5   0  0.7754556E-07  0.2782631E+04  0.7818609E-02  0.8308681E-01
        1   -1    0    0  501    0  0.00000000000E+00  0.00000000000E+00  0.12155340279E+04  0.12155340279E+04  0.50400001928E-02 0.  1.
       -1   -1    0    0    0  501  0.00000000000E+00  0.00000000000E+00 -0.15925172015E+04  0.15925172015E+04  0.50400001928E-02 0. -1.
    10030    2    1    2    0    0  0.00000000000E+00  0.00000000000E+00 -0.37698317360E+03  0.28080512294E+04  0.27826310201E+04 0.  0.
        4    1    3    3  502    0  0.93411868478E+03  0.49646345415E+02  0.85082703869E+03  0.12644962394E+04  0.12699999809E+01 0.  1.
       -4    1    3    3    0  502 -0.93411868478E+03 -0.49646345415E+02 -0.12278102123E+04  0.15435549900E+04  0.12699999809E+01 0. -1.
</event>
<event>
 5   0  0.1566576E-06  0.2239845E+04  0.7818609E-02  0.8502024E-01
       -2   -1    0    0    0  501  0.00000000000E+00  0.00000000000E+00  0.82943163750E+03  0.82943163751E+03  0.25500000920E-02 0.  1.
        2   -1    0    0  501    0  0.00000000000E+00  0.00000000000E+00 -0.15121522173E+04  0.15121522173E+04  0.25500000920E-02 0. -1.
    10030    2    1    2    0    0  0.00000000000E+00  0.00000000000E+00 -0.68272057975E+03  0.23415838548E+04  0.22398454319E+04 0.  0.
        4    1    3    3  502    0  0.38379613028E+03  0.73418867252E+03 -0.11291763809E+04  0.14004904100E+04  0.12699999809E+01 0. -1.
       -4    1    3    3    0  502 -0.38379613028E+03 -0.73418867252E+03  0.44645580115E+03  0.94109344475E+03  0.12699999809E+01 0.  1.
</event>
<event>
 5   0  0.8423692E-07  0.3578291E+04  0.7818609E-02  0.8095483E-01
        1   -1    0    0  501    0  0.00000000000E+00  0.00000000000E+00  0.17039126603E+04  0.17039126603E+04  0.50400001928E-02 0. -1.
       -1   -1    0    0    0  501  0.00000000000E+00  0.00000000000E+00 -0.18786417546E+04  0.18786417546E+04  0.50400001928E-02 0.  1.
    10030    2    1    2    0    0  0.00000000000E+00  0.00000000000E+00 -0.17472909426E+03  0.35825544150E+04  0.35782909160E+04 0.  0.
        2    1    3    3  502    0  0.12361561497E+04 -0.66643221442E+03 -0.11972102858E+04  0.18454068363E+04  0.25500000920E-02 0.  1.
       -2    1    3    3    0  502 -0.12361561497E+04  0.66643221442E+03  0.10224811916E+04  0.17371475787E+04  0.25500000920E-02 0. -1.
</event>
<event>
 5   0  0.7754556E-07  0.1803894E+04  0.7818609E-02  0.8704231E-01
        1   -1    0    0  501    0  0.00000000000E+00  0.00000000000E+00  0.13485744040E+04  0.13485744040E+04  0.50400001928E-02 0. -1.
       -1   -1    0    0    0  501  0.00000000000E+00  0.00000000000E+00 -0.60323595493E+03  0.60323595495E+03  0.50400001928E-02 0.  1.
    10030    2    1    2    0    0  0.00000000000E+00  0.00000000000E+00  0.74533844908E+03  0.19518103590E+04  0.18038941969E+04 0.  0.
        4    1    3    3  502    0 -0.35894814975E+03 -0.69020961997E+03 -0.12112265324E+03  0.78734071642E+03  0.12699999809E+01 0.  1.
       -4    1    3    3    0  502  0.35894814975E+03  0.69020961997E+03  0.86646110231E+03  0.11644696426E+04  0.12699999809E+01 0. -1.
</event>
<event>
 5   0  0.2382711E-06  0.3599390E+04  0.7818609E-02  0.8090632E-01
       -2   -1    0    0    0  501  0.00000000000E+00  0.00000000000E+00  0.11987476574E+04  0.11987476575E+04  0.25500000920E-02 0. -1.
        2   -1    0    0  501    0  0.00000000000E+00  0.00000000000E+00 -0.27019043661E+04  0.27019043661E+04  0.25500000920E-02 0.  1.
    10030    2    1    2    0    0  0.00000000000E+00  0.00000000000E+00 -0.15031567087E+04  0.39006520236E+04  0.35993896869E+04 0.  0.
        5    1    3    3  502    0 -0.63762663138E+02 -0.17347674628E+04 -0.23708345987E+03  0.17520600687E+04  0.46999998093E+01 0. -1.
       -5    1    3    3    0  502  0.63762663138E+02  0.17347674628E+04 -0.12660732488E+04  0.21485919549E+04  0.46999998093E+01 0.  1.
</event>
<event>
 5   0  0.2536619E-06  0.3689016E+04  0.7818609E-02  0.8070400E-01
        2   -1    0    0  501    0  0.00000000000E+00  0.00000000000E+00  0.19938603225E+04  0.19938603225E+04  0.25500000920E-02 0.  1.
       -2   -1    0    0    0  501  0.00000000000E+00  0.00000000000E+00 -0.17063429022E+04  0.17063429022E+04  0.25500000920E-02 0. -1.
    10030    2    1    2    0    0  0.00000000000E+00  0.00000000000E+00  0.28751742029E+03  0.37002032247E+04  0.36890158087E+04 0.  0.
        1    1    3    3  502    0 -0.16707233580E+04  0.33705716945E+03  0.85108188375E+03  0.19050628460E+04  0.50400001928E-02 0.  1.
       -1    1    3    3    0  502  0.16707233580E+04 -0.33705716945E+03 -0.56356446347E+03  0.17951403786E+04  0.50400001928E-02 0. -1.
</event>
<event>
 5   0  0.8423692E-07  0.3554793E+04  0.7818609E-02  0.8100926E-01
       -1   -1    0    0    0  501  0.00000000000E+00  0.00000000000E+00  0.16143405808E+04  0.16143405808E+04  0.50400001928E-02 0. -1.
        1   -1    0    0  501    0  0.00000000000E+00  0.00000000000E+00 -0.19569219930E+04  0.19569219930E+04  0.50400001928E-02 0.  1.
    10030    2    1    2    0    0  0.00000000000E+00  0.00000000000E+00 -0.34258141217E+03  0.35712625738E+04  0.35547931511E+04 0.  0.
        2    1    3    3  502    0 -0.31448814728E+03  0.14066309756E+04  0.87353975177E+03  0.16854035701E+04  0.25500000920E-02 0. -1.
       -2    1    3    3    0  502  0.31448814728E+03 -0.14066309756E+04 -0.12161211639E+04  0.18858590037E+04  0.25500000920E-02 0.  1.
</event>
<event>
 5   0  0.2382711E-06  0.2467832E+04  0.7818609E-02  0.8414536E-01
       -2   -1    0    0    0  501  0.00000000000E+00  0.00000000000E+00  0.11361117141E+04  0.11361117141E+04  0.25500000920E-02 0. -1.
        2   -1    0    0  501    0  0.00000000000E+00  0.00000000000E+00 -0.13401400717E+04  0.13401400717E+04  0.25500000920E-02 0.  1.
    10030    2    1    2    0    0  0.00000000000E+00  0.00000000000E+00 -0.20402835763E+03  0.24762517858E+04  0.24678321126E+04 0.  0.
        5    1    3    3  502    0 -0.98468039927E+03  0.30994457675E+03  0.57621024756E+03  0.11822442509E+04  0.46999998093E+01 0. -1.
       -5    1    3    3    0  502  0.98468039927E+03 -0.30994457675E+03 -0.78023860519E+03  0.12940075349E+04  0.46999998093E+01 0.  1.
</event>
<event>
 5   0  0.2422436E-06  0.3587540E+04  0.7818609E-02  0.8093352E-01
        2   -1    0    0  501    0  0.00000000000E+00  0.00000000000E+00  0.16853416287E+04  0.16853416287E+04  0.25500000920E-02 0. -1.
       -2   -1    0    0    0  501  0.00000000000E+00  0.00000000000E+00 -0.19091739977E+04  0.19091739977E+04  0.25500000920E-02 0.  1.
    10030    2    1    2    0    0  0.00000000000E+00  0.00000000000E+00 -0.22383236897E+03  0.35945156263E+04  0.35875397780E+04 0.  0.
        2    1    3    3  502    0 -0.15451126935E+04 -0.29926790520E+03  0.75038256782E+03  0.17435620186E+04  0.25500000920E-02 0. -1.
       -2    1    3    3    0  502  0.15451126935E+04  0.29926790520E+03 -0.97421493679E+03  0.18509536077E+04  0.25500000920E-02 0.  1.
</event>
<event>
 5   0  0.8452742E-07  0.3583876E+04  0.7818609E-02  0.8094195E-01
        1   -1    0    0  501    0  0.00000000000E+00  0.00000000000E+00  0.33127687781E+04  0.33127687781E+04  0.50400001928E-02 0. -1.
       -1   -1    0    0    0  501  0.00000000000E+00  0.00000000000E+00 -0.96929242116E+03  0.96929242118E+03  0.50400001928E-02 0.  1.
    10030    2    1    2    0    0  0.00000000000E+00  0.00000000000E+00  0.23434763570E+04  0.42820611993E+04  0.35838759296E+04 0.  0.
        1    1    3    3  502    0  0.66403180478E+03  0.15363973920E+04  0.19364058209E+04  0.25595161041E+04  0.50400001928E-02 0. -1.
       -1    1    3    3    0  502 -0.66403180478E+03 -0.15363973920E+04  0.40707053604E+03  0.17225450952E+04  0.50400001928E-02 0.  1.
</event>
<event>
 5   0  0.1513502E-06  0.2939175E+04  0.7818609E-02  0.8261316E-01
       -2   -1    0    0    0  501  0.00000000000E+00  0.00000000000E+00  0.19006612956E+04  0.19006612956E+04  0.25500000920E-02 0. -1.
        2   -1    0    0  501    0  0.00000000000E+00  0.00000000000E+00 -0.11362820308E+04  0.11362820308E+04  0.25500000920E-02 0.  1.
    10030    2    1    2    0    0  0.00000000000E+00  0.00000000000E+00  0.76437926483E+03  0.30369433264E+04  0.29391749025E+04 0.  0.
        3    1    3    3  502    0  0.68650666786E+03  0.64553660478E+03  0.15473880772E+04  0.18117446798E+04  0.10100000352E+00 0. -1.
       -3    1    3    3    0  502 -0.68650666786E+03 -0.64553660478E+03 -0.78300881241E+03  0.12251986466E+04  0.10100000352E+00 0.  1.
</event>
<event>
 5   0  0.8452742E-07  0.2440746E+04  0.7818609E-02  0.8424405E-01
       -1   -1    0    0    0  501  0.00000000000E+00  0.00000000000E+00  0.91327331118E+03  0.91327331119E+03  0.50400001928E-02 0.  1.
        1   -1    0    0  501    0  0.00000000000E+00  0.00000000000E+00 -0.16307384854E+04  0.16307384854E+04  0.50400001928E-02 0. -1.
    10030    2    1    2    0    0  0.00000000000E+00  0.00000000000E+00 -0.71746517423E+03  0.25440117966E+04  0.24407457354E+04 0.  0.
        1    1    3    3  502    0  0.42020108693E+03  0.91631948145E+03 -0.10756561721E+04  0.14741935240E+04  0.50400001928E-02 0. -1.
       -1    1    3    3    0  502 -0.42020108693E+03 -0.91631948145E+03  0.35819099783E+03  0.10698182727E+04  0.50400001928E-02 0.  1.
</event>
<event>
 5   0  0.2422436E-06  0.3066201E+04  0.7818609E-02  0.8225075E-01
        2   -1    0    0  501    0  0.00000000000E+00  0.00000000000E+00  0.17688982175E+04  0.17688982175E+04  0.25500000920E-02 0.  1.
       -2   -1    0    0    0  501  0.00000000000E+00  0.00000000000E+00 -0.13287352926E+04  0.13287352926E+04  0.25500000920E-02 0. -1.
    10030    2    1    2    0    0  0.00000000000E+00  0.00000000000E+00  0.44016292483E+03  0.30976335101E+04  0.30662012267E+04 0.  0.
        2    1    3    3  502    0 -0.22005432648E+02 -0.24545040224E+03 -0.13085949927E+04  0.13315971590E+04  0.25500000920E-02 0. -1.
       -2    1    3    3    0  502  0.22005432648E+02  0.24545040224E+03  0.17487579175E+04  0.17660363510E+04  0.25500000920E-02 0.  1.
</event>
<event>
 5   0  0.2422436E-06  0.2813935E+04  0.7818609E-02  0.8298955E-01
        2   -1    0    0  501    0  0.00000000000E+00  0.00000000000E+00  0.16258044958E+04  0.16258044958E+04  0.25500000920E-02 0.  1.
       -2   -1    0    0    0  501  0.00000000000E+00  0.00000000000E+00 -0.12175866173E+04  0.12175866173E+04  0.25500000920E-02 0. -1.
    10030    2    1    2    0    0  0.00000000000E+00  0.00000000000E+00  0.40821787846E+03  0.28433911131E+04  0.28139351779E+04 0.  0.
        2    1    3    3  502    0 -0.71107319855E+03 -0.10451643367E+03  0.14263194506E+04  0.15971649739E+04  0.25500000920E-02 0.  1.
       -2    1    3    3    0  502  0.71107319855E+03  0.10451643367E+03 -0.10181015722E+04  0.12462261391E+04  0.25500000920E-02 0. -1.
</event>
<event>
 5   0  0.7754556E-07  0.3561227E+04  0.7818609E-02  0.8099431E-01
       -1   -1    0    0    0  501  0.00000000000E+00  0.00000000000E+00  0.15131510913E+04  0.15131510913E+04  0.50400001928E-02 0. -1.
        1   -1    0    0  501    0  0.00000000000E+00  0.00000000000E+00 -0.20953521261E+04  0.20953521261E+04  0.50400001928E-02 0.  1.
    10030    2    1    2    0    0  0.00000000000E+00  0.00000000000E+00 -0.58220103480E+03  0.36085032175E+04  0.35612269551E+04 0.  0.
        4    1    3    3  502    0  0.27366728860E+03 -0.31534428040E+02 -0.20736284300E+04  0.20918471942E+04  0.12699999809E+01 0.  1.
       -4    1    3    3    0  502 -0.27366728860E+03  0.31534428040E+02  0.14914273952E+04  0.15166560233E+04  0.12699999809E+01 0. -1.
</event>
<event>
 5   0  0.1513502E-06  0.3576355E+04  0.7818609E-02  0.8095929E-01
        2   -1    0    0  501    0  0.00000000000E+00  0.00000000000E+00  0.11855759447E+04  0.11855759447E+04  0.25500000920E-02 0. -1.
       -2   -1    0    0    0  501  0.00000000000E+00  0.00000000000E+00 -0.26970674660E+04  0.26970674660E+04  0.25500000920E-02 0.  1.
    10030    2    1    2    0    0  0.00000000000E+00  0.00000000000E+00 -0.15114915213E+04  0.38826434106E+04  0.35763547412E+04 0.  0.
        3    1    3    3  502    0  0.67155662043E+03 -0.64667564587E+03  0.90084703447E+03  0.12964193284E+04  0.10100000352E+00 0. -1.
       -3    1    3    3    0  502 -0.67155662043E+03  0.64667564587E+03 -0.24123385558E+04  0.25862240822E+04  0.10100000352E+00 0.  1.
</event>
<event>
 5   0  0.2422436E-06  0.3502034E+04  0.7818609E-02  0.8113308E-01
       -2   -1    0    0    0  501  0.00000000000E+00  0.00000000000E+00  0.13335605497E+04  0.13335605498E+04  0.25500000920E-02 0. -1.
        2   -1    0    0  501    0  0.00000000000E+00  0.00000000000E+00 -0.22991539679E+04  0.22991539679E+04  0.25500000920E-02 0.  1.
    10030    2    1    2    0    0  0.00000000000E+00  0.00000000000E+00 -0.96559341816E+03  0.36327145177E+04  0.35020342828E+04 0.  0.
        2    1    3    3  502    0  0.31542797071E+03 -0.29192449427E+03  0.12779975206E+04  0.13483294767E+04  0.25500000920E-02 0. -1.
       -2    1    3    3    0  502 -0.31542797071E+03  0.29192449427E+03 -0.22435909387E+04  0.22843850410E+04  0.25500000920E-02 0.  1.
</event>
<event>
 5   0  0.8452742E-07  0.3658736E+04  0.7818609E-02  0.8077168E-01
       -1   -1    0    0    0  501  0.00000000000E+00  0.00000000000E+00  0.28403217470E+04  0.28403217470E+04  0.50400001928E-02 0. -1.
        1   -1    0    0  501    0  0.00000000000E+00  0.00000000000E+00 -0.11782421761E+04  0.11782421761E+04  0.50400001928E-02 0.  1.
    10030    2    1    2    0    0  0.00000000000E+00  0.00000000000E+00  0.16620795709E+04  0.40185639231E+04  0.36587357795E+04 0.  0.
        1    1    3    3  502    0  0.29481871504E+02  0.10100154464E+04  0.25060061173E+04  0.27020486751E+04  0.50400001928E-02 0. -1.
       -1    1    3    3    0  502 -0.29481871504E+02 -0.10100154464E+04 -0.84392654634E+03  0.13165152481E+04  0.50400001928E-02 0.  1.
</event>
<event>
 5   0  0.8452742E-07  0.1768526E+04  0.7818609E-02  0.8723218E-01
       -1   -1    0    0    0  501  0.00000000000E+00  0.00000000000E+00  0.92493114163E+03  0.92493114164E+03  0.50400001928E-02 0. -1.
        1   -1    0    0  501    0  0.00000000000E+00  0.00000000000E+00 -0.84538289424E+03  0.84538289426E+03  0.50400001928E-02 0.  1.
    10030    2    1    2    0    0  0.00000000000E+00  0.00000000000E+00  0.79548247382E+02  0.17703140359E+04  0.17685259009E+04 0.  0.
        1    1    3    3  502    0 -0.40486958593E+03  0.74297822616E+03  0.29690918531E+03  0.89671126374E+03  0.50400001928E-02 0. -1.
       -1    1    3    3    0  502  0.40486958593E+03 -0.74297822616E+03 -0.21736093793E+03  0.87360277216E+03  0.50400001928E-02 0.  1.
</event>
<event>
 5   0  0.8423692E-07  0.3653239E+04  0.7818609E-02  0.8078404E-01
        1   -1    0    0  501    0  0.00000000000E+00  0.00000000000E+00  0.21116459757E+04  0.21116459757E+04  0.50400001928E-02 0. -1.
       -1   -1    0    0    0  501  0.00000000000E+00  0.00000000000E+00 -0.15800650476E+04  0.15800650476E+04  0.50400001928E-02 0.  1.
    10030    2    1    2    0    0  0.00000000000E+00  0.00000000000E+00  0.53158092808E+03  0.36917110232E+04  0.36532385627E+04 0.  0.
        2    1    3    3  502    0 -0.62086058503E+03  0.11986459444E+04  0.15093260334E+04  0.20249160578E+04  0.25500000920E-02 0. -1.
       -2    1    3    3    0  502  0.62086058503E+03 -0.11986459444E+04 -0.97774510530E+03  0.16667949655E+04  0.25500000920E-02 0.  1.
</event>
<event>
 5   0  0.1513502E-06  0.3332568E+04  0.7818609E-02  0.8154658E-01
        2   -1    0    0  501    0  0.00000000000E+00  0.00000000000E+00  0.16440883249E+04  0.16440883249E+04  0.25500000920E-02 0.  1.
       -2   -1    0    0    0  501  0.00000000000E+00  0.00000000000E+00 -0.16887790793E+04  0.16887790793E+04  0.25500000920E-02 0. -1.
    10030    2    1    2    0    0  0.00000000000E+00  0.00000000000E+00 -0.44690754411E+02  0.33328674041E+04  0.33325677592E+04 0.  0.
        3    1    3    3  502    0 -0.98476619405E+03  0.11851204207E+04  0.61192540398E+03  0.16579287013E+04  0.10100000352E+00 0.  1.
       -3    1    3    3    0  502  0.98476619405E+03 -0.11851204207E+04 -0.65661615839E+03  0.16749387028E+04  0.10100000352E+00 0. -1.
</event>
<event>
 5   0  0.2422436E-06  0.3338051E+04  0.7818609E-02  0.8153280E-01
       -2   -1    0    0    0  501  0.00000000000E+00  0.00000000000E+00  0.14545110177E+04  0.14545110177E+04  0.25500000920E-02 0.  1.
        2   -1    0    0  501    0  0.00000000000E+00  0.00000000000E+00 -0.19151769113E+04  0.19151769113E+04  0.25500000920E-02 0. -1.
    10030    2    1    2    0    0  0.00000000000E+00  0.00000000000E+00 -0.46066589365E+03  0.33696879290E+04  0.33380508794E+04 0.  0.
        2    1    3    3  502    0  0.67065321551E+03  0.90459523829E+03 -0.14739085386E+04  0.18548516546E+04  0.25500000920E-02 0. -1.
       -2    1    3    3    0  502 -0.67065321551E+03 -0.90459523829E+03  0.10132426449E+04  0.15148362744E+04  0.25500000920E-02 0.  1.
</event>
<event>
 5   0  0.1566576E-06  0.3095354E+04  0.7818609E-02  0.8217014E-01
       -2   -1    0    0    0  501  0.00000000000E+00  0.00000000000E+00  0.14539050159E+04  0.14539050159E+04  0.25500000920E-02 0.  1.
        2   -1    0    0  501    0  0.00000000000E+00  0.00000000000E+00 -0.16474964340E+04  0.16474964340E+04  0.25500000920E-02 0. -1.
    10030    2    1    2    0    0  0.00000000000E+00  0.00000000000E+00 -0.19359141816E+03  0.31014014499E+04  0.30953535042E+04 0.  0.
        4    1    3    3  502    0  0.15334964317E+04 -0.11933632215E+03 -0.26873885487E+03  0.15614335236E+04  0.12699999809E+01 0.  1.
       -4    1    3    3    0  502 -0.15334964317E+04  0.11933632215E+03  0.75147436705E+02  0.15399679262E+04  0.12699999809E+01 0. -1.
</event>
<event>
 5   0  0.2382711E-06  0.2580350E+04  0.7818609E-02  0.8374907E-01
       -2   -1    0    0    0  501  0.00000000000E+00  0.00000000000E+00  0.18881288644E+04  0.18881288644E+04  0.25500000920E-02 0.  1.
        2   -1    0    0  501    0  0.00000000000E+00  0.00000000000E+00 -0.88158787427E+03  0.88158787427E+03  0.25500000920E-02 0. -1.
    10030    2    1    2    0    0  0.00000000000E+00  0.00000000000E+00  0.10065409901E+04  0.27697167386E+04  0.25803499855E+04 0.  0.
        5    1    3    3  502    0  0.17967352732E+03 -0.31157580640E+03  0.18332183232E+04  0.18681738597E+04  0.46999998093E+01 0.  1.
       -5    1    3    3    0  502 -0.17967352732E+03  0.31157580640E+03 -0.82667733309E+03  0.90154287895E+03  0.46999998093E+01 0. -1.
</event>
<event>
 5   0  0.2536619E-06  0.3532629E+04  0.7818609E-02  0.8106101E-01
       -2   -1    0    0    0  501  0.00000000000E+00  0.00000000000E+00  0.13679747283E+04  0.13679747283E+04  0.25500000920E-02 0. -1.
        2   -1    0    0  501    0  0.00000000000E+00  0.00000000000E+00 -0.22806468040E+04  0.22806468040E+04  0.25500000920E-02 0.  1.
    10030    2    1    2    0    0  0.00000000000E+00  0.00000000000E+00 -0.91267207575E+03  0.36486215323E+04  0.35326291581E+04 0.  0.
        1    1    3    3  502    0  0.17640721138E+04  0.88817723093E+02 -0.46181897692E+03  0.18256822774E+04  0.50400001928E-02 0. -1.
       -1    1    3    3    0  502 -0.17640721138E+04 -0.88817723093E+02 -0.45085309884E+03  0.18229392550E+04  0.50400001928E-02 0.  1.
</event>
<event>
 5   0  0.2422436E-06  0.3607886E+04  0.7818609E-02  0.8088688E-01
       -2   -1    0    0    0  501  0.00000000000E+00  0.00000000000E+00  0.20767505677E+04  0.20767505677E+04  0.25500000920E-02 0. -1.
        2   -1    0    0  501    0  0.00000000000E+00  0.00000000000E+00 -0.15669725706E+04  0.15669725706E+04  0.25500000920E-02 0.  1.
    10030    2    1    2    0    0  0.00000000000E+00  0.00000000000E+00  0.50977799702E+03  0.36437231383E+04  0.36078864592E+04 0.  0.
        2    1    3    3  502    0 -0.36050839435E+03  0.79221433017E+03  0.18506600647E+04  0.20451191952E+04  0.25500000920E-02 0. -1.
       -2    1    3    3    0  502  0.36050839435E+03 -0.79221433017E+03 -0.13408820677E+04  0.15986039431E+04  0.25500000920E-02 0.  1.
</event>
<event>
 5   0  0.7754556E-07  0.3709046E+04  0.7818609E-02  0.8065960E-01
       -1   -1    0    0    0  501  0.00000000000E+00  0.00000000000E+00  0.16806236667E+04  0.16806236667E+04  0.50400001928E-02 0.  1.
        1   -1    0    0  501    0  0.00000000000E+00  0.00000000000E+00 -0.20464160645E+04  0.20464160645E+04  0.50400001928E-02 0. -1.
    10030    2    1    2    0    0  0.00000000000E+00  0.00000000000E+00 -0.36579239776E+03  0.37270397312E+04  0.37090458449E+04 0.  0.
        4    1    3    3  502    0  0.17909949256E+04 -0.31063894753E+03  0.18643865863E+03  0.18272712896E+04  0.12699999809E+01 0.  1.
       -4    1    3    3    0  502 -0.17909949256E+04  0.31063894753E+03 -0.55223105639E+03  0.18997684416E+04  0.12699999809E+01 0. -1.
</event>
<event>
 5   0  0.8452742E-07  0.3634868E+04  0.7818609E-02  0.8082551E-01
        1   -1    0    0  501    0  0.00000000000E+00  0.00000000000E+00  0.15336420409E+04  0.15336420409E+04  0.50400001928E-02 0. -1.
       -1   -1    0    0    0  501  0.00000000000E+00  0.00000000000E+00 -0.21537400307E+04  0.21537400307E+04  0.50400001928E-02 0.  1.
    10030    2    1    2    0    0  0.00000000000E+00  0.00000000000E+00 -0.62009798982E+03  0.36873820715E+04  0.36348679515E+04 0.  0.
        1    1    3    3  502    0 -0.95926045714E+03  0.11714188186E+04 -0.13298907989E+04  0.20151953281E+04  0.50400001928E-02 0.  1.
       -1    1    3    3    0  502  0.95926045714E+03 -0.11714188186E+04  0.70979280911E+03  0.16721867435E+04  0.50400001928E-02 0. -1.
</event>
<event>
 5   0  0.8423692E-07  0.3736946E+04  0.7818609E-02  0.8059823E-01
       -1   -1    0    0    0  501  0.00000000000E+00  0.00000000000E+00  0.18458226785E+04  0.18458226785E+04  0.50400001928E-02 0. -1.
        1   -1    0    0  501    0  0.00000000000E+00  0.00000000000E+00 -0.18914017109E+04  0.18914017109E+04  0.50400001928E-02 0.  1.
    10030    2    1    2    0    0  0.00000000000E+00  0.00000000000E+00 -0.45579032431E+02  0.37372243894E+04  0.37369464391E+04 0.  0.
        2    1    3    3  502    0  0.68490406029E+03  0.88519888950E+03 -0.15190697496E+04  0.18868607659E+04  0.25500000920E-02 0.  1.
       -2    1    3    3    0  502 -0.68490406029E+03 -0.88519888950E+03  0.14734907171E+04  0.18503636235E+04  0.25500000920E-02 0. -1.
</event>
<event>
 5   0  0.8452742E-07  0.2621398E+04  0.7818609E-02  0.8360969E-01
       -1   -1    0    0    0  501  0.00000000000E+00  0.00000000000E+00  0.92032002914E+03  0.92032002916E+03  0.50400001928E-02 0. -1.
        1   -1    0    0  501    0  0.00000000000E+00  0.00000000000E+00 -0.18666675297E+04  0.18666675297E+04  0.50400001928E-02 0.  1.
    10030    2    1    2    0    0  0.00000000000E+00  0.00000000000E+00 -0.94634750054E+03  0.27869875589E+04  0.26213977305E+04 0.  0.
        1    1    3    3  502    0  0.21981390086E+03  0.12807882141E+04 -0.65483224757E+03  0.14551776087E+04  0.50400001928E-02 0. -1.
       -1    1    3    3    0  502 -0.21981390086E+03 -0.12807882141E+04 -0.29151525297E+03  0.13318099501E+04  0.50400001928E-02 0.  1.
</event>
<event>
 5   0  0.1513502E-06  0.3607946E+04  0.7818609E-02  0.8088674E-01
        2   -1    0    0  501    0  0.00000000000E+00  0.00000000000E+00  0.24615087609E+04  0.24615087609E+04  0.25500000920E-02 0. -1.
       -2   -1    0    0    0  501  0.00000000000E+00  0.00000000000E+00 -0.13220826416E+04  0.13220826416E+04  0.25500000920E-02 0.  1.
    10030    2    1    2    0    0  0.00000000000E+00  0.00000000000E+00  0.11394261193E+04  0.37835914025E+04  0.36079456786E+04 0.  0.
        3    1    3    3  502    0 -0.47994928308E+03 -0.33507507626E+03 -0.12197259870E+04  0.13529072823E+04  0.10100000352E+00 0.  1.
       -3    1    3    3    0  502  0.47994928308E+03  0.33507507626E+03  0.23591521063E+04  0.24306841202E+04  0.10100000352E+00 0. -1.
</event>
<event>
 5   0  0.8423692E-07  0.2043535E+04  0.7818609E-02  0.8586533E-01
        1   -1    0    0  501    0  0.00000000000E+00  0.00000000000E+00  0.82852159345E+03  0.82852159347E+03  0.50400001928E-02 0.  1.
       -1   -1    0    0    0  501  0.00000000000E+00  0.00000000000E+00 -0.12600865001E+04  0.12600865001E+04  0.50400001928E-02 0. -1.
    10030    2    1    2    0    0  0.00000000000E+00  0.00000000000E+00 -0.43156490668E+03  0.20886080936E+04  0.20435350499E+04 0.  0.
        2    1    3    3  502    0  0.66989485250E+02  0.76127870167E+03  0.47739186226E+03  0.90107482648E+03  0.25500000920E-02 0.  1.
       -2    1    3    3    0  502 -0.66989485250E+02 -0.76127870167E+03 -0.90895676894E+03  0.11875332671E+04  0.25500000920E-02 0. -1.
</event>
<event>
 5   0  0.2536619E-06  0.3545953E+04  0.7818609E-02  0.8102985E-01
        2   -1    0    0  501    0  0.00000000000E+00  0.00000000000E+00  0.17648853320E+04  0.17648853320E+04  0.25500000920E-02 0.  1.
       -2   -1    0    0    0  501  0.00000000000E+00  0.00000000000E+00 -0.17811043118E+04  0.17811043118E+04  0.25500000920E-02 0. -1.
    10030    2    1    2    0    0  0.00000000000E+00  0.00000000000E+00 -0.16218979830E+02  0.35459896438E+04  0.35459525517E+04 0.  0.
        1    1    3    3  502    0  0.72022454408E+03  0.15485787249E+04  0.46794739203E+03  0.17708173883E+04  0.50400001928E-02 0.  1.
       -1    1    3    3    0  502 -0.72022454408E+03 -0.15485787249E+04 -0.48416637186E+03  0.17751722555E+04  0.50400001928E-02 0. -1.
</event>
<event>
 5   0  0.2382711E-06  0.3612787E+04  0.7818609E-02  0.8087569E-01
        2   -1    0    0  501    0  0.00000000000E+00  0.00000000000E+00  0.23888498802E+04  0.23888498802E+04  0.25500000920E-02 0. -1.
       -2   -1    0    0    0  501  0.00000000000E+00  0.00000000000E+00 -0.13659535715E+04  0.13659535715E+04  0.25500000920E-02 0.  1.
    10030    2    1    2    0    0  0.00000000000E+00  0.00000000000E+00  0.10228963087E+04  0.37548034517E+04  0.36127873038E+04 0.  0.
        5    1    3    3  502    0 -0.23862902816E+03  0.16244029570E+04 -0.27142647419E+03  0.16641283607E+04  0.46999998093E+01 0.  1.
       -5    1    3    3    0  502  0.23862902816E+03 -0.16244029570E+04  0.12943227828E+04  0.20906750910E+04  0.46999998093E+01 0. -1.
</event>
<event>
 5   0  0.8452742E-07  0.3710080E+04  0.7818609E-02  0.8065732E-01
        1   -1    0    0  501    0  0.00000000000E+00  0.00000000000E+00  0.27501803796E+04  0.27501803796E+04  0.50400001928E-02 0. -1.
       -1   -1    0    0    0  501  0.00000000000E+00  0.00000000000E+00 -0.12512535767E+04  0.12512535767E+04  0.50400001928E-02 0.  1.
    10030    2    1    2    0    0  0.00000000000E+00  0.00000000000E+00  0.14989268029E+04  0.40014339563E+04  0.37100798032E+04 0.  0.
        1    1    3    3  502    0  0.10216811819E+04 -0.32090060701E+03 -0.88420348021E+03  0.13887495928E+04  0.50400001928E-02 0.  1.
       -1    1    3    3    0  502 -0.10216811819E+04  0.32090060701E+03  0.23831302831E+04  0.26126843635E+04  0.50400001928E-02 0. -1.
</event>
<event>
 5   0  0.1566576E-06  0.2597116E+04  0.7818609E-02  0.8369182E-01
        2   -1    0    0  501    0  0.00000000000E+00  0.00000000000E+00  0.13896185698E+04  0.13896185698E+04  0.25500000920E-02 0. -1.
       -2   -1    0    0    0  501  0.00000000000E+00  0.00000000000E+00 -0.12134642360E+04  0.12134642360E+04  0.25500000920E-02 0.  1.
    10030    2    1    2    0    0  0.00000000000E+00  0.00000000000E+00  0.17615433384E+03  0.26030828059E+04  0.25971156587E+04 0.  0.
        4    1    3    3  502    0 -0.43322763152E+03  0.12075405536E+04  0.28956255550E+03  0.13151762071E+04  0.12699999809E+01 0. -1.
       -4    1    3    3    0  502  0.43322763152E+03 -0.12075405536E+04 -0.11340822166E+03  0.12879065987E+04  0.12699999809E+01 0.  1.
</event>
<event>
 5   0  0.8423692E-07  0.1885761E+04  0.7818609E-02  0.8661977E-01
        1   -1    0    0  501    0  0.00000000000E+00  0.00000000000E+00  0.31303661979E+04  0.31303661979E+04  0.50400001928E-02 0.  1.
       -1   -1    0    0    0  501  0.00000000000E+00  0.00000000000E+00 -0.28399982023E+03  0.28399982028E+03  0.50400001928E-02 0. -1.
    10030    2    1    2    0    0  0.00000000000E+00  0.00000000000E+00  0.28463663777E+04  0.34143660182E+04  0.18857607882E+04 0.  0.
        2    1    3    3  502    0  0.79952212854E+03 -0.19280656480E+03  0.22580531274E+04  0.24031674789E+04  0.25500000920E-02 0.  1.
       -2    1    3    3    0  502 -0.79952212854E+03  0.19280656480E+03  0.58831325034E+03  0.10111985393E+04  0.25500000920E-02 0. -1.
</event>
<event>
 5   0  0.2422436E-06  0.3669413E+04  0.7818609E-02  0.8074774E-01
       -2   -1    0    0    0  501  0.00000000000E+00  0.00000000000E+00  0.24954892527E+04  0.24954892527E+04  0.25500000920E-02 0. -1.
        2   -1    0    0  501    0  0.00000000000E+00  0.00000000000E+00 -0.13488926282E+04  0.13488926282E+04  0.25500000920E-02 0.  1.
    10030    2    1    2    0    0  0.00000000000E+00  0.00000000000E+00  0.11465966245E+04  0.38443818808E+04  0.36694125179E+04 0.  0.
        2    1    3    3  502    0 -0.60133290787E+03  0.16063709929E+04  0.12555951336E+04  0.21256876940E+04  0.25500000920E-02 0.  1.
       -2    1    3    3    0  502  0.60133290787E+03 -0.16063709929E+04 -0.10899850905E+03  0.17186941868E+04  0.25500000920E-02 0. -1.
</event>
<event>
 5   0  0.1908273E-06  0.3384301E+04  0.7818609E-02  0.8141770E-01
       -1   -1    0    0    0  501  0.00000000000E+00  0.00000000000E+00  0.21205964981E+04  0.21205964981E+04  0.50400001928E-02 0. -1.
        1   -1    0    0  501    0  0.00000000000E+00  0.00000000000E+00 -0.13502676303E+04  0.13502676303E+04  0.50400001928E-02 0.  1.
    10030    2    1    2    0    0  0.00000000000E+00  0.00000000000E+00  0.77032886782E+03  0.34708641284E+04  0.33843007007E+04 0.  0.
        3    1    3    3  502    0  0.86787332381E+03  0.10201827861E+04 -0.67540205644E+03  0.15000483230E+04  0.10100000352E+00 0.  1.
       -3    1    3    3    0  502 -0.86787332381E+03 -0.10201827861E+04  0.14457309243E+04  0.19708158054E+04  0.10100000352E+00 0. -1.
</event>
<event>
 5   0  0.1765131E-06  0.1892431E+04  0.7818609E-02  0.8658633E-01
       -2   -1    0    0    0  501  0.00000000000E+00  0.00000000000E+00  0.49323320967E+03  0.49323320968E+03  0.25500000920E-02 0.  1.
        2   -1    0    0  501    0  0.00000000000E+00  0.00000000000E+00 -0.18152147660E+04  0.18152147660E+04  0.25500000920E-02 0. -1.
    10030    2    1    2    0    0  0.00000000000E+00  0.00000000000E+00 -0.13219815563E+04  0.23084479756E+04  0.18924314574E+04 0.  0.
        3    1    3    3  502    0  0.25790048403E+03  0.81368531461E+03 -0.11590762449E+04  0.14394631648E+04  0.10100000352E+00 0. -1.
       -3    1    3    3    0  502 -0.25790048403E+03 -0.81368531461E+03 -0.16290531133E+03  0.86898481088E+03  0.10100000352E+00 0.  1.
</event>
<event>
 5   0  0.2382711E-06  0.3325842E+04  0.7818609E-02  0.8156351E-01
       -2   -1    0    0    0  501  0.00000000000E+00  0.00000000000E+00  0.14618300180E+04  0.14618300180E+04  0.25500000920E-02 0.  1.
        2   -1    0    0  501    0  0.00000000000E+00  0.00000000000E+00 -0.18916747001E+04  0.18916747001E+04  0.25500000920E-02 0. -1.
    10030    2    1    2    0    0  0.00000000000E+00  0.00000000000E+00 -0.42984468205E+03  0.33535047181E+04  0.33258423660E+04 0.  0.
        5    1    3    3  502    0 -0.15462329156E+04 -0.50602920284E+03  0.13200770082E+03  0.16322836476E+04  0.46999998093E+01 0.  1.
       -5    1    3    3    0  502  0.15462329156E+04  0.50602920284E+03 -0.56185238288E+03  0.17212210705E+04  0.46999998093E+01 0. -1.
</event>
<event>
 5   0  0.2652350E-06  0.1908975E+04  0.7818609E-02  0.8650402E-01
        2   -1    0    0  501    0  0.00000000000E+00  0.00000000000E+00  0.18686766303E+04  0.18686766303E+04  0.25500000920E-02 0.  1.
       -2   -1    0    0    0  501  0.00000000000E+00  0.00000000000E+00 -0.48753553864E+03  0.48753553864E+03  0.25500000920E-02 0. -1.
    10030    2    1    2    0    0  0.00000000000E+00  0.00000000000E+00  0.13811410916E+04  0.23562121689E+04  0.19089748741E+04 0.  0.
        2    1    3    3  502    0  0.69910973364E+03 -0.48956785790E+02  0.14903763948E+04  0.16469283484E+04  0.25500000920E-02 0.  1.
       -2    1    3    3    0  502 -0.69910973364E+03  0.48956785790E+02 -0.10923530319E+03  0.70928382050E+03  0.25500000920E-02 0. -1.
</event>
<event>
 5   0  0.2536619E-06  0.3510162E+04  0.7818609E-02  0.8111386E-01
        2   -1    0    0  501    0  0.00000000000E+00  0.00000000000E+00  0.14417039190E+04  0.14417039190E+04  0.25500000920E-02 0.  1.
       -2   -1    0    0    0  501  0.00000000000E+00  0.00000000000E+00 -0.21365761179E+04  0.21365761179E+04  0.25500000920E-02 0. -1.
    10030    2    1    2    0    0  0.00000000000E+00  0.00000000000E+00 -0.69487219896E+03  0.35782800369E+04  0.35101624820E+04 0.  0.
        1    1    3    3  502    0 -0.13402767827E+03 -0.78839673378E+03  0.12451803107E+04  0.14798671679E+04  0.50400001928E-02 0.  1.
       -1    1    3    3    0  502  0.13402767827E+03  0.78839673378E+03 -0.19400525097E+04  0.20984128690E+04  0.50400001928E-02 0. -1.
</event>
<event>
 5   0  0.8452742E-07  0.2559698E+04  0.7818609E-02  0.8382021E-01
       -1   -1    0    0    0  501  0.00000000000E+00  0.00000000000E+00  0.15533830269E+04  0.15533830270E+04  0.50400001928E-02 0. -1.
        1   -1    0    0  501    0  0.00000000000E+00  0.00000000000E+00 -0.10544815269E+04  0.10544815270E+04  0.50400001928E-02 0.  1.
    10030    2    1    2    0    0  0.00000000000E+00  0.00000000000E+00  0.49890150000E+03  0.26078645539E+04  0.25596981902E+04 0.  0.
        1    1    3    3  502    0  0.18084081441E+03  0.80320348629E+03  0.12477743695E+04  0.14949180973E+04  0.50400001928E-02 0. -1.
       -1    1    3    3    0  502 -0.18084081441E+03 -0.80320348629E+03 -0.74887286949E+03  0.11129464566E+04  0.50400001928E-02 0.  1.
</event>
<event>
 5   0  0.8423692E-07  0.3354180E+04  0.7818609E-02  0.8149245E-01
        1   -1    0    0  501    0  0.00000000000E+00  0.00000000000E+00  0.23627099833E+04  0.23627099833E+04  0.50400001928E-02 0.  1.
       -1   -1    0    0    0  501  0.00000000000E+00  0.00000000000E+00 -0.11904256136E+04  0.11904256136E+04  0.50400001928E-02 0. -1.
    10030    2    1    2    0    0  0.00000000000E+00  0.00000000000E+00  0.11722843696E+04  0.35531355969E+04  0.33541797696E+04 0.  0.
        2    1    3    3  502    0  0.15355992915E+04  0.62801932157E+03  0.84595982718E+03  0.18622893120E+04  0.25500000920E-02 0.  1.
       -2    1    3    3    0  502 -0.15355992915E+04 -0.62801932157E+03  0.32632454246E+03  0.16908462849E+04  0.25500000920E-02 0. -1.
</event>
<event>
 5   0  0.2422436E-06  0.3619899E+04  0.7818609E-02  0.8085949E-01
        2   -1    0    0  501    0  0.00000000000E+00  0.00000000000E+00  0.28628642969E+04  0.28628642969E+04  0.25500000920E-02 0.  1.
       -2   -1    0    0    0  501  0.00000000000E+00  0.00000000000E+00 -0.11442794380E+04  0.11442794380E+04  0.25500000920E-02 0. -1.
    10030    2    1    2    0    0  0.00000000000E+00  0.00000000000E+00  0.17185848589E+04  0.40071437349E+04  0.36198987548E+04 0.  0.
        2    1    3    3  502    0  0.15562133817E+04  0.62686258876E+03  0.16110265978E+04  0.23259758153E+04  0.25500000920E-02 0.  1.
       -2    1    3    3    0  502 -0.15562133817E+04 -0.62686258876E+03  0.10755826112E+03  0.16811679196E+04  0.25500000920E-02 0. -1.
</event>
<event>
 5   0  0.1801264E-06  0.1879872E+04  0.7818609E-02  0.8664941E-01
        2   -1    0    0  501    0  0.00000000000E+00  0.00000000000E+00  0.14160113973E+04  0.14160113973E+04  0.25500000920E-02 0.  1.
       -2   -1    0    0    0  501  0.00000000000E+00  0.00000000000E+00 -0.62392138246E+03  0.62392138247E+03  0.25500000920E-02 0. -1.
    10030    2    1    2    0    0  0.00000000000E+00  0.00000000000E+00  0.79209001479E+03  0.20399327797E+04  0.18798721111E+04 0.  0.
        4    1    3    3  502    0  0.35198610569E+03  0.77111584151E+03 -0.44695083743E+02  0.84883044422E+03  0.12699999809E+01 0. -1.
       -4    1    3    3    0  502 -0.35198610569E+03 -0.77111584151E+03  0.83678509853E+03  0.11911023355E+04  0.12699999809E+01 0.  1.
</event>
<event>
 5   0  0.1513502E-06  0.3535648E+04  0.7818609E-02  0.8105393E-01
       -2   -1    0    0    0  501  0.00000000000E+00  0.00000000000E+00  0.13202347494E+04  0.13202347494E+04  0.25500000920E-02 0.  1.
        2   -1    0    0  501    0  0.00000000000E+00  0.00000000000E+00 -0.23671563908E+04  0.23671563908E+04  0.25500000920E-02 0. -1.
    10030    2    1    2    0    0  0.00000000000E+00  0.00000000000E+00 -0.10469216414E+04  0.36873911402E+04  0.35356482429E+04 0.  0.
        3    1    3    3  502    0  0.10161371644E+04 -0.43126182381E+03 -0.19635491557E+04  0.22525644929E+04  0.10100000352E+00 0. -1.
       -3    1    3    3    0  502 -0.10161371644E+04  0.43126182381E+03  0.91662751433E+03  0.14348266473E+04  0.10100000352E+00 0.  1.
</event>
<event>
 5   0  0.1513502E-06  0.2057709E+04  0.7818609E-02  0.8580105E-01
        2   -1    0    0  501    0  0.00000000000E+00  0.00000000000E+00  0.21022901640E+04  0.21022901640E+04  0.25500000920E-02 0. -1.
       -2   -1    0    0    0  501  0.00000000000E+00  0.00000000000E+00 -0.50351840661E+03  0.50351840661E+03  0.25500000920E-02 0.  1.
    10030    2    1    2    0    0  0.00000000000E+00  0.00000000000E+00  0.15987717573E+04  0.26058085706E+04  0.20577092055E+04 0.  0.
        3    1    3    3  502    0 -0.44676480285E+02 -0.87650254719E+03  0.11944272695E+03  0.88573092886E+03  0.10100000352E+00 0. -1.
       -3    1    3    3    0  502  0.44676480285E+02  0.87650254719E+03  0.14793290304E+04  0.17200776417E+04  0.10100000352E+00 0.  1.
</event>
<event>
 5   0  0.8423692E-07  0.2189978E+04  0.7818609E-02  0.8522611E-01
       -1   -1    0    0    0  501  0.00000000000E+00  0.00000000000E+00  0.10857360634E+04  0.10857360634E+04  0.50400001928E-02 0.  1.
        1   -1    0    0  501    0  0.00000000000E+00  0.00000000000E+00 -0.11043204191E+04  0.11043204191E+04  0.50400001928E-02 0. -1.
    10030    2    1    2    0    0  0.00000000000E+00  0.00000000000E+00 -0.18584355678E+02  0.21900564825E+04  0.21899776297E+04 0.  0.
        2    1    3    3  502    0  0.41308196496E+03  0.66828655038E+03  0.75346517279E+03  0.10885556439E+04  0.25500000920E-02 0.  1.
       -2    1    3    3    0  502 -0.41308196496E+03 -0.66828655038E+03 -0.77204952846E+03  0.11015008387E+04  0.25500000920E-02 0. -1.
</event>
<event>
 5   0  0.1908273E-06  0.3641629E+04  0.7818609E-02  0.8081022E-01
        1   -1    0    0  501    0  0.00000000000E+00  0.00000000000E+00  0.15911472881E+04  0.15911472881E+04  0.50400001928E-02 0. -1.
       -1   -1    0    0    0  501  0.00000000000E+00  0.00000000000E+00 -0.20836314530E+04  0.20836314530E+04  0.50400001928E-02 0.  1.
    10030    2    1    2    0    0  0.00000000000E+00  0.00000000000E+00 -0.49248416493E+03  0.36747787411E+04  0.36416285015E+04 0.  0.
        3    1    3    3  502    0  0.39245385730E+03 -0.17896992585E+03  0.15388480343E+04  0.15981562963E+04  0.10100000352E+00 0. -1.
       -3    1    3    3    0  502 -0.39245385730E+03  0.17896992585E+03 -0.20313321992E+04  0.20766224448E+04  0.10100000352E+00 0.  1.
</event>
<event>
 5   0  0.7754556E-07  0.2174001E+04  0.7818609E-02  0.8529328E-01
        1   -1    0    0  501    0  0.00000000000E+00  0.00000000000E+00  0.25991046772E+04  0.25991046772E+04  0.50400001928E-02 0. -1.
       -1   -1    0    0    0  501  0.00000000000E+00  0.00000000000E+00 -0.45460665445E+03  0.45460665447E+03  0.50400001928E-02 0.  1.
    10030    2    1    2    0    0  0.00000000000E+00  0.00000000000E+00  0.21444980228E+04  0.30537113317E+04  0.21740011793E+04 0.  0.
        4    1    3    3  502    0  0.30886131262E+03 -0.10391993302E+04  0.11831906923E+04  0.16047655236E+04  0.12699999809E+01 0.  1.
       -4    1    3    3    0  502 -0.30886131262E+03  0.10391993302E+04  0.96130733044E+03  0.14489458081E+04  0.12699999809E+01 0. -1.
</event>
<event>
 5   0  0.1566576E-06  0.3571073E+04  0.7818609E-02  0.8097150E-01
        2   -1    0    0  501    0  0.00000000000E+00  0.00000000000E+00  0.30949193237E+04  0.30949193237E+04  0.25500000920E-02 0.  1.
       -2   -1    0    0    0  501  0.00000000000E+00  0.00000000000E+00 -0.10301208149E+04  0.10301208149E+04  0.25500000920E-02 0. -1.
    10030    2    1    2    0    0  0.00000000000E+00  0.00000000000E+00  0.20647985088E+04  0.41250401386E+04  0.35710731249E+04 0.  0.
        4    1    3    3  502    0  0.15319475517E+04 -0.91719161487E+03  0.10392762208E+04  0.20659623510E+04  0.12699999809E+01 0. -1.
       -4    1    3    3    0  502 -0.15319475517E+04  0.91719161487E+03  0.10255222880E+04  0.20590777877E+04  0.12699999809E+01 0.  1.
</event>
<event>
 5   0  0.1566576E-06  0.3552006E+04  0.7818609E-02  0.8101575E-01
        2   -1    0    0  501    0  0.00000000000E+00  0.00000000000E+00  0.20473338760E+04  0.20473338760E+04  0.25500000920E-02 0. -1.
       -2   -1    0    0    0  501  0.00000000000E+00  0.00000000000E+00 -0.15406312244E+04  0.15406312245E+04  0.25500000920E-02 0.  1.
    10030    2    1    2    0    0  0.00000000000E+00  0.00000000000E+00  0.50670265156E+03  0.35879651005E+04  0.35520059100E+04 0.  0.
        4    1    3    3  502    0  0.14751553617E+04 -0.93007117374E+03 -0.86310392067E+02  0.17460145549E+04  0.12699999809E+01 0. -1.
       -4    1    3    3    0  502 -0.14751553617E+04  0.93007117374E+03  0.59301304363E+03  0.18419505455E+04  0.12699999809E+01 0.  1.
</event>
<event>
 5   0  0.7707500E-07  0.2947054E+04  0.7818609E-02  0.8259014E-01
       -3   -1    0    0    0  501  0.00000000000E+00  0.00000000000E+00  0.11991114223E+04  0.11991114266E+04  0.10100000352E+00 0.  1.
        3   -1    0    0  501    0  0.00000000000E+00  0.00000000000E+00 -0.18107419104E+04  0.18107419132E+04  0.10100000352E+00 0. -1.
    10030    2    1    2    0    0  0.00000000000E+00  0.00000000000E+00 -0.61163048813E+03  0.30098533398E+04  0.29470536597E+04 0.  0.
        3    1    3    3  502    0 -0.89759031512E+03  0.10791709521E+04 -0.76370249352E+03  0.15979736627E+04  0.10100000352E+00 0. -1.
       -3    1    3    3    0  502  0.89759031512E+03 -0.10791709521E+04  0.15207200540E+03  0.14118796772E+04  0.10100000352E+00 0.  1.
</event>
<event>
 5   0  0.2422436E-06  0.3521862E+04  0.7818609E-02  0.8108628E-01
        2   -1    0    0  501    0  0.00000000000E+00  0.00000000000E+00  0.22606220429E+04  0.22606220429E+04  0.25500000920E-02 0.  1.
       -2   -1    0    0    0  501  0.00000000000E+00  0.00000000000E+00 -0.13716923819E+04  0.13716923819E+04  0.25500000920E-02 0. -1.
    10030    2    1    2    0    0  0.00000000000E+00  0.00000000000E+00  0.88892966097E+03  0.36323144248E+04  0.35218620272E+04 0.  0.
        2    1    3    3  502    0  0.29298304664E+03 -0.61917887322E+03  0.21175794639E+04  0.22256154943E+04  0.25500000920E-02 0.  1.
       -2    1    3    3    0  502 -0.29298304664E+03  0.61917887322E+03 -0.12286498029E+04  0.14066989305E+04  0.25500000920E-02 0. -1.
</event>
<event>
 5   0  0.2382711E-06  0.3660159E+04  0.7818609E-02  0.8076849E-01
        2   -1    0    0  501    0  0.00000000000E+00  0.00000000000E+00  0.25972267286E+04  0.25972267287E+04  0.25500000920E-02 0.  1.
       -2   -1    0    0    0  501  0.00000000000E+00  0.00000000000E+00 -0.12895259029E+04  0.12895259029E+04  0.25500000920E-02 0. -1.
    10030    2    1    2    0    0  0.00000000000E+00  0.00000000000E+00  0.13077008258E+04  0.38867526315E+04  0.36601590907E+04 0.  0.
        5    1    3    3  502    0 -0.23002878604E+03 -0.18124681663E+04  0.54139361109E+03  0.19055401408E+04  0.46999998093E+01 0. -1.
       -5    1    3    3    0  502  0.23002878604E+03  0.18124681663E+04  0.76630721469E+03  0.19812124907E+04  0.46999998093E+01 0.  1.
</event>
<event>
 5   0  0.8452742E-07  0.3596485E+04  0.7818609E-02  0.8091297E-01
       -1   -1    0    0    0  501  0.00000000000E+00  0.00000000000E+00  0.20131031749E+04  0.20131031749E+04  0.50400001928E-02 0. -1.
        1   -1    0    0  501    0  0.00000000000E+00  0.00000000000E+00 -0.16063142660E+04  0.16063142660E+04  0.50400001928E-02 0.  1.
    10030    2    1    2    0    0  0.00000000000E+00  0.00000000000E+00  0.40678890888E+03  0.36194174410E+04  0.35964851446E+04 0.  0.
        1    1    3    3  502    0 -0.14247744516E+04  0.10815423131E+04  0.38885280478E+03  0.18305525168E+04  0.50400001928E-02 0. -1.
       -1    1    3    3    0  502  0.14247744516E+04 -0.10815423131E+04  0.17936104098E+02  0.17888649242E+04  0.50400001928E-02 0.  1.
</event>
<event>
 5   0  0.1781862E-06  0.2053755E+04  0.7818609E-02  0.8581893E-01
        2   -1    0    0  501    0  0.00000000000E+00  0.00000000000E+00  0.11865542644E+04  0.11865542644E+04  0.25500000920E-02 0. -1.
       -2   -1    0    0    0  501  0.00000000000E+00  0.00000000000E+00 -0.88868890651E+03  0.88868890651E+03  0.25500000920E-02 0.  1.
    10030    2    1    2    0    0  0.00000000000E+00  0.00000000000E+00  0.29786535786E+03  0.20752431709E+04  0.20537552062E+04 0.  0.
        3    1    3    3  502    0 -0.12720092272E+03  0.41547104637E+03  0.10890874260E+04  0.11725645811E+04  0.10100000352E+00 0. -1.
       -3    1    3    3    0  502  0.12720092272E+03 -0.41547104637E+03 -0.79122206816E+03  0.90267858979E+03  0.10100000352E+00 0.  1.
</event>
<event>
 5   0  0.2536619E-06  0.3380767E+04  0.7818609E-02  0.8142643E-01
       -2   -1    0    0    0  501  0.00000000000E+00  0.00000000000E+00  0.15918088132E+04  0.15918088132E+04  0.25500000920E-02 0. -1.
        2   -1    0    0  501    0  0.00000000000E+00  0.00000000000E+00 -0.17950628384E+04  0.17950628384E+04  0.25500000920E-02 0.  1.
    10030    2    1    2    0    0  0.00000000000E+00  0.00000000000E+00 -0.20325402521E+03  0.33868716516E+04  0.33807672777E+04 0.  0.
        1    1    3    3  502    0 -0.32720431084E+03 -0.14582254608E+04 -0.89293467774E+03  0.17409240346E+04  0.50400001928E-02 0.  1.
       -1    1    3    3    0  502  0.32720431084E+03  0.14582254608E+04  0.68968065253E+03  0.16459476170E+04  0.50400001928E-02 0. -1.
</event>
<event>
 5   0  0.8423692E-07  0.3561035E+04  0.7818609E-02  0.8099476E-01
        1   -1    0    0  501    0  0.00000000000E+00  0.00000000000E+00  0.19201254857E+04  0.19201254857E+04  0.50400001928E-02 0. -1.
       -1   -1    0    0    0  501  0.00000000000E+00  0.00000000000E+00 -0.16510604404E+04  0.16510604404E+04  0.50400001928E-02 0.  1.
    10030    2    1    2    0    0  0.00000000000E+00  0.00000000000E+00  0.26906504532E+03  0.35711859261E+04  0.35610353719E+04 0.  0.
        2    1    3    3  502    0 -0.16792898383E+04  0.74939714028E+02 -0.45417819746E+03  0.17412375360E+04  0.25500000920E-02 0.  1.
       -2    1    3    3    0  502  0.16792898383E+04 -0.74939714028E+02  0.72324324278E+03  0.18299483900E+04  0.25500000920E-02 0. -1.
</event>
<event>
 5   0  0.8423692E-07  0.2519017E+04  0.7818609E-02  0.8396242E-01
        1   -1    0    0  501    0  0.00000000000E+00  0.00000000000E+00  0.13512351097E+04  0.13512351097E+04  0.50400001928E-02 0.  1.
       -1   -1    0    0    0  501  0.00000000000E+00  0.00000000000E+00 -0.11740088218E+04  0.11740088218E+04  0.50400001928E-02 0. -1.
    10030    2    1    2    0    0  0.00000000000E+00  0.00000000000E+00  0.17722628795E+03  0.25252439315E+04  0.25190172203E+04 0.  0.
        2    1    3    3  502    0  0.62067864847E+03  0.13854995380E+03 -0.10012374133E+04  0.11861342386E+04  0.25500000920E-02 0. -1.
       -2    1    3    3    0  502 -0.62067864847E+03 -0.13854995380E+03  0.11784637012E+04  0.13391096928E+04  0.25500000920E-02 0.  1.
</event>
<event>
 5   0  0.1908273E-06  0.3593014E+04  0.7818609E-02  0.8092094E-01
       -1   -1    0    0    0  501  0.00000000000E+00  0.00000000000E+00  0.25255140591E+04  0.25255140591E+04  0.50400001928E-02 0. -1.
        1   -1    0    0  501    0  0.00000000000E+00  0.00000000000E+00 -0.12779330688E+04  0.12779330689E+04  0.50400001928E-02 0.  1.
    10030    2    1    2    0    0  0.00000000000E+00  0.00000000000E+00  0.12475809902E+04  0.38034471279E+04  0.35930142955E+04 0.  0.
        3    1    3    3  502    0  0.11036151604E+04  0.39318882029E+03  0.20654929938E+04  0.23746210620E+04  0.10100000352E+00 0. -1.
       -3    1    3    3    0  502 -0.11036151604E+04 -0.39318882029E+03 -0.81791200356E+03  0.14288260659E+04  0.10100000352E+00 0.  1.
</event>
<event>
 5   0  0.1566576E-06  0.3589498E+04  0.7818609E-02  0.8092902E-01
        2   -1    0    0  501    0  0.00000000000E+00  0.00000000000E+00  0.21444040400E+04  0.21444040400E+04  0.25500000920E-02 0. -1.
       -2   -1    0    0    0  501  0.00000000000E+00  0.00000000000E+00 -0.15021066955E+04  0.15021066955E+04  0.25500000920E-02 0.  1.
    10030    2    1    2    0    0  0.00000000000E+00  0.00000000000E+00  0.64229734441E+03  0.36465107355E+04  0.35894978292E+04 0.  0.
        4    1    3    3  502    0 -0.74850887336E+03 -0.10955288622E+04  0.15489279722E+04  0.20395167313E+04  0.12699999809E+01 0. -1.
       -4    1    3    3    0  502  0.74850887336E+03  0.10955288622E+04 -0.90663062779E+03  0.16069940042E+04  0.12699999809E+01 0.  1.
</event>
<event>
 5   0  0.1634374E-06  0.1967038E+04  0.7818609E-02  0.8622188E-01
       -1   -1    0    0    0  501  0.00000000000E+00  0.00000000000E+00  0.66423335117E+03  0.66423335119E+03  0.50400001928E-02 0.  1.
        1   -1    0    0  501    0  0.00000000000E+00  0.00000000000E+00 -0.14562799413E+04  0.14562799413E+04  0.50400001928E-02 0. -1.
    10030    2    1    2    0    0  0.00000000000E+00  0.00000000000E+00 -0.79204659008E+03  0.21205132925E+04  0.19670380837E+04 0.  0.
        5    1    3    3  502    0  0.37450977483E+03 -0.90925090834E+03 -0.37757586256E+03  0.10533662268E+04  0.46999998093E+01 0. -1.
       -5    1    3    3    0  502 -0.37450977483E+03  0.90925090834E+03 -0.41447072752E+03  0.10671470657E+04  0.46999998093E+01 0.  1.
</event>
<event>
 5   0  0.2536619E-06  0.2246675E+04  0.7818609E-02  0.8499248E-01
        2   -1    0    0  501    0  0.00000000000E+00  0.00000000000E+00  0.15055189861E+04  0.15055189861E+04  0.25500000920E-02 0. -1.
       -2   -1    0    0    0  501  0.00000000000E+00  0.00000000000E+00 -0.83817420374E+03  0.83817420375E+03  0.25500000920E-02 0.  1.
    10030    2    1    2    0    0  0.00000000000E+00  0.00000000000E+00  0.66734478231E+03  0.23436931898E+04  0.22466750342E+04 0.  0.
        1    1    3    3  502    0 -0.10536520800E+04 -0.52253973541E+02  0.73631128964E+03  0.12864942669E+04  0.50400001928E-02 0. -1.
       -1    1    3    3    0  502  0.10536520800E+04  0.52253973541E+02 -0.68966507327E+02  0.10571989229E+04  0.50400001928E-02 0.  1.
</event>
<event>
 5   0  0.1513502E-06  0.3676752E+04  0.7818609E-02  0.8073133E-01
        2   -1    0    0  501    0  0.00000000000E+00  0.00000000000E+00  0.18594665706E+04  0.18594665706E+04  0.25500000920E-02 0. -1.
       -2   -1    0    0    0  501  0.00000000000E+00  0.00000000000E+00 -0.18175249388E+04  0.18175249388E+04  0.25500000920E-02 0.  1.
    10030    2    1    2    0    0  0.00000000000E+00  0.00000000000E+00  0.41941631830E+02  0.36769915093E+04  0.36767522978E+04 0.  0.
        3    1    3    3  502    0 -0.90590583283E+03  0.52766202267E+03  0.15312128567E+04  0.18557223421E+04  0.10100000352E+00 0. -1.
       -3    1    3    3    0  502  0.90590583283E+03 -0.52766202267E+03 -0.14892712249E+04  0.18212691673E+04  0.10100000352E+00 0.  1.
</event>
<event>
 5   0  0.1634374E-06  0.3243195E+04  0.7818609E-02  0.8177502E-01
        1   -1    0    0  501    0  0.00000000000E+00  0.00000000000E+00  0.21787347191E+04  0.21787347191E+04  0.50400001928E-02 0.  1.
       -1   -1    0    0    0  501  0.00000000000E+00  0.00000000000E+00 -0.12069294455E+04  0.12069294455E+04  0.50400001928E-02 0. -1.
    10030    2    1    2    0    0  0.00000000000E+00  0.00000000000E+00  0.97180527355E+03  0.33856641646E+04  0.32431953913E+04 0.  0.
        5    1    3    3  502    0  0.23299025961E+03  0.15285583992E+04 -0.24216167761E+02  0.15464099565E+04  0.46999998093E+01 0. -1.
       -5    1    3    3    0  502 -0.23299025961E+03 -0.15285583992E+04  0.99602144132E+03  0.18392542082E+04  0.46999998093E+01 0.  1.
</event>
<event>
 5   0  0.1513502E-06  0.2785136E+04  0.7818609E-02  0.8307898E-01
       -2   -1    0    0    0  501  0.00000000000E+00  0.00000000000E+00  0.11458754471E+04  0.11458754471E+04  0.25500000920E-02 0. -1.
        2   -1    0    0  501    0  0.00000000000E+00  0.00000000000E+00 -0.16923704100E+04  0.16923704100E+04  0.25500000920E-02 0.  1.
    10030    2    1    2    0    0  0.00000000000E+00  0.00000000000E+00 -0.54649496291E+03  0.28382458570E+04  0.27851360470E+04 0.  0.
        3    1    3    3  502    0 -0.10387243480E+04  0.93147014743E+02  0.66718320705E+03  0.12380460733E+04  0.10100000352E+00 0. -1.
       -3    1    3    3    0  502  0.10387243480E+04 -0.93147014743E+02 -0.12136781700E+04  0.16001997838E+04  0.10100000352E+00 0.  1.
</event>
<event>
 5   0  0.2422436E-06  0.3573365E+04  0.7818609E-02  0.8096620E-01
       -2   -1    0    0    0  501  0.00000000000E+00  0.00000000000E+00  0.15737944049E+04  0.15737944049E+04  0.25500000920E-02 0.  1.
        2   -1    0    0  501    0  0.00000000000E+00  0.00000000000E+00 -0.20283682733E+04  0.20283682733E+04  0.25500000920E-02 0. -1.
    10030    2    1    2    0    0  0.00000000000E+00  0.00000000000E+00 -0.45457386837E+03  0.36021626782E+04  0.35733651588E+04 0.  0.
        2    1    3    3  502    0 -0.64138944862E+03  0.16671851029E+04 -0.19027528006E+03  0.17964106642E+04  0.25500000920E-02 0. -1.
       -2    1    3    3    0  502  0.64138944862E+03 -0.16671851029E+04 -0.26429858831E+03  0.18057520140E+04  0.25500000920E-02 0.  1.
</event>
<event>
 5   0  0.1566576E-06  0.3577094E+04  0.7818609E-02  0.8095759E-01
       -2   -1    0    0    0  501  0.00000000000E+00  0.00000000000E+00  0.17147811112E+04  0.17147811112E+04  0.25500000920E-02 0.  1.
        2   -1    0    0  501    0  0.00000000000E+00  0.00000000000E+00 -0.18654859098E+04  0.18654859098E+04  0.25500000920E-02 0. -1.
    10030    2    1    2    0    0  0.00000000000E+00  0.00000000000E+00 -0.15070479858E+03  0.35802670210E+04  0.35770937932E+04 0.  0.
        4    1    3    3  502    0 -0.91725166540E+03  0.58428193121E+03 -0.14965283363E+04  0.18499553149E+04  0.12699999809E+01 0. -1.
       -4    1    3    3    0  502  0.91725166540E+03 -0.58428193121E+03  0.13458235377E+04  0.17303117061E+04  0.12699999809E+01 0.  1.
</event>
<event>
 5   0  0.7754556E-07  0.3540128E+04  0.7818609E-02  0.8104345E-01
       -1   -1    0    0    0  501  0.00000000000E+00  0.00000000000E+00  0.14411451122E+04  0.14411451122E+04  0.50400001928E-02 0.  1.
        1   -1    0    0  501    0  0.00000000000E+00  0.00000000000E+00 -0.21740538358E+04  0.21740538358E+04  0.50400001928E-02 0. -1.
    10030    2    1    2    0    0  0.00000000000E+00  0.00000000000E+00 -0.73290872357E+03  0.36151989480E+04  0.35401282797E+04 0.  0.
        4    1    3    3  502    0 -0.17797490951E+03  0.17391552195E+04 -0.83468900574E+02  0.17502298752E+04  0.12699999809E+01 0.  1.
       -4    1    3    3    0  502  0.17797490951E+03 -0.17391552195E+04 -0.64943982300E+03  0.18649690728E+04  0.12699999809E+01 0. -1.
</event>
<event>
 5   0  0.1566576E-06  0.3555705E+04  0.7818609E-02  0.8100714E-01
        2   -1    0    0  501    0  0.00000000000E+00  0.00000000000E+00  0.23959377142E+04  0.23959377142E+04  0.25500000920E-02 0. -1.
       -2   -1    0    0    0  501  0.00000000000E+00  0.00000000000E+00 -0.13192159602E+04  0.13192159602E+04  0.25500000920E-02 0.  1.
    10030    2    1    2    0    0  0.00000000000E+00  0.00000000000E+00  0.10767217539E+04  0.37151536744E+04  0.35557048653E+04 0.  0.
        4    1    3    3  502    0  0.11238976798E+03 -0.39667974622E+02  0.23917584002E+04  0.23947264700E+04  0.12699999809E+01 0. -1.
       -4    1    3    3    0  502 -0.11238976798E+03  0.39667974622E+02 -0.13150366463E+04  0.13204272044E+04  0.12699999809E+01 0.  1.
</event>
<event>
 5   0  0.1566576E-06  0.2107990E+04  0.7818609E-02  0.8557732E-01
       -2   -1    0    0    0  501  0.00000000000E+00  0.00000000000E+00  0.85768057984E+03  0.85768057984E+03  0.25500000920E-02 0. -1.
        2   -1    0    0  501    0  0.00000000000E+00  0.00000000000E+00 -0.12952436467E+04  0.12952436467E+04  0.25500000920E-02 0.  1.
    10030    2    1    2    0    0  0.00000000000E+00  0.00000000000E+00 -0.43756306686E+03  0.21529242265E+04  0.21079898690E+04 0.  0.
        4    1    3    3  502    0  0.66535523698E+03 -0.21023934164E+03 -0.10255602769E+04  0.12404328545E+04  0.12699999809E+01 0.  1.
       -4    1    3    3    0  502 -0.66535523698E+03  0.21023934164E+03  0.58799721001E+03  0.91249137203E+03  0.12699999809E+01 0. -1.
</event>
<event>
 5   0  0.1513502E-06  0.3527939E+04  0.7818609E-02  0.8107201E-01
        2   -1    0    0  501    0  0.00000000000E+00  0.00000000000E+00  0.19619422438E+04  0.19619422438E+04  0.25500000920E-02 0.  1.
       -2   -1    0    0    0  501  0.00000000000E+00  0.00000000000E+00 -0.15859730506E+04  0.15859730506E+04  0.25500000920E-02 0. -1.
    10030    2    1    2    0    0  0.00000000000E+00  0.00000000000E+00  0.37596919323E+03  0.35479152945E+04  0.35279385060E+04 0.  0.
        3    1    3    3  502    0  0.15514964010E+04  0.44835243283E+03 -0.52555862524E+03  0.16983441539E+04  0.10100000352E+00 0. -1.
       -3    1    3    3    0  502 -0.15514964010E+04 -0.44835243283E+03  0.90152781847E+03  0.18495711406E+04  0.10100000352E+00 0.  1.
</event>
<event>
 5   0  0.8423692E-07  0.2850144E+04  0.7818609E-02  0.8287868E-01
       -1   -1    0    0    0  501  0.00000000000E+00  0.00000000000E+00  0.95712157770E+03  0.95712157772E+03  0.50400001928E-02 0. -1.
        1   -1    0    0  501    0  0.00000000000E+00  0.00000000000E+00 -0.21218103266E+04  0.21218103266E+04  0.50400001928E-02 0.  1.
    10030    2    1    2    0    0  0.00000000000E+00  0.00000000000E+00 -0.11646887489E+04  0.30789319043E+04  0.28501441700E+04 0.  0.
        2    1    3    3  502    0 -0.13648766037E+02  0.14179473229E+03  0.94941110540E+03  0.96003827111E+03  0.25500000920E-02 0. -1.
       -2    1    3    3    0  502  0.13648766037E+02 -0.14179473229E+03 -0.21140998543E+04  0.21188936332E+04  0.25500000920E-02 0.  1.
</event>
<event>
 5   0  0.2382711E-06  0.2796258E+04  0.7818609E-02  0.8304431E-01
        2   -1    0    0  501    0  0.00000000000E+00  0.00000000000E+00  0.18580086941E+04  0.18580086941E+04  0.25500000920E-02 0. -1.
       -2   -1    0    0    0  501  0.00000000000E+00  0.00000000000E+00 -0.10520754671E+04  0.10520754672E+04  0.25500000920E-02 0.  1.
    10030    2    1    2    0    0  0.00000000000E+00  0.00000000000E+00  0.80593322691E+03  0.29100841612E+04  0.27962584750E+04 0.  0.
        5    1    3    3  502    0  0.43798565509E+03 -0.54217424186E+03  0.16643092116E+04  0.18043645930E+04  0.46999998093E+01 0. -1.
       -5    1    3    3    0  502 -0.43798565509E+03  0.54217424186E+03 -0.85837598465E+03  0.11057195683E+04  0.46999998093E+01 0.  1.
</event>
<event>
 5   0  0.2536619E-06  0.3539615E+04  0.7818609E-02  0.8104465E-01
        2   -1    0    0  501    0  0.00000000000E+00  0.00000000000E+00  0.20037454820E+04  0.20037454820E+04  0.25500000920E-02 0. -1.
       -2   -1    0    0    0  501  0.00000000000E+00  0.00000000000E+00 -0.15631819525E+04  0.15631819525E+04  0.25500000920E-02 0.  1.
    10030    2    1    2    0    0  0.00000000000E+00  0.00000000000E+00  0.44056352955E+03  0.35669274345E+04  0.35396151062E+04 0.  0.
        1    1    3    3  502    0  0.15072747608E+04 -0.92019616785E+03  0.10284679525E+03  0.17689589185E+04  0.50400001928E-02 0. -1.
       -1    1    3    3    0  502 -0.15072747608E+04  0.92019616785E+03  0.33771673430E+03  0.17979685160E+04  0.50400001928E-02 0.  1.
</event>
<event>
 5   0  0.1566576E-06  0.2597857E+04  0.7818609E-02  0.8368930E-01
       -2   -1    0    0    0  501  0.00000000000E+00  0.00000000000E+00  0.11612505604E+04  0.11612505604E+04  0.25500000920E-02 0. -1.
        2   -1    0    0  501    0  0.00000000000E+00  0.00000000000E+00 -0.14529292170E+04  0.14529292170E+04  0.25500000920E-02 0.  1.
    10030    2    1    2    0    0  0.00000000000E+00  0.00000000000E+00 -0.29167865660E+03  0.26141797774E+04  0.25978567069E+04 0.  0.
        4    1    3    3  502    0 -0.19339071087E+03 -0.18715147832E+03 -0.14245667034E+04  0.14497646527E+04  0.12699999809E+01 0.  1.
       -4    1    3    3    0  502  0.19339071087E+03  0.18715147832E+03  0.11328880468E+04  0.11644151246E+04  0.12699999809E+01 0. -1.
</event>
<event>
 5   0  0.1566576E-06  0.3569889E+04  0.7818609E-02  0.8097424E-01
       -2   -1    0    0    0  501  0.00000000000E+00  0.00000000000E+00  0.13958850305E+04  0.13958850305E+04  0.25500000920E-02 0.  1.
        2   -1    0    0  501    0  0.00000000000E+00  0.00000000000E+00 -0.22824426546E+04  0.22824426546E+04  0.25500000920E-02 0. -1.
    10030    2    1    2    0    0  0.00000000000E+00  0.00000000000E+00 -0.88655762402E+03  0.36783276851E+04  0.35698893734E+04 0.  0.
        4    1    3    3  502    0  0.63963763060E+03 -0.16529970801E+04 -0.22594454390E+03  0.17867815186E+04  0.12699999809E+01 0. -1.
       -4    1    3    3    0  502 -0.63963763060E+03  0.16529970801E+04 -0.66061308012E+03  0.18915461665E+04  0.12699999809E+01 0.  1.
</event>
<event>
 5   0  0.8452742E-07  0.3541819E+04  0.7818609E-02  0.8103950E-01
        1   -1    0    0  501    0  0.00000000000E+00  0.00000000000E+00  0.18843112964E+04  0.18843112964E+04  0.50400001928E-02 0. -1.
       -1   -1    0    0    0  501  0.00000000000E+00  0.00000000000E+00 -0.16643321924E+04  0.16643321924E+04  0.50400001928E-02 0.  1.
    10030    2    1    2    0    0  0.00000000000E+00  0.00000000000E+00  0.21997910405E+03  0.35486434888E+04  0.35418187142E+04 0.  0.
        1    1    3    3  502    0  0.13769748783E+04 -0.80583621442E+03  0.88003288395E+03  0.18220564472E+04  0.50400001928E-02 0. -1.
       -1    1    3    3    0  502 -0.13769748783E+04  0.80583621442E+03 -0.66005377990E+03  0.17265870416E+04  0.50400001928E-02 0.  1.
</event>
<event>
 5   0  0.7754556E-07  0.3012533E+04  0.7818609E-02  0.8240161E-01
        1   -1    0    0  501    0  0.00000000000E+00  0.00000000000E+00  0.13317932398E+04  0.13317932398E+04  0.50400001928E-02 0.  1.
       -1   -1    0    0    0  501  0.00000000000E+00  0.00000000000E+00 -0.17035970182E+04  0.17035970183E+04  0.50400001928E-02 0. -1.
    10030    2    1    2    0    0  0.00000000000E+00  0.00000000000E+00 -0.37180377849E+03  0.30353902580E+04  0.30125331482E+04 0.  0.
        4    1    3    3  502    0 -0.35728952669E+03  0.17940896296E+03  0.12773543124E+04  0.13384614429E+04  0.12699999809E+01 0.  1.
       -4    1    3    3    0  502  0.35728952669E+03 -0.17940896296E+03 -0.16491580909E+04  0.16969288151E+04  0.12699999809E+01 0. -1.
</event>
<event>
 5   0  0.8423692E-07  0.3956648E+04  0.7818609E-02  0.8013350E-01
        1   -1    0    0  501    0  0.00000000000E+00  0.00000000000E+00  0.22212824634E+04  0.22212824634E+04  0.50400001928E-02 0. -1.
       -1   -1    0    0    0  501  0.00000000000E+00  0.00000000000E+00 -0.17619395322E+04  0.17619395322E+04  0.50400001928E-02 0.  1.
    10030    2    1    2    0    0  0.00000000000E+00  0.00000000000E+00  0.45934293120E+03  0.39832219956E+04  0.39566477652E+04 0.  0.
        2    1    3    3  502    0 -0.27321217195E+03  0.10179136636E+04  0.19151239840E+04  0.21859764389E+04  0.25500000920E-02 0. -1.
       -2    1    3    3    0  502  0.27321217195E+03 -0.10179136636E+04 -0.14557810528E+04  0.17972455567E+04  0.25500000920E-02 0.  1.
</event>
<event>
 5   0  0.1566576E-06  0.3519178E+04  0.7818609E-02  0.8109260E-01
        2   -1    0    0  501    0  0.00000000000E+00  0.00000000000E+00  0.21913028049E+04  0.21913028049E+04  0.25500000920E-02 0.  1.
       -2   -1    0    0    0  501  0.00000000000E+00  0.00000000000E+00 -0.14129280049E+04  0.14129280049E+04  0.25500000920E-02 0. -1.
    10030    2    1    2    0    0  0.00000000000E+00  0.00000000000E+00  0.77837479997E+03  0.36042308098E+04  0.35191778019E+04 0.  0.
        4    1    3    3  502    0 -0.34165181563E+03 -0.10325755413E+04 -0.10274316515E+04  0.14961803444E+04  0.12699999809E+01 0. -1.
       -4    1    3    3    0  502  0.34165181563E+03  0.10325755413E+04  0.18058064515E+04  0.21080504654E+04  0.12699999809E+01 0.  1.
</event>
<event>
 5   0  0.1566576E-06  0.2891009E+04  0.7818609E-02  0.8275558E-01
        2   -1    0    0  501    0  0.00000000000E+00  0.00000000000E+00  0.13395590632E+04  0.13395590632E+04  0.25500000920E-02 0. -1.
       -2   -1    0    0    0  501  0.00000000000E+00  0.00000000000E+00 -0.15598294333E+04  0.15598294333E+04  0.25500000920E-02 0.  1.
    10030    2    1    2    0    0  0.00000000000E+00  0.00000000000E+00 -0.22027037005E+03  0.28993884965E+04  0.28910092732E+04 0.  0.
        4    1    3    3  502    0 -0.11144066214E+04 -0.83472136573E+03 -0.49961650492E+03  0.14792836581E+04  0.12699999809E+01 0. -1.
       -4    1    3    3    0  502  0.11144066214E+04  0.83472136573E+03  0.27934613488E+03  0.14201048384E+04  0.12699999809E+01 0.  1.
</event>
<event>
 5   0  0.1634374E-06  0.3562282E+04  0.7818609E-02  0.8099187E-01
       -1   -1    0    0    0  501  0.00000000000E+00  0.00000000000E+00  0.17550592136E+04  0.17550592136E+04  0.50400001928E-02 0. -1.
        1   -1    0    0  501    0  0.00000000000E+00  0.00000000000E+00 -0.18076102256E+04  0.18076102256E+04  0.50400001928E-02 0.  1.
    10030    2    1    2    0    0  0.00000000000E+00  0.00000000000E+00 -0.52551011984E+02  0.35626694392E+04  0.35622818423E+04 0.  0.
        5    1    3    3  502    0  0.42387485919E+03 -0.16811525390E+04  0.38180949629E+03  0.17753152782E+04  0.46999998093E+01 0. -1.
       -5    1    3    3    0  502 -0.42387485919E+03  0.16811525390E+04 -0.43436050827E+03  0.17873541610E+04  0.46999998093E+01 0.  1.
</event>
<event>
 5   0  0.1566576E-06  0.3594137E+04  0.7818609E-02  0.8091836E-01
       -2   -1    0    0    0  501  0.00000000000E+00  0.00000000000E+00  0.15388083432E+04  0.15388083432E+04  0.25500000920E-02 0.  1.
        2   -1    0    0  501    0  0.00000000000E+00  0.00000000000E+00 -0.20986724500E+04  0.20986724500E+04  0.25500000920E-02 0. -1.
    10030    2    1    2    0    0  0.00000000000E+00  0.00000000000E+00 -0.55986410681E+03  0.36374807931E+04  0.35941367117E+04 0.  0.
        4    1    3    3  502    0 -0.15045955999E+04  0.97213578792E+03 -0.13468420184E+03  0.17963845236E+04  0.12699999809E+01 0.  1.
       -4    1    3    3    0  502  0.15045955999E+04 -0.97213578792E+03 -0.42517990496E+03  0.18410962696E+04  0.12699999809E+01 0. -1.
</event>
<event>
 5   0  0.8452742E-07  0.3490849E+04  0.7818609E-02  0.8115962E-01
       -1   -1    0    0    0  501  0.00000000000E+00  0.00000000000E+00  0.11920957203E+04  0.11920957203E+04  0.50400001928E-02 0.  1.
        1   -1    0    0  501    0  0.00000000000E+00  0.00000000000E+00 -0.25555885857E+04  0.25555885857E+04  0.50400001928E-02 0. -1.
    10030    2    1    2    0    0  0.00000000000E+00  0.00000000000E+00 -0.13634928654E+04  0.37476843060E+04  0.34908487311E+04 0.  0.
        1    1    3    3  502    0  0.10669254381E+04  0.47164896731E+03  0.71213280962E+03  0.13667171534E+04  0.50400001928E-02 0.  1.
       -1    1    3    3    0  502 -0.10669254381E+04 -0.47164896731E+03 -0.20756256750E+04  0.23809671526E+04  0.50400001928E-02 0. -1.
</event>
<event>
 5   0  0.7707500E-07  0.3187767E+04  0.7818609E-02  0.8192055E-01
        3   -1    0    0  501    0  0.00000000000E+00  0.00000000000E+00  0.28434032241E+04  0.28434032259E+04  0.10100000352E+00 0. -1.
       -3   -1    0    0    0  501  0.00000000000E+00  0.00000000000E+00 -0.89345907386E+03  0.89345907957E+03  0.10100000352E+00 0.  1.
    10030    2    1    2    0    0  0.00000000000E+00  0.00000000000E+00  0.19499441503E+04  0.37368623055E+04  0.31877668831E+04 0.  0.
        1    1    3    3  502    0 -0.10998131519E+04  0.11238969920E+04  0.12800524766E+04  0.20276261392E+04  0.50400001928E-02 0. -1.
       -1    1    3    3    0  502  0.10998131519E+04 -0.11238969920E+04  0.66989167369E+03  0.17092361663E+04  0.50400001928E-02 0.  1.
</event>
<event>
 5   0  0.1634374E-06  0.3681446E+04  0.7818609E-02  0.8072086E-01
        1   -1    0    0  501    0  0.00000000000E+00  0.00000000000E+00  0.18349890578E+04  0.18349890578E+04  0.50400001928E-02 0.  1.
       -1   -1    0    0    0  501  0.00000000000E+00  0.00000000000E+00 -0.18464746744E+04  0.18464746744E+04  0.50400001928E-02 0. -1.
    10030    2    1    2    0    0  0.00000000000E+00  0.00000000000E+00 -0.11485616615E+02  0.36814637323E+04  0.36814458155E+04 0.  0.
        5    1    3    3  502    0 -0.11352374292E+04 -0.23619230583E+03 -0.14353258942E+04  0.18451919517E+04  0.46999998093E+01 0. -1.
       -5    1    3    3    0  502  0.11352374292E+04  0.23619230583E+03  0.14238402776E+04  0.18362717806E+04  0.46999998093E+01 0.  1.
</event>
<event>
 5   0  0.2382711E-06  0.3428816E+04  0.7818609E-02  0.8130870E-01
       -2   -1    0    0    0  501  0.00000000000E+00  0.00000000000E+00  0.23160694282E+04  0.23160694282E+04  0.25500000920E-02 0. -1.
        2   -1    0    0  501    0  0.00000000000E+00  0.00000000000E+00 -0.12690441332E+04  0.12690441332E+04  0.25500000920E-02 0.  1.
    10030    2    1    2    0    0  0.00000000000E+00  0.00000000000E+00  0.10470252951E+04  0.35851135614E+04  0.34288157256E+04 0.  0.
        5    1    3    3  502    0  0.11940412391E+04 -0.17240400769E+03 -0.75009001277E+03  0.14206036533E+04  0.46999998093E+01 0.  1.
       -5    1    3    3    0  502 -0.11940412391E+04  0.17240400769E+03  0.17971153078E+04  0.21645099081E+04  0.46999998093E+01 0. -1.
</event>
<event>
 5   0  0.1513502E-06  0.3797404E+04  0.7818609E-02  0.8046712E-01
        2   -1    0    0  501    0  0.00000000000E+00  0.00000000000E+00  0.13352068627E+04  0.13352068627E+04  0.25500000920E-02 0. -1.
       -2   -1    0    0    0  501  0.00000000000E+00  0.00000000000E+00 -0.27000086489E+04  0.27000086489E+04  0.25500000920E-02 0.  1.
    10030    2    1    2    0    0  0.00000000000E+00  0.00000000000E+00 -0.13648017861E+04  0.40352155116E+04  0.37974044175E+04 0.  0.
        3    1    3    3  502    0  0.47523503990E+03 -0.11300695844E+02  0.12709489000E+04  0.13569403692E+04  0.10100000352E+00 0. -1.
       -3    1    3    3    0  502 -0.47523503990E+03  0.11300695844E+02 -0.26357506862E+04  0.26782751424E+04  0.10100000352E+00 0.  1.
</event>
<event>
 5   0  0.1566576E-06  0.3618466E+04  0.7818609E-02  0.8086275E-01
        2   -1    0    0  501    0  0.00000000000E+00  0.00000000000E+00  0.15240739043E+04  0.15240739043E+04  0.25500000920E-02 0.  1.
       -2   -1    0    0    0  501  0.00000000000E+00  0.00000000000E+00 -0.21477459065E+04  0.21477459065E+04  0.25500000920E-02 0. -1.
    10030    2    1    2    0    0  0.00000000000E+00  0.00000000000E+00 -0.62367200226E+03  0.36718198108E+04  0.36184656909E+04 0.  0.
        4    1    3    3  502    0  0.66738887823E+02 -0.13520462362E+04 -0.15298845391E+04  0.20427998972E+04  0.12699999809E+01 0. -1.
       -4    1    3    3    0  502 -0.66738887823E+02  0.13520462362E+04  0.90621253688E+03  0.16290199136E+04  0.12699999809E+01 0.  1.
</event>
<event>
 5   0  0.7754556E-07  0.3603668E+04  0.7818609E-02  0.8089652E-01
       -1   -1    0    0    0  501  0.00000000000E+00  0.00000000000E+00  0.32294613554E+04  0.32294613554E+04  0.50400001928E-02 0.  1.
        1   -1    0    0  501    0  0.00000000000E+00  0.00000000000E+00 -0.10053087658E+04  0.10053087659E+04  0.50400001928E-02 0. -1.
    10030    2    1    2    0    0  0.00000000000E+00  0.00000000000E+00  0.22241525895E+04  0.42347701212E+04  0.36036680255E+04 0.  0.
        4    1    3    3  502    0  0.85693649817E+03  0.10980279914E+04  0.24553241389E+04  0.28228751074E+04  0.12699999809E+01 0. -1.
       -4    1    3    3    0  502 -0.85693649817E+03 -0.10980279914E+04 -0.23117154941E+03  0.14118950138E+04  0.12699999809E+01 0.  1.
</event>
<event>
 5   0  0.1513502E-06  0.3539522E+04  0.7818609E-02  0.8104487E-01
        2   -1    0    0  501    0  0.00000000000E+00  0.00000000000E+00  0.24768652387E+04  0.24768652387E+04  0.25500000920E-02 0. -1.
       -2   -1    0    0    0  501  0.00000000000E+00  0.00000000000E+00 -0.12645232521E+04  0.12645232521E+04  0.25500000920E-02 0.  1.
    10030    2    1    2    0    0  0.00000000000E+00  0.00000000000E+00  0.12123419867E+04  0.37413884908E+04  0.35395218245E+04 0.  0.
        3    1    3    3  502    0 -0.14180873075E+04 -0.10420635702E+04  0.40789480107E+03  0.18064457576E+04  0.10100000352E+00 0.  1.
       -3    1    3    3    0  502  0.14180873075E+04  0.10420635702E+04  0.80444718560E+03  0.19349427332E+04  0.10100000352E+00 0. -1.
</event>
<event>
 5   0  0.1908273E-06  0.3643029E+04  0.7818609E-02  0.8080706E-01
        1   -1    0    0  501    0  0.00000000000E+00  0.00000000000E+00  0.26051952139E+04  0.26051952140E+04  0.50400001928E-02 0. -1.
       -1   -1    0    0    0  501  0.00000000000E+00  0.00000000000E+00 -0.12735763572E+04  0.12735763572E+04  0.50400001928E-02 0.  1.
    10030    2    1    2    0    0  0.00000000000E+00  0.00000000000E+00  0.13316188568E+04  0.38787715711E+04  0.36430289762E+04 0.  0.
        3    1    3    3  502    0  0.94225840606E+03  0.13291528476E+04  0.15330205098E+04  0.22371075275E+04  0.10100000352E+00 0. -1.
       -3    1    3    3    0  502 -0.94225840606E+03 -0.13291528476E+04 -0.20140165297E+03  0.16416640436E+04  0.10100000352E+00 0.  1.
</event>
<event>
 5   0  0.1513502E-06  0.3562705E+04  0.7818609E-02  0.8099088E-01
       -2   -1    0    0    0  501  0.00000000000E+00  0.00000000000E+00  0.14928521066E+04  0.14928521066E+04  0.25500000920E-02 0. -1.
        2   -1    0    0  501    0  0.00000000000E+00  0.00000000000E+00 -0.21256063848E+04  0.21256063848E+04  0.25500000920E-02 0.  1.
    10030    2    1    2    0    0  0.00000000000E+00  0.00000000000E+00 -0.63275427823E+03  0.36184584914E+04  0.35627045735E+04 0.  0.
        3    1    3    3  502    0  0.17228318101E+04 -0.43789792888E+03 -0.19919428134E+03  0.17887376594E+04  0.10100000352E+00 0. -1.
       -3    1    3    3    0  502 -0.17228318101E+04  0.43789792888E+03 -0.43355999689E+03  0.18297208321E+04  0.10100000352E+00 0.  1.
</event>
<event>
 5   0  0.1513502E-06  0.3649977E+04  0.7818609E-02  0.8079139E-01
        2   -1    0    0  501    0  0.00000000000E+00  0.00000000000E+00  0.14842997314E+04  0.14842997314E+04  0.25500000920E-02 0.  1.
       -2   -1    0    0    0  501  0.00000000000E+00  0.00000000000E+00 -0.22438754543E+04  0.22438754543E+04  0.25500000920E-02 0. -1.
    10030    2    1    2    0    0  0.00000000000E+00  0.00000000000E+00 -0.75957572291E+03  0.37281751857E+04  0.36499773885E+04 0.  0.
        3    1    3    3  502    0 -0.38592043850E+03  0.79828621825E+03 -0.20090757471E+04  0.21960375313E+04  0.10100000352E+00 0. -1.
       -3    1    3    3    0  502  0.38592043850E+03 -0.79828621825E+03  0.12495000242E+04  0.15321376543E+04  0.10100000352E+00 0.  1.
</event>
<event>
 5   0  0.8423692E-07  0.3603882E+04  0.7818609E-02  0.8089603E-01
       -1   -1    0    0    0  501  0.00000000000E+00  0.00000000000E+00  0.11917211665E+04  0.11917211665E+04  0.50400001928E-02 0.  1.
        1   -1    0    0  501    0  0.00000000000E+00  0.00000000000E+00 -0.27246238380E+04  0.27246238380E+04  0.50400001928E-02 0. -1.
    10030    2    1    2    0    0  0.00000000000E+00  0.00000000000E+00 -0.15329026715E+04  0.39163450045E+04  0.36038822946E+04 0.  0.
        2    1    3    3  502    0  0.73976056921E+02  0.13997407643E+04  0.46408910763E+03  0.14765247590E+04  0.25500000920E-02 0.  1.
       -2    1    3    3    0  502 -0.73976056921E+02 -0.13997407643E+04 -0.19969917792E+04  0.24398202455E+04  0.25500000920E-02 0. -1.
</event>
<event>
 5   0  0.1513502E-06  0.3615582E+04  0.7818609E-02  0.8086932E-01
       -2   -1    0    0    0  501  0.00000000000E+00  0.00000000000E+00  0.96828520100E+03  0.96828520100E+03  0.25500000920E-02 0. -1.
        2   -1    0    0  501    0  0.00000000000E+00  0.00000000000E+00 -0.33751499291E+04  0.33751499291E+04  0.25500000920E-02 0.  1.
    10030    2    1    2    0    0  0.00000000000E+00  0.00000000000E+00 -0.24068647281E+04  0.43434351302E+04  0.36155816835E+04 0.  0.
        3    1    3    3  502    0  0.18073270867E+04  0.23390715073E+02 -0.12438041383E+04  0.21940891204E+04  0.10100000352E+00 0.  1.
       -3    1    3    3    0  502 -0.18073270867E+04 -0.23390715073E+02 -0.11630605899E+04  0.21493460097E+04  0.10100000352E+00 0. -1.
</event>
<event>
 5   0  0.2422436E-06  0.3596808E+04  0.7818609E-02  0.8091223E-01
        2   -1    0    0  501    0  0.00000000000E+00  0.00000000000E+00  0.26823561667E+04  0.26823561667E+04  0.25500000920E-02 0.  1.
       -2   -1    0    0    0  501  0.00000000000E+00  0.00000000000E+00 -0.12057520417E+04  0.12057520417E+04  0.25500000920E-02 0. -1.
    10030    2    1    2    0    0  0.00000000000E+00  0.00000000000E+00  0.14766041251E+04  0.38881082084E+04  0.35968077094E+04 0.  0.
        2    1    3    3  502    0  0.12931612447E+04  0.12248606114E+04  0.10068290847E+04  0.20460338042E+04  0.25500000920E-02 0.  1.
       -2    1    3    3    0  502 -0.12931612447E+04 -0.12248606114E+04  0.46977504038E+03  0.18420744042E+04  0.25500000920E-02 0. -1.
</event>
<event>
 5   0  0.1566576E-06  0.3567956E+04  0.7818609E-02  0.8097871E-01
       -2   -1    0    0    0  501  0.00000000000E+00  0.00000000000E+00  0.12687928148E+04  0.12687928148E+04  0.25500000920E-02 0.  1.
        2   -1    0    0  501    0  0.00000000000E+00  0.00000000000E+00 -0.25083510693E+04  0.25083510693E+04  0.25500000920E-02 0. -1.
    10030    2    1    2    0    0  0.00000000000E+00  0.00000000000E+00 -0.12395582544E+04  0.37771438841E+04  0.35679561734E+04 0.  0.
        4    1    3    3  502    0  0.81828940144E+03 -0.10589142806E+04  0.62908038570E+03  0.14787294353E+04  0.12699999809E+01 0.  1.
       -4    1    3    3    0  502 -0.81828940144E+03  0.10589142806E+04 -0.18686386402E+04  0.22984144488E+04  0.12699999809E+01 0. -1.
</event>
<event>
 5   0  0.1513502E-06  0.3351570E+04  0.7818609E-02  0.8149896E-01
        2   -1    0    0  501    0  0.00000000000E+00  0.00000000000E+00  0.20890484935E+04  0.20890484935E+04  0.25500000920E-02 0.  1.
       -2   -1    0    0    0  501  0.00000000000E+00  0.00000000000E+00 -0.13442750734E+04  0.13442750734E+04  0.25500000920E-02 0. -1.
    10030    2    1    2    0    0  0.00000000000E+00  0.00000000000E+00  0.74477342005E+03  0.34333235669E+04  0.33515702689E+04 0.  0.
        3    1    3    3  502    0 -0.99028899071E+03 -0.40455427427E+03 -0.94900793620E+03  0.14300183632E+04  0.10100000352E+00 0. -1.
       -3    1    3    3    0  502  0.99028899071E+03  0.40455427427E+03  0.16937813563E+04  0.20033052036E+04  0.10100000352E+00 0.  1.
</event>
<event>
 5   0  0.1566576E-06  0.1995170E+04  0.7818609E-02  0.8608882E-01
       -2   -1    0    0    0  501  0.00000000000E+00  0.00000000000E+00  0.10589402366E+04  0.10589402366E+04  0.25500000920E-02 0.  1.
        2   -1    0    0  501    0  0.00000000000E+00  0.00000000000E+00 -0.93978473223E+03  0.93978473223E+03  0.25500000920E-02 0. -1.
    10030    2    1    2    0    0  0.00000000000E+00  0.00000000000E+00  0.11915550440E+03  0.19987249689E+04  0.19951700346E+04 0.  0.
        4    1    3    3  502    0 -0.38639951422E+03 -0.29887347547E+03 -0.81176758276E+03  0.94741657166E+03  0.12699999809E+01 0. -1.
       -4    1    3    3    0  502  0.38639951422E+03  0.29887347547E+03  0.93092308716E+03  0.10513083972E+04  0.12699999809E+01 0.  1.
</event>
<event>
 5   0  0.1566576E-06  0.3328979E+04  0.7818609E-02  0.8155561E-01
       -2   -1    0    0    0  501  0.00000000000E+00  0.00000000000E+00  0.17987770307E+04  0.17987770307E+04  0.25500000920E-02 0.  1.
        2   -1    0    0  501    0  0.00000000000E+00  0.00000000000E+00 -0.15402267609E+04  0.15402267609E+04  0.25500000920E-02 0. -1.
    10030    2    1    2    0    0  0.00000000000E+00  0.00000000000E+00  0.25855026972E+03  0.33390037916E+04  0.33289785338E+04 0.  0.
        4    1    3    3  502    0 -0.61555388671E+03 -0.32947667168E+03 -0.13862554917E+04  0.15521492731E+04  0.12699999809E+01 0. -1.
       -4    1    3    3    0  502  0.61555388671E+03  0.32947667168E+03  0.16448057614E+04  0.17868545185E+04  0.12699999809E+01 0.  1.
</event>
<event>
 5   0  0.7754556E-07  0.3548965E+04  0.7818609E-02  0.8102283E-01
       -1   -1    0    0    0  501  0.00000000000E+00  0.00000000000E+00  0.17006674329E+04  0.17006674329E+04  0.50400001928E-02 0. -1.
        1   -1    0    0  501    0  0.00000000000E+00  0.00000000000E+00 -0.18515008979E+04  0.18515008979E+04  0.50400001928E-02 0.  1.
    10030    2    1    2    0    0  0.00000000000E+00  0.00000000000E+00 -0.15083346502E+03  0.35521683309E+04  0.35489645133E+04 0.  0.
        4    1    3    3  502    0 -0.91878205596E+03  0.14165202840E+04 -0.62189082838E+03  0.17992887475E+04  0.12699999809E+01 0.  1.
       -4    1    3    3    0  502  0.91878205596E+03 -0.14165202840E+04  0.47105736335E+03  0.17528795834E+04  0.12699999809E+01 0. -1.
</event>
<event>
 5   0  0.2382711E-06  0.3737275E+04  0.7818609E-02  0.8059751E-01
        2   -1    0    0  501    0  0.00000000000E+00  0.00000000000E+00  0.18437754635E+04  0.18437754635E+04  0.25500000920E-02 0.  1.
       -2   -1    0    0    0  501  0.00000000000E+00  0.00000000000E+00 -0.18938342942E+04  0.18938342942E+04  0.25500000920E-02 0. -1.
    10030    2    1    2    0    0  0.00000000000E+00  0.00000000000E+00 -0.50058830696E+02  0.37376097577E+04  0.37372745168E+04 0.  0.
        5    1    3    3  502    0 -0.16804390310E+04  0.13754043481E+03 -0.83070108673E+03  0.18795954601E+04  0.46999998093E+01 0. -1.
       -5    1    3    3    0  502  0.16804390310E+04 -0.13754043481E+03  0.78064225604E+03  0.18580142976E+04  0.46999998093E+01 0.  1.
</event>
<event>
 5   0  0.1566576E-06  0.3545036E+04  0.7818609E-02  0.8103199E-01
       -2   -1    0    0    0  501  0.00000000000E+00  0.00000000000E+00  0.14697540906E+04  0.14697540906E+04  0.25500000920E-02 0.  1.
        2   -1    0    0  501    0  0.00000000000E+00  0.00000000000E+00 -0.21376496518E+04  0.21376496518E+04  0.25500000920E-02 0. -1.
    10030    2    1    2    0    0  0.00000000000E+00  0.00000000000E+00 -0.66789556124E+03  0.36074037424E+04  0.35450355823E+04 0.  0.
        4    1    3    3  502    0 -0.16862354409E+04 -0.20321528570E+03 -0.84995005920E+03  0.18992375129E+04  0.12699999809E+01 0. -1.
       -4    1    3    3    0  502  0.16862354409E+04  0.20321528570E+03  0.18205449796E+03  0.17081662295E+04  0.12699999809E+01 0.  1.
</event>
<event>
 5   0  0.1908273E-06  0.2850914E+04  0.7818609E-02  0.8287634E-01
        1   -1    0    0  501    0  0.00000000000E+00  0.00000000000E+00  0.16369303567E+04  0.16369303568E+04  0.50400001928E-02 0. -1.
       -1   -1    0    0    0  501  0.00000000000E+00  0.00000000000E+00 -0.12413034764E+04  0.12413034764E+04  0.50400001928E-02 0.  1.
    10030    2    1    2    0    0  0.00000000000E+00  0.00000000000E+00  0.39562688036E+03  0.28782338331E+04  0.28509137780E+04 0.  0.
        3    1    3    3  502    0 -0.78788279062E+03 -0.88310639688E+02 -0.99817772768E+03  0.12747222627E+04  0.10100000352E+00 0.  1.
       -3    1    3    3    0  502  0.78788279062E+03  0.88310639688E+02  0.13938046080E+04  0.16035115704E+04  0.10100000352E+00 0. -1.
</event>
<event>
 5   0  0.1513502E-06  0.2000804E+04  0.7818609E-02  0.8606245E-01
        2   -1    0    0  501    0  0.00000000000E+00  0.00000000000E+00  0.23534311974E+04  0.23534311974E+04  0.25500000920E-02 0. -1.
       -2   -1    0    0    0  501  0.00000000000E+00  0.00000000000E+00 -0.42525322410E+03  0.42525322411E+03  0.25500000920E-02 0.  1.
    10030    2    1    2    0    0  0.00000000000E+00  0.00000000000E+00  0.19281779733E+04  0.27786844215E+04  0.20008040428E+04 0.  0.
        3    1    3    3  502    0  0.73967324564E+03 -0.41667304344E+03  0.16990578515E+04  0.18993500279E+04  0.10100000352E+00 0. -1.
       -3    1    3    3    0  502 -0.73967324564E+03  0.41667304344E+03  0.22912012182E+03  0.87933439366E+03  0.10100000352E+00 0.  1.
</event>
<event>
 5   0  0.8452742E-07  0.3512710E+04  0.7818609E-02  0.8110784E-01
       -1   -1    0    0    0  501  0.00000000000E+00  0.00000000000E+00  0.20762245302E+04  0.20762245302E+04  0.50400001928E-02 0. -1.
        1   -1    0    0  501    0  0.00000000000E+00  0.00000000000E+00 -0.14857658539E+04  0.14857658539E+04  0.50400001928E-02 0.  1.
    10030    2    1    2    0    0  0.00000000000E+00  0.00000000000E+00  0.59045867634E+03  0.35619903842E+04  0.35127103565E+04 0.  0.
        1    1    3    3  502    0 -0.58030199533E+03  0.15105819581E+04  0.98757824311E+03  0.18957634463E+04  0.50400001928E-02 0. -1.
       -1    1    3    3    0  502  0.58030199533E+03 -0.15105819581E+04 -0.39711956677E+03  0.16662269378E+04  0.50400001928E-02 0.  1.
</event>
<event>
 5   0  0.2422436E-06  0.1897862E+04  0.7818609E-02  0.8655921E-01
        2   -1    0    0  501    0  0.00000000000E+00  0.00000000000E+00  0.16531412367E+04  0.16531412367E+04  0.25500000920E-02 0. -1.
       -2   -1    0    0    0  501  0.00000000000E+00  0.00000000000E+00 -0.54470241417E+03  0.54470241417E+03  0.25500000920E-02 0.  1.
    10030    2    1    2    0    0  0.00000000000E+00  0.00000000000E+00  0.11084388225E+04  0.21978436508E+04  0.18978619787E+04 0.  0.
        2    1    3    3  502    0  0.80196198218E+03 -0.48101954076E+03  0.74076176185E+03  0.11930007575E+04  0.25500000920E-02 0. -1.
       -2    1    3    3    0  502 -0.80196198218E+03  0.48101954076E+03  0.36767706066E+03  0.10048428934E+04  0.25500000920E-02 0.  1.
</event>
<event>
 5   0  0.8423692E-07  0.3542054E+04  0.7818609E-02  0.8103895E-01
        1   -1    0    0  501    0  0.00000000000E+00  0.00000000000E+00  0.11033050233E+04  0.11033050233E+04  0.50400001928E-02 0.  1.
       -1   -1    0    0    0  501  0.00000000000E+00  0.00000000000E+00 -0.28428561161E+04  0.28428561161E+04  0.50400001928E-02 0. -1.
    10030    2    1    2    0    0  0.00000000000E+00  0.00000000000E+00 -0.17395510928E+04  0.39461611394E+04  0.35420544510E+04 0.  0.
        2    1    3    3  502    0 -0.72320508540E+03 -0.15461345969E+04 -0.34369505967E+03  0.17411731910E+04  0.25500000920E-02 0. -1.
       -2    1    3    3    0  502  0.72320508540E+03  0.15461345969E+04 -0.13958560332E+04  0.22049879484E+04  0.25500000920E-02 0.  1.
</event>
<event>
 5   0  0.1634374E-06  0.3213067E+04  0.7818609E-02  0.8185375E-01
       -1   -1    0    0    0  501  0.00000000000E+00  0.00000000000E+00  0.21679072965E+04  0.21679072965E+04  0.50400001928E-02 0. -1.
        1   -1    0    0  501    0  0.00000000000E+00  0.00000000000E+00 -0.11905261906E+04  0.11905261906E+04  0.50400001928E-02 0.  1.
    10030    2    1    2    0    0  0.00000000000E+00  0.00000000000E+00  0.97738110591E+03  0.33584334871E+04  0.32130673291E+04 0.  0.
        5    1    3    3  502    0  0.10312972915E+04  0.76793706031E+03 -0.51801761184E+03  0.13862415981E+04  0.46999998093E+01 0.  1.
       -5    1    3    3    0  502 -0.10312972915E+04 -0.76793706031E+03  0.14953987177E+04  0.19721918890E+04  0.46999998093E+01 0. -1.
</event>
<event>
 5   0  0.7754556E-07  0.3608227E+04  0.7818609E-02  0.8088610E-01
        1   -1    0    0  501    0  0.00000000000E+00  0.00000000000E+00  0.11472446961E+04  0.11472446961E+04  0.50400001928E-02 0. -1.
       -1   -1    0    0    0  501  0.00000000000E+00  0.00000000000E+00 -0.28370811259E+04  0.28370811259E+04  0.50400001928E-02 0.  1.
    10030    2    1    2    0    0  0.00000000000E+00  0.00000000000E+00 -0.16898364298E+04  0.39843258220E+04  0.36082274175E+04 0.  0.
        4    1    3    3  502    0  0.41802738738E+03  0.93375981746E+03  0.79596333808E+03  0.12962305126E+04  0.12699999809E+01 0. -1.
       -4    1    3    3    0  502 -0.41802738738E+03 -0.93375981746E+03 -0.24857997679E+04  0.26880953094E+04  0.12699999809E+01 0.  1.
</event>
<event>
 5   0  0.2382711E-06  0.2226869E+04  0.7818609E-02  0.8507327E-01
        2   -1    0    0  501    0  0.00000000000E+00  0.00000000000E+00  0.14037304441E+04  0.14037304441E+04  0.25500000920E-02 0.  1.
       -2   -1    0    0    0  501  0.00000000000E+00  0.00000000000E+00 -0.88317271682E+03  0.88317271682E+03  0.25500000920E-02 0. -1.
    10030    2    1    2    0    0  0.00000000000E+00  0.00000000000E+00  0.52055772725E+03  0.22869031609E+04  0.22268690397E+04 0.  0.
        5    1    3    3  502    0 -0.72487174826E+03  0.79493503850E+03 -0.34430762111E+02  0.10763681221E+04  0.46999998093E+01 0. -1.
       -5    1    3    3    0  502  0.72487174826E+03 -0.79493503850E+03  0.55498848936E+03  0.12105350388E+04  0.46999998093E+01 0.  1.
</event>
<event>
 5   0  0.1513502E-06  0.3574155E+04  0.7818609E-02  0.8096438E-01
       -2   -1    0    0    0  501  0.00000000000E+00  0.00000000000E+00  0.16708758761E+04  0.16708758761E+04  0.25500000920E-02 0.  1.
        2   -1    0    0  501    0  0.00000000000E+00  0.00000000000E+00 -0.19113605403E+04  0.19113605403E+04  0.25500000920E-02 0. -1.
    10030    2    1    2    0    0  0.00000000000E+00  0.00000000000E+00 -0.24048466428E+03  0.35822364164E+04  0.35741551266E+04 0.  0.
        3    1    3    3  502    0 -0.46777424530E+03 -0.17228047789E+04 -0.37732709599E+02  0.17855791269E+04  0.10100000352E+00 0. -1.
       -3    1    3    3    0  502  0.46777424530E+03  0.17228047789E+04 -0.20275195468E+03  0.17966572895E+04  0.10100000352E+00 0.  1.
</event>
<event>
 5   0  0.1566576E-06  0.3644040E+04  0.7818609E-02  0.8080478E-01
       -2   -1    0    0    0  501  0.00000000000E+00  0.00000000000E+00  0.19125135805E+04  0.19125135805E+04  0.25500000920E-02 0. -1.
        2   -1    0    0  501    0  0.00000000000E+00  0.00000000000E+00 -0.17358080000E+04  0.17358080000E+04  0.25500000920E-02 0.  1.
    10030    2    1    2    0    0  0.00000000000E+00  0.00000000000E+00  0.17670558052E+03  0.36483215805E+04  0.36440397216E+04 0.  0.
        4    1    3    3  502    0 -0.18486804016E+03 -0.85040299673E+03  0.16909814531E+04  0.19017837251E+04  0.12699999809E+01 0. -1.
       -4    1    3    3    0  502  0.18486804016E+03  0.85040299673E+03 -0.15142758726E+04  0.17465378554E+04  0.12699999809E+01 0.  1.
</event>
<event>
 5   0  0.2382711E-06  0.3002062E+04  0.7818609E-02  0.8243142E-01
        2   -1    0    0  501    0  0.00000000000E+00  0.00000000000E+00  0.16078789406E+04  0.16078789406E+04  0.25500000920E-02 0.  1.
       -2   -1    0    0    0  501  0.00000000000E+00  0.00000000000E+00 -0.14012833560E+04  0.14012833560E+04  0.25500000920E-02 0. -1.
    10030    2    1    2    0    0  0.00000000000E+00  0.00000000000E+00  0.20659558469E+03  0.30091622966E+04  0.30020619567E+04 0.  0.
        5    1    3    3  502    0  0.73423821925E+03  0.10238649424E+04 -0.71451591379E+03  0.14484337278E+04  0.46999998093E+01 0.  1.
       -5    1    3    3    0  502 -0.73423821925E+03 -0.10238649424E+04  0.92111149848E+03  0.15607285688E+04  0.46999998093E+01 0. -1.
</event>
<event>
 5   0  0.8423692E-07  0.3582708E+04  0.7818609E-02  0.8094464E-01
       -1   -1    0    0    0  501  0.00000000000E+00  0.00000000000E+00  0.18134578981E+04  0.18134578981E+04  0.50400001928E-02 0.  1.
        1   -1    0    0  501    0  0.00000000000E+00  0.00000000000E+00 -0.17695193583E+04  0.17695193583E+04  0.50400001928E-02 0. -1.
    10030    2    1    2    0    0  0.00000000000E+00  0.00000000000E+00  0.43938539770E+02  0.35829772564E+04  0.35827078341E+04 0.  0.
        2    1    3    3  502    0  0.11423609352E+04 -0.12610953711E+04  0.58201032410E+03  0.17983564882E+04  0.25500000920E-02 0.  1.
       -2    1    3    3    0  502 -0.11423609352E+04  0.12610953711E+04 -0.53807178433E+03  0.17846207682E+04  0.25500000920E-02 0. -1.
</event>
<event>
 5   0  0.8452742E-07  0.3588875E+04  0.7818609E-02  0.8093045E-01
       -1   -1    0    0    0  501  0.00000000000E+00  0.00000000000E+00  0.20914800440E+04  0.20914800440E+04  0.50400001928E-02 0.  1.
        1   -1    0    0  501    0  0.00000000000E+00  0.00000000000E+00 -0.15395825361E+04  0.15395825361E+04  0.50400001928E-02 0. -1.
    10030    2    1    2    0    0  0.00000000000E+00  0.00000000000E+00  0.55189750793E+03  0.36310625801E+04  0.35888751164E+04 0.  0.
        1    1    3    3  502    0 -0.46159918403E+03 -0.97703910008E+03  0.17253834753E+04  0.20358357857E+04  0.50400001928E-02 0.  1.
       -1    1    3    3    0  502  0.46159918403E+03  0.97703910008E+03 -0.11734859673E+04  0.15952267943E+04  0.50400001928E-02 0. -1.
</event>
<event>
 5   0  0.8423692E-07  0.2119366E+04  0.7818609E-02  0.8552760E-01
       -1   -1    0    0    0  501  0.00000000000E+00  0.00000000000E+00  0.98574846463E+03  0.98574846465E+03  0.50400001928E-02 0. -1.
        1   -1    0    0  501    0  0.00000000000E+00  0.00000000000E+00 -0.11391624241E+04  0.11391624242E+04  0.50400001928E-02 0.  1.
    10030    2    1    2    0    0  0.00000000000E+00  0.00000000000E+00 -0.15341395951E+03  0.21249108888E+04  0.21193655754E+04 0.  0.
        2    1    3    3  502    0  0.51703261736E+03 -0.57783249196E+03  0.64748097565E+03  0.10101706440E+04  0.25500000920E-02 0. -1.
       -2    1    3    3    0  502 -0.51703261736E+03  0.57783249196E+03 -0.80089493516E+03  0.11147402448E+04  0.25500000920E-02 0.  1.
</event>
<event>
 5   0  0.2422436E-06  0.3570279E+04  0.7818609E-02  0.8097334E-01
        2   -1    0    0  501    0  0.00000000000E+00  0.00000000000E+00  0.18985285565E+04  0.18985285565E+04  0.25500000920E-02 0.  1.
       -2   -1    0    0    0  501  0.00000000000E+00  0.00000000000E+00 -0.16785226194E+04  0.16785226194E+04  0.25500000920E-02 0. -1.
    10030    2    1    2    0    0  0.00000000000E+00  0.00000000000E+00  0.22000593704E+03  0.35770511759E+04  0.35702790511E+04 0.  0.
        2    1    3    3  502    0 -0.16173038157E+04  0.60465816742E+03 -0.34411165618E+03  0.17605953436E+04  0.25500000920E-02 0.  1.
       -2    1    3    3    0  502  0.16173038157E+04 -0.60465816742E+03  0.56411759323E+03  0.18164558323E+04  0.25500000920E-02 0. -1.
</event>
<event>
 5   0  0.1566576E-06  0.3707849E+04  0.7818609E-02  0.8066225E-01
        2   -1    0    0  501    0  0.00000000000E+00  0.00000000000E+00  0.30563731854E+04  0.30563731854E+04  0.25500000920E-02 0. -1.
       -2   -1    0    0    0  501  0.00000000000E+00  0.00000000000E+00 -0.11245473696E+04  0.11245473696E+04  0.25500000920E-02 0.  1.
    10030    2    1    2    0    0  0.00000000000E+00  0.00000000000E+00  0.19318258157E+04  0.41809205550E+04  0.37078492020E+04 0.  0.
        4    1    3    3  502    0 -0.12724118583E+04 -0.13398066967E+04  0.11366255194E+04  0.21693393248E+04  0.12699999809E+01 0. -1.
       -4    1    3    3    0  502  0.12724118583E+04  0.13398066967E+04  0.79520029636E+03  0.20115812303E+04  0.12699999809E+01 0.  1.
</event>
<event>
 5   0  0.7754556E-07  0.2106212E+04  0.7818609E-02  0.8558512E-01
       -1   -1    0    0    0  501  0.00000000000E+00  0.00000000000E+00  0.13123808716E+04  0.13123808716E+04  0.50400001928E-02 0.  1.
        1   -1    0    0  501    0  0.00000000000E+00  0.00000000000E+00 -0.84505399944E+03  0.84505399945E+03  0.50400001928E-02 0. -1.
    10030    2    1    2    0    0  0.00000000000E+00  0.00000000000E+00  0.46732687214E+03  0.21574348710E+04  0.21062124341E+04 0.  0.
        4    1    3    3  502    0  0.98487184897E+02  0.12771786031E+03  0.12996547420E+04  0.13096242357E+04  0.12699999809E+01 0.  1.
       -4    1    3    3    0  502 -0.98487184897E+02 -0.12771786031E+03 -0.83232786990E+03  0.84781063531E+03  0.12699999809E+01 0. -1.
</event>
<event>
 5   0  0.2422436E-06  0.3430249E+04  0.7818609E-02  0.8130522E-01
        2   -1    0    0  501    0  0.00000000000E+00  0.00000000000E+00  0.28302957619E+04  0.28302957619E+04  0.25500000920E-02 0. -1.
       -2   -1    0    0    0  501  0.00000000000E+00  0.00000000000E+00 -0.10393446933E+04  0.10393446933E+04  0.25500000920E-02 0.  1.
    10030    2    1    2    0    0  0.00000000000E+00  0.00000000000E+00  0.17909510686E+04  0.38696404552E+04  0.34302494840E+04 0.  0.
        2    1    3    3  502    0  0.90741118753E+03 -0.65407255116E+03 -0.57123927045E+03  0.12559937379E+04  0.25500000920E-02 0.  1.
       -2    1    3    3    0  502 -0.90741118753E+03  0.65407255116E+03  0.23621903390E+04  0.26136467174E+04  0.25500000920E-02 0. -1.
</event>
<event>
 5   0  0.8452742E-07  0.1783892E+04  0.7818609E-02  0.8714912E-01
        1   -1    0    0  501    0  0.00000000000E+00  0.00000000000E+00  0.65539046639E+03  0.65539046641E+03  0.50400001928E-02 0.  1.
       -1   -1    0    0    0  501  0.00000000000E+00  0.00000000000E+00 -0.12138840730E+04  0.12138840730E+04  0.50400001928E-02 0. -1.
    10030    2    1    2    0    0  0.00000000000E+00  0.00000000000E+00 -0.55849360662E+03  0.18692745394E+04  0.17838924281E+04 0.  0.
        1    1    3    3  502    0  0.12470598716E+03  0.76464426122E+01  0.64617565825E+03  0.65814362616E+03  0.50400001928E-02 0.  1.
       -1    1    3    3    0  502 -0.12470598716E+03 -0.76464426122E+01 -0.12046692649E+04  0.12111309133E+04  0.50400001928E-02 0. -1.
</event>
<event>
 5   0  0.2536619E-06  0.3671755E+04  0.7818609E-02  0.8074250E-01
       -2   -1    0    0    0  501  0.00000000000E+00  0.00000000000E+00  0.17818934279E+04  0.17818934279E+04  0.25500000920E-02 0. -1.
        2   -1    0    0  501    0  0.00000000000E+00  0.00000000000E+00 -0.18914968715E+04  0.18914968715E+04  0.25500000920E-02 0.  1.
    10030    2    1    2    0    0  0.00000000000E+00  0.00000000000E+00 -0.10960344367E+03  0.36733902994E+04  0.36717548089E+04 0.  0.
        1    1    3    3  502    0  0.76703565634E+03  0.10155324389E+03  0.16108089414E+04  0.17869980988E+04  0.50400001928E-02 0. -1.
       -1    1    3    3    0  502 -0.76703565634E+03 -0.10155324389E+03 -0.17204123851E+04  0.18863922005E+04  0.50400001928E-02 0.  1.
</event>
<event>
 5   0  0.8452742E-07  0.3546910E+04  0.7818609E-02  0.8102762E-01
       -1   -1    0    0    0  501  0.00000000000E+00  0.00000000000E+00  0.19959873418E+04  0.19959873418E+04  0.50400001928E-02 0.  1.
        1   -1    0    0  501    0  0.00000000000E+00  0.00000000000E+00 -0.15757325114E+04  0.15757325114E+04  0.50400001928E-02 0. -1.
    10030    2    1    2    0    0  0.00000000000E+00  0.00000000000E+00  0.42025483043E+03  0.35717198533E+04  0.35469097236E+04 0.  0.
        1    1    3    3  502    0 -0.86362401468E+03 -0.74512736654E+03 -0.11573407969E+04  0.16249612153E+04  0.50400001928E-02 0. -1.
       -1    1    3    3    0  502  0.86362401468E+03  0.74512736654E+03  0.15775956273E+04  0.19467586379E+04  0.50400001928E-02 0.  1.
</event>
<event>
 5   0  0.1513502E-06  0.3604212E+04  0.7818609E-02  0.8089527E-01
        2   -1    0    0  501    0  0.00000000000E+00  0.00000000000E+00  0.28763193954E+04  0.28763193954E+04  0.25500000920E-02 0. -1.
       -2   -1    0    0    0  501  0.00000000000E+00  0.00000000000E+00 -0.11290772129E+04  0.11290772129E+04  0.25500000920E-02 0.  1.
    10030    2    1    2    0    0  0.00000000000E+00  0.00000000000E+00  0.17472421825E+04  0.40053966083E+04  0.36042123614E+04 0.  0.
        3    1    3    3  502    0  0.17272371029E+04 -0.11216062122E+03  0.14311162435E+04  0.22458899633E+04  0.10100000352E+00 0. -1.
       -3    1    3    3    0  502 -0.17272371029E+04  0.11216062122E+03  0.31612593898E+03  0.17595066451E+04  0.10100000352E+00 0.  1.
</event>
<event>
 5   0  0.2536619E-06  0.2598582E+04  0.7818609E-02  0.8368683E-01
       -2   -1    0    0    0  501  0.00000000000E+00  0.00000000000E+00  0.17672053056E+04  0.17672053056E+04  0.25500000920E-02 0.  1.
        2   -1    0    0  501    0  0.00000000000E+00  0.00000000000E+00 -0.95526902967E+03  0.95526902967E+03  0.25500000920E-02 0. -1.
    10030    2    1    2    0    0  0.00000000000E+00  0.00000000000E+00  0.81193627598E+03  0.27224743353E+04  0.25985815343E+04 0.  0.
        1    1    3    3  502    0  0.26712647873E+03 -0.10404170012E+04 -0.35986332227E+03  0.11328396633E+04  0.50400001928E-02 0. -1.
       -1    1    3    3    0  502 -0.26712647873E+03  0.10404170012E+04  0.11717995982E+04  0.15896346720E+04  0.50400001928E-02 0.  1.
</event>
<event>
 5   0  0.2382711E-06  0.3060172E+04  0.7818609E-02  0.8226754E-01
        2   -1    0    0  501    0  0.00000000000E+00  0.00000000000E+00  0.15225288645E+04  0.15225288645E+04  0.25500000920E-02 0.  1.
       -2   -1    0    0    0  501  0.00000000000E+00  0.00000000000E+00 -0.15376801468E+04  0.15376801468E+04  0.25500000920E-02 0. -1.
    10030    2    1    2    0    0  0.00000000000E+00  0.00000000000E+00 -0.15151282243E+02  0.30602090113E+04  0.30601715036E+04 0.  0.
        5    1    3    3  502    0  0.20014198038E+03 -0.13332243407E+04 -0.73118409743E+03  0.15336871354E+04  0.46999998093E+01 0. -1.
       -5    1    3    3    0  502 -0.20014198038E+03  0.13332243407E+04  0.71603281519E+03  0.15265218758E+04  0.46999998093E+01 0.  1.
</event>
<event>
 5   0  0.2422436E-06  0.3546974E+04  0.7818609E-02  0.8102747E-01
        2   -1    0    0  501    0  0.00000000000E+00  0.00000000000E+00  0.21963887889E+04  0.21963887889E+04  0.25500000920E-02 0. -1.
       -2   -1    0    0    0  501  0.00000000000E+00  0.00000000000E+00 -0.14320126965E+04  0.14320126965E+04  0.25500000920E-02 0.  1.
    10030    2    1    2    0    0  0.00000000000E+00  0.00000000000E+00  0.76437609241E+03  0.36284014853E+04  0.35469742779E+04 0.  0.
        2    1    3    3  502    0 -0.94852432041E+03  0.76487883524E+03  0.17003815620E+04  0.20918975777E+04  0.25500000920E-02 0. -1.
       -2    1    3    3    0  502  0.94852432041E+03 -0.76487883524E+03 -0.93600546963E+03  0.15365039076E+04  0.25500000920E-02 0.  1.
</event>
<event>
 5   0  0.1566576E-06  0.2128079E+04  0.7818609E-02  0.8548974E-01
        2   -1    0    0  501    0  0.00000000000E+00  0.00000000000E+00  0.16358329809E+04  0.16358329809E+04  0.25500000920E-02 0. -1.
       -2   -1    0    0    0  501  0.00000000000E+00  0.00000000000E+00 -0.69211239335E+03  0.69211239336E+03  0.25500000920E-02 0.  1.
    10030    2    1    2    0    0  0.00000000000E+00  0.00000000000E+00  0.94372058751E+03  0.23279453742E+04  0.21280792086E+04 0.  0.
        4    1    3    3  502    0 -0.84295670179E+03 -0.64554753771E+03  0.54820799001E+03  0.11949231096E+04  0.12699999809E+01 0.  1.
       -4    1    3    3    0  502  0.84295670179E+03  0.64554753771E+03  0.39551259750E+03  0.11330222647E+04  0.12699999809E+01 0. -1.
</event>
<event>
 5   0  0.2382711E-06  0.3575119E+04  0.7818609E-02  0.8096215E-01
       -2   -1    0    0    0  501  0.00000000000E+00  0.00000000000E+00  0.13717503576E+04  0.13717503576E+04  0.25500000920E-02 0.  1.
        2   -1    0    0  501    0  0.00000000000E+00  0.00000000000E+00 -0.23294098712E+04  0.23294098712E+04  0.25500000920E-02 0. -1.
    10030    2    1    2    0    0  0.00000000000E+00  0.00000000000E+00 -0.95765951354E+03  0.37011602288E+04  0.35751189205E+04 0.  0.
        5    1    3    3  502    0 -0.11150978953E+04  0.15356792225E+02 -0.19251028914E+04  0.22247971547E+04  0.46999998093E+01 0. -1.
       -5    1    3    3    0  502  0.11150978953E+04 -0.15356792225E+02  0.96744337782E+03  0.14763630741E+04  0.46999998093E+01 0.  1.
</event>
<event>
 5   0  0.8423692E-07  0.3202227E+04  0.7818609E-02  0.8188229E-01
       -1   -1    0    0    0  501  0.00000000000E+00  0.00000000000E+00  0.14222135599E+04  0.14222135599E+04  0.50400001928E-02 0.  1.
        1   -1    0    0  501    0  0.00000000000E+00  0.00000000000E+00 -0.18025176829E+04  0.18025176829E+04  0.50400001928E-02 0. -1.
    10030    2    1    2    0    0  0.00000000000E+00  0.00000000000E+00 -0.38030412298E+03  0.32247312428E+04  0.32022274064E+04 0.  0.
        2    1    3    3  502    0 -0.11671805108E+02 -0.68441935114E+02  0.14206968999E+04  0.14223924251E+04  0.25500000920E-02 0.  1.
       -2    1    3    3    0  502  0.11671805108E+02  0.68441935114E+02 -0.18010010229E+04  0.18023388177E+04  0.25500000920E-02 0. -1.
</event>
<event>
 5   0  0.1513502E-06  0.2579245E+04  0.7818609E-02  0.8375286E-01
       -2   -1    0    0    0  501  0.00000000000E+00  0.00000000000E+00  0.88244948918E+03  0.88244948918E+03  0.25500000920E-02 0.  1.
        2   -1    0    0  501    0  0.00000000000E+00  0.00000000000E+00 -0.18846699448E+04  0.18846699448E+04  0.25500000920E-02 0. -1.
    10030    2    1    2    0    0  0.00000000000E+00  0.00000000000E+00 -0.10022204557E+04  0.27671194340E+04  0.25792448741E+04 0.  0.
        3    1    3    3  502    0 -0.96180322837E+03  0.40538938380E+03 -0.13137261543E+04  0.16778803358E+04  0.10100000352E+00 0. -1.
       -3    1    3    3    0  502  0.96180322837E+03 -0.40538938380E+03  0.31150569864E+03  0.10892390982E+04  0.10100000352E+00 0.  1.
</event>
<event>
 5   0  0.1908273E-06  0.3700342E+04  0.7818609E-02  0.8067886E-01
        1   -1    0    0  501    0  0.00000000000E+00  0.00000000000E+00  0.22413567282E+04  0.22413567282E+04  0.50400001928E-02 0. -1.
       -1   -1    0    0    0  501  0.00000000000E+00  0.00000000000E+00 -0.15272592514E+04  0.15272592514E+04  0.50400001928E-02 0.  1.
    10030    2    1    2    0    0  0.00000000000E+00  0.00000000000E+00  0.71409747681E+03  0.37686159796E+04  0.37003420376E+04 0.  0.
        3    1    3    3  502    0 -0.42693551034E+02 -0.11922274814E+04 -0.10832233876E+04  0.16113975376E+04  0.10100000352E+00 0.  1.
       -3    1    3    3    0  502  0.42693551034E+02  0.11922274814E+04  0.17973208644E+04  0.21572184420E+04  0.10100000352E+00 0. -1.
</event>
<event>
 5   0  0.8452742E-07  0.2691398E+04  0.7818609E-02  0.8337802E-01
        1   -1    0    0  501    0  0.00000000000E+00  0.00000000000E+00  0.11681856568E+04  0.11681856569E+04  0.50400001928E-02 0. -1.
       -1   -1    0    0    0  501  0.00000000000E+00  0.00000000000E+00 -0.15501863017E+04  0.15501863017E+04  0.50400001928E-02 0.  1.
    10030    2    1    2    0    0  0.00000000000E+00  0.00000000000E+00 -0.38200064485E+03  0.27183719586E+04  0.26913977061E+04 0.  0.
        1    1    3    3  502    0  0.52681196210E+03  0.49122074417E+03 -0.13390882701E+04  0.15205216401E+04  0.50400001928E-02 0.  1.
       -1    1    3    3    0  502 -0.52681196210E+03 -0.49122074417E+03  0.95708762526E+03  0.11978503184E+04  0.50400001928E-02 0. -1.
</event>
<event>
 5   0  0.1513502E-06  0.2476261E+04  0.7818609E-02  0.8411492E-01
        2   -1    0    0  501    0  0.00000000000E+00  0.00000000000E+00  0.13372588783E+04  0.13372588783E+04  0.25500000920E-02 0. -1.
       -2   -1    0    0    0  501  0.00000000000E+00  0.00000000000E+00 -0.11463500174E+04  0.11463500174E+04  0.25500000920E-02 0.  1.
    10030    2    1    2    0    0  0.00000000000E+00  0.00000000000E+00  0.19090886097E+03  0.24836088957E+04  0.24762606797E+04 0.  0.
        3    1    3    3  502    0  0.24473261495E+03  0.12056881522E+04  0.23511114062E+03  0.12525395131E+04  0.10100000352E+00 0.  1.
       -3    1    3    3    0  502 -0.24473261495E+03 -0.12056881522E+04 -0.44202279655E+02  0.12310693827E+04  0.10100000352E+00 0. -1.
</event>
<event>
 5   0  0.1513502E-06  0.3507021E+04  0.7818609E-02  0.8112128E-01
       -2   -1    0    0    0  501  0.00000000000E+00  0.00000000000E+00  0.21185170540E+04  0.21185170540E+04  0.25500000920E-02 0.  1.
        2   -1    0    0  501    0  0.00000000000E+00  0.00000000000E+00 -0.14513925443E+04  0.14513925443E+04  0.25500000920E-02 0. -1.
    10030    2    1    2    0    0  0.00000000000E+00  0.00000000000E+00  0.66712450968E+03  0.35699095983E+04  0.35070214469E+04 0.  0.
        3    1    3    3  502    0  0.62051620141E+03  0.11844405519E+04 -0.82117840833E+03  0.15691633967E+04  0.10100000352E+00 0. -1.
       -3    1    3    3    0  502 -0.62051620141E+03 -0.11844405519E+04  0.14883029180E+04  0.20007462016E+04  0.10100000352E+00 0.  1.
</event>
<event>
 5   0  0.1634374E-06  0.2367448E+04  0.7818609E-02  0.8451792E-01
       -1   -1    0    0    0  501  0.00000000000E+00  0.00000000000E+00  0.99970169723E+03  0.99970169725E+03  0.50400001928E-02 0.  1.
        1   -1    0    0  501    0  0.00000000000E+00  0.00000000000E+00 -0.14016200923E+04  0.14016200923E+04  0.50400001928E-02 0. -1.
    10030    2    1    2    0    0  0.00000000000E+00  0.00000000000E+00 -0.40191839506E+03  0.24013217895E+04  0.23674475582E+04 0.  0.
        5    1    3    3  502    0  0.73106152886E+03 -0.87053564523E+03 -0.53567576345E+03  0.12566836842E+04  0.46999998093E+01 0. -1.
       -5    1    3    3    0  502 -0.73106152886E+03  0.87053564523E+03  0.13375736839E+03  0.11446381053E+04  0.46999998093E+01 0.  1.
</event>
<event>
 5   0  0.2382711E-06  0.3510926E+04  0.7818609E-02  0.8111206E-01
       -2   -1    0    0    0  501  0.00000000000E+00  0.00000000000E+00  0.11975647485E+04  0.11975647485E+04  0.25500000920E-02 0.  1.
        2   -1    0    0  501    0  0.00000000000E+00  0.00000000000E+00 -0.25732636167E+04  0.25732636167E+04  0.25500000920E-02 0. -1.
    10030    2    1    2    0    0  0.00000000000E+00  0.00000000000E+00 -0.13756988682E+04  0.37708283652E+04  0.35109256876E+04 0.  0.
        5    1    3    3  502    0 -0.16874298075E+04 -0.88072986402E+02 -0.17675314367E+03  0.16989526096E+04  0.46999998093E+01 0.  1.
       -5    1    3    3    0  502  0.16874298075E+04  0.88072986402E+02 -0.11989457246E+04  0.20718757556E+04  0.46999998093E+01 0. -1.
</event>
<event>
 5   0  0.1566576E-06  0.2168784E+04  0.7818609E-02  0.8531534E-01
       -2   -1    0    0    0  501  0.00000000000E+00  0.00000000000E+00  0.12350886692E+04  0.12350886693E+04  0.25500000920E-02 0.  1.
        2   -1    0    0  501    0  0.00000000000E+00  0.00000000000E+00 -0.95208205088E+03  0.95208205089E+03  0.25500000920E-02 0. -1.
    10030    2    1    2    0    0  0.00000000000E+00  0.00000000000E+00  0.28300661836E+03  0.21871707201E+04  0.21687837635E+04 0.  0.
        4    1    3    3  502    0 -0.91204687240E+03  0.53664565157E+03  0.38033612713E+03  0.11244888774E+04  0.12699999809E+01 0.  1.
       -4    1    3    3    0  502  0.91204687240E+03 -0.53664565157E+03 -0.97329508768E+02  0.10626818428E+04  0.12699999809E+01 0. -1.
</event>
<event>
 5   0  0.1513502E-06  0.2706808E+04  0.7818609E-02  0.8332800E-01
       -2   -1    0    0    0  501  0.00000000000E+00  0.00000000000E+00  0.13069237158E+04  0.13069237158E+04  0.25500000920E-02 0.  1.
        2   -1    0    0  501    0  0.00000000000E+00  0.00000000000E+00 -0.14015368501E+04  0.14015368501E+04  0.25500000920E-02 0. -1.
    10030    2    1    2    0    0  0.00000000000E+00  0.00000000000E+00 -0.94613134273E+02  0.27084605659E+04  0.27068075277E+04 0.  0.
        3    1    3    3  502    0 -0.51340145454E+03  0.35717173592E+03  0.11536551514E+04  0.13122777607E+04  0.10100000352E+00 0.  1.
       -3    1    3    3    0  502  0.51340145454E+03 -0.35717173592E+03 -0.12482682857E+04  0.13961828053E+04  0.10100000352E+00 0. -1.
</event>
<event>
 5   0  0.7754556E-07  0.2356092E+04  0.7818609E-02  0.8456127E-01
       -1   -1    0    0    0  501  0.00000000000E+00  0.00000000000E+00  0.17958440676E+04  0.17958440676E+04  0.50400001928E-02 0. -1.
        1   -1    0    0  501    0  0.00000000000E+00  0.00000000000E+00 -0.77278019788E+03  0.77278019790E+03  0.50400001928E-02 0.  1.
    10030    2    1    2    0    0  0.00000000000E+00  0.00000000000E+00  0.10230638697E+04  0.25686242655E+04  0.23560923021E+04 0.  0.
        4    1    3    3  502    0 -0.66637036929E+03  0.74120165921E+02 -0.54447572955E+03  0.86371216330E+03  0.12699999809E+01 0.  1.
       -4    1    3    3    0  502  0.66637036929E+03 -0.74120165921E+02  0.15675395993E+04  0.17049121022E+04  0.12699999809E+01 0. -1.
</event>
<event>
 5   0  0.2422436E-06  0.3344693E+04  0.7818609E-02  0.8151615E-01
        2   -1    0    0  501    0  0.00000000000E+00  0.00000000000E+00  0.15720919232E+04  0.15720919232E+04  0.25500000920E-02 0.  1.
       -2   -1    0    0    0  501  0.00000000000E+00  0.00000000000E+00 -0.17789946526E+04  0.17789946526E+04  0.25500000920E-02 0. -1.
    10030    2    1    2    0    0  0.00000000000E+00  0.00000000000E+00 -0.20690272949E+03  0.33510865758E+04  0.33446931846E+04 0.  0.
        2    1    3    3  502    0 -0.71391008045E+03  0.99129125492E+03 -0.12477453526E+04  0.17461942675E+04  0.25500000920E-02 0. -1.
       -2    1    3    3    0  502  0.71391008045E+03 -0.99129125492E+03  0.10408426231E+04  0.16048923083E+04  0.25500000920E-02 0.  1.
</event>
<event>
 5   0  0.2382711E-06  0.3350761E+04  0.7818609E-02  0.8150098E-01
        2   -1    0    0  501    0  0.00000000000E+00  0.00000000000E+00  0.21316271021E+04  0.21316271021E+04  0.25500000920E-02 0. -1.
       -2   -1    0    0    0  501  0.00000000000E+00  0.00000000000E+00 -0.13167875896E+04  0.13167875896E+04  0.25500000920E-02 0.  1.
    10030    2    1    2    0    0  0.00000000000E+00  0.00000000000E+00  0.81483951250E+03  0.34484146918E+04  0.33507611755E+04 0.  0.
        5    1    3    3  502    0 -0.32055170459E+03  0.18389860885E+03  0.20891507265E+04  0.21215901918E+04  0.46999998093E+01 0. -1.
       -5    1    3    3    0  502  0.32055170459E+03 -0.18389860885E+03 -0.12743112140E+04  0.13268245000E+04  0.46999998093E+01 0.  1.
</event>
<event>
 5   0  0.1566576E-06  0.2943724E+04  0.7818609E-02  0.8259986E-01
       -2   -1    0    0    0  501  0.00000000000E+00  0.00000000000E+00  0.16368210871E+04  0.16368210871E+04  0.25500000920E-02 0. -1.
        2   -1    0    0  501    0  0.00000000000E+00  0.00000000000E+00 -0.13235278741E+04  0.13235278741E+04  0.25500000920E-02 0.  1.
    10030    2    1    2    0    0  0.00000000000E+00  0.00000000000E+00  0.31329321305E+03  0.29603489612E+04  0.29437243986E+04 0.  0.
        4    1    3    3  502    0  0.22845827353E+03 -0.99438731559E+02  0.16154579155E+04  0.16345602264E+04  0.12699999809E+01 0. -1.
       -4    1    3    3    0  502 -0.22845827353E+03  0.99438731559E+02 -0.13021647025E+04  0.13257887348E+04  0.12699999809E+01 0.  1.
</event>
<event>
 5   0  0.8452742E-07  0.2740247E+04  0.7818609E-02  0.8322063E-01
        1   -1    0    0  501    0  0.00000000000E+00  0.00000000000E+00  0.17476026016E+04  0.17476026017E+04  0.50400001928E-02 0.  1.
       -1   -1    0    0    0  501  0.00000000000E+00  0.00000000000E+00 -0.10741793109E+04  0.10741793109E+04  0.50400001928E-02 0. -1.
    10030    2    1    2    0    0  0.00000000000E+00  0.00000000000E+00  0.67342329078E+03  0.28217819125E+04  0.27402471117E+04 0.  0.
        1    1    3    3  502    0  0.78308960240E+03  0.77568591967E+03 -0.50133432830E+03  0.12108897886E+04  0.50400001928E-02 0. -1.
       -1    1    3    3    0  502 -0.78308960240E+03 -0.77568591967E+03  0.11747576191E+04  0.16108921239E+04  0.50400001928E-02 0.  1.
</event>
<event>
 5   0  0.8452742E-07  0.3523313E+04  0.7818609E-02  0.8108287E-01
        1   -1    0    0  501    0  0.00000000000E+00  0.00000000000E+00  0.20026218915E+04  0.20026218915E+04  0.50400001928E-02 0.  1.
       -1   -1    0    0    0  501  0.00000000000E+00  0.00000000000E+00 -0.15496854662E+04  0.15496854662E+04  0.50400001928E-02 0. -1.
    10030    2    1    2    0    0  0.00000000000E+00  0.00000000000E+00  0.45293642532E+03  0.35523073577E+04  0.35233132359E+04 0.  0.
        1    1    3    3  502    0  0.14520355406E+04  0.98988486122E+03  0.35058606114E+03  0.17919793068E+04  0.50400001928E-02 0.  1.
       -1    1    3    3    0  502 -0.14520355406E+04 -0.98988486122E+03  0.10235036418E+03  0.17603280509E+04  0.50400001928E-02 0. -1.
</event>
<event>
 5   0  0.1566576E-06  0.3725179E+04  0.7818609E-02  0.8062405E-01
        2   -1    0    0  501    0  0.00000000000E+00  0.00000000000E+00  0.13738161177E+04  0.13738161177E+04  0.25500000920E-02 0.  1.
       -2   -1    0    0    0  501  0.00000000000E+00  0.00000000000E+00 -0.25252579020E+04  0.25252579020E+04  0.25500000920E-02 0. -1.
    10030    2    1    2    0    0  0.00000000000E+00  0.00000000000E+00 -0.11514417844E+04  0.38990740197E+04  0.37251791941E+04 0.  0.
        4    1    3    3  502    0 -0.77970824597E+03 -0.16514242751E+04 -0.95899954070E+03  0.20627236405E+04  0.12699999809E+01 0. -1.
       -4    1    3    3    0  502  0.77970824597E+03  0.16514242751E+04 -0.19244224367E+03  0.18363503792E+04  0.12699999809E+01 0.  1.
</event>
<event>
 5   0  0.2536619E-06  0.3311849E+04  0.7818609E-02  0.8159887E-01
        2   -1    0    0  501    0  0.00000000000E+00  0.00000000000E+00  0.13293505992E+04  0.13293505992E+04  0.25500000920E-02 0.  1.
       -2   -1    0    0    0  501  0.00000000000E+00  0.00000000000E+00 -0.20627261836E+04  0.20627261836E+04  0.25500000920E-02 0. -1.
    10030    2    1    2    0    0  0.00000000000E+00  0.00000000000E+00 -0.73337558440E+03  0.33920767827E+04  0.33118492043E+04 0.  0.
        1    1    3    3  502    0 -0.14711913087E+04 -0.23542067127E+02 -0.11447803564E+04  0.18642639728E+04  0.50400001928E-02 0. -1.
       -1    1    3    3    0  502  0.14711913087E+04  0.23542067127E+02  0.41140477199E+03  0.15278128100E+04  0.50400001928E-02 0.  1.
</event>
<event>
 5   0  0.2382711E-06  0.3503192E+04  0.7818609E-02  0.8113034E-01
       -2   -1    0    0    0  501  0.00000000000E+00  0.00000000000E+00  0.13299172033E+04  0.13299172033E+04  0.25500000920E-02 0. -1.
        2   -1    0    0  501    0  0.00000000000E+00  0.00000000000E+00 -0.23069772484E+04  0.23069772484E+04  0.25500000920E-02 0.  1.
    10030    2    1    2    0    0  0.00000000000E+00  0.00000000000E+00 -0.97706004513E+03  0.36368944517E+04  0.35031921045E+04 0.  0.
        5    1    3    3  502    0 -0.93940002122E+03  0.47219926768E+03  0.96587406187E+03  0.14277182291E+04  0.46999998093E+01 0. -1.
       -5    1    3    3    0  502  0.93940002122E+03 -0.47219926768E+03 -0.19429341070E+04  0.22091762226E+04  0.46999998093E+01 0.  1.
</event>
<event>
 5   0  0.8423692E-07  0.1881781E+04  0.7818609E-02  0.8663978E-01
       -1   -1    0    0    0  501  0.00000000000E+00  0.00000000000E+00  0.11511584237E+04  0.11511584237E+04  0.50400001928E-02 0. -1.
        1   -1    0    0  501    0  0.00000000000E+00  0.00000000000E+00 -0.76902986962E+03  0.76902986963E+03  0.50400001928E-02 0.  1.
    10030    2    1    2    0    0  0.00000000000E+00  0.00000000000E+00  0.38212855405E+03  0.19201882933E+04  0.18817812971E+04 0.  0.
        2    1    3    3  502    0  0.30408313568E+03 -0.38279323590E+03 -0.62925771593E+03  0.79684533501E+03  0.25500000920E-02 0.  1.
       -2    1    3    3    0  502 -0.30408313568E+03  0.38279323590E+03  0.10113862700E+04  0.11233429583E+04  0.25500000920E-02 0. -1.
</event>
<event>
 5   0  0.1634374E-06  0.3520317E+04  0.7818609E-02  0.8108992E-01
        1   -1    0    0  501    0  0.00000000000E+00  0.00000000000E+00  0.22910555187E+04  0.22910555187E+04  0.50400001928E-02 0.  1.
       -1   -1    0    0    0  501  0.00000000000E+00  0.00000000000E+00 -0.13522841482E+04  0.13522841482E+04  0.50400001928E-02 0. -1.
    10030    2    1    2    0    0  0.00000000000E+00  0.00000000000E+00  0.93877137053E+03  0.36433396669E+04  0.35203170656E+04 0.  0.
        5    1    3    3  502    0 -0.11435612166E+04 -0.11232642291E+04  0.12219000751E+04  0.20155685719E+04  0.46999998093E+01 0. -1.
       -5    1    3    3    0  502  0.11435612166E+04  0.11232642291E+04 -0.28312870458E+03  0.16277710950E+04  0.46999998093E+01 0.  1.
</event>
<event>
 5   0  0.2422436E-06  0.3605167E+04  0.7818609E-02  0.8089309E-01
        2   -1    0    0  501    0  0.00000000000E+00  0.00000000000E+00  0.17429485846E+04  0.17429485846E+04  0.25500000920E-02 0. -1.
       -2   -1    0    0    0  501  0.00000000000E+00  0.00000000000E+00 -0.18642591611E+04  0.18642591611E+04  0.25500000920E-02 0.  1.
    10030    2    1    2    0    0  0.00000000000E+00  0.00000000000E+00 -0.12131057643E+03  0.36072077457E+04  0.36051673283E+04 0.  0.
        2    1    3    3  502    0  0.12287857812E+04 -0.22398325802E+03  0.12397821433E+04  0.17598700972E+04  0.25500000920E-02 0. -1.
       -2    1    3    3    0  502 -0.12287857812E+04  0.22398325802E+03 -0.13610927198E+04  0.18473376486E+04  0.25500000920E-02 0.  1.
</event>
<event>
 5   0  0.8423692E-07  0.3563232E+04  0.7818609E-02  0.8098966E-01
       -1   -1    0    0    0  501  0.00000000000E+00  0.00000000000E+00  0.19372384062E+04  0.19372384062E+04  0.50400001928E-02 0.  1.
        1   -1    0    0  501    0  0.00000000000E+00  0.00000000000E+00 -0.16384947301E+04  0.16384947302E+04  0.50400001928E-02 0. -1.
    10030    2    1    2    0    0  0.00000000000E+00  0.00000000000E+00  0.29874367601E+03  0.35757331363E+04  0.35632316341E+04 0.  0.
        2    1    3    3  502    0 -0.17522780786E+03 -0.15831118528E+04  0.95042494943E+03  0.18547925780E+04  0.25500000920E-02 0. -1.
       -2    1    3    3    0  502  0.17522780786E+03  0.15831118528E+04 -0.65168127342E+03  0.17209405583E+04  0.25500000920E-02 0.  1.
</event>
<event>
 5   0  0.1513502E-06  0.3650520E+04  0.7818609E-02  0.8079017E-01
        2   -1    0    0  501    0  0.00000000000E+00  0.00000000000E+00  0.18195064517E+04  0.18195064517E+04  0.25500000920E-02 0. -1.
       -2   -1    0    0    0  501  0.00000000000E+00  0.00000000000E+00 -0.18310314679E+04  0.18310314679E+04  0.25500000920E-02 0.  1.
    10030    2    1    2    0    0  0.00000000000E+00  0.00000000000E+00 -0.11525016194E+02  0.36505379196E+04  0.36505197269E+04 0.  0.
        3    1    3    3  502    0 -0.50027721601E+03  0.12128454550E+04 -0.12747456516E+04  0.18292752328E+04  0.10100000352E+00 0.  1.
       -3    1    3    3    0  502  0.50027721601E+03 -0.12128454550E+04  0.12632206354E+04  0.18212626869E+04  0.10100000352E+00 0. -1.
</event>
<event>
 5   0  0.1634374E-06  0.3682073E+04  0.7818609E-02  0.8071946E-01
       -1   -1    0    0    0  501  0.00000000000E+00  0.00000000000E+00  0.20376427825E+04  0.20376427825E+04  0.50400001928E-02 0.  1.
        1   -1    0    0  501    0  0.00000000000E+00  0.00000000000E+00 -0.16634000730E+04  0.16634000730E+04  0.50400001928E-02 0. -1.
    10030    2    1    2    0    0  0.00000000000E+00  0.00000000000E+00  0.37424270949E+03  0.37010428555E+04  0.36820728690E+04 0.  0.
        5    1    3    3  502    0  0.89670024390E+03 -0.11774967150E+03 -0.14247164848E+04  0.16875353225E+04  0.46999998093E+01 0. -1.
       -5    1    3    3    0  502 -0.89670024390E+03  0.11774967150E+03  0.17989591943E+04  0.20135075330E+04  0.46999998093E+01 0.  1.
</event>
<event>
 5   0  0.7754556E-07  0.3533775E+04  0.7818609E-02  0.8105832E-01
       -1   -1    0    0    0  501  0.00000000000E+00  0.00000000000E+00  0.32511169774E+04  0.32511169774E+04  0.50400001928E-02 0.  1.
        1   -1    0    0  501    0  0.00000000000E+00  0.00000000000E+00 -0.96025188309E+03  0.96025188310E+03  0.50400001928E-02 0. -1.
    10030    2    1    2    0    0  0.00000000000E+00  0.00000000000E+00  0.22908650943E+04  0.42113688605E+04  0.35337748654E+04 0.  0.
        4    1    3    3  502    0  0.99390138954E+03 -0.22649396425E+03  0.28653317137E+04  0.30412607469E+04  0.12699999809E+01 0.  1.
       -4    1    3    3    0  502 -0.99390138954E+03  0.22649396425E+03 -0.57446661937E+03  0.11701081137E+04  0.12699999809E+01 0. -1.
</event>
<event>
 5   0  0.2422436E-06  0.2111550E+04  0.7818609E-02  0.8556172E-01
       -2   -1    0    0    0  501  0.00000000000E+00  0.00000000000E+00  0.95995433982E+03  0.95995433982E+03  0.25500000920E-02 0.  1.
        2   -1    0    0  501    0  0.00000000000E+00  0.00000000000E+00 -0.11611604845E+04  0.11611604845E+04  0.25500000920E-02 0. -1.
    10030    2    1    2    0    0  0.00000000000E+00  0.00000000000E+00 -0.20120614465E+03  0.21211148243E+04  0.21115501853E+04 0.  0.
        2    1    3    3  502    0 -0.64261543607E+03 -0.24032770408E+03 -0.90670233191E+03  0.11370229209E+04  0.25500000920E-02 0. -1.
       -2    1    3    3    0  502  0.64261543607E+03  0.24032770408E+03  0.70549618726E+03  0.98409190336E+03  0.25500000920E-02 0.  1.
</event>
<event>
 5   0  0.1634374E-06  0.3615891E+04  0.7818609E-02  0.8086861E-01
        1   -1    0    0  501    0  0.00000000000E+00  0.00000000000E+00  0.20529654181E+04  0.20529654181E+04  0.50400001928E-02 0.  1.
       -1   -1    0    0    0  501  0.00000000000E+00  0.00000000000E+00 -0.15921685111E+04  0.15921685111E+04  0.50400001928E-02 0. -1.
    10030    2    1    2    0    0  0.00000000000E+00  0.00000000000E+00  0.46079690695E+03  0.36451339292E+04  0.36158909791E+04 0.  0.
        5    1    3    3  502    0  0.65883642699E+03 -0.50645512621E+03  0.18490246815E+04  0.20271844009E+04  0.46999998093E+01 0.  1.
       -5    1    3    3    0  502 -0.65883642699E+03  0.50645512621E+03 -0.13882277745E+04  0.16179495284E+04  0.46999998093E+01 0. -1.
</event>
<event>
 5   0  0.1566576E-06  0.3560025E+04  0.7818609E-02  0.8099710E-01
       -2   -1    0    0    0  501  0.00000000000E+00  0.00000000000E+00  0.15878397056E+04  0.15878397056E+04  0.25500000920E-02 0.  1.
        2   -1    0    0  501    0  0.00000000000E+00  0.00000000000E+00 -0.19954438182E+04  0.19954438182E+04  0.25500000920E-02 0. -1.
    10030    2    1    2    0    0  0.00000000000E+00  0.00000000000E+00 -0.40760411255E+03  0.35832835238E+04  0.35600252386E+04 0.  0.
        4    1    3    3  502    0 -0.88421536761E+03 -0.14406771495E+04  0.35756546230E+03  0.17277853275E+04  0.12699999809E+01 0. -1.
       -4    1    3    3    0  502  0.88421536761E+03  0.14406771495E+04 -0.76516957485E+03  0.18554981963E+04  0.12699999809E+01 0.  1.
</event>
<event>
 5   0  0.7754556E-07  0.2046330E+04  0.7818609E-02  0.8585261E-01
       -1   -1    0    0    0  501  0.00000000000E+00  0.00000000000E+00  0.11552154786E+04  0.11552154786E+04  0.50400001928E-02 0.  1.
        1   -1    0    0  501    0  0.00000000000E+00  0.00000000000E+00 -0.90620938879E+03  0.90620938880E+03  0.50400001928E-02 0. -1.
    10030    2    1    2    0    0  0.00000000000E+00  0.00000000000E+00  0.24900608983E+03  0.20614248674E+04  0.20463304844E+04 0.  0.
        4    1    3    3  502    0  0.45581766290E+01  0.10081176849E+04  0.30055904365E+03  0.10519787998E+04  0.12699999809E+01 0.  1.
       -4    1    3    3    0  502 -0.45581766290E+01 -0.10081176849E+04 -0.51552953823E+02  0.10094460677E+04  0.12699999809E+01 0. -1.
</event>
<event>
 5   0  0.2382711E-06  0.2427724E+04  0.7818609E-02  0.8429196E-01
       -2   -1    0    0    0  501  0.00000000000E+00  0.00000000000E+00  0.10470065711E+04  0.10470065711E+04  0.25500000920E-02 0.  1.
        2   -1    0    0  501    0  0.00000000000E+00  0.00000000000E+00 -0.14073086559E+04  0.14073086559E+04  0.25500000920E-02 0. -1.
    10030    2    1    2    0    0  0.00000000000E+00  0.00000000000E+00 -0.36030208475E+03  0.24543152270E+04  0.24277243750E+04 0.  0.
        5    1    3    3  502    0 -0.11326477069E+04  0.43431030186E+03 -0.22448399907E+03  0.12336658470E+04  0.46999998093E+01 0. -1.
       -5    1    3    3    0  502  0.11326477069E+04 -0.43431030186E+03 -0.13581808568E+03  0.12206493799E+04  0.46999998093E+01 0.  1.
</event>
<event>
 5   0  0.1566576E-06  0.1999340E+04  0.7818609E-02  0.8606929E-01
        2   -1    0    0  501    0  0.00000000000E+00  0.00000000000E+00  0.24715447998E+04  0.24715447998E+04  0.25500000920E-02 0.  1.
       -2   -1    0    0    0  501  0.00000000000E+00  0.00000000000E+00 -0.40433826085E+03  0.40433826086E+03  0.25500000920E-02 0. -1.
    10030    2    1    2    0    0  0.00000000000E+00  0.00000000000E+00  0.20672065389E+04  0.28758830607E+04  0.19993400171E+04 0.  0.
        4    1    3    3  502    0 -0.10492572004E+03 -0.69585849756E+03  0.20548889563E+04  0.21720494219E+04  0.12699999809E+01 0.  1.
       -4    1    3    3    0  502  0.10492572004E+03  0.69585849756E+03  0.12317582628E+02  0.70383363879E+03  0.12699999809E+01 0. -1.
</event>
<event>
 5   0  0.2422436E-06  0.3497170E+04  0.7818609E-02  0.8114461E-01
        2   -1    0    0  501    0  0.00000000000E+00  0.00000000000E+00  0.11288894681E+04  0.11288894682E+04  0.25500000920E-02 0. -1.
       -2   -1    0    0    0  501  0.00000000000E+00  0.00000000000E+00 -0.27084580237E+04  0.27084580237E+04  0.25500000920E-02 0.  1.
    10030    2    1    2    0    0  0.00000000000E+00  0.00000000000E+00 -0.15795685556E+04  0.38373474919E+04  0.34971701348E+04 0.  0.
        2    1    3    3  502    0 -0.81052146689E+03  0.15230649928E+04 -0.11018376000E+04  0.20471243531E+04  0.25500000920E-02 0.  1.
       -2    1    3    3    0  502  0.81052146689E+03 -0.15230649928E+04 -0.47773095560E+03  0.17902231387E+04  0.25500000920E-02 0. -1.
</event>
<event>
 5   0  0.1566576E-06  0.3420092E+04  0.7818609E-02  0.8132993E-01
       -2   -1    0    0    0  501  0.00000000000E+00  0.00000000000E+00  0.13315488989E+04  0.13315488989E+04  0.25500000920E-02 0.  1.
        2   -1    0    0  501    0  0.00000000000E+00  0.00000000000E+00 -0.21961316604E+04  0.21961316604E+04  0.25500000920E-02 0. -1.
    10030    2    1    2    0    0  0.00000000000E+00  0.00000000000E+00 -0.86458276149E+03  0.35276805594E+04  0.34200916329E+04 0.  0.
        4    1    3    3  502    0  0.18670365726E+03  0.15170711472E+04  0.35856982075E+03  0.15700117995E+04  0.12699999809E+01 0.  1.
       -4    1    3    3    0  502 -0.18670365726E+03 -0.15170711472E+04 -0.12231525822E+04  0.19576687599E+04  0.12699999809E+01 0. -1.
</event>
<event>
 5   0  0.2382711E-06  0.3565329E+04  0.7818609E-02  0.8098480E-01
        2   -1    0    0  501    0  0.00000000000E+00  0.00000000000E+00  0.23766898487E+04  0.23766898487E+04  0.25500000920E-02 0. -1.
       -2   -1    0    0    0  501  0.00000000000E+00  0.00000000000E+00 -0.13371087615E+04  0.13371087615E+04  0.25500000920E-02 0.  1.
    10030    2    1    2    0    0  0.00000000000E+00  0.00000000000E+00  0.10395810873E+04  0.37137986102E+04  0.35653290564E+04 0.  0.
        5    1    3    3  502    0  0.88625416581E+03  0.45011097651E+03  0.20612190110E+04  0.22883820133E+04  0.46999998093E+01 0. -1.
       -5    1    3    3    0  502 -0.88625416581E+03 -0.45011097651E+03 -0.10216379237E+04  0.14254165969E+04  0.46999998093E+01 0.  1.
</event>
<event>
 5   0  0.1566576E-06  0.3582035E+04  0.7818609E-02  0.8094619E-01
       -2   -1    0    0    0  501  0.00000000000E+00  0.00000000000E+00  0.16297593584E+04  0.16297593584E+04  0.25500000920E-02 0. -1.
        2   -1    0    0  501    0  0.00000000000E+00  0.00000000000E+00 -0.19682314405E+04  0.19682314405E+04  0.25500000920E-02 0.  1.
    10030    2    1    2    0    0  0.00000000000E+00  0.00000000000E+00 -0.33847208211E+03  0.35979907989E+04  0.35820349578E+04 0.  0.
        4    1    3    3  502    0 -0.82949900677E+03 -0.58110659835E+03 -0.16529714419E+04  0.19385741362E+04  0.12699999809E+01 0.  1.
       -4    1    3    3    0  502  0.82949900677E+03  0.58110659835E+03  0.13144993598E+04  0.16594166628E+04  0.12699999809E+01 0. -1.
</event>
<event>
 5   0  0.8423692E-07  0.1871540E+04  0.7818609E-02  0.8669154E-01
       -1   -1    0    0    0  501  0.00000000000E+00  0.00000000000E+00  0.10725514339E+04  0.10725514339E+04  0.50400001928E-02 0.  1.
        1   -1    0    0  501    0  0.00000000000E+00  0.00000000000E+00 -0.81643252521E+03  0.81643252523E+03  0.50400001928E-02 0. -1.
    10030    2    1    2    0    0  0.00000000000E+00  0.00000000000E+00  0.25611890867E+03  0.18889839591E+04  0.18715404090E+04 0.  0.
        2    1    3    3  502    0 -0.41791984035E+02  0.49419496340E+03  0.92898598831E+03  0.10530860355E+04  0.25500000920E-02 0.  1.
       -2    1    3    3    0  502  0.41791984035E+02 -0.49419496340E+03 -0.67286707963E+03  0.83589792358E+03  0.25500000920E-02 0. -1.
</event>
<event>
 5   0  0.2382711E-06  0.3630481E+04  0.7818609E-02  0.8083545E-01
        2   -1    0    0  501    0  0.00000000000E+00  0.00000000000E+00  0.22529681367E+04  0.22529681367E+04  0.25500000920E-02 0. -1.
       -2   -1    0    0    0  501  0.00000000000E+00  0.00000000000E+00 -0.14625585905E+04  0.14625585905E+04  0.25500000920E-02 0.  1.
    10030    2    1    2    0    0  0.00000000000E+00  0.00000000000E+00  0.79040954621E+03  0.37155267272E+04  0.36304809062E+04 0.  0.
        5    1    3    3  502    0 -0.15764322594E+04 -0.49628025756E+01 -0.52582843171E+03  0.16618305953E+04  0.46999998093E+01 0.  1.
       -5    1    3    3    0  502  0.15764322594E+04  0.49628025756E+01  0.13162379779E+04  0.20536961319E+04  0.46999998093E+01 0. -1.
</event>
<event>
 5   0  0.7754556E-07  0.3611842E+04  0.7818609E-02  0.8087785E-01
        1   -1    0    0  501    0  0.00000000000E+00  0.00000000000E+00  0.23598601640E+04  0.23598601640E+04  0.50400001928E-02 0.  1.
       -1   -1    0    0    0  501  0.00000000000E+00  0.00000000000E+00 -0.13820099926E+04  0.13820099926E+04  0.50400001928E-02 0. -1.
    10030    2    1    2    0    0  0.00000000000E+00  0.00000000000E+00  0.97785017134E+03  0.37418701566E+04  0.36118418170E+04 0.  0.
        4    1    3    3  502    0 -0.15684817935E+04 -0.55566778306E+03  0.12159339269E+04  0.20609218203E+04  0.12699999809E+01 0.  1.
       -4    1    3    3    0  502  0.15684817935E+04  0.55566778306E+03 -0.23808375553E+03  0.16809483363E+04  0.12699999809E+01 0. -1.
</event>
<event>
 5   0  0.1566576E-06  0.2023393E+04  0.7818609E-02  0.8595761E-01
       -2   -1    0    0    0  501  0.00000000000E+00  0.00000000000E+00  0.46196964602E+03  0.46196964602E+03  0.25500000920E-02 0.  1.
        2   -1    0    0  501    0  0.00000000000E+00  0.00000000000E+00 -0.22155770413E+04  0.22155770413E+04  0.25500000920E-02 0. -1.
    10030    2    1    2    0    0  0.00000000000E+00  0.00000000000E+00 -0.17536073953E+04  0.26775466873E+04  0.20233925388E+04 0.  0.
        4    1    3    3  502    0  0.88373085609E+03 -0.38468340297E+03 -0.12837385020E+04  0.16052874200E+04  0.12699999809E+01 0. -1.
       -4    1    3    3    0  502 -0.88373085609E+03  0.38468340297E+03 -0.46986889332E+03  0.10722592673E+04  0.12699999809E+01 0.  1.
</event>
<event>
 5   0  0.8452742E-07  0.3498404E+04  0.7818609E-02  0.8114168E-01
        1   -1    0    0  501    0  0.00000000000E+00  0.00000000000E+00  0.19778141053E+04  0.19778141053E+04  0.50400001928E-02 0.  1.
       -1   -1    0    0    0  501  0.00000000000E+00  0.00000000000E+00 -0.15470147796E+04  0.15470147796E+04  0.50400001928E-02 0. -1.
    10030    2    1    2    0    0  0.00000000000E+00  0.00000000000E+00  0.43079932572E+03  0.35248288850E+04  0.34984040089E+04 0.  0.
        1    1    3    3  502    0 -0.61455096037E+03 -0.64704707444E+03 -0.13004124058E+04  0.15771541537E+04  0.50400001928E-02 0. -1.
       -1    1    3    3    0  502  0.61455096037E+03  0.64704707444E+03  0.17312117315E+04  0.19476747312E+04  0.50400001928E-02 0.  1.
</event>
<event>
 5   0  0.1634374E-06  0.3553406E+04  0.7818609E-02  0.8101249E-01
       -1   -1    0    0    0  501  0.00000000000E+00  0.00000000000E+00  0.16925456946E+04  0.16925456946E+04  0.50400001928E-02 0. -1.
        1   -1    0    0  501    0  0.00000000000E+00  0.00000000000E+00 -0.18650442785E+04  0.18650442785E+04  0.50400001928E-02 0.  1.
    10030    2    1    2    0    0  0.00000000000E+00  0.00000000000E+00 -0.17249858390E+03  0.35575899731E+04  0.35534055011E+04 0.  0.
        5    1    3    3  502    0  0.38588458609E+03 -0.20817472065E+03 -0.18100221300E+04  0.18623763930E+04  0.46999998093E+01 0.  1.
       -5    1    3    3    0  502 -0.38588458609E+03  0.20817472065E+03  0.16375235461E+04  0.16952135801E+04  0.46999998093E+01 0. -1.
</event>
<event>
 5   0  0.8452742E-07  0.2156995E+04  0.7818609E-02  0.8536544E-01
       -1   -1    0    0    0  501  0.00000000000E+00  0.00000000000E+00  0.10231105781E+04  0.10231105781E+04  0.50400001928E-02 0.  1.
        1   -1    0    0  501    0  0.00000000000E+00  0.00000000000E+00 -0.11368833262E+04  0.11368833262E+04  0.50400001928E-02 0. -1.
    10030    2    1    2    0    0  0.00000000000E+00  0.00000000000E+00 -0.11377274808E+03  0.21599939043E+04  0.21569954632E+04 0.  0.
        1    1    3    3  502    0 -0.66095241853E+03  0.81784815498E+03  0.18307906760E+03  0.10673573203E+04  0.50400001928E-02 0.  1.
       -1    1    3    3    0  502  0.66095241853E+03 -0.81784815498E+03 -0.29685181568E+03  0.10926365840E+04  0.50400001928E-02 0. -1.
</event>
<event>
 5   0  0.2422436E-06  0.3695998E+04  0.7818609E-02  0.8068849E-01
       -2   -1    0    0    0  501  0.00000000000E+00  0.00000000000E+00  0.28882989813E+04  0.28882989813E+04  0.25500000920E-02 0.  1.
        2   -1    0    0  501    0  0.00000000000E+00  0.00000000000E+00 -0.11823913508E+04  0.11823913508E+04  0.25500000920E-02 0. -1.
    10030    2    1    2    0    0  0.00000000000E+00  0.00000000000E+00  0.17059076306E+04  0.40706903321E+04  0.36959976915E+04 0.  0.
        2    1    3    3  502    0 -0.17188024786E+04 -0.56405096748E+01  0.10532506760E+03  0.17220357562E+04  0.25500000920E-02 0. -1.
       -2    1    3    3    0  502  0.17188024786E+04  0.56405096748E+01  0.16005825630E+04  0.23486545759E+04  0.25500000920E-02 0.  1.
</event>
<event>
 5   0  0.1566576E-06  0.3184076E+04  0.7818609E-02  0.8193035E-01
        2   -1    0    0  501    0  0.00000000000E+00  0.00000000000E+00  0.17909100155E+04  0.17909100155E+04  0.25500000920E-02 0.  1.
       -2   -1    0    0    0  501  0.00000000000E+00  0.00000000000E+00 -0.14152495744E+04  0.14152495744E+04  0.25500000920E-02 0. -1.
    10030    2    1    2    0    0  0.00000000000E+00  0.00000000000E+00  0.37566044105E+03  0.32061595899E+04  0.31840757763E+04 0.  0.
        4    1    3    3  502    0 -0.14137374409E+04 -0.40716583651E+03  0.80044567896E+03  0.16748589397E+04  0.12699999809E+01 0.  1.
       -4    1    3    3    0  502  0.14137374409E+04  0.40716583651E+03 -0.42478523791E+03  0.15313006502E+04  0.12699999809E+01 0. -1.
</event>
<event>
 5   0  0.1566576E-06  0.3584920E+04  0.7818609E-02  0.8093955E-01
        2   -1    0    0  501    0  0.00000000000E+00  0.00000000000E+00  0.18509057305E+04  0.18509057305E+04  0.25500000920E-02 0. -1.
       -2   -1    0    0    0  501  0.00000000000E+00  0.00000000000E+00 -0.17358601055E+04  0.17358601055E+04  0.25500000920E-02 0.  1.
    10030    2    1    2    0    0  0.00000000000E+00  0.00000000000E+00  0.11504562501E+03  0.35867658359E+04  0.35849203152E+04 0.  0.
        4    1    3    3  502    0 -0.71371243718E+03  0.38316208997E+03 -0.15422728771E+04  0.17420694218E+04  0.12699999809E+01 0.  1.
       -4    1    3    3    0  502  0.71371243718E+03 -0.38316208997E+03  0.16573185021E+04  0.18446964141E+04  0.12699999809E+01 0. -1.
</event>
<event>
 5   0  0.8452742E-07  0.2042763E+04  0.7818609E-02  0.8586885E-01
        1   -1    0    0  501    0  0.00000000000E+00  0.00000000000E+00  0.10599007540E+04  0.10599007540E+04  0.50400001928E-02 0.  1.
       -1   -1    0    0    0  501  0.00000000000E+00  0.00000000000E+00 -0.98426201858E+03  0.98426201859E+03  0.50400001928E-02 0. -1.
    10030    2    1    2    0    0  0.00000000000E+00  0.00000000000E+00  0.75638735458E+02  0.20441627726E+04  0.20427628895E+04 0.  0.
        1    1    3    3  502    0 -0.27879977019E+03 -0.36468130694E+02  0.10204091752E+04  0.10584394746E+04  0.50400001928E-02 0.  1.
       -1    1    3    3    0  502  0.27879977019E+03  0.36468130694E+02 -0.94477043978E+03  0.98572329805E+03  0.50400001928E-02 0. -1.
</event>
<event>
 5   0  0.8423692E-07  0.3584923E+04  0.7818609E-02  0.8093954E-01
        1   -1    0    0  501    0  0.00000000000E+00  0.00000000000E+00  0.22759874832E+04  0.22759874832E+04  0.50400001928E-02 0. -1.
       -1   -1    0    0    0  501  0.00000000000E+00  0.00000000000E+00 -0.14116591126E+04  0.14116591126E+04  0.50400001928E-02 0.  1.
    10030    2    1    2    0    0  0.00000000000E+00  0.00000000000E+00  0.86432837063E+03  0.36876465958E+04  0.35849231349E+04 0.  0.
        2    1    3    3  502    0 -0.15175881502E+04 -0.76781779457E+03  0.10143320939E+04  0.19802746163E+04  0.25500000920E-02 0. -1.
       -2    1    3    3    0  502  0.15175881502E+04  0.76781779457E+03 -0.15000372329E+03  0.17073719795E+04  0.25500000920E-02 0.  1.
</event>
<event>
 5   0  0.1513502E-06  0.2131459E+04  0.7818609E-02  0.8547511E-01
        2   -1    0    0  501    0  0.00000000000E+00  0.00000000000E+00  0.12268377821E+04  0.12268377821E+04  0.25500000920E-02 0. -1.
       -2   -1    0    0    0  501  0.00000000000E+00  0.00000000000E+00 -0.92577773810E+03  0.92577773811E+03  0.25500000920E-02 0.  1.
    10030    2    1    2    0    0  0.00000000000E+00  0.00000000000E+00  0.30106004399E+03  0.21526155202E+04  0.21314587558E+04 0.  0.
        3    1    3    3  502    0  0.67234442351E+03 -0.44364201971E+03 -0.55418834311E+03  0.97774740875E+03  0.10100000352E+00 0.  1.
       -3    1    3    3    0  502 -0.67234442351E+03  0.44364201971E+03  0.85524838710E+03  0.11748681115E+04  0.10100000352E+00 0. -1.
</event>
<event>
 5   0  0.1908273E-06  0.3601901E+04  0.7818609E-02  0.8090056E-01
       -1   -1    0    0    0  501  0.00000000000E+00  0.00000000000E+00  0.17467249955E+04  0.17467249955E+04  0.50400001928E-02 0. -1.
        1   -1    0    0  501    0  0.00000000000E+00  0.00000000000E+00 -0.18568594250E+04  0.18568594250E+04  0.50400001928E-02 0.  1.
    10030    2    1    2    0    0  0.00000000000E+00  0.00000000000E+00 -0.11013442951E+03  0.36035844204E+04  0.36019010373E+04 0.  0.
        3    1    3    3  502    0 -0.10257759625E+04 -0.92588272225E+02 -0.15331316496E+04  0.18469655056E+04  0.10100000352E+00 0.  1.
       -3    1    3    3    0  502  0.10257759625E+04  0.92588272225E+02  0.14229972201E+04  0.17566189149E+04  0.10100000352E+00 0. -1.
</event>
<event>
 5   0  0.2382711E-06  0.3357681E+04  0.7818609E-02  0.8148372E-01
        2   -1    0    0  501    0  0.00000000000E+00  0.00000000000E+00  0.18693022336E+04  0.18693022336E+04  0.25500000920E-02 0.  1.
       -2   -1    0    0    0  501  0.00000000000E+00  0.00000000000E+00 -0.15077849703E+04  0.15077849703E+04  0.25500000920E-02 0. -1.
    10030    2    1    2    0    0  0.00000000000E+00  0.00000000000E+00  0.36151726325E+03  0.33770872039E+04  0.33576812313E+04 0.  0.
        5    1    3    3  502    0  0.94300174895E+03 -0.12944481316E+04  0.68729169245E+03  0.17427679778E+04  0.46999998093E+01 0.  1.
       -5    1    3    3    0  502 -0.94300174895E+03  0.12944481316E+04 -0.32577442920E+03  0.16343192261E+04  0.46999998093E+01 0. -1.
</event>
<event>
 5   0  0.1513502E-06  0.2655878E+04  0.7818609E-02  0.8349465E-01
       -2   -1    0    0    0  501  0.00000000000E+00  0.00000000000E+00  0.10872992514E+04  0.10872992514E+04  0.25500000920E-02 0. -1.
        2   -1    0    0  501    0  0.00000000000E+00  0.00000000000E+00 -0.16218365352E+04  0.16218365352E+04  0.25500000920E-02 0.  1.
    10030    2    1    2    0    0  0.00000000000E+00  0.00000000000E+00 -0.53453728373E+03  0.27091357866E+04  0.26558777461E+04 0.  0.
        3    1    3    3  502    0  0.51064639029E+03 -0.20662500118E+03 -0.14997897441E+04  0.15977555863E+04  0.10100000352E+00 0.  1.
       -3    1    3    3    0  502 -0.51064639029E+03  0.20662500118E+03  0.96525246036E+03  0.11113802002E+04  0.10100000352E+00 0. -1.
</event>
<event>
 5   0  0.8452742E-07  0.3651054E+04  0.7818609E-02  0.8078896E-01
        1   -1    0    0  501    0  0.00000000000E+00  0.00000000000E+00  0.28093296572E+04  0.28093296572E+04  0.50400001928E-02 0.  1.
       -1   -1    0    0    0  501  0.00000000000E+00  0.00000000000E+00 -0.11862432360E+04  0.11862432360E+04  0.50400001928E-02 0. -1.
    10030    2    1    2    0    0  0.00000000000E+00  0.00000000000E+00  0.16230864212E+04  0.39955728933E+04  0.36510537129E+04 0.  0.
        1    1    3    3  502    0 -0.80136861469E+03 -0.11066604457E+04 -0.51333924998E+03  0.14595911017E+04  0.50400001928E-02 0. -1.
       -1    1    3    3    0  502  0.80136861469E+03  0.11066604457E+04  0.21364256712E+04  0.25359817916E+04  0.50400001928E-02 0.  1.
</event>
<event>
 5   0  0.8452742E-07  0.3643274E+04  0.7818609E-02  0.8080651E-01
       -1   -1    0    0    0  501  0.00000000000E+00  0.00000000000E+00  0.13218122675E+04  0.13218122675E+04  0.50400001928E-02 0.  1.
        1   -1    0    0  501    0  0.00000000000E+00  0.00000000000E+00 -0.25104632692E+04  0.25104632692E+04  0.50400001928E-02 0. -1.
    10030    2    1    2    0    0  0.00000000000E+00  0.00000000000E+00 -0.11886510017E+04  0.38322755367E+04  0.36432738829E+04 0.  0.
        1    1    3    3  502    0 -0.42847823054E+03 -0.32071406631E+03  0.12372425612E+04  0.13480431231E+04  0.50400001928E-02 0.  1.
       -1    1    3    3    0  502  0.42847823054E+03  0.32071406631E+03 -0.24258935629E+04  0.24842324137E+04  0.50400001928E-02 0. -1.
</event>
<event>
 5   0  0.8452742E-07  0.3578681E+04  0.7818609E-02  0.8095393E-01
        1   -1    0    0  501    0  0.00000000000E+00  0.00000000000E+00  0.11852614561E+04  0.11852614561E+04  0.50400001928E-02 0. -1.
       -1   -1    0    0    0  501  0.00000000000E+00  0.00000000000E+00 -0.27012934121E+04  0.27012934121E+04  0.50400001928E-02 0.  1.
    10030    2    1    2    0    0  0.00000000000E+00  0.00000000000E+00 -0.15160319560E+04  0.38865548682E+04  0.35786807418E+04 0.  0.
        1    1    3    3  502    0 -0.10464162862E+04  0.60307304691E+03  0.67581305483E+03  0.13839824525E+04  0.50400001928E-02 0. -1.
       -1    1    3    3    0  502  0.10464162862E+04 -0.60307304691E+03 -0.21918450109E+04  0.25025724156E+04  0.50400001928E-02 0.  1.
</event>
<event>
 5   0  0.2382711E-06  0.3584560E+04  0.7818609E-02  0.8094038E-01
       -2   -1    0    0    0  501  0.00000000000E+00  0.00000000000E+00  0.13077618094E+04  0.13077618094E+04  0.25500000920E-02 0.  1.
        2   -1    0    0  501    0  0.00000000000E+00  0.00000000000E+00 -0.24563087769E+04  0.24563087769E+04  0.25500000920E-02 0. -1.
    10030    2    1    2    0    0  0.00000000000E+00  0.00000000000E+00 -0.11485469676E+04  0.37640705863E+04  0.35845595604E+04 0.  0.
        5    1    3    3  502    0 -0.98517860730E+03 -0.14457578488E+04 -0.98293107597E+03  0.20067307332E+04  0.46999998093E+01 0. -1.
       -5    1    3    3    0  502  0.98517860730E+03  0.14457578488E+04 -0.16561589163E+03  0.17573398531E+04  0.46999998093E+01 0.  1.
</event>
<event>
 5   0  0.8423692E-07  0.1816356E+04  0.7818609E-02  0.8697650E-01
        1   -1    0    0  501    0  0.00000000000E+00  0.00000000000E+00  0.12947482615E+04  0.12947482615E+04  0.50400001928E-02 0.  1.
       -1   -1    0    0    0  501  0.00000000000E+00  0.00000000000E+00 -0.63702522658E+03  0.63702522660E+03  0.50400001928E-02 0. -1.
    10030    2    1    2    0    0  0.00000000000E+00  0.00000000000E+00  0.65772303489E+03  0.19317734881E+04  0.18163560275E+04 0.  0.
        2    1    3    3  502    0  0.50594674049E+03 -0.72221747378E+02 -0.46956795680E+03  0.69404045348E+03  0.25500000920E-02 0. -1.
       -2    1    3    3    0  502 -0.50594674049E+03  0.72221747378E+02  0.11272909917E+04  0.12377330346E+04  0.25500000920E-02 0.  1.
</event>
<event>
 5   0  0.8423692E-07  0.3646039E+04  0.7818609E-02  0.8080027E-01
       -1   -1    0    0    0  501  0.00000000000E+00  0.00000000000E+00  0.16193826448E+04  0.16193826448E+04  0.50400001928E-02 0. -1.
        1   -1    0    0  501    0  0.00000000000E+00  0.00000000000E+00 -0.20522638507E+04  0.20522638507E+04  0.50400001928E-02 0.  1.
    10030    2    1    2    0    0  0.00000000000E+00  0.00000000000E+00 -0.43288120585E+03  0.36716464955E+04  0.36460392002E+04 0.  0.
        2    1    3    3  502    0 -0.57485745190E+02 -0.13937471078E+04 -0.13983809381E+04  0.19751721089E+04  0.25500000920E-02 0.  1.
       -2    1    3    3    0  502  0.57485745190E+02  0.13937471078E+04  0.96549973229E+03  0.16964743866E+04  0.25500000920E-02 0. -1.
</event>
<event>
 5   0  0.1513502E-06  0.3661367E+04  0.7818609E-02  0.8076578E-01
       -2   -1    0    0    0  501  0.00000000000E+00  0.00000000000E+00  0.97320473355E+03  0.97320473355E+03  0.25500000920E-02 0. -1.
        2   -1    0    0  501    0  0.00000000000E+00  0.00000000000E+00 -0.34436754318E+04  0.34436754318E+04  0.25500000920E-02 0.  1.
    10030    2    1    2    0    0  0.00000000000E+00  0.00000000000E+00 -0.24704706983E+04  0.44168801654E+04  0.36613665378E+04 0.  0.
        3    1    3    3  502    0  0.92290136662E+03  0.12551153949E+04 -0.23950489465E+04  0.28571526129E+04  0.10100000352E+00 0.  1.
       -3    1    3    3    0  502 -0.92290136662E+03 -0.12551153949E+04 -0.75421751744E+02  0.15597275525E+04  0.10100000352E+00 0. -1.
</event>
<event>
 5   0  0.1566576E-06  0.3383926E+04  0.7818609E-02  0.8141863E-01
       -2   -1    0    0    0  501  0.00000000000E+00  0.00000000000E+00  0.13015146220E+04  0.13015146220E+04  0.25500000920E-02 0. -1.
        2   -1    0    0  501    0  0.00000000000E+00  0.00000000000E+00 -0.21995446419E+04  0.21995446419E+04  0.25500000920E-02 0.  1.
    10030    2    1    2    0    0  0.00000000000E+00  0.00000000000E+00 -0.89803001990E+03  0.35010592638E+04  0.33839264254E+04 0.  0.
        4    1    3    3  502    0  0.77729375176E+03  0.14924156402E+04 -0.63190453564E+03  0.17974412298E+04  0.12699999809E+01 0.  1.
       -4    1    3    3    0  502 -0.77729375176E+03 -0.14924156402E+04 -0.26612548426E+03  0.17036180340E+04  0.12699999809E+01 0. -1.
</event>
<event>
 5   0  0.1566576E-06  0.2995072E+04  0.7818609E-02  0.8245140E-01
        2   -1    0    0  501    0  0.00000000000E+00  0.00000000000E+00  0.14464257641E+04  0.14464257641E+04  0.25500000920E-02 0. -1.
       -2   -1    0    0    0  501  0.00000000000E+00  0.00000000000E+00 -0.15504517893E+04  0.15504517893E+04  0.25500000920E-02 0.  1.
    10030    2    1    2    0    0  0.00000000000E+00  0.00000000000E+00 -0.10402602515E+03  0.29968775534E+04  0.29950715611E+04 0.  0.
        4    1    3    3  502    0  0.38046504570E+02 -0.10910083760E+04  0.97372218144E+03  0.14628340004E+04  0.12699999809E+01 0. -1.
       -4    1    3    3    0  502 -0.38046504570E+02  0.10910083760E+04 -0.10777482066E+04  0.15340435531E+04  0.12699999809E+01 0.  1.
</event>
<event>
 5   0  0.1634374E-06  0.3740935E+04  0.7818609E-02  0.8058950E-01
       -1   -1    0    0    0  501  0.00000000000E+00  0.00000000000E+00  0.17355601204E+04  0.17355601204E+04  0.50400001928E-02 0.  1.
        1   -1    0    0  501    0  0.00000000000E+00  0.00000000000E+00 -0.20158612045E+04  0.20158612045E+04  0.50400001928E-02 0. -1.
    10030    2    1    2    0    0  0.00000000000E+00  0.00000000000E+00 -0.28030108411E+03  0.37514213250E+04  0.37409348109E+04 0.  0.
        5    1    3    3  502    0  0.44113810498E+03 -0.77483506985E+03 -0.17890389297E+04  0.19989133536E+04  0.46999998093E+01 0. -1.
       -5    1    3    3    0  502 -0.44113810498E+03  0.77483506985E+03  0.15087378456E+04  0.17525079714E+04  0.46999998093E+01 0.  1.
</event>
<event>
 5   0  0.8452742E-07  0.3620558E+04  0.7818609E-02  0.8085799E-01
        1   -1    0    0  501    0  0.00000000000E+00  0.00000000000E+00  0.25186697080E+04  0.25186697080E+04  0.50400001928E-02 0.  1.
       -1   -1    0    0    0  501  0.00000000000E+00  0.00000000000E+00 -0.13011271324E+04  0.13011271324E+04  0.50400001928E-02 0. -1.
    10030    2    1    2    0    0  0.00000000000E+00  0.00000000000E+00  0.12175425756E+04  0.38197968404E+04  0.36205576889E+04 0.  0.
        1    1    3    3  502    0 -0.47414362478E+03 -0.80664191218E+03 -0.10262277244E+04  0.13887500473E+04  0.50400001928E-02 0. -1.
       -1    1    3    3    0  502  0.47414362478E+03  0.80664191218E+03  0.22437703000E+04  0.24310467931E+04  0.50400001928E-02 0.  1.
</event>
<event>
 5   0  0.1566576E-06  0.2668500E+04  0.7818609E-02  0.8345299E-01
       -2   -1    0    0    0  501  0.00000000000E+00  0.00000000000E+00  0.13737237205E+04  0.13737237205E+04  0.25500000920E-02 0.  1.
        2   -1    0    0  501    0  0.00000000000E+00  0.00000000000E+00 -0.12959102915E+04  0.12959102915E+04  0.25500000920E-02 0. -1.
    10030    2    1    2    0    0  0.00000000000E+00  0.00000000000E+00  0.77813428999E+02  0.26696340120E+04  0.26684997337E+04 0.  0.
        4    1    3    3  502    0 -0.12482785777E+04 -0.19459503949E+03  0.46822133657E+03  0.13473304977E+04  0.12699999809E+01 0.  1.
       -4    1    3    3    0  502  0.12482785777E+04  0.19459503949E+03 -0.39040790757E+03  0.13223035144E+04  0.12699999809E+01 0. -1.
</event>
<event>
 5   0  0.1513502E-06  0.3525229E+04  0.7818609E-02  0.8107837E-01
        2   -1    0    0  501    0  0.00000000000E+00  0.00000000000E+00  0.21311180069E+04  0.21311180069E+04  0.25500000920E-02 0. -1.
       -2   -1    0    0    0  501  0.00000000000E+00  0.00000000000E+00 -0.14578307333E+04  0.14578307333E+04  0.25500000920E-02 0.  1.
    10030    2    1    2    0    0  0.00000000000E+00  0.00000000000E+00  0.67328727357E+03  0.35889487403E+04  0.35252286887E+04 0.  0.
        3    1    3    3  502    0 -0.11967169637E+04  0.12848977334E+04  0.17986120839E+03  0.17650619652E+04  0.10100000352E+00 0.  1.
       -3    1    3    3    0  502  0.11967169637E+04 -0.12848977334E+04  0.49342606518E+03  0.18238867751E+04  0.10100000352E+00 0. -1.
</event>
<event>
 5   0  0.1634374E-06  0.3249369E+04  0.7818609E-02  0.8175899E-01
        1   -1    0    0  501    0  0.00000000000E+00  0.00000000000E+00  0.13260390753E+04  0.13260390753E+04  0.50400001928E-02 0. -1.
       -1   -1    0    0    0  501  0.00000000000E+00  0.00000000000E+00 -0.19905898589E+04  0.19905898589E+04  0.50400001928E-02 0.  1.
    10030    2    1    2    0    0  0.00000000000E+00  0.00000000000E+00 -0.66455078364E+03  0.33166289342E+04  0.32493691300E+04 0.  0.
        5    1    3    3  502    0  0.53388566638E+03  0.13318107222E+04  0.44561814745E+03  0.15024484443E+04  0.46999998093E+01 0. -1.
       -5    1    3    3    0  502 -0.53388566638E+03 -0.13318107222E+04 -0.11101689311E+04  0.18141804899E+04  0.46999998093E+01 0.  1.
</event>
<event>
 5   0  0.8452742E-07  0.2266945E+04  0.7818609E-02  0.8491069E-01
       -1   -1    0    0    0  501  0.00000000000E+00  0.00000000000E+00  0.92838458165E+03  0.92838458166E+03  0.50400001928E-02 0. -1.
        1   -1    0    0  501    0  0.00000000000E+00  0.00000000000E+00 -0.13838665511E+04  0.13838665511E+04  0.50400001928E-02 0.  1.
    10030    2    1    2    0    0  0.00000000000E+00  0.00000000000E+00 -0.45548196945E+03  0.23122511328E+04  0.22669454066E+04 0.  0.
        1    1    3    3  502    0  0.89043588224E+03  0.62611450791E+03  0.94588804437E+02  0.10926309896E+04  0.50400001928E-02 0. -1.
       -1    1    3    3    0  502 -0.89043588224E+03 -0.62611450791E+03 -0.55007077389E+03  0.12196201432E+04  0.50400001928E-02 0.  1.
</event>
<event>
 5   0  0.2422436E-06  0.3571502E+04  0.7818609E-02  0.8097051E-01
       -2   -1    0    0    0  501  0.00000000000E+00  0.00000000000E+00  0.13172711596E+04  0.13172711596E+04  0.25500000920E-02 0. -1.
        2   -1    0    0  501    0  0.00000000000E+00  0.00000000000E+00 -0.24208430403E+04  0.24208430403E+04  0.25500000920E-02 0.  1.
    10030    2    1    2    0    0  0.00000000000E+00  0.00000000000E+00 -0.11035718807E+04  0.37381141999E+04  0.35715020476E+04 0.  0.
        2    1    3    3  502    0 -0.75060642228E+03 -0.59847867301E+03 -0.21277926809E+04  0.23343282580E+04  0.25500000920E-02 0.  1.
       -2    1    3    3    0  502  0.75060642228E+03  0.59847867301E+03  0.10242208002E+04  0.14037859419E+04  0.25500000920E-02 0. -1.
</event>
<event>
 5   0  0.1513502E-06  0.3947933E+04  0.7818609E-02  0.8015133E-01
       -2   -1    0    0    0  501  0.00000000000E+00  0.00000000000E+00  0.13193779731E+04  0.13193779731E+04  0.25500000920E-02 0.  1.
        2   -1    0    0  501    0  0.00000000000E+00  0.00000000000E+00 -0.29533187139E+04  0.29533187139E+04  0.25500000920E-02 0. -1.
    10030    2    1    2    0    0  0.00000000000E+00  0.00000000000E+00 -0.16339407408E+04  0.42726966869E+04  0.39479329571E+04 0.  0.
        3    1    3    3  502    0 -0.13459538693E+03 -0.10038963491E+04  0.10166952262E+04  0.14351282142E+04  0.10100000352E+00 0.  1.
       -3    1    3    3    0  502  0.13459538693E+03  0.10038963491E+04 -0.26506359670E+04  0.28375684728E+04  0.10100000352E+00 0. -1.
</event>
<event>
 5   0  0.1566576E-06  0.2362204E+04  0.7818609E-02  0.8453791E-01
        2   -1    0    0  501    0  0.00000000000E+00  0.00000000000E+00  0.17584829255E+04  0.17584829255E+04  0.25500000920E-02 0.  1.
       -2   -1    0    0    0  501  0.00000000000E+00  0.00000000000E+00 -0.79329882135E+03  0.79329882136E+03  0.25500000920E-02 0. -1.
    10030    2    1    2    0    0  0.00000000000E+00  0.00000000000E+00  0.96518410417E+03  0.25517817469E+04  0.23622044215E+04 0.  0.
        4    1    3    3  502    0 -0.30867511285E+03  0.96991053668E+03  0.11298384925E+04  0.15207049045E+04  0.12699999809E+01 0. -1.
       -4    1    3    3    0  502  0.30867511285E+03 -0.96991053668E+03 -0.16465438832E+03  0.10310768424E+04  0.12699999809E+01 0.  1.
</event>
<event>
 5   0  0.1566576E-06  0.2212843E+04  0.7818609E-02  0.8513102E-01
       -2   -1    0    0    0  501  0.00000000000E+00  0.00000000000E+00  0.11738563865E+04  0.11738563865E+04  0.25500000920E-02 0.  1.
        2   -1    0    0  501    0  0.00000000000E+00  0.00000000000E+00 -0.10428603314E+04  0.10428603314E+04  0.25500000920E-02 0. -1.
    10030    2    1    2    0    0  0.00000000000E+00  0.00000000000E+00  0.13099605503E+03  0.22167167179E+04  0.22128427511E+04 0.  0.
        4    1    3    3  502    0  0.71001873134E+03 -0.49117042731E+02 -0.78311403240E+03  0.10582099430E+04  0.12699999809E+01 0. -1.
       -4    1    3    3    0  502 -0.71001873134E+03  0.49117042731E+02  0.91411008743E+03  0.11585067749E+04  0.12699999809E+01 0.  1.
</event>
<event>
 5   0  0.1513502E-06  0.3226463E+04  0.7818609E-02  0.8181863E-01
       -2   -1    0    0    0  501  0.00000000000E+00  0.00000000000E+00  0.16168511157E+04  0.16168511157E+04  0.25500000920E-02 0. -1.
        2   -1    0    0  501    0  0.00000000000E+00  0.00000000000E+00 -0.16096200922E+04  0.16096200922E+04  0.25500000920E-02 0.  1.
    10030    2    1    2    0    0  0.00000000000E+00  0.00000000000E+00  0.72310234632E+01  0.32264712080E+04  0.32264631050E+04 0.  0.
        3    1    3    3  502    0 -0.13786185930E+04 -0.44727382672E+03  0.71204719618E+03  0.16148233095E+04  0.10100000352E+00 0.  1.
       -3    1    3    3    0  502  0.13786185930E+04  0.44727382672E+03 -0.70481617271E+03  0.16116478985E+04  0.10100000352E+00 0. -1.
</event>
<event>
 5   0  0.1513502E-06  0.3406467E+04  0.7818609E-02  0.8136321E-01
       -2   -1    0    0    0  501  0.00000000000E+00  0.00000000000E+00  0.99715470144E+03  0.99715470144E+03  0.25500000920E-02 0. -1.
        2   -1    0    0  501    0  0.00000000000E+00  0.00000000000E+00 -0.29092825181E+04  0.29092825181E+04  0.25500000920E-02 0.  1.
    10030    2    1    2    0    0  0.00000000000E+00  0.00000000000E+00 -0.19121278166E+04  0.39064372195E+04  0.34064672261E+04 0.  0.
        3    1    3    3  502    0 -0.65197573390E+03  0.66092472715E+03 -0.25936232805E+04  0.27547732364E+04  0.10100000352E+00 0.  1.
       -3    1    3    3    0  502  0.65197573390E+03 -0.66092472715E+03  0.68149546386E+03  0.11516639831E+04  0.10100000352E+00 0. -1.
</event>
<event>
 5   0  0.8423692E-07  0.3678725E+04  0.7818609E-02  0.8072693E-01
        1   -1    0    0  501    0  0.00000000000E+00  0.00000000000E+00  0.20673981742E+04  0.20673981742E+04  0.50400001928E-02 0. -1.
       -1   -1    0    0    0  501  0.00000000000E+00  0.00000000000E+00 -0.16364793299E+04  0.16364793299E+04  0.50400001928E-02 0.  1.
    10030    2    1    2    0    0  0.00000000000E+00  0.00000000000E+00  0.43091884430E+03  0.37038775042E+04  0.36787249851E+04 0.  0.
        2    1    3    3  502    0 -0.13416509847E+04  0.47155220868E+03  0.13899969561E+04  0.19885875360E+04  0.25500000920E-02 0. -1.
       -2    1    3    3    0  502  0.13416509847E+04 -0.47155220868E+03 -0.95907811183E+03  0.17152899682E+04  0.25500000920E-02 0.  1.
</event>
<event>
 5   0  0.1513502E-06  0.3575425E+04  0.7818609E-02  0.8096144E-01
        2   -1    0    0  501    0  0.00000000000E+00  0.00000000000E+00  0.19762162830E+04  0.19762162830E+04  0.25500000920E-02 0.  1.
       -2   -1    0    0    0  501  0.00000000000E+00  0.00000000000E+00 -0.16171893377E+04  0.16171893377E+04  0.25500000920E-02 0. -1.
    10030    2    1    2    0    0  0.00000000000E+00  0.00000000000E+00  0.35902694523E+03  0.35934056207E+04  0.35754249548E+04 0.  0.
        3    1    3    3  502    0  0.10024722779E+04  0.14735705579E+04  0.38970909126E+02  0.17826608200E+04  0.10100000352E+00 0. -1.
       -3    1    3    3    0  502 -0.10024722779E+04 -0.14735705579E+04  0.32005603610E+03  0.18107448008E+04  0.10100000352E+00 0.  1.
</event>
<event>
 5   0  0.1634374E-06  0.3573280E+04  0.7818609E-02  0.8096640E-01
       -1   -1    0    0    0  501  0.00000000000E+00  0.00000000000E+00  0.28034804335E+04  0.28034804335E+04  0.50400001928E-02 0. -1.
        1   -1    0    0  501    0  0.00000000000E+00  0.00000000000E+00 -0.11386143666E+04  0.11386143666E+04  0.50400001928E-02 0.  1.
    10030    2    1    2    0    0  0.00000000000E+00  0.00000000000E+00  0.16648660669E+04  0.39420948001E+04  0.35732803405E+04 0.  0.
        5    1    3    3  502    0  0.24520740063E+03 -0.17310098055E+04  0.12385889095E+04  0.21425793317E+04  0.46999998093E+01 0. -1.
       -5    1    3    3    0  502 -0.24520740063E+03  0.17310098055E+04  0.42627715744E+03  0.17995154684E+04  0.46999998093E+01 0.  1.
</event>
<event>
 5   0  0.1908273E-06  0.3561218E+04  0.7818609E-02  0.8099433E-01
       -1   -1    0    0    0  501  0.00000000000E+00  0.00000000000E+00  0.14085622313E+04  0.14085622313E+04  0.50400001928E-02 0.  1.
        1   -1    0    0  501    0  0.00000000000E+00  0.00000000000E+00 -0.22509253555E+04  0.22509253555E+04  0.50400001928E-02 0. -1.
    10030    2    1    2    0    0  0.00000000000E+00  0.00000000000E+00 -0.84236312417E+03  0.36594875869E+04  0.35612180171E+04 0.  0.
        3    1    3    3  502    0 -0.12598112352E+04 -0.97582833670E+03 -0.12375877576E+04  0.20176691401E+04  0.10100000352E+00 0. -1.
       -3    1    3    3    0  502  0.12598112352E+04  0.97582833670E+03  0.39522463343E+03  0.16418184467E+04  0.10100000352E+00 0.  1.
</event>
<event>
 5   0  0.1908273E-06  0.2652967E+04  0.7818609E-02  0.8350429E-01
        1   -1    0    0  501    0  0.00000000000E+00  0.00000000000E+00  0.30461758306E+04  0.30461758306E+04  0.50400001928E-02 0.  1.
       -1   -1    0    0    0  501  0.00000000000E+00  0.00000000000E+00 -0.57762883763E+03  0.57762883766E+03  0.50400001928E-02 0. -1.
    10030    2    1    2    0    0  0.00000000000E+00  0.00000000000E+00  0.24685469929E+04  0.36238046682E+04  0.26529673984E+04 0.  0.
        3    1    3    3  502    0 -0.17282295110E+03 -0.87330342426E+03 -0.10896573806E+03  0.89688359642E+03  0.10100000352E+00 0. -1.
       -3    1    3    3    0  502  0.17282295110E+03  0.87330342426E+03  0.25775127310E+04  0.27269210718E+04  0.10100000352E+00 0.  1.
</event>
<event>
 5   0  0.7754556E-07  0.3727659E+04  0.7818609E-02  0.8061860E-01
        1   -1    0    0  501    0  0.00000000000E+00  0.00000000000E+00  0.21626297134E+04  0.21626297134E+04  0.50400001928E-02 0. -1.
       -1   -1    0    0    0  501  0.00000000000E+00  0.00000000000E+00 -0.16063133597E+04  0.16063133597E+04  0.50400001928E-02 0.  1.
    10030    2    1    2    0    0  0.00000000000E+00  0.00000000000E+00  0.55631635366E+03  0.37689430731E+04  0.37276593196E+04 0.  0.
        4    1    3    3  502    0  0.67297095861E+03  0.25901983070E+03  0.20158776013E+04  0.21409683090E+04  0.12699999809E+01 0. -1.
       -4    1    3    3    0  502 -0.67297095861E+03 -0.25901983070E+03 -0.14595612477E+04  0.16279747641E+04  0.12699999809E+01 0.  1.
</event>
<event>
 5   0  0.2536619E-06  0.2824653E+04  0.7818609E-02  0.8295655E-01
        2   -1    0    0  501    0  0.00000000000E+00  0.00000000000E+00  0.15304222272E+04  0.15304222272E+04  0.25500000920E-02 0. -1.
       -2   -1    0    0    0  501  0.00000000000E+00  0.00000000000E+00 -0.13033438308E+04  0.13033438308E+04  0.25500000920E-02 0.  1.
    10030    2    1    2    0    0  0.00000000000E+00  0.00000000000E+00  0.22707839637E+03  0.28337660580E+04  0.28246531598E+04 0.  0.
        1    1    3    3  502    0 -0.11155100085E+03  0.70604137324E+03  0.13355528544E+04  0.15148067445E+04  0.50400001928E-02 0. -1.
       -1    1    3    3    0  502  0.11155100085E+03 -0.70604137324E+03 -0.11084744580E+04  0.13189593135E+04  0.50400001928E-02 0.  1.
</event>
<event>
 5   0  0.2382711E-06  0.3529183E+04  0.7818609E-02  0.8106908E-01
       -2   -1    0    0    0  501  0.00000000000E+00  0.00000000000E+00  0.16922639329E+04  0.16922639329E+04  0.25500000920E-02 0. -1.
        2   -1    0    0  501    0  0.00000000000E+00  0.00000000000E+00 -0.18400107488E+04  0.18400107488E+04  0.25500000920E-02 0.  1.
    10030    2    1    2    0    0  0.00000000000E+00  0.00000000000E+00 -0.14774681589E+03  0.35322746818E+04  0.35291833766E+04 0.  0.
        5    1    3    3  502    0  0.41518319956E+03  0.14232182685E+04 -0.10317040387E+04  0.18062011634E+04  0.46999998093E+01 0.  1.
       -5    1    3    3    0  502 -0.41518319956E+03 -0.14232182685E+04  0.88395722282E+03  0.17260735184E+04  0.46999998093E+01 0. -1.
</event>
<event>
 5   0  0.8423692E-07  0.3641199E+04  0.7818609E-02  0.8081119E-01
        1   -1    0    0  501    0  0.00000000000E+00  0.00000000000E+00  0.18649807191E+04  0.18649807191E+04  0.50400001928E-02 0.  1.
       -1   -1    0    0    0  501  0.00000000000E+00  0.00000000000E+00 -0.17772743915E+04  0.17772743915E+04  0.50400001928E-02 0. -1.
    10030    2    1    2    0    0  0.00000000000E+00  0.00000000000E+00  0.87706327531E+02  0.36422551106E+04  0.36411989634E+04 0.  0.
        2    1    3    3  502    0 -0.10098362004E+03 -0.16378479543E+04  0.83264949156E+03  0.18401219494E+04  0.25500000920E-02 0.  1.
       -2    1    3    3    0  502  0.10098362004E+03  0.16378479543E+04 -0.74494316403E+03  0.18021331612E+04  0.25500000920E-02 0. -1.
</event>
<event>
 5   0  0.1566576E-06  0.3564809E+04  0.7818609E-02  0.8098600E-01
        2   -1    0    0  501    0  0.00000000000E+00  0.00000000000E+00  0.23341013279E+04  0.23341013279E+04  0.25500000920E-02 0.  1.
       -2   -1    0    0    0  501  0.00000000000E+00  0.00000000000E+00 -0.13611087856E+04  0.13611087856E+04  0.25500000920E-02 0. -1.
    10030    2    1    2    0    0  0.00000000000E+00  0.00000000000E+00  0.97299254232E+03  0.36952101134E+04  0.35648090124E+04 0.  0.
        4    1    3    3  502    0  0.10185500161E+04  0.13968202623E+04  0.93644037857E+03  0.19660806637E+04  0.12699999809E+01 0. -1.
       -4    1    3    3    0  502 -0.10185500161E+04 -0.13968202623E+04  0.36552163755E+02  0.17291294498E+04  0.12699999809E+01 0.  1.
</event>
<event>
 5   0  0.2422436E-06  0.3677175E+04  0.7818609E-02  0.8073039E-01
       -2   -1    0    0    0  501  0.00000000000E+00  0.00000000000E+00  0.13434383790E+04  0.13434383790E+04  0.25500000920E-02 0.  1.
        2   -1    0    0  501    0  0.00000000000E+00  0.00000000000E+00 -0.25162328278E+04  0.25162328278E+04  0.25500000920E-02 0. -1.
    10030    2    1    2    0    0  0.00000000000E+00  0.00000000000E+00 -0.11727944488E+04  0.38596712069E+04  0.36771748675E+04 0.  0.
        2    1    3    3  502    0  0.10932944038E+04 -0.82028884108E+03  0.70436427264E+03  0.15376265687E+04  0.25500000920E-02 0.  1.
       -2    1    3    3    0  502 -0.10932944038E+04  0.82028884108E+03 -0.18771587214E+04  0.23220446381E+04  0.25500000920E-02 0. -1.
</event>
<event>
 5   0  0.7754556E-07  0.3570240E+04  0.7818609E-02  0.8097343E-01
        1   -1    0    0  501    0  0.00000000000E+00  0.00000000000E+00  0.17480601501E+04  0.17480601501E+04  0.50400001928E-02 0. -1.
       -1   -1    0    0    0  501  0.00000000000E+00  0.00000000000E+00 -0.18229656858E+04  0.18229656858E+04  0.50400001928E-02 0.  1.
    10030    2    1    2    0    0  0.00000000000E+00  0.00000000000E+00 -0.74905535671E+02  0.35710258359E+04  0.35702401434E+04 0.  0.
        4    1    3    3  502    0  0.52818034295E+03 -0.13987747217E+04  0.93800892873E+03  0.17650517160E+04  0.12699999809E+01 0. -1.
       -4    1    3    3    0  502 -0.52818034295E+03  0.13987747217E+04 -0.10129144644E+04  0.18059741199E+04  0.12699999809E+01 0.  1.
</event>
<event>
 5   0  0.1513502E-06  0.3618058E+04  0.7818609E-02  0.8086368E-01
       -2   -1    0    0    0  501  0.00000000000E+00  0.00000000000E+00  0.13697711432E+04  0.13697711432E+04  0.25500000920E-02 0. -1.
        2   -1    0    0  501    0  0.00000000000E+00  0.00000000000E+00 -0.23891481899E+04  0.23891481899E+04  0.25500000920E-02 0.  1.
    10030    2    1    2    0    0  0.00000000000E+00  0.00000000000E+00 -0.10193770467E+04  0.37589193331E+04  0.36180581793E+04 0.  0.
        3    1    3    3  502    0  0.18047136537E+04 -0.12411960488E+03 -0.49539842319E+03  0.18755843506E+04  0.10100000352E+00 0. -1.
       -3    1    3    3    0  502 -0.18047136537E+04  0.12411960488E+03 -0.52397862355E+03  0.18833349825E+04  0.10100000352E+00 0.  1.
</event>
<event>
 5   0  0.8452742E-07  0.1990907E+04  0.7818609E-02  0.8610884E-01
        1   -1    0    0  501    0  0.00000000000E+00  0.00000000000E+00  0.95011305084E+03  0.95011305085E+03  0.50400001928E-02 0.  1.
       -1   -1    0    0    0  501  0.00000000000E+00  0.00000000000E+00 -0.10429574622E+04  0.10429574622E+04  0.50400001928E-02 0. -1.
    10030    2    1    2    0    0  0.00000000000E+00  0.00000000000E+00 -0.92844411376E+02  0.19930705131E+04  0.19909068249E+04 0.  0.
        1    1    3    3  502    0 -0.35706069737E+03 -0.76927717239E+03 -0.56818705043E+03  0.10208409445E+04  0.50400001928E-02 0. -1.
       -1    1    3    3    0  502  0.35706069737E+03  0.76927717239E+03  0.47534263905E+03  0.97222956862E+03  0.50400001928E-02 0.  1.
</event>
<event>
 5   0  0.1566576E-06  0.3350745E+04  0.7818609E-02  0.8150102E-01
        2   -1    0    0  501    0  0.00000000000E+00  0.00000000000E+00  0.20285435007E+04  0.20285435007E+04  0.25500000920E-02 0. -1.
       -2   -1    0    0    0  501  0.00000000000E+00  0.00000000000E+00 -0.13836890973E+04  0.13836890973E+04  0.25500000920E-02 0.  1.
    10030    2    1    2    0    0  0.00000000000E+00  0.00000000000E+00  0.64485440338E+03  0.34122325979E+04  0.33507453053E+04 0.  0.
        4    1    3    3  502    0  0.23819575847E+03 -0.96040164281E+03 -0.10543294880E+04  0.14459325078E+04  0.12699999809E+01 0.  1.
       -4    1    3    3    0  502 -0.23819575847E+03  0.96040164281E+03  0.16991838914E+04  0.19663000902E+04  0.12699999809E+01 0. -1.
</event>
<event>
 5   0  0.2382711E-06  0.3591624E+04  0.7818609E-02  0.8092413E-01
        2   -1    0    0  501    0  0.00000000000E+00  0.00000000000E+00  0.15883251121E+04  0.15883251121E+04  0.25500000920E-02 0. -1.
       -2   -1    0    0    0  501  0.00000000000E+00  0.00000000000E+00 -0.20304032803E+04  0.20304032803E+04  0.25500000920E-02 0.  1.
    10030    2    1    2    0    0  0.00000000000E+00  0.00000000000E+00 -0.44207816815E+03  0.36187283924E+04  0.35916238767E+04 0.  0.
        5    1    3    3  502    0 -0.16563738178E+04 -0.53550451175E+03  0.22340103675E+03  0.17550696338E+04  0.46999998093E+01 0. -1.
       -5    1    3    3    0  502  0.16563738178E+04  0.53550451175E+03 -0.66547920491E+03  0.18636587586E+04  0.46999998093E+01 0.  1.
</event>
<event>
 5   0  0.7754556E-07  0.3567876E+04  0.7818609E-02  0.8097890E-01
        1   -1    0    0  501    0  0.00000000000E+00  0.00000000000E+00  0.22964313041E+04  0.22964313041E+04  0.50400001928E-02 0.  1.
       -1   -1    0    0    0  501  0.00000000000E+00  0.00000000000E+00 -0.13858176651E+04  0.13858176651E+04  0.50400001928E-02 0. -1.
    10030    2    1    2    0    0  0.00000000000E+00  0.00000000000E+00  0.91061363900E+03  0.36822489692E+04  0.35678761570E+04 0.  0.
        4    1    3    3  502    0 -0.11065747284E+04  0.10970688687E+04  0.13516913461E+04  0.20627987881E+04  0.12699999809E+01 0.  1.
       -4    1    3    3    0  502  0.11065747284E+04 -0.10970688687E+04 -0.44107770714E+03  0.16194501810E+04  0.12699999809E+01 0. -1.
</event>
<event>
 5   0  0.7754556E-07  0.3551135E+04  0.7818609E-02  0.8101777E-01
       -1   -1    0    0    0  501  0.00000000000E+00  0.00000000000E+00  0.22341845830E+04  0.22341845830E+04  0.50400001928E-02 0.  1.
        1   -1    0    0  501    0  0.00000000000E+00  0.00000000000E+00 -0.14110921149E+04  0.14110921149E+04  0.50400001928E-02 0. -1.
    10030    2    1    2    0    0  0.00000000000E+00  0.00000000000E+00  0.82309246816E+03  0.36452766979E+04  0.35511351696E+04 0.  0.
        4    1    3    3  502    0  0.69359935709E+03 -0.97271536791E+03  0.17599069813E+04  0.21270941331E+04  0.12699999809E+01 0.  1.
       -4    1    3    3    0  502 -0.69359935709E+03  0.97271536791E+03 -0.93681451318E+03  0.15181825648E+04  0.12699999809E+01 0. -1.
</event>
<event>
 5   0  0.8452742E-07  0.3570482E+04  0.7818609E-02  0.8097287E-01
       -1   -1    0    0    0  501  0.00000000000E+00  0.00000000000E+00  0.13987427925E+04  0.13987427925E+04  0.50400001928E-02 0.  1.
        1   -1    0    0  501    0  0.00000000000E+00  0.00000000000E+00 -0.22785361054E+04  0.22785361054E+04  0.50400001928E-02 0. -1.
    10030    2    1    2    0    0  0.00000000000E+00  0.00000000000E+00 -0.87979331286E+03  0.36772788979E+04  0.35704822951E+04 0.  0.
        1    1    3    3  502    0  0.65355597175E+03  0.85322746508E+03  0.10282064641E+04  0.14873940460E+04  0.50400001928E-02 0.  1.
       -1    1    3    3    0  502 -0.65355597175E+03 -0.85322746508E+03 -0.19079997769E+04  0.21898848518E+04  0.50400001928E-02 0. -1.
</event>
<event>
 5   0  0.1566576E-06  0.2828768E+04  0.7818609E-02  0.8294392E-01
        2   -1    0    0  501    0  0.00000000000E+00  0.00000000000E+00  0.15332372005E+04  0.15332372005E+04  0.25500000920E-02 0. -1.
       -2   -1    0    0    0  501  0.00000000000E+00  0.00000000000E+00 -0.13047437060E+04  0.13047437060E+04  0.25500000920E-02 0.  1.
    10030    2    1    2    0    0  0.00000000000E+00  0.00000000000E+00  0.22849349452E+03  0.28379809066E+04  0.28287676378E+04 0.  0.
        4    1    3    3  502    0  0.75192545754E+03 -0.11829807984E+04  0.30365919923E+03  0.14342405605E+04  0.12699999809E+01 0. -1.
       -4    1    3    3    0  502 -0.75192545754E+03  0.11829807984E+04 -0.75165704717E+02  0.14037403461E+04  0.12699999809E+01 0.  1.
</event>
<event>
 5   0  0.2536619E-06  0.2330270E+04  0.7818609E-02  0.8466081E-01
       -2   -1    0    0    0  501  0.00000000000E+00  0.00000000000E+00  0.64034726456E+03  0.64034726457E+03  0.25500000920E-02 0. -1.
        2   -1    0    0  501    0  0.00000000000E+00  0.00000000000E+00 -0.21200044258E+04  0.21200044258E+04  0.25500000920E-02 0.  1.
    10030    2    1    2    0    0  0.00000000000E+00  0.00000000000E+00 -0.14796571612E+04  0.27603516903E+04  0.23302695423E+04 0.  0.
        1    1    3    3  502    0 -0.14245584224E+03 -0.38139386359E+03 -0.20330028382E+04  0.20733681502E+04  0.50400001928E-02 0.  1.
       -1    1    3    3    0  502  0.14245584224E+03  0.38139386359E+03  0.55334567698E+03  0.68698354014E+03  0.50400001928E-02 0. -1.
</event>
<event>
 5   0  0.2382711E-06  0.3504995E+04  0.7818609E-02  0.8112607E-01
        2   -1    0    0  501    0  0.00000000000E+00  0.00000000000E+00  0.16703371262E+04  0.16703371262E+04  0.25500000920E-02 0.  1.
       -2   -1    0    0    0  501  0.00000000000E+00  0.00000000000E+00 -0.18386995434E+04  0.18386995434E+04  0.25500000920E-02 0. -1.
    10030    2    1    2    0    0  0.00000000000E+00  0.00000000000E+00 -0.16836241713E+03  0.35090366696E+04  0.35049953559E+04 0.  0.
        5    1    3    3  502    0  0.53126023709E+03  0.53104746774E+02  0.15869253596E+04  0.16743391952E+04  0.46999998093E+01 0.  1.
       -5    1    3    3    0  502 -0.53126023709E+03 -0.53104746774E+02 -0.17552877767E+04  0.18346974744E+04  0.46999998093E+01 0. -1.
</event>
<event>
 5   0  0.2382711E-06  0.3396291E+04  0.7818609E-02  0.8138817E-01
       -2   -1    0    0    0  501  0.00000000000E+00  0.00000000000E+00  0.17973863680E+04  0.17973863680E+04  0.25500000920E-02 0. -1.
        2   -1    0    0  501    0  0.00000000000E+00  0.00000000000E+00 -0.16043840440E+04  0.16043840440E+04  0.25500000920E-02 0.  1.
    10030    2    1    2    0    0  0.00000000000E+00  0.00000000000E+00  0.19300232396E+03  0.34017704120E+04  0.33962909238E+04 0.  0.
        5    1    3    3  502    0 -0.84543695920E+03 -0.13112188752E+03  0.15657417741E+04  0.17842438159E+04  0.46999998093E+01 0. -1.
       -5    1    3    3    0  502  0.84543695920E+03  0.13112188752E+03 -0.13727394501E+04  0.16175265961E+04  0.46999998093E+01 0.  1.
</event>
<event>
 5   0  0.7707500E-07  0.1864240E+04  0.7818609E-02  0.8672864E-01
        3   -1    0    0  501    0  0.00000000000E+00  0.00000000000E+00  0.12291367409E+04  0.12291367450E+04  0.10100000352E+00 0. -1.
       -3   -1    0    0    0  501  0.00000000000E+00  0.00000000000E+00 -0.70687661393E+03  0.70687662115E+03  0.10100000352E+00 0.  1.
    10030    2    1    2    0    0  0.00000000000E+00  0.00000000000E+00  0.52226012696E+03  0.19360133662E+04  0.18642403584E+04 0.  0.
        1    1    3    3  502    0 -0.82891908180E+01  0.69418614341E+03 -0.38481761917E+03  0.79375544876E+03  0.50400001928E-02 0.  1.
       -1    1    3    3    0  502  0.82891908180E+01 -0.69418614341E+03  0.90707774613E+03  0.11422579174E+04  0.50400001928E-02 0. -1.
</event>
<event>
 5   0  0.1566576E-06  0.2707252E+04  0.7818609E-02  0.8332656E-01
       -2   -1    0    0    0  501  0.00000000000E+00  0.00000000000E+00  0.15598751696E+04  0.15598751696E+04  0.25500000920E-02 0. -1.
        2   -1    0    0  501    0  0.00000000000E+00  0.00000000000E+00 -0.11746470928E+04  0.11746470928E+04  0.25500000920E-02 0.  1.
    10030    2    1    2    0    0  0.00000000000E+00  0.00000000000E+00  0.38522807674E+03  0.27345222624E+04  0.27072516197E+04 0.  0.
        4    1    3    3  502    0  0.21315458809E+03 -0.27448364242E+03  0.15140449867E+04  0.15534188048E+04  0.12699999809E+01 0. -1.
       -4    1    3    3    0  502 -0.21315458809E+03  0.27448364242E+03 -0.11288169100E+04  0.11811034576E+04  0.12699999809E+01 0.  1.
</event>
<event>
 5   0  0.8452742E-07  0.2863699E+04  0.7818609E-02  0.8283761E-01
       -1   -1    0    0    0  501  0.00000000000E+00  0.00000000000E+00  0.10899665788E+04  0.10899665788E+04  0.50400001928E-02 0.  1.
        1   -1    0    0  501    0  0.00000000000E+00  0.00000000000E+00 -0.18809684414E+04  0.18809684414E+04  0.50400001928E-02 0. -1.
    10030    2    1    2    0    0  0.00000000000E+00  0.00000000000E+00 -0.79100186260E+03  0.29709350201E+04  0.28636988227E+04 0.  0.
        1    1    3    3  502    0 -0.31556811533E+03 -0.93637424553E+03 -0.14705544749E+04  0.17716970471E+04  0.50400001928E-02 0. -1.
       -1    1    3    3    0  502  0.31556811533E+03  0.93637424553E+03  0.67955261227E+03  0.11992379730E+04  0.50400001928E-02 0.  1.
</event>
<event>
 5   0  0.1566576E-06  0.3573317E+04  0.7818609E-02  0.8096631E-01
       -2   -1    0    0    0  501  0.00000000000E+00  0.00000000000E+00  0.11924782143E+04  0.11924782143E+04  0.25500000920E-02 0.  1.
        2   -1    0    0  501    0  0.00000000000E+00  0.00000000000E+00 -0.26769029839E+04  0.26769029839E+04  0.25500000920E-02 0. -1.
    10030    2    1    2    0    0  0.00000000000E+00  0.00000000000E+00 -0.14844247697E+04  0.38693811982E+04  0.35733169409E+04 0.  0.
        4    1    3    3  502    0  0.43762771646E+03 -0.13867750427E+03  0.11275219942E+04  0.12173976050E+04  0.12699999809E+01 0.  1.
       -4    1    3    3    0  502 -0.43762771646E+03  0.13867750427E+03 -0.26119467639E+04  0.26519835932E+04  0.12699999809E+01 0. -1.
</event>
<event>
 5   0  0.8452742E-07  0.3346378E+04  0.7818609E-02  0.8151194E-01
        1   -1    0    0  501    0  0.00000000000E+00  0.00000000000E+00  0.14674563175E+04  0.14674563176E+04  0.50400001928E-02 0. -1.
       -1   -1    0    0    0  501  0.00000000000E+00  0.00000000000E+00 -0.19077650471E+04  0.19077650471E+04  0.50400001928E-02 0.  1.
    10030    2    1    2    0    0  0.00000000000E+00  0.00000000000E+00 -0.44030872954E+03  0.33752213646E+04  0.33463782636E+04 0.  0.
        1    1    3    3  502    0 -0.13558111234E+04  0.42585426995E+03  0.67062611769E+03  0.15714054382E+04  0.50400001928E-02 0. -1.
       -1    1    3    3    0  502  0.13558111234E+04 -0.42585426995E+03 -0.11109348472E+04  0.18038159264E+04  0.50400001928E-02 0.  1.
</event>
<event>
 5   0  0.8452742E-07  0.3664906E+04  0.7818609E-02  0.8075784E-01
        1   -1    0    0  501    0  0.00000000000E+00  0.00000000000E+00  0.16406105369E+04  0.16406105369E+04  0.50400001928E-02 0. -1.
       -1   -1    0    0    0  501  0.00000000000E+00  0.00000000000E+00 -0.20467280145E+04  0.20467280145E+04  0.50400001928E-02 0.  1.
    10030    2    1    2    0    0  0.00000000000E+00  0.00000000000E+00 -0.40611747761E+03  0.36873385514E+04  0.36649057541E+04 0.  0.
        1    1    3    3  502    0  0.41048825432E+03  0.70824299494E+03 -0.18525371736E+04  0.20253401507E+04  0.50400001928E-02 0.  1.
       -1    1    3    3    0  502 -0.41048825432E+03 -0.70824299494E+03  0.14464196959E+04  0.16619984006E+04  0.50400001928E-02 0. -1.
</event>
<event>
 5   0  0.1566576E-06  0.3561581E+04  0.7818609E-02  0.8099349E-01
       -2   -1    0    0    0  501  0.00000000000E+00  0.00000000000E+00  0.22928596892E+04  0.22928596892E+04  0.25500000920E-02 0. -1.
        2   -1    0    0  501    0  0.00000000000E+00  0.00000000000E+00 -0.13830824842E+04  0.13830824842E+04  0.25500000920E-02 0.  1.
    10030    2    1    2    0    0  0.00000000000E+00  0.00000000000E+00  0.90977720499E+03  0.36759421735E+04  0.35615805901E+04 0.  0.
        4    1    3    3  502    0 -0.12718890454E+04  0.98719661109E+03  0.12402106006E+04  0.20323343326E+04  0.12699999809E+01 0. -1.
       -4    1    3    3    0  502  0.12718890454E+04 -0.98719661109E+03 -0.33043339557E+03  0.16436078409E+04  0.12699999809E+01 0.  1.
</event>
<event>
 5   0  0.2536619E-06  0.3875809E+04  0.7818609E-02  0.8030079E-01
        2   -1    0    0  501    0  0.00000000000E+00  0.00000000000E+00  0.23856160928E+04  0.23856160928E+04  0.25500000920E-02 0.  1.
       -2   -1    0    0    0  501  0.00000000000E+00  0.00000000000E+00 -0.15742155452E+04  0.15742155452E+04  0.25500000920E-02 0. -1.
    10030    2    1    2    0    0  0.00000000000E+00  0.00000000000E+00  0.81140054755E+03  0.39598316380E+04  0.38758090450E+04 0.  0.
        1    1    3    3  502    0 -0.37266508794E+03 -0.81732669787E+03  0.21600662603E+04  0.23393991638E+04  0.50400001928E-02 0.  1.
       -1    1    3    3    0  502  0.37266508794E+03  0.81732669787E+03 -0.13486657127E+04  0.16204324742E+04  0.50400001928E-02 0. -1.
</event>
<event>
 5   0  0.1566576E-06  0.3681810E+04  0.7818609E-02  0.8072005E-01
        2   -1    0    0  501    0  0.00000000000E+00  0.00000000000E+00  0.29630877688E+04  0.29630877688E+04  0.25500000920E-02 0. -1.
       -2   -1    0    0    0  501  0.00000000000E+00  0.00000000000E+00 -0.11437162471E+04  0.11437162471E+04  0.25500000920E-02 0.  1.
    10030    2    1    2    0    0  0.00000000000E+00  0.00000000000E+00  0.18193715217E+04  0.41068040159E+04  0.36818102194E+04 0.  0.
        4    1    3    3  502    0 -0.14783904107E+04  0.76072485722E+03  0.28150036167E+02  0.16628693732E+04  0.12699999809E+01 0. -1.
       -4    1    3    3    0  502  0.14783904107E+04 -0.76072485722E+03  0.17912214855E+04  0.24439346427E+04  0.12699999809E+01 0.  1.
</event>
<event>
 5   0  0.1566576E-06  0.3463609E+04  0.7818609E-02  0.8122469E-01
       -2   -1    0    0    0  501  0.00000000000E+00  0.00000000000E+00  0.18634336024E+04  0.18634336024E+04  0.25500000920E-02 0.  1.
        2   -1    0    0  501    0  0.00000000000E+00  0.00000000000E+00 -0.16094735198E+04  0.16094735198E+04  0.25500000920E-02 0. -1.
    10030    2    1    2    0    0  0.00000000000E+00  0.00000000000E+00  0.25396008251E+03  0.34729071222E+04  0.34636091229E+04 0.  0.
        4    1    3    3  502    0  0.25402165245E+03  0.65393418254E+03 -0.14606176764E+04  0.16203587641E+04  0.12699999809E+01 0. -1.
       -4    1    3    3    0  502 -0.25402165245E+03 -0.65393418254E+03  0.17145777589E+04  0.18525483581E+04  0.12699999809E+01 0.  1.
</event>
<event>
 5   0  0.7754556E-07  0.1931867E+04  0.7818609E-02  0.8639155E-01
       -1   -1    0    0    0  501  0.00000000000E+00  0.00000000000E+00  0.36347206188E+03  0.36347206191E+03  0.50400001928E-02 0.  1.
        1   -1    0    0  501    0  0.00000000000E+00  0.00000000000E+00 -0.25669863656E+04  0.25669863656E+04  0.50400001928E-02 0. -1.
    10030    2    1    2    0    0  0.00000000000E+00  0.00000000000E+00 -0.22035143037E+04  0.29304584275E+04  0.19318673113E+04 0.  0.
        4    1    3    3  502    0 -0.44316551542E+03 -0.64307208847E+03 -0.23953486962E+03  0.81689408842E+03  0.12699999809E+01 0.  1.
       -4    1    3    3    0  502  0.44316551542E+03  0.64307208847E+03 -0.19639794341E+04  0.21135643391E+04  0.12699999809E+01 0. -1.
</event>
<event>
 5   0  0.8452742E-07  0.1785091E+04  0.7818609E-02  0.8714268E-01
       -1   -1    0    0    0  501  0.00000000000E+00  0.00000000000E+00  0.62383912087E+03  0.62383912089E+03  0.50400001928E-02 0.  1.
        1   -1    0    0  501    0  0.00000000000E+00  0.00000000000E+00 -0.12769918106E+04  0.12769918106E+04  0.50400001928E-02 0. -1.
    10030    2    1    2    0    0  0.00000000000E+00  0.00000000000E+00 -0.65315268975E+03  0.19008309315E+04  0.17850909764E+04 0.  0.
        1    1    3    3  502    0  0.31830881092E+03  0.42405745659E+02 -0.12133488608E+04  0.12551231830E+04  0.50400001928E-02 0. -1.
       -1    1    3    3    0  502 -0.31830881092E+03 -0.42405745659E+02  0.56019617109E+03  0.64570774853E+03  0.50400001928E-02 0.  1.
</event>
<event>
 5   0  0.2422436E-06  0.1947308E+04  0.7818609E-02  0.8631660E-01
       -2   -1    0    0    0  501  0.00000000000E+00  0.00000000000E+00  0.18182262530E+04  0.18182262531E+04  0.25500000920E-02 0.  1.
        2   -1    0    0  501    0  0.00000000000E+00  0.00000000000E+00 -0.52138855793E+03  0.52138855793E+03  0.25500000920E-02 0. -1.
    10030    2    1    2    0    0  0.00000000000E+00  0.00000000000E+00  0.12968376951E+04  0.23396148110E+04  0.19473082592E+04 0.  0.
        2    1    3    3  502    0  0.41518396945E+03 -0.39757691384E+03  0.15925846419E+04  0.16931541491E+04  0.25500000920E-02 0.  1.
       -2    1    3    3    0  502 -0.41518396945E+03  0.39757691384E+03 -0.29574694675E+03  0.64646066193E+03  0.25500000920E-02 0. -1.
</event>
<event>
 5   0  0.2382711E-06  0.3551973E+04  0.7818609E-02  0.8101582E-01
       -2   -1    0    0    0  501  0.00000000000E+00  0.00000000000E+00  0.17356477125E+04  0.17356477125E+04  0.25500000920E-02 0.  1.
        2   -1    0    0  501    0  0.00000000000E+00  0.00000000000E+00 -0.18172631097E+04  0.18172631097E+04  0.25500000920E-02 0. -1.
    10030    2    1    2    0    0  0.00000000000E+00  0.00000000000E+00 -0.81615397142E+02  0.35529108222E+04  0.35519732878E+04 0.  0.
        5    1    3    3  502    0 -0.32837120050E+03 -0.66079025361E+03 -0.16566705825E+04  0.18135740717E+04  0.46999998093E+01 0. -1.
       -5    1    3    3    0  502  0.32837120050E+03  0.66079025361E+03  0.15750551854E+04  0.17393367505E+04  0.46999998093E+01 0.  1.
</event>
<event>
 5   0  0.8423692E-07  0.3123193E+04  0.7818609E-02  0.8209402E-01
       -1   -1    0    0    0  501  0.00000000000E+00  0.00000000000E+00  0.16304108578E+04  0.16304108578E+04  0.50400001928E-02 0. -1.
        1   -1    0    0  501    0  0.00000000000E+00  0.00000000000E+00 -0.14956861016E+04  0.14956861016E+04  0.50400001928E-02 0.  1.
    10030    2    1    2    0    0  0.00000000000E+00  0.00000000000E+00  0.13472475619E+03  0.31260969593E+04  0.31231925076E+04 0.  0.
        2    1    3    3  502    0  0.63948759666E+03  0.60179285499E+03  0.13598741459E+04  0.16187515929E+04  0.25500000920E-02 0. -1.
       -2    1    3    3    0  502 -0.63948759666E+03 -0.60179285499E+03 -0.12251493898E+04  0.15073453665E+04  0.25500000920E-02 0.  1.
</event>
<event>
 5   0  0.8423692E-07  0.3493738E+04  0.7818609E-02  0.8115276E-01
        1   -1    0    0  501    0  0.00000000000E+00  0.00000000000E+00  0.25833055782E+04  0.25833055782E+04  0.50400001928E-02 0. -1.
       -1   -1    0    0    0  501  0.00000000000E+00  0.00000000000E+00 -0.11812584311E+04  0.11812584311E+04  0.50400001928E-02 0.  1.
    10030    2    1    2    0    0  0.00000000000E+00  0.00000000000E+00  0.14020471471E+04  0.37645640094E+04  0.34937381095E+04 0.  0.
        2    1    3    3  502    0  0.86615288253E+03 -0.92832716430E+03 -0.59179061514E+03  0.14007955854E+04  0.25500000920E-02 0.  1.
       -2    1    3    3    0  502 -0.86615288253E+03  0.92832716430E+03  0.19938377622E+04  0.23637684240E+04  0.25500000920E-02 0. -1.
</event>
<event>
 5   0  0.2422436E-06  0.3588127E+04  0.7818609E-02  0.8093217E-01
        2   -1    0    0  501    0  0.00000000000E+00  0.00000000000E+00  0.19001005066E+04  0.19001005066E+04  0.25500000920E-02 0.  1.
       -2   -1    0    0    0  501  0.00000000000E+00  0.00000000000E+00 -0.16939442345E+04  0.16939442345E+04  0.25500000920E-02 0. -1.
    10030    2    1    2    0    0  0.00000000000E+00  0.00000000000E+00  0.20615627210E+03  0.35940447411E+04  0.35881272542E+04 0.  0.
        2    1    3    3  502    0 -0.59131977693E+03 -0.14067045613E+04 -0.84197534719E+03  0.17428136121E+04  0.25500000920E-02 0. -1.
       -2    1    3    3    0  502  0.59131977693E+03  0.14067045613E+04  0.10481316193E+04  0.18512311289E+04  0.25500000920E-02 0.  1.
</event>
<event>
 5   0  0.7754556E-07  0.3602676E+04  0.7818609E-02  0.8089879E-01
       -1   -1    0    0    0  501  0.00000000000E+00  0.00000000000E+00  0.15484589488E+04  0.15484589488E+04  0.50400001928E-02 0.  1.
        1   -1    0    0  501    0  0.00000000000E+00  0.00000000000E+00 -0.20955149515E+04  0.20955149515E+04  0.50400001928E-02 0. -1.
    10030    2    1    2    0    0  0.00000000000E+00  0.00000000000E+00 -0.54705600274E+03  0.36439739003E+04  0.36026761603E+04 0.  0.
        4    1    3    3  502    0  0.83548549593E+03 -0.12541346941E+04 -0.12717182636E+04  0.19718414743E+04  0.12699999809E+01 0. -1.
       -4    1    3    3    0  502 -0.83548549593E+03  0.12541346941E+04  0.72466226089E+03  0.16721324260E+04  0.12699999809E+01 0.  1.
</event>
<event>
 5   0  0.2422436E-06  0.3563032E+04  0.7818609E-02  0.8099013E-01
       -2   -1    0    0    0  501  0.00000000000E+00  0.00000000000E+00  0.12431630347E+04  0.12431630347E+04  0.25500000920E-02 0.  1.
        2   -1    0    0  501    0  0.00000000000E+00  0.00000000000E+00 -0.25530027920E+04  0.25530027920E+04  0.25500000920E-02 0. -1.
    10030    2    1    2    0    0  0.00000000000E+00  0.00000000000E+00 -0.13098397573E+04  0.37961658268E+04  0.35630316859E+04 0.  0.
        2    1    3    3  502    0 -0.60722482170E+03 -0.60112414444E+03 -0.23204473025E+04  0.24727611904E+04  0.25500000920E-02 0. -1.
       -2    1    3    3    0  502  0.60722482170E+03  0.60112414444E+03  0.10106075452E+04  0.13234046364E+04  0.25500000920E-02 0.  1.
</event>
<event>
 5   0  0.2422436E-06  0.3597908E+04  0.7818609E-02  0.8090971E-01
        2   -1    0    0  501    0  0.00000000000E+00  0.00000000000E+00  0.20265815740E+04  0.20265815740E+04  0.25500000920E-02 0. -1.
       -2   -1    0    0    0  501  0.00000000000E+00  0.00000000000E+00 -0.15968939695E+04  0.15968939695E+04  0.25500000920E-02 0.  1.
    10030    2    1    2    0    0  0.00000000000E+00  0.00000000000E+00  0.42968760457E+03  0.36234755435E+04  0.35979082224E+04 0.  0.
        2    1    3    3  502    0  0.41215165161E+03 -0.14094851674E+04  0.12613228066E+04  0.19358338367E+04  0.25500000920E-02 0. -1.
       -2    1    3    3    0  502 -0.41215165161E+03  0.14094851674E+04 -0.83163520200E+03  0.16876417067E+04  0.25500000920E-02 0.  1.
</event>
<event>
 5   0  0.2422436E-06  0.1923867E+04  0.7818609E-02  0.8643067E-01
       -2   -1    0    0    0  501  0.00000000000E+00  0.00000000000E+00  0.86822402444E+03  0.86822402444E+03  0.25500000920E-02 0. -1.
        2   -1    0    0  501    0  0.00000000000E+00  0.00000000000E+00 -0.10657572120E+04  0.10657572120E+04  0.25500000920E-02 0.  1.
    10030    2    1    2    0    0  0.00000000000E+00  0.00000000000E+00 -0.19753318759E+03  0.19339812365E+04  0.19238669556E+04 0.  0.
        2    1    3    3  502    0 -0.36374659267E+03 -0.61447942753E+03 -0.74668548407E+03  0.10331678289E+04  0.25500000920E-02 0.  1.
       -2    1    3    3    0  502  0.36374659267E+03  0.61447942753E+03  0.54915229648E+03  0.90081340758E+03  0.25500000920E-02 0. -1.
</event>
<event>
 5   0  0.1566576E-06  0.2908448E+04  0.7818609E-02  0.8270368E-01
       -2   -1    0    0    0  501  0.00000000000E+00  0.00000000000E+00  0.17105910761E+04  0.17105910762E+04  0.25500000920E-02 0.  1.
        2   -1    0    0  501    0  0.00000000000E+00  0.00000000000E+00 -0.12362786928E+04  0.12362786928E+04  0.25500000920E-02 0. -1.
    10030    2    1    2    0    0  0.00000000000E+00  0.00000000000E+00  0.47431238337E+03  0.29468697689E+04  0.29084479019E+04 0.  0.
        4    1    3    3  502    0 -0.43478763223E+03 -0.27881969433E+03 -0.11402082696E+04  0.12517416738E+04  0.12699999809E+01 0. -1.
       -4    1    3    3    0  502  0.43478763223E+03  0.27881969433E+03  0.16145206530E+04  0.16951280951E+04  0.12699999809E+01 0.  1.
</event>
<event>
 5   0  0.2382711E-06  0.1930999E+04  0.7818609E-02  0.8639578E-01
        2   -1    0    0  501    0  0.00000000000E+00  0.00000000000E+00  0.79030412921E+03  0.79030412922E+03  0.25500000920E-02 0.  1.
       -2   -1    0    0    0  501  0.00000000000E+00  0.00000000000E+00 -0.11795325596E+04  0.11795325596E+04  0.25500000920E-02 0. -1.
    10030    2    1    2    0    0  0.00000000000E+00  0.00000000000E+00 -0.38922843042E+03  0.19698366888E+04  0.19309991739E+04 0.  0.
        5    1    3    3  502    0  0.34774593561E+03 -0.37543866584E+03  0.64056213383E+03  0.81989228856E+03  0.46999998093E+01 0.  1.
       -5    1    3    3    0  502 -0.34774593561E+03  0.37543866584E+03 -0.10297905642E+04  0.11499444003E+04  0.46999998093E+01 0. -1.
</event>
<event>
 5   0  0.1566576E-06  0.3432728E+04  0.7818609E-02  0.8129920E-01
       -2   -1    0    0    0  501  0.00000000000E+00  0.00000000000E+00  0.99531711526E+03  0.99531711526E+03  0.25500000920E-02 0. -1.
        2   -1    0    0  501    0  0.00000000000E+00  0.00000000000E+00 -0.29597655646E+04  0.29597655646E+04  0.25500000920E-02 0.  1.
    10030    2    1    2    0    0  0.00000000000E+00  0.00000000000E+00 -0.19644484493E+04  0.39550826799E+04  0.34327279669E+04 0.  0.
        4    1    3    3  502    0 -0.57717044702E+02  0.84245266057E+02 -0.29562616651E+04  0.29580252141E+04  0.12699999809E+01 0.  1.
       -4    1    3    3    0  502  0.57717044702E+02 -0.84245266057E+02  0.99181321575E+03  0.99705746572E+03  0.12699999809E+01 0. -1.
</event>
<event>
 5   0  0.1513502E-06  0.3645142E+04  0.7818609E-02  0.8080229E-01
        2   -1    0    0  501    0  0.00000000000E+00  0.00000000000E+00  0.20614415521E+04  0.20614415521E+04  0.25500000920E-02 0.  1.
       -2   -1    0    0    0  501  0.00000000000E+00  0.00000000000E+00 -0.16113795692E+04  0.16113795692E+04  0.25500000920E-02 0. -1.
    10030    2    1    2    0    0  0.00000000000E+00  0.00000000000E+00  0.45006198292E+03  0.36728211214E+04  0.36451418630E+04 0.  0.
        3    1    3    3  502    0  0.35445371859E+03  0.23222974175E+02 -0.15761640227E+04  0.16156948294E+04  0.10100000352E+00 0. -1.
       -3    1    3    3    0  502 -0.35445371859E+03 -0.23222974175E+02  0.20262260056E+04  0.20571262920E+04  0.10100000352E+00 0.  1.
</event>
<event>
 5   0  0.8452742E-07  0.3366545E+04  0.7818609E-02  0.8146166E-01
        1   -1    0    0  501    0  0.00000000000E+00  0.00000000000E+00  0.12629044247E+04  0.12629044247E+04  0.50400001928E-02 0. -1.
       -1   -1    0    0    0  501  0.00000000000E+00  0.00000000000E+00 -0.22435639332E+04  0.22435639332E+04  0.50400001928E-02 0.  1.
    10030    2    1    2    0    0  0.00000000000E+00  0.00000000000E+00 -0.98065950854E+03  0.35064683579E+04  0.33665453025E+04 0.  0.
        1    1    3    3  502    0 -0.76782925488E+03 -0.13203279240E+04 -0.12272523493E+04  0.19593304776E+04  0.50400001928E-02 0.  1.
       -1    1    3    3    0  502  0.76782925488E+03  0.13203279240E+04  0.24659284074E+03  0.15471378803E+04  0.50400001928E-02 0. -1.
</event>
<event>
 5   0  0.1513502E-06  0.2127352E+04  0.7818609E-02  0.8549289E-01
       -2   -1    0    0    0  501  0.00000000000E+00  0.00000000000E+00  0.93193475755E+03  0.93193475756E+03  0.25500000920E-02 0.  1.
        2   -1    0    0  501    0  0.00000000000E+00  0.00000000000E+00 -0.12140408509E+04  0.12140408509E+04  0.25500000920E-02 0. -1.
    10030    2    1    2    0    0  0.00000000000E+00  0.00000000000E+00 -0.28210609336E+03  0.21459756085E+04  0.21273522191E+04 0.  0.
        3    1    3    3  502    0 -0.18684316899E+03  0.35969993817E+03 -0.11330808991E+04  0.12033980013E+04  0.10100000352E+00 0. -1.
       -3    1    3    3    0  502  0.18684316899E+03 -0.35969993817E+03  0.85097480577E+03  0.94257760719E+03  0.10100000352E+00 0.  1.
</event>
<event>
 5   0  0.1908273E-06  0.3595614E+04  0.7818609E-02  0.8091497E-01
        1   -1    0    0  501    0  0.00000000000E+00  0.00000000000E+00  0.25384727568E+04  0.25384727568E+04  0.50400001928E-02 0.  1.
       -1   -1    0    0    0  501  0.00000000000E+00  0.00000000000E+00 -0.12732498894E+04  0.12732498894E+04  0.50400001928E-02 0. -1.
    10030    2    1    2    0    0  0.00000000000E+00  0.00000000000E+00  0.12652228674E+04  0.38117226463E+04  0.35956140822E+04 0.  0.
        3    1    3    3  502    0  0.34057523055E+03  0.17337107077E+04  0.98479213890E+03  0.20227604585E+04  0.10100000352E+00 0.  1.
       -3    1    3    3    0  502 -0.34057523055E+03 -0.17337107077E+04  0.28043072851E+03  0.17889621877E+04  0.10100000352E+00 0. -1.
</event>
<event>
 5   0  0.1513502E-06  0.3360413E+04  0.7818609E-02  0.8147691E-01
        2   -1    0    0  501    0  0.00000000000E+00  0.00000000000E+00  0.11912111849E+04  0.11912111849E+04  0.25500000920E-02 0.  1.
       -2   -1    0    0    0  501  0.00000000000E+00  0.00000000000E+00 -0.23699350874E+04  0.23699350874E+04  0.25500000920E-02 0. -1.
    10030    2    1    2    0    0  0.00000000000E+00  0.00000000000E+00 -0.11787239025E+04  0.35611462723E+04  0.33604125840E+04 0.  0.
        3    1    3    3  502    0  0.48766693129E+03 -0.14676694424E+04 -0.12852621049E+04  0.20109130554E+04  0.10100000352E+00 0. -1.
       -3    1    3    3    0  502 -0.48766693129E+03  0.14676694424E+04  0.10653820238E+03  0.15502332169E+04  0.10100000352E+00 0.  1.
</event>
<event>
 5   0  0.2422436E-06  0.3352643E+04  0.7818609E-02  0.8149628E-01
       -2   -1    0    0    0  501  0.00000000000E+00  0.00000000000E+00  0.24194658147E+04  0.24194658147E+04  0.25500000920E-02 0.  1.
        2   -1    0    0  501    0  0.00000000000E+00  0.00000000000E+00 -0.11614353857E+04  0.11614353857E+04  0.25500000920E-02 0. -1.
    10030    2    1    2    0    0  0.00000000000E+00  0.00000000000E+00  0.12580304290E+04  0.35809012004E+04  0.33526426661E+04 0.  0.
        2    1    3    3  502    0 -0.78235281168E+03  0.14814148672E+04  0.69117803055E+03  0.18122894362E+04  0.25500000920E-02 0. -1.
       -2    1    3    3    0  502  0.78235281168E+03 -0.14814148672E+04  0.56685239847E+03  0.17686117642E+04  0.25500000920E-02 0.  1.
</event>
<event>
 5   0  0.7754556E-07  0.2352210E+04  0.7818609E-02  0.8457615E-01
        1   -1    0    0  501    0  0.00000000000E+00  0.00000000000E+00  0.11941894879E+04  0.11941894879E+04  0.50400001928E-02 0. -1.
       -1   -1    0    0    0  501  0.00000000000E+00  0.00000000000E+00 -0.11582939981E+04  0.11582939981E+04  0.50400001928E-02 0.  1.
    10030    2    1    2    0    0  0.00000000000E+00  0.00000000000E+00  0.35895489743E+02  0.23524834860E+04  0.23522096135E+04 0.  0.
        4    1    3    3  502    0 -0.71078717296E+03  0.64966860740E+03 -0.65735913020E+03  0.11659375385E+04  0.12699999809E+01 0.  1.
       -4    1    3    3    0  502  0.71078717296E+03 -0.64966860740E+03  0.69325461994E+03  0.11865459475E+04  0.12699999809E+01 0. -1.
</event>
<event>
 5   0  0.8452742E-07  0.2083036E+04  0.7818609E-02  0.8568753E-01
       -1   -1    0    0    0  501  0.00000000000E+00  0.00000000000E+00  0.13559839029E+04  0.13559839029E+04  0.50400001928E-02 0.  1.
        1   -1    0    0  501    0  0.00000000000E+00  0.00000000000E+00 -0.79997995762E+03  0.79997995763E+03  0.50400001928E-02 0. -1.
    10030    2    1    2    0    0  0.00000000000E+00  0.00000000000E+00  0.55600394531E+03  0.21559638606E+04  0.20830361929E+04 0.  0.
        1    1    3    3  502    0  0.94310641744E+03  0.15807071629E+03 -0.14915001415E+03  0.96782322389E+03  0.50400001928E-02 0. -1.
       -1    1    3    3    0  502 -0.94310641744E+03 -0.15807071629E+03  0.70515395946E+03  0.11881406367E+04  0.50400001928E-02 0.  1.
</event>
<event>
 5   0  0.1566576E-06  0.3569224E+04  0.7818609E-02  0.8097578E-01
       -2   -1    0    0    0  501  0.00000000000E+00  0.00000000000E+00  0.10181925283E+04  0.10181925283E+04  0.25500000920E-02 0.  1.
        2   -1    0    0  501    0  0.00000000000E+00  0.00000000000E+00 -0.31279349753E+04  0.31279349753E+04  0.25500000920E-02 0. -1.
    10030    2    1    2    0    0  0.00000000000E+00  0.00000000000E+00 -0.21097424470E+04  0.41461275037E+04  0.35692240171E+04 0.  0.
        4    1    3    3  502    0 -0.66015529044E+03 -0.14029950194E+04 -0.20812172271E+04  0.25953163181E+04  0.12699999809E+01 0. -1.
       -4    1    3    3    0  502  0.66015529044E+03  0.14029950194E+04 -0.28525219922E+02  0.15508111855E+04  0.12699999809E+01 0.  1.
</event>
<event>
 5   0  0.1566576E-06  0.2130168E+04  0.7818609E-02  0.8548069E-01
       -2   -1    0    0    0  501  0.00000000000E+00  0.00000000000E+00  0.58515096670E+03  0.58515096670E+03  0.25500000920E-02 0. -1.
        2   -1    0    0  501    0  0.00000000000E+00  0.00000000000E+00 -0.19386524341E+04  0.19386524341E+04  0.25500000920E-02 0.  1.
    10030    2    1    2    0    0  0.00000000000E+00  0.00000000000E+00 -0.13535014674E+04  0.25238034008E+04  0.21301683933E+04 0.  0.
        4    1    3    3  502    0  0.19140244223E+02 -0.27714828359E+03  0.54146818751E+03  0.60857779374E+03  0.12699999809E+01 0. -1.
       -4    1    3    3    0  502 -0.19140244223E+02  0.27714828359E+03 -0.18949696549E+04  0.19152256071E+04  0.12699999809E+01 0.  1.
</event>
<event>
 5   0  0.2536619E-06  0.3449060E+04  0.7818609E-02  0.8125969E-01
       -2   -1    0    0    0  501  0.00000000000E+00  0.00000000000E+00  0.14631698459E+04  0.14631698459E+04  0.25500000920E-02 0.  1.
        2   -1    0    0  501    0  0.00000000000E+00  0.00000000000E+00 -0.20325755908E+04  0.20325755908E+04  0.25500000920E-02 0. -1.
    10030    2    1    2    0    0  0.00000000000E+00  0.00000000000E+00 -0.56940574487E+03  0.34957454366E+04  0.34490597640E+04 0.  0.
        1    1    3    3  502    0  0.43194589146E+03  0.11524496750E+03 -0.19728241019E+04  0.20228429481E+04  0.50400001928E-02 0. -1.
       -1    1    3    3    0  502 -0.43194589146E+03 -0.11524496750E+03  0.14034183571E+04  0.14729024885E+04  0.50400001928E-02 0.  1.
</event>
<event>
 5   0  0.2382711E-06  0.3618674E+04  0.7818609E-02  0.8086228E-01
       -2   -1    0    0    0  501  0.00000000000E+00  0.00000000000E+00  0.12394507003E+04  0.12394507003E+04  0.25500000920E-02 0. -1.
        2   -1    0    0  501    0  0.00000000000E+00  0.00000000000E+00 -0.26412504342E+04  0.26412504342E+04  0.25500000920E-02 0.  1.
    10030    2    1    2    0    0  0.00000000000E+00  0.00000000000E+00 -0.14017997338E+04  0.38807011345E+04  0.36186736246E+04 0.  0.
        5    1    3    3  502    0 -0.72460574506E+03 -0.14735850460E+04  0.11382903442E+03  0.16460514915E+04  0.46999998093E+01 0. -1.
       -5    1    3    3    0  502  0.72460574506E+03  0.14735850460E+04 -0.15156287683E+04  0.22346496430E+04  0.46999998093E+01 0.  1.
</event>
<event>
 5   0  0.8452742E-07  0.3421654E+04  0.7818609E-02  0.8132612E-01
        1   -1    0    0  501    0  0.00000000000E+00  0.00000000000E+00  0.21962127979E+04  0.21962127979E+04  0.50400001928E-02 0.  1.
       -1   -1    0    0    0  501  0.00000000000E+00  0.00000000000E+00 -0.13327162957E+04  0.13327162957E+04  0.50400001928E-02 0. -1.
    10030    2    1    2    0    0  0.00000000000E+00  0.00000000000E+00  0.86349650223E+03  0.35289290936E+04  0.34216537432E+04 0.  0.
        1    1    3    3  502    0  0.11454854433E+04 -0.12032349322E+04  0.10257830012E+02  0.16613297162E+04  0.50400001928E-02 0.  1.
       -1    1    3    3    0  502 -0.11454854433E+04  0.12032349322E+04  0.85323867222E+03  0.18675993774E+04  0.50400001928E-02 0. -1.
</event>
<event>
 5   0  0.7754556E-07  0.1803382E+04  0.7818609E-02  0.8704503E-01
        1   -1    0    0  501    0  0.00000000000E+00  0.00000000000E+00  0.52613904215E+03  0.52613904218E+03  0.50400001928E-02 0. -1.
       -1   -1    0    0    0  501  0.00000000000E+00  0.00000000000E+00 -0.15453068551E+04  0.15453068551E+04  0.50400001928E-02 0.  1.
    10030    2    1    2    0    0  0.00000000000E+00  0.00000000000E+00 -0.10191678129E+04  0.20714458973E+04  0.18033815665E+04 0.  0.
        4    1    3    3  502    0  0.40487384955E+03  0.69676945082E+03 -0.97423070200E+03  0.12643328578E+04  0.12699999809E+01 0.  1.
       -4    1    3    3    0  502 -0.40487384955E+03 -0.69676945082E+03 -0.44937110915E+02  0.80711303947E+03  0.12699999809E+01 0. -1.
</event>
<event>
 5   0  0.2422436E-06  0.3645948E+04  0.7818609E-02  0.8080047E-01
       -2   -1    0    0    0  501  0.00000000000E+00  0.00000000000E+00  0.16208532843E+04  0.16208532843E+04  0.25500000920E-02 0.  1.
        2   -1    0    0  501    0  0.00000000000E+00  0.00000000000E+00 -0.20502988992E+04  0.20502988992E+04  0.25500000920E-02 0. -1.
    10030    2    1    2    0    0  0.00000000000E+00  0.00000000000E+00 -0.42944561486E+03  0.36711521835E+04  0.36459477257E+04 0.  0.
        2    1    3    3  502    0  0.51162799024E+03 -0.14515236638E+04  0.76904179270E+03  0.17204968544E+04  0.25500000920E-02 0.  1.
       -2    1    3    3    0  502 -0.51162799024E+03  0.14515236638E+04 -0.11984874076E+04  0.19506553291E+04  0.25500000920E-02 0. -1.
</event>
<event>
 5   0  0.1634374E-06  0.3653917E+04  0.7818609E-02  0.8078252E-01
        1   -1    0    0  501    0  0.00000000000E+00  0.00000000000E+00  0.19855206243E+04  0.19855206244E+04  0.50400001928E-02 0.  1.
       -1   -1    0    0    0  501  0.00000000000E+00  0.00000000000E+00 -0.16810592449E+04  0.16810592450E+04  0.50400001928E-02 0. -1.
    10030    2    1    2    0    0  0.00000000000E+00  0.00000000000E+00  0.30446137940E+03  0.36665798693E+04  0.36539172413E+04 0.  0.
        5    1    3    3  502    0  0.35865189656E+03  0.16134979232E+04  0.93322665260E+03  0.18981414084E+04  0.46999998093E+01 0.  1.
       -5    1    3    3    0  502 -0.35865189656E+03 -0.16134979232E+04 -0.62876527320E+03  0.17684384609E+04  0.46999998093E+01 0. -1.
</event>
<event>
 5   0  0.8452742E-07  0.2242615E+04  0.7818609E-02  0.8500897E-01
       -1   -1    0    0    0  501  0.00000000000E+00  0.00000000000E+00  0.83275183614E+03  0.83275183615E+03  0.50400001928E-02 0.  1.
        1   -1    0    0  501    0  0.00000000000E+00  0.00000000000E+00 -0.15098501442E+04  0.15098501442E+04  0.50400001928E-02 0. -1.
    10030    2    1    2    0    0  0.00000000000E+00  0.00000000000E+00 -0.67709830807E+03  0.23426019804E+04  0.22426149736E+04 0.  0.
        1    1    3    3  502    0 -0.96129806393E+03  0.69364229826E+02 -0.93718396733E+03  0.13443285137E+04  0.50400001928E-02 0. -1.
       -1    1    3    3    0  502  0.96129806393E+03 -0.69364229826E+02  0.26008565926E+03  0.99827346667E+03  0.50400001928E-02 0.  1.
</event>
<event>
 5   0  0.2382711E-06  0.2152529E+04  0.7818609E-02  0.8538450E-01
        2   -1    0    0  501    0  0.00000000000E+00  0.00000000000E+00  0.10824413431E+04  0.10824413431E+04  0.25500000920E-02 0.  1.
       -2   -1    0    0    0  501  0.00000000000E+00  0.00000000000E+00 -0.10701231315E+04  0.10701231315E+04  0.25500000920E-02 0. -1.
    10030    2    1    2    0    0  0.00000000000E+00  0.00000000000E+00  0.12318211591E+02  0.21525644745E+04  0.21525292283E+04 0.  0.
        5    1    3    3  502    0 -0.94166990147E+03 -0.52087018943E+03  0.22756730172E+02  0.10763772184E+04  0.46999998093E+01 0.  1.
       -5    1    3    3    0  502  0.94166990147E+03  0.52087018943E+03 -0.10438518581E+02  0.10761872561E+04  0.46999998093E+01 0. -1.
</event>
<event>
 5   0  0.2422436E-06  0.3686052E+04  0.7818609E-02  0.8071060E-01
        2   -1    0    0  501    0  0.00000000000E+00  0.00000000000E+00  0.25776114251E+04  0.25776114251E+04  0.25500000920E-02 0.  1.
       -2   -1    0    0    0  501  0.00000000000E+00  0.00000000000E+00 -0.13177874301E+04  0.13177874302E+04  0.25500000920E-02 0. -1.
    10030    2    1    2    0    0  0.00000000000E+00  0.00000000000E+00  0.12598239950E+04  0.38953988553E+04  0.36860515112E+04 0.  0.
        2    1    3    3  502    0  0.34304968203E+03 -0.18088153812E+04  0.71988095426E+03  0.19767965894E+04  0.25500000920E-02 0.  1.
       -2    1    3    3    0  502 -0.34304968203E+03  0.18088153812E+04  0.53994304073E+03  0.19186022659E+04  0.25500000920E-02 0. -1.
</event>
<event>
 5   0  0.1513502E-06  0.3546404E+04  0.7818609E-02  0.8102880E-01
        2   -1    0    0  501    0  0.00000000000E+00  0.00000000000E+00  0.27876170734E+04  0.27876170734E+04  0.25500000920E-02 0.  1.
       -2   -1    0    0    0  501  0.00000000000E+00  0.00000000000E+00 -0.11279327462E+04  0.11279327462E+04  0.25500000920E-02 0. -1.
    10030    2    1    2    0    0  0.00000000000E+00  0.00000000000E+00  0.16596843272E+04  0.39155498197E+04  0.35464035761E+04 0.  0.
        3    1    3    3  502    0  0.67759100629E+03 -0.11739373967E+03  0.26343911258E+04  0.27226691822E+04  0.10100000352E+00 0.  1.
       -3    1    3    3    0  502 -0.67759100629E+03  0.11739373967E+03 -0.97470679855E+03  0.11928806375E+04  0.10100000352E+00 0. -1.
</event>
<event>
 5   0  0.1634374E-06  0.3549198E+04  0.7818609E-02  0.8102229E-01
       -1   -1    0    0    0  501  0.00000000000E+00  0.00000000000E+00  0.16440532737E+04  0.16440532737E+04  0.50400001928E-02 0.  1.
        1   -1    0    0  501    0  0.00000000000E+00  0.00000000000E+00 -0.19155107054E+04  0.19155107055E+04  0.50400001928E-02 0. -1.
    10030    2    1    2    0    0  0.00000000000E+00  0.00000000000E+00 -0.27145743177E+03  0.35595639791E+04  0.35491980199E+04 0.  0.
        5    1    3    3  502    0  0.26239023112E+03  0.14971753648E+04  0.78280471639E+03  0.17097333184E+04  0.46999998093E+01 0.  1.
       -5    1    3    3    0  502 -0.26239023112E+03 -0.14971753648E+04 -0.10542621482E+04  0.18498306607E+04  0.46999998093E+01 0. -1.
</event>
<event>
 5   0  0.7754556E-07  0.3460681E+04  0.7818609E-02  0.8123172E-01
        1   -1    0    0  501    0  0.00000000000E+00  0.00000000000E+00  0.21562122056E+04  0.21562122056E+04  0.50400001928E-02 0. -1.
       -1   -1    0    0    0  501  0.00000000000E+00  0.00000000000E+00 -0.13885827516E+04  0.13885827516E+04  0.50400001928E-02 0.  1.
    10030    2    1    2    0    0  0.00000000000E+00  0.00000000000E+00  0.76762945404E+03  0.35447949572E+04  0.34606814806E+04 0.  0.
        4    1    3    3  502    0 -0.42331810104E+03  0.10580500309E+04  0.17175412303E+04  0.20612174978E+04  0.12699999809E+01 0. -1.
       -4    1    3    3    0  502  0.42331810104E+03 -0.10580500309E+04 -0.94991177624E+03  0.14835774594E+04  0.12699999809E+01 0.  1.
</event>
<event>
 5   0  0.1908273E-06  0.2960813E+04  0.7818609E-02  0.8255010E-01
       -1   -1    0    0    0  501  0.00000000000E+00  0.00000000000E+00  0.89569558207E+03  0.89569558208E+03  0.50400001928E-02 0.  1.
        1   -1    0    0  501    0  0.00000000000E+00  0.00000000000E+00 -0.24468178878E+04  0.24468178879E+04  0.50400001928E-02 0. -1.
    10030    2    1    2    0    0  0.00000000000E+00  0.00000000000E+00 -0.15511223058E+04  0.33425134699E+04  0.29608133830E+04 0.  0.
        3    1    3    3  502    0  0.96155530290E+03 -0.57226203465E+03  0.31869200729E+03  0.11634590850E+04  0.10100000352E+00 0.  1.
       -3    1    3    3    0  502 -0.96155530290E+03  0.57226203465E+03 -0.18698143131E+04  0.21790543849E+04  0.10100000352E+00 0. -1.
</event>
<event>
 5   0  0.1513502E-06  0.3620896E+04  0.7818609E-02  0.8085722E-01
        2   -1    0    0  501    0  0.00000000000E+00  0.00000000000E+00  0.14042140850E+04  0.14042140850E+04  0.25500000920E-02 0.  1.
       -2   -1    0    0    0  501  0.00000000000E+00  0.00000000000E+00 -0.23342035507E+04  0.23342035507E+04  0.25500000920E-02 0. -1.
    10030    2    1    2    0    0  0.00000000000E+00  0.00000000000E+00 -0.92998946574E+03  0.37384176357E+04  0.36208957472E+04 0.  0.
        3    1    3    3  502    0 -0.89970719679E+03  0.97688852367E+03 -0.17353515882E+04  0.21852298215E+04  0.10100000352E+00 0. -1.
       -3    1    3    3    0  502  0.89970719679E+03 -0.97688852367E+03  0.80536212250E+03  0.15531878142E+04  0.10100000352E+00 0.  1.
</event>
<event>
 5   0  0.2422436E-06  0.1940768E+04  0.7818609E-02  0.8634826E-01
       -2   -1    0    0    0  501  0.00000000000E+00  0.00000000000E+00  0.74349513754E+03  0.74349513754E+03  0.25500000920E-02 0.  1.
        2   -1    0    0  501    0  0.00000000000E+00  0.00000000000E+00 -0.12665110356E+04  0.12665110356E+04  0.25500000920E-02 0. -1.
    10030    2    1    2    0    0  0.00000000000E+00  0.00000000000E+00 -0.52301589805E+03  0.20100061731E+04  0.19407676797E+04 0.  0.
        2    1    3    3  502    0  0.52986193332E+03  0.44611919762E+03 -0.96536286504E+03  0.11881504400E+04  0.25500000920E-02 0. -1.
       -2    1    3    3    0  502 -0.52986193332E+03 -0.44611919762E+03  0.44234696699E+03  0.82185573313E+03  0.25500000920E-02 0.  1.
</event>
<event>
 5   0  0.2422436E-06  0.3595202E+04  0.7818609E-02  0.8091592E-01
       -2   -1    0    0    0  501  0.00000000000E+00  0.00000000000E+00  0.22023623349E+04  0.22023623349E+04  0.25500000920E-02 0.  1.
        2   -1    0    0  501    0  0.00000000000E+00  0.00000000000E+00 -0.14672286050E+04  0.14672286050E+04  0.25500000920E-02 0. -1.
    10030    2    1    2    0    0  0.00000000000E+00  0.00000000000E+00  0.73513372991E+03  0.36695909399E+04  0.35952018115E+04 0.  0.
        2    1    3    3  502    0 -0.12755494489E+04 -0.74934161233E+03 -0.67475318243E+03  0.16259861948E+04  0.25500000920E-02 0. -1.
       -2    1    3    3    0  502  0.12755494489E+04  0.74934161233E+03  0.14098869123E+04  0.20436047451E+04  0.25500000920E-02 0.  1.
</event>
<event>
 5   0  0.1513502E-06  0.3556603E+04  0.7818609E-02  0.8100505E-01
       -2   -1    0    0    0  501  0.00000000000E+00  0.00000000000E+00  0.16014805755E+04  0.16014805755E+04  0.25500000920E-02 0. -1.
        2   -1    0    0  501    0  0.00000000000E+00  0.00000000000E+00 -0.19746448461E+04  0.19746448461E+04  0.25500000920E-02 0.  1.
    10030    2    1    2    0    0  0.00000000000E+00  0.00000000000E+00 -0.37316427058E+03  0.35761254216E+04  0.35566025162E+04 0.  0.
        3    1    3    3  502    0  0.52045796897E+03  0.11101314412E+04  0.11085437870E+04  0.16529179205E+04  0.10100000352E+00 0. -1.
       -3    1    3    3    0  502 -0.52045796897E+03 -0.11101314412E+04 -0.14817080576E+04  0.19232075011E+04  0.10100000352E+00 0.  1.
</event>
<event>
 5   0  0.1566576E-06  0.3555728E+04  0.7818609E-02  0.8100709E-01
        2   -1    0    0  501    0  0.00000000000E+00  0.00000000000E+00  0.21491329304E+04  0.21491329304E+04  0.25500000920E-02 0. -1.
       -2   -1    0    0    0  501  0.00000000000E+00  0.00000000000E+00 -0.14707325290E+04  0.14707325290E+04  0.25500000920E-02 0.  1.
    10030    2    1    2    0    0  0.00000000000E+00  0.00000000000E+00  0.67840040136E+03  0.36198654594E+04  0.35557276104E+04 0.  0.
        4    1    3    3  502    0  0.12740662733E+04  0.11871439289E+04 -0.25368992571E+02  0.17416086746E+04  0.12699999809E+01 0. -1.
       -4    1    3    3    0  502 -0.12740662733E+04 -0.11871439289E+04  0.70376939393E+03  0.18782567848E+04  0.12699999809E+01 0.  1.
</event>
<event>
 5   0  0.2422436E-06  0.3524534E+04  0.7818609E-02  0.8108000E-01
       -2   -1    0    0    0  501  0.00000000000E+00  0.00000000000E+00  0.11201065806E+04  0.11201065806E+04  0.25500000920E-02 0.  1.
        2   -1    0    0  501    0  0.00000000000E+00  0.00000000000E+00 -0.27725794266E+04  0.27725794266E+04  0.25500000920E-02 0. -1.
    10030    2    1    2    0    0  0.00000000000E+00  0.00000000000E+00 -0.16524728460E+04  0.38926860072E+04  0.35245337059E+04 0.  0.
        2    1    3    3  502    0 -0.11927326154E+04 -0.88740950459E+03 -0.18713779477E+04  0.23900130008E+04  0.25500000920E-02 0. -1.
       -2    1    3    3    0  502  0.11927326154E+04  0.88740950459E+03  0.21890510172E+03  0.15026730064E+04  0.25500000920E-02 0.  1.
</event>
<event>
 5   0  0.1566576E-06  0.1788419E+04  0.7818609E-02  0.8712482E-01
       -2   -1    0    0    0  501  0.00000000000E+00  0.00000000000E+00  0.54546968315E+03  0.54546968316E+03  0.25500000920E-02 0. -1.
        2   -1    0    0  501    0  0.00000000000E+00  0.00000000000E+00 -0.14659124119E+04  0.14659124119E+04  0.25500000920E-02 0.  1.
    10030    2    1    2    0    0  0.00000000000E+00  0.00000000000E+00 -0.92044272876E+03  0.20113820951E+04  0.17884191666E+04 0.  0.
        4    1    3    3  502    0 -0.61606801213E+03 -0.20812252599E+03  0.23010493946E+03  0.68978596496E+03  0.12699999809E+01 0. -1.
       -4    1    3    3    0  502  0.61606801213E+03  0.20812252599E+03 -0.11505476682E+04  0.13215961301E+04  0.12699999809E+01 0.  1.
</event>
<event>
 5   0  0.8423692E-07  0.3578716E+04  0.7818609E-02  0.8095385E-01
        1   -1    0    0  501    0  0.00000000000E+00  0.00000000000E+00  0.26210093566E+04  0.26210093566E+04  0.50400001928E-02 0. -1.
       -1   -1    0    0    0  501  0.00000000000E+00  0.00000000000E+00 -0.12215908989E+04  0.12215908989E+04  0.50400001928E-02 0.  1.
    10030    2    1    2    0    0  0.00000000000E+00  0.00000000000E+00  0.13994184577E+04  0.38426002555E+04  0.35787155104E+04 0.  0.
        2    1    3    3  502    0  0.14364723654E+04  0.17039927433E+03 -0.43119275739E+03  0.15094422690E+04  0.25500000920E-02 0.  1.
       -2    1    3    3    0  502 -0.14364723654E+04 -0.17039927433E+03  0.18306112151E+04  0.23331579866E+04  0.25500000920E-02 0. -1.
</event>
<event>
 5   0  0.8379743E-07  0.2002623E+04  0.7818609E-02  0.8605395E-01
       -1   -1    0    0    0  501  0.00000000000E+00  0.00000000000E+00  0.10438066716E+04  0.10438066716E+04  0.50400001928E-02 0. -1.
        1   -1    0    0  501    0  0.00000000000E+00  0.00000000000E+00 -0.96054598953E+03  0.96054598955E+03  0.50400001928E-02 0.  1.
    10030    2    1    2    0    0  0.00000000000E+00  0.00000000000E+00  0.83260682089E+02  0.20043526612E+04  0.20026225928E+04 0.  0.
        4    1    3    3  502    0  0.76817888891E+03 -0.14708529464E+03  0.66738227460E+03  0.10281700261E+04  0.12699999809E+01 0. -1.
       -4    1    3    3    0  502 -0.76817888891E+03  0.14708529464E+03 -0.58412159251E+03  0.97618263506E+03  0.12699999809E+01 0.  1.
</event>
<event>
 5   0  0.8423692E-07  0.3339796E+04  0.7818609E-02  0.8152842E-01
        1   -1    0    0  501    0  0.00000000000E+00  0.00000000000E+00  0.15989518337E+04  0.15989518337E+04  0.50400001928E-02 0.  1.
       -1   -1    0    0    0  501  0.00000000000E+00  0.00000000000E+00 -0.17439924132E+04  0.17439924133E+04  0.50400001928E-02 0. -1.
    10030    2    1    2    0    0  0.00000000000E+00  0.00000000000E+00 -0.14504057959E+03  0.33429442469E+04  0.33397963214E+04 0.  0.
        2    1    3    3  502    0  0.83389769010E+03  0.18546554203E+03  0.13636760312E+04  0.16091597630E+04  0.25500000920E-02 0.  1.
       -2    1    3    3    0  502 -0.83389769010E+03 -0.18546554203E+03 -0.15087166108E+04  0.17337844839E+04  0.25500000920E-02 0. -1.
</event>
<event>
 5   0  0.1566576E-06  0.1868921E+04  0.7818609E-02  0.8670483E-01
       -2   -1    0    0    0  501  0.00000000000E+00  0.00000000000E+00  0.14805435507E+04  0.14805435507E+04  0.25500000920E-02 0. -1.
        2   -1    0    0  501    0  0.00000000000E+00  0.00000000000E+00 -0.58979443803E+03  0.58979443803E+03  0.25500000920E-02 0.  1.
    10030    2    1    2    0    0  0.00000000000E+00  0.00000000000E+00  0.89074911265E+03  0.20703379887E+04  0.18689209202E+04 0.  0.
        4    1    3    3  502    0 -0.67947054850E+02  0.55643391592E+03 -0.38285011379E+03  0.67883085343E+03  0.12699999809E+01 0.  1.
       -4    1    3    3    0  502  0.67947054850E+02 -0.55643391592E+03  0.12735992264E+04  0.13915071353E+04  0.12699999809E+01 0. -1.
</event>
<event>
 5   0  0.1634374E-06  0.3565283E+04  0.7818609E-02  0.8098491E-01
        1   -1    0    0  501    0  0.00000000000E+00  0.00000000000E+00  0.27480867962E+04  0.27480867962E+04  0.50400001928E-02 0. -1.
       -1   -1    0    0    0  501  0.00000000000E+00  0.00000000000E+00 -0.11563723254E+04  0.11563723255E+04  0.50400001928E-02 0.  1.
    10030    2    1    2    0    0  0.00000000000E+00  0.00000000000E+00  0.15917144708E+04  0.39044591217E+04  0.35652834496E+04 0.  0.
        5    1    3    3  502    0  0.85575972252E+03  0.12630896354E+04  0.18055610175E+04  0.23638512659E+04  0.46999998093E+01 0. -1.
       -5    1    3    3    0  502 -0.85575972252E+03 -0.12630896354E+04 -0.21384654670E+03  0.15406078557E+04  0.46999998093E+01 0.  1.
</event>
<event>
 5   0  0.2382711E-06  0.3651969E+04  0.7818609E-02  0.8078690E-01
        2   -1    0    0  501    0  0.00000000000E+00  0.00000000000E+00  0.24994473043E+04  0.24994473043E+04  0.25500000920E-02 0.  1.
       -2   -1    0    0    0  501  0.00000000000E+00  0.00000000000E+00 -0.13339827071E+04  0.13339827071E+04  0.25500000920E-02 0. -1.
    10030    2    1    2    0    0  0.00000000000E+00  0.00000000000E+00  0.11654645972E+04  0.38334300114E+04  0.36519690476E+04 0.  0.
        5    1    3    3  502    0  0.17783510487E+04  0.40056567170E+03  0.47158380719E+03  0.18829229105E+04  0.46999998093E+01 0. -1.
       -5    1    3    3    0  502 -0.17783510487E+04 -0.40056567170E+03  0.69388079000E+03  0.19505071008E+04  0.46999998093E+01 0.  1.
</event>
<event>
 5   0  0.8423692E-07  0.3076518E+04  0.7818609E-02  0.8222212E-01
        1   -1    0    0  501    0  0.00000000000E+00  0.00000000000E+00  0.18750276165E+04  0.18750276165E+04  0.50400001928E-02 0.  1.
       -1   -1    0    0    0  501  0.00000000000E+00  0.00000000000E+00 -0.12619768159E+04  0.12619768160E+04  0.50400001928E-02 0. -1.
    10030    2    1    2    0    0  0.00000000000E+00  0.00000000000E+00  0.61305080057E+03  0.31370044325E+04  0.30765184097E+04 0.  0.
        2    1    3    3  502    0  0.65534602987E+03  0.13799314643E+04  0.49049464625E+03  0.16044545064E+04  0.25500000920E-02 0. -1.
       -2    1    3    3    0  502 -0.65534602987E+03 -0.13799314643E+04  0.12255615432E+03  0.15325499261E+04  0.25500000920E-02 0.  1.
</event>
<event>
 5   0  0.7754556E-07  0.3453387E+04  0.7818609E-02  0.8124926E-01
       -1   -1    0    0    0  501  0.00000000000E+00  0.00000000000E+00  0.12982905074E+04  0.12982905074E+04  0.50400001928E-02 0.  1.
        1   -1    0    0  501    0  0.00000000000E+00  0.00000000000E+00 -0.22964588728E+04  0.22964588728E+04  0.50400001928E-02 0. -1.
    10030    2    1    2    0    0  0.00000000000E+00  0.00000000000E+00 -0.99816836538E+03  0.35947493802E+04  0.34533871808E+04 0.  0.
        4    1    3    3  502    0  0.11492719196E+03  0.29838785098E+03 -0.22653708491E+04  0.22878265375E+04  0.12699999809E+01 0. -1.
       -4    1    3    3    0  502 -0.11492719196E+03 -0.29838785098E+03  0.12672024837E+04  0.13069228427E+04  0.12699999809E+01 0.  1.
</event>
<event>
 5   0  0.1513502E-06  0.3561256E+04  0.7818609E-02  0.8099425E-01
       -2   -1    0    0    0  501  0.00000000000E+00  0.00000000000E+00  0.33022645394E+04  0.33022645394E+04  0.25500000920E-02 0. -1.
        2   -1    0    0  501    0  0.00000000000E+00  0.00000000000E+00 -0.96013988095E+03  0.96013988096E+03  0.25500000920E-02 0.  1.
    10030    2    1    2    0    0  0.00000000000E+00  0.00000000000E+00  0.23421246585E+04  0.42624044204E+04  0.35612558918E+04 0.  0.
        3    1    3    3  502    0 -0.72809694161E+03 -0.15928196293E+04  0.15559979073E+04  0.23427182984E+04  0.10100000352E+00 0. -1.
       -3    1    3    3    0  502  0.72809694161E+03  0.15928196293E+04  0.78612675115E+03  0.19196861220E+04  0.10100000352E+00 0.  1.
</event>
<event>
 5   0  0.2382711E-06  0.3632646E+04  0.7818609E-02  0.8083054E-01
        2   -1    0    0  501    0  0.00000000000E+00  0.00000000000E+00  0.13727391179E+04  0.13727391179E+04  0.25500000920E-02 0. -1.
       -2   -1    0    0    0  501  0.00000000000E+00  0.00000000000E+00 -0.24032454985E+04  0.24032454985E+04  0.25500000920E-02 0.  1.
    10030    2    1    2    0    0  0.00000000000E+00  0.00000000000E+00 -0.10305063806E+04  0.37759846163E+04  0.36326459258E+04 0.  0.
        5    1    3    3  502    0 -0.13385305844E+04  0.11550125476E+04 -0.82547580285E+02  0.17699023429E+04  0.46999998093E+01 0. -1.
       -5    1    3    3    0  502  0.13385305844E+04 -0.11550125476E+04 -0.94795880035E+03  0.20060822734E+04  0.46999998093E+01 0.  1.
</event>
<event>
 5   0  0.1513502E-06  0.3653514E+04  0.7818609E-02  0.8078342E-01
       -2   -1    0    0    0  501  0.00000000000E+00  0.00000000000E+00  0.25192262787E+04  0.25192262787E+04  0.25500000920E-02 0. -1.
        2   -1    0    0  501    0  0.00000000000E+00  0.00000000000E+00 -0.13246294155E+04  0.13246294155E+04  0.25500000920E-02 0.  1.
    10030    2    1    2    0    0  0.00000000000E+00  0.00000000000E+00  0.11945968632E+04  0.38438556942E+04  0.36535140526E+04 0.  0.
        3    1    3    3  502    0 -0.11577148204E+04 -0.88709894523E+03  0.17545075332E+04  0.22815663124E+04  0.10100000352E+00 0. -1.
       -3    1    3    3    0  502  0.11577148204E+04  0.88709894523E+03 -0.55991066998E+03  0.15622893818E+04  0.10100000352E+00 0.  1.
</event>
<event>
 5   0  0.1634374E-06  0.3595817E+04  0.7818609E-02  0.8091450E-01
       -1   -1    0    0    0  501  0.00000000000E+00  0.00000000000E+00  0.16623350600E+04  0.16623350600E+04  0.50400001928E-02 0. -1.
        1   -1    0    0  501    0  0.00000000000E+00  0.00000000000E+00 -0.19445392889E+04  0.19445392889E+04  0.50400001928E-02 0.  1.
    10030    2    1    2    0    0  0.00000000000E+00  0.00000000000E+00 -0.28220422894E+03  0.36068743489E+04  0.35958174789E+04 0.  0.
        5    1    3    3  502    0  0.10633038298E+04 -0.12478611807E+04 -0.88139667917E+03  0.18613583096E+04  0.46999998093E+01 0.  1.
       -5    1    3    3    0  502 -0.10633038298E+04  0.12478611807E+04  0.59919245023E+03  0.17455160392E+04  0.46999998093E+01 0. -1.
</event>
<event>
 5   0  0.1513502E-06  0.3587693E+04  0.7818609E-02  0.8093317E-01
       -2   -1    0    0    0  501  0.00000000000E+00  0.00000000000E+00  0.94821638477E+03  0.94821638477E+03  0.25500000920E-02 0. -1.
        2   -1    0    0  501    0  0.00000000000E+00  0.00000000000E+00 -0.33936187867E+04  0.33936187867E+04  0.25500000920E-02 0.  1.
    10030    2    1    2    0    0  0.00000000000E+00  0.00000000000E+00 -0.24454024019E+04  0.43418351714E+04  0.35876928169E+04 0.  0.
        3    1    3    3  502    0 -0.22184501196E+03 -0.17743120291E+04 -0.10494834488E+04  0.20733581228E+04  0.10100000352E+00 0. -1.
       -3    1    3    3    0  502  0.22184501196E+03  0.17743120291E+04 -0.13959189531E+04  0.22684770486E+04  0.10100000352E+00 0.  1.
</event>
<event>
 5   0  0.8452742E-07  0.3027648E+04  0.7818609E-02  0.8235880E-01
       -1   -1    0    0    0  501  0.00000000000E+00  0.00000000000E+00  0.19232464705E+04  0.19232464705E+04  0.50400001928E-02 0. -1.
        1   -1    0    0  501    0  0.00000000000E+00  0.00000000000E+00 -0.11915597229E+04  0.11915597229E+04  0.50400001928E-02 0.  1.
    10030    2    1    2    0    0  0.00000000000E+00  0.00000000000E+00  0.73168674754E+03  0.31148061934E+04  0.30276479528E+04 0.  0.
        1    1    3    3  502    0  0.10945431072E+04 -0.89967403663E+03 -0.18263161388E+03  0.14285630165E+04  0.50400001928E-02 0.  1.
       -1    1    3    3    0  502 -0.10945431072E+04  0.89967403663E+03  0.91431836142E+03  0.16862431769E+04  0.50400001928E-02 0. -1.
</event>
<event>
 5   0  0.1908273E-06  0.3468290E+04  0.7818609E-02  0.8121346E-01
        1   -1    0    0  501    0  0.00000000000E+00  0.00000000000E+00  0.16952231559E+04  0.16952231559E+04  0.50400001928E-02 0. -1.
       -1   -1    0    0    0  501  0.00000000000E+00  0.00000000000E+00 -0.17739607450E+04  0.17739607450E+04  0.50400001928E-02 0.  1.
    10030    2    1    2    0    0  0.00000000000E+00  0.00000000000E+00 -0.78737589109E+02  0.34691839009E+04  0.34682902603E+04 0.  0.
        3    1    3    3  502    0  0.11145686301E+04  0.80417412897E+03  0.10184007543E+04  0.17105845105E+04  0.10100000352E+00 0. -1.
       -3    1    3    3    0  502 -0.11145686301E+04 -0.80417412897E+03 -0.10971383434E+04  0.17585993904E+04  0.10100000352E+00 0.  1.
</event>
<event>
 5   0  0.1513502E-06  0.3615415E+04  0.7818609E-02  0.8086970E-01
        2   -1    0    0  501    0  0.00000000000E+00  0.00000000000E+00  0.26648073225E+04  0.26648073225E+04  0.25500000920E-02 0.  1.
       -2   -1    0    0    0  501  0.00000000000E+00  0.00000000000E+00 -0.12262824097E+04  0.12262824097E+04  0.25500000920E-02 0. -1.
    10030    2    1    2    0    0  0.00000000000E+00  0.00000000000E+00  0.14385249128E+04  0.38910897321E+04  0.36154149663E+04 0.  0.
        3    1    3    3  502    0 -0.45211283227E+03 -0.10891297419E+04  0.21938412667E+04  0.24906924984E+04  0.10100000352E+00 0.  1.
       -3    1    3    3    0  502  0.45211283227E+03  0.10891297419E+04 -0.75531635386E+03  0.14003972338E+04  0.10100000352E+00 0. -1.
</event>
<event>
 5   0  0.8452742E-07  0.3594513E+04  0.7818609E-02  0.8091750E-01
        1   -1    0    0  501    0  0.00000000000E+00  0.00000000000E+00  0.17566753180E+04  0.17566753180E+04  0.50400001928E-02 0. -1.
       -1   -1    0    0    0  501  0.00000000000E+00  0.00000000000E+00 -0.18387747388E+04  0.18387747388E+04  0.50400001928E-02 0.  1.
    10030    2    1    2    0    0  0.00000000000E+00  0.00000000000E+00 -0.82099420823E+02  0.35954500568E+04  0.35945125950E+04 0.  0.
        1    1    3    3  502    0 -0.35512220430E+02  0.79762153612E+03  0.15695469173E+04  0.17609482555E+04  0.50400001928E-02 0. -1.
       -1    1    3    3    0  502  0.35512220430E+02 -0.79762153612E+03 -0.16516463382E+04  0.18345018013E+04  0.50400001928E-02 0.  1.
</event>
<event>
 5   0  0.2382711E-06  0.3582782E+04  0.7818609E-02  0.8094447E-01
       -2   -1    0    0    0  501  0.00000000000E+00  0.00000000000E+00  0.13340851913E+04  0.13340851913E+04  0.25500000920E-02 0.  1.
        2   -1    0    0  501    0  0.00000000000E+00  0.00000000000E+00 -0.24054554408E+04  0.24054554408E+04  0.25500000920E-02 0. -1.
    10030    2    1    2    0    0  0.00000000000E+00  0.00000000000E+00 -0.10713702495E+04  0.37395406321E+04  0.35827824282E+04 0.  0.
        5    1    3    3  502    0  0.11714007751E+04 -0.79608359196E+02  0.87648754846E+03  0.14651859197E+04  0.46999998093E+01 0.  1.
       -5    1    3    3    0  502 -0.11714007751E+04  0.79608359196E+02 -0.19478577979E+04  0.22743547124E+04  0.46999998093E+01 0. -1.
</event>
<event>
 5   0  0.2422436E-06  0.3595361E+04  0.7818609E-02  0.8091555E-01
        2   -1    0    0  501    0  0.00000000000E+00  0.00000000000E+00  0.27621733148E+04  0.27621733148E+04  0.25500000920E-02 0. -1.
       -2   -1    0    0    0  501  0.00000000000E+00  0.00000000000E+00 -0.11699682673E+04  0.11699682673E+04  0.25500000920E-02 0.  1.
    10030    2    1    2    0    0  0.00000000000E+00  0.00000000000E+00  0.15922050474E+04  0.39321415821E+04  0.35953609706E+04 0.  0.
        2    1    3    3  502    0 -0.64086095232E+03 -0.14412035779E+04  0.17393799366E+04  0.23480232276E+04  0.25500000920E-02 0. -1.
       -2    1    3    3    0  502  0.64086095232E+03  0.14412035779E+04 -0.14717488921E+03  0.15841183545E+04  0.25500000920E-02 0.  1.
</event>
<event>
 5   0  0.2422436E-06  0.3622945E+04  0.7818609E-02  0.8085256E-01
       -2   -1    0    0    0  501  0.00000000000E+00  0.00000000000E+00  0.11849621312E+04  0.11849621313E+04  0.25500000920E-02 0. -1.
        2   -1    0    0  501    0  0.00000000000E+00  0.00000000000E+00 -0.27692298578E+04  0.27692298578E+04  0.25500000920E-02 0.  1.
    10030    2    1    2    0    0  0.00000000000E+00  0.00000000000E+00 -0.15842677265E+04  0.39541919890E+04  0.36229449426E+04 0.  0.
        2    1    3    3  502    0 -0.19326155569E+03 -0.15051209835E+04  0.28760647764E+03  0.15444923729E+04  0.25500000920E-02 0. -1.
       -2    1    3    3    0  502  0.19326155569E+03  0.15051209835E+04 -0.18718742042E+04  0.24096996162E+04  0.25500000920E-02 0.  1.
</event>
<event>
 5   0  0.1566576E-06  0.2302123E+04  0.7818609E-02  0.8477084E-01
       -2   -1    0    0    0  501  0.00000000000E+00  0.00000000000E+00  0.10000763569E+04  0.10000763570E+04  0.25500000920E-02 0. -1.
        2   -1    0    0  501    0  0.00000000000E+00  0.00000000000E+00 -0.13248418282E+04  0.13248418282E+04  0.25500000920E-02 0.  1.
    10030    2    1    2    0    0  0.00000000000E+00  0.00000000000E+00 -0.32476547128E+03  0.23249181852E+04  0.23021233582E+04 0.  0.
        4    1    3    3  502    0 -0.11088292812E+04 -0.30631973971E+03 -0.20286982408E+03  0.11681146930E+04  0.12699999809E+01 0.  1.
       -4    1    3    3    0  502  0.11088292812E+04  0.30631973971E+03 -0.12189564720E+03  0.11568034921E+04  0.12699999809E+01 0. -1.
</event>
<event>
 5   0  0.2536619E-06  0.3343020E+04  0.7818609E-02  0.8152034E-01
       -2   -1    0    0    0  501  0.00000000000E+00  0.00000000000E+00  0.12736826996E+04  0.12736826996E+04  0.25500000920E-02 0. -1.
        2   -1    0    0  501    0  0.00000000000E+00  0.00000000000E+00 -0.21935960721E+04  0.21935960721E+04  0.25500000920E-02 0.  1.
    10030    2    1    2    0    0  0.00000000000E+00  0.00000000000E+00 -0.91991337255E+03  0.34672787717E+04  0.33430198126E+04 0.  0.
        1    1    3    3  502    0  0.26539073396E+03 -0.11615544019E+04 -0.16758383075E+04  0.20562283198E+04  0.50400001928E-02 0.  1.
       -1    1    3    3    0  502 -0.26539073396E+03  0.11615544019E+04  0.75592493495E+03  0.14110504518E+04  0.50400001928E-02 0. -1.
</event>
<event>
 5   0  0.2382711E-06  0.3499228E+04  0.7818609E-02  0.8113973E-01
        2   -1    0    0  501    0  0.00000000000E+00  0.00000000000E+00  0.29076424617E+04  0.29076424617E+04  0.25500000920E-02 0.  1.
       -2   -1    0    0    0  501  0.00000000000E+00  0.00000000000E+00 -0.10527939739E+04  0.10527939739E+04  0.25500000920E-02 0. -1.
    10030    2    1    2    0    0  0.00000000000E+00  0.00000000000E+00  0.18548484878E+04  0.39604364355E+04  0.34992276072E+04 0.  0.
        5    1    3    3  502    0 -0.10555908647E+04 -0.13682866923E+04  0.61819994113E+03  0.18353947268E+04  0.46999998093E+01 0. -1.
       -5    1    3    3    0  502  0.10555908647E+04  0.13682866923E+04  0.12366485467E+04  0.21250417088E+04  0.46999998093E+01 0.  1.
</event>
<event>
 5   0  0.1566576E-06  0.3628532E+04  0.7818609E-02  0.8083987E-01
       -2   -1    0    0    0  501  0.00000000000E+00  0.00000000000E+00  0.13669742713E+04  0.13669742713E+04  0.25500000920E-02 0. -1.
        2   -1    0    0  501    0  0.00000000000E+00  0.00000000000E+00 -0.24079171673E+04  0.24079171673E+04  0.25500000920E-02 0.  1.
    10030    2    1    2    0    0  0.00000000000E+00  0.00000000000E+00 -0.10409428960E+04  0.37748914386E+04  0.36285318327E+04 0.  0.
        4    1    3    3  502    0  0.47487132766E+03  0.13765119030E+04 -0.16463778778E+04  0.21979193631E+04  0.12699999809E+01 0.  1.
       -4    1    3    3    0  502 -0.47487132766E+03 -0.13765119030E+04  0.60543498183E+03  0.15769720756E+04  0.12699999809E+01 0. -1.
</event>
<event>
 5   0  0.2536619E-06  0.3682523E+04  0.7818609E-02  0.8071846E-01
        2   -1    0    0  501    0  0.00000000000E+00  0.00000000000E+00  0.16944637220E+04  0.16944637220E+04  0.25500000920E-02 0. -1.
       -2   -1    0    0    0  501  0.00000000000E+00  0.00000000000E+00 -0.20007767842E+04  0.20007767842E+04  0.25500000920E-02 0.  1.
    10030    2    1    2    0    0  0.00000000000E+00  0.00000000000E+00 -0.30631306229E+03  0.36952405062E+04  0.36825228725E+04 0.  0.
        1    1    3    3  502    0 -0.12882343003E+03  0.16421694986E+04  0.67244092856E+03  0.17791832229E+04  0.50400001928E-02 0.  1.
       -1    1    3    3    0  502  0.12882343003E+03 -0.16421694986E+04 -0.97875399085E+03  0.19160572833E+04  0.50400001928E-02 0. -1.
</event>
<event>
 5   0  0.8452742E-07  0.2475635E+04  0.7818609E-02  0.8411717E-01
        1   -1    0    0  501    0  0.00000000000E+00  0.00000000000E+00  0.11938795468E+04  0.11938795468E+04  0.50400001928E-02 0.  1.
       -1   -1    0    0    0  501  0.00000000000E+00  0.00000000000E+00 -0.12833726649E+04  0.12833726649E+04  0.50400001928E-02 0. -1.
    10030    2    1    2    0    0  0.00000000000E+00  0.00000000000E+00 -0.89493118076E+02  0.24772522117E+04  0.24756351715E+04 0.  0.
        1    1    3    3  502    0 -0.25840547832E+03  0.12074091978E+04  0.42385074024E+02  0.12354783918E+04  0.50400001928E-02 0. -1.
       -1    1    3    3    0  502  0.25840547832E+03 -0.12074091978E+04 -0.13187819210E+03  0.12417738199E+04  0.50400001928E-02 0.  1.
</event>
<event>
 5   0  0.1513502E-06  0.3532728E+04  0.7818609E-02  0.8106077E-01
        2   -1    0    0  501    0  0.00000000000E+00  0.00000000000E+00  0.15130484042E+04  0.15130484042E+04  0.25500000920E-02 0.  1.
       -2   -1    0    0    0  501  0.00000000000E+00  0.00000000000E+00 -0.20620904408E+04  0.20620904408E+04  0.25500000920E-02 0. -1.
    10030    2    1    2    0    0  0.00000000000E+00  0.00000000000E+00 -0.54904203656E+03  0.35751388449E+04  0.35327284926E+04 0.  0.
        3    1    3    3  502    0  0.96402174865E+03  0.87999323424E+03  0.92985701815E+03  0.16026104045E+04  0.10100000352E+00 0.  1.
       -3    1    3    3    0  502 -0.96402174865E+03 -0.87999323424E+03 -0.14788990547E+04  0.19725284405E+04  0.10100000352E+00 0. -1.
</event>
<event>
 5   0  0.8423692E-07  0.3438489E+04  0.7818609E-02  0.8128524E-01
       -1   -1    0    0    0  501  0.00000000000E+00  0.00000000000E+00  0.18047190195E+04  0.18047190195E+04  0.50400001928E-02 0.  1.
        1   -1    0    0  501    0  0.00000000000E+00  0.00000000000E+00 -0.16378180659E+04  0.16378180659E+04  0.50400001928E-02 0. -1.
    10030    2    1    2    0    0  0.00000000000E+00  0.00000000000E+00  0.16690095365E+03  0.34425370854E+04  0.34384888623E+04 0.  0.
        2    1    3    3  502    0  0.14744653106E+04  0.61799139014E+03  0.71652404465E+03  0.17519611916E+04  0.25500000920E-02 0.  1.
       -2    1    3    3    0  502 -0.14744653106E+04 -0.61799139014E+03 -0.54962309100E+03  0.16905758938E+04  0.25500000920E-02 0. -1.
</event>
<event>
 5   0  0.2536619E-06  0.3576525E+04  0.7818609E-02  0.8095890E-01
       -2   -1    0    0    0  501  0.00000000000E+00  0.00000000000E+00  0.17836460503E+04  0.17836460503E+04  0.25500000920E-02 0. -1.
        2   -1    0    0  501    0  0.00000000000E+00  0.00000000000E+00 -0.17928904859E+04  0.17928904859E+04  0.25500000920E-02 0.  1.
    10030    2    1    2    0    0  0.00000000000E+00  0.00000000000E+00 -0.92444356227E+01  0.35765365362E+04  0.35765245890E+04 0.  0.
        1    1    3    3  502    0  0.48247376020E+03 -0.35804639695E+03  0.16796945088E+04  0.17839147386E+04  0.50400001928E-02 0. -1.
       -1    1    3    3    0  502 -0.48247376020E+03  0.35804639695E+03 -0.16889389444E+04  0.17926217977E+04  0.50400001928E-02 0.  1.
</event>
<event>
 5   0  0.2422436E-06  0.3532576E+04  0.7818609E-02  0.8106113E-01
        2   -1    0    0  501    0  0.00000000000E+00  0.00000000000E+00  0.10607092086E+04  0.10607092086E+04  0.25500000920E-02 0.  1.
       -2   -1    0    0    0  501  0.00000000000E+00  0.00000000000E+00 -0.29412146028E+04  0.29412146028E+04  0.25500000920E-02 0. -1.
    10030    2    1    2    0    0  0.00000000000E+00  0.00000000000E+00 -0.18805053942E+04  0.40019238114E+04  0.35325760649E+04 0.  0.
        2    1    3    3  502    0  0.15816110229E+04  0.43238667629E+03 -0.19624406793E+03  0.16513519914E+04  0.25500000920E-02 0.  1.
       -2    1    3    3    0  502 -0.15816110229E+04 -0.43238667629E+03 -0.16842613263E+04  0.23505718200E+04  0.25500000920E-02 0. -1.
</event>
<event>
 5   0  0.1634374E-06  0.3439917E+04  0.7818609E-02  0.8128178E-01
        1   -1    0    0  501    0  0.00000000000E+00  0.00000000000E+00  0.30124013021E+04  0.30124013021E+04  0.50400001928E-02 0.  1.
       -1   -1    0    0    0  501  0.00000000000E+00  0.00000000000E+00 -0.98202624747E+03  0.98202624748E+03  0.50400001928E-02 0. -1.
    10030    2    1    2    0    0  0.00000000000E+00  0.00000000000E+00  0.20303750547E+04  0.39944275496E+04  0.34399169447E+04 0.  0.
        5    1    3    3  502    0 -0.13341209404E+03 -0.82448750711E+03  0.27611057261E+04  0.28846672870E+04  0.46999998093E+01 0.  1.
       -5    1    3    3    0  502  0.13341209404E+03  0.82448750711E+03 -0.73073067144E+03  0.11097602626E+04  0.46999998093E+01 0. -1.
</event>
<event>
 5   0  0.1566576E-06  0.2046333E+04  0.7818609E-02  0.8585260E-01
        2   -1    0    0  501    0  0.00000000000E+00  0.00000000000E+00  0.21455635363E+04  0.21455635363E+04  0.25500000920E-02 0. -1.
       -2   -1    0    0    0  501  0.00000000000E+00  0.00000000000E+00 -0.48792297908E+03  0.48792297909E+03  0.25500000920E-02 0.  1.
    10030    2    1    2    0    0  0.00000000000E+00  0.00000000000E+00  0.16576405572E+04  0.26334865154E+04  0.20463330642E+04 0.  0.
        4    1    3    3  502    0 -0.62453419853E+03 -0.63999692678E+03  0.14687091812E+04  0.17195194978E+04  0.12699999809E+01 0. -1.
       -4    1    3    3    0  502  0.62453419853E+03  0.63999692678E+03  0.18893137595E+03  0.91396701754E+03  0.12699999809E+01 0.  1.
</event>
<event>
 5   0  0.1513502E-06  0.3604937E+04  0.7818609E-02  0.8089362E-01
       -2   -1    0    0    0  501  0.00000000000E+00  0.00000000000E+00  0.13942601285E+04  0.13942601285E+04  0.25500000920E-02 0.  1.
        2   -1    0    0  501    0  0.00000000000E+00  0.00000000000E+00 -0.23301917626E+04  0.23301917626E+04  0.25500000920E-02 0. -1.
    10030    2    1    2    0    0  0.00000000000E+00  0.00000000000E+00 -0.93593163411E+03  0.37244518911E+04  0.36049374288E+04 0.  0.
        3    1    3    3  502    0 -0.99650075953E+03  0.13223194752E+03  0.10777617187E+04  0.14737942136E+04  0.10100000352E+00 0.  1.
       -3    1    3    3    0  502  0.99650075953E+03 -0.13223194752E+03 -0.20136933528E+04  0.22506576774E+04  0.10100000352E+00 0. -1.
</event>
<event>
 5   0  0.8423692E-07  0.3318074E+04  0.7818609E-02  0.8158312E-01
        1   -1    0    0  501    0  0.00000000000E+00  0.00000000000E+00  0.28132059311E+04  0.28132059311E+04  0.50400001928E-02 0.  1.
       -1   -1    0    0    0  501  0.00000000000E+00  0.00000000000E+00 -0.97838683988E+03  0.97838683989E+03  0.50400001928E-02 0. -1.
    10030    2    1    2    0    0  0.00000000000E+00  0.00000000000E+00  0.18348190912E+04  0.37915927710E+04  0.33180739358E+04 0.  0.
        2    1    3    3  502    0 -0.19107770587E+03 -0.16335297251E+04  0.11663879897E+04  0.20162814771E+04  0.25500000920E-02 0.  1.
       -2    1    3    3    0  502  0.19107770587E+03  0.16335297251E+04  0.66843110152E+03  0.17753112938E+04  0.25500000920E-02 0. -1.
</event>
<event>
 5   0  0.2536619E-06  0.3536623E+04  0.7818609E-02  0.8105165E-01
        2   -1    0    0  501    0  0.00000000000E+00  0.00000000000E+00  0.16870041421E+04  0.16870041421E+04  0.25500000920E-02 0.  1.
       -2   -1    0    0    0  501  0.00000000000E+00  0.00000000000E+00 -0.18535370956E+04  0.18535370957E+04  0.25500000920E-02 0. -1.
    10030    2    1    2    0    0  0.00000000000E+00  0.00000000000E+00 -0.16653295357E+03  0.35405412377E+04  0.35366225458E+04 0.  0.
        1    1    3    3  502    0  0.62388620026E+02 -0.15853363139E+04 -0.86499095783E+03  0.18070398239E+04  0.50400001928E-02 0.  1.
       -1    1    3    3    0  502 -0.62388620026E+02  0.15853363139E+04  0.69845800425E+03  0.17335014138E+04  0.50400001928E-02 0. -1.
</event>
<event>
 5   0  0.7707500E-07  0.3524189E+04  0.7818609E-02  0.8108081E-01
       -3   -1    0    0    0  501  0.00000000000E+00  0.00000000000E+00  0.11888518175E+04  0.11888518218E+04  0.10100000352E+00 0.  1.
        3   -1    0    0  501    0  0.00000000000E+00  0.00000000000E+00 -0.26117447813E+04  0.26117447832E+04  0.10100000352E+00 0. -1.
    10030    2    1    2    0    0  0.00000000000E+00  0.00000000000E+00 -0.14228929637E+04  0.38005966051E+04  0.35241892923E+04 0.  0.
        4    1    3    3  502    0  0.10062873905E+04 -0.16611275434E+03 -0.22610771295E+04  0.24804594651E+04  0.12699999809E+01 0. -1.
       -4    1    3    3    0  502 -0.10062873905E+04  0.16611275434E+03  0.83818416580E+03  0.13201371399E+04  0.12699999809E+01 0.  1.
</event>
<event>
 5   0  0.8452742E-07  0.3616062E+04  0.7818609E-02  0.8086822E-01
        1   -1    0    0  501    0  0.00000000000E+00  0.00000000000E+00  0.22496969753E+04  0.22496969753E+04  0.50400001928E-02 0. -1.
       -1   -1    0    0    0  501  0.00000000000E+00  0.00000000000E+00 -0.14530735687E+04  0.14530735687E+04  0.50400001928E-02 0.  1.
    10030    2    1    2    0    0  0.00000000000E+00  0.00000000000E+00  0.79662340660E+03  0.37027705440E+04  0.36160615107E+04 0.  0.
        1    1    3    3  502    0 -0.23515861582E+03  0.17297513855E+04  0.88038261761E+03  0.19550992260E+04  0.50400001928E-02 0.  1.
       -1    1    3    3    0  502  0.23515861582E+03 -0.17297513855E+04 -0.83759211012E+02  0.17476713180E+04  0.50400001928E-02 0. -1.
</event>
<event>
 5   0  0.8452742E-07  0.3650641E+04  0.7818609E-02  0.8078989E-01
        1   -1    0    0  501    0  0.00000000000E+00  0.00000000000E+00  0.15757241968E+04  0.15757241968E+04  0.50400001928E-02 0.  1.
       -1   -1    0    0    0  501  0.00000000000E+00  0.00000000000E+00 -0.21144535316E+04  0.21144535316E+04  0.50400001928E-02 0. -1.
    10030    2    1    2    0    0  0.00000000000E+00  0.00000000000E+00 -0.53872933480E+03  0.36901777285E+04  0.36506413644E+04 0.  0.
        1    1    3    3  502    0  0.22632604797E+03 -0.17338969445E+04 -0.79865120765E+03  0.19223594476E+04  0.50400001928E-02 0. -1.
       -1    1    3    3    0  502 -0.22632604797E+03  0.17338969445E+04  0.25992187285E+03  0.17678182809E+04  0.50400001928E-02 0.  1.
</event>
<event>
 5   0  0.7754556E-07  0.3622041E+04  0.7818609E-02  0.8085461E-01
       -1   -1    0    0    0  501  0.00000000000E+00  0.00000000000E+00  0.29639693389E+04  0.29639693389E+04  0.50400001928E-02 0. -1.
        1   -1    0    0  501    0  0.00000000000E+00  0.00000000000E+00 -0.11065553373E+04  0.11065553373E+04  0.50400001928E-02 0.  1.
    10030    2    1    2    0    0  0.00000000000E+00  0.00000000000E+00  0.18574140016E+04  0.40705246762E+04  0.36220414639E+04 0.  0.
        4    1    3    3  502    0  0.10342905394E+04 -0.14824098233E+04  0.10543472983E+04  0.20925930427E+04  0.12699999809E+01 0.  1.
       -4    1    3    3    0  502 -0.10342905394E+04  0.14824098233E+04  0.80306670326E+03  0.19779316335E+04  0.12699999809E+01 0. -1.
</event>
<event>
 5   0  0.2536619E-06  0.3475171E+04  0.7818609E-02  0.8119700E-01
        2   -1    0    0  501    0  0.00000000000E+00  0.00000000000E+00  0.19852475900E+04  0.19852475900E+04  0.25500000920E-02 0. -1.
       -2   -1    0    0    0  501  0.00000000000E+00  0.00000000000E+00 -0.15208191767E+04  0.15208191767E+04  0.25500000920E-02 0.  1.
    10030    2    1    2    0    0  0.00000000000E+00  0.00000000000E+00  0.46442841323E+03  0.35060667667E+04  0.34751705601E+04 0.  0.
        1    1    3    3  502    0 -0.43304325020E+02 -0.94614026934E+03  0.17019243123E+04  0.19477173919E+04  0.50400001928E-02 0. -1.
       -1    1    3    3    0  502  0.43304325020E+02  0.94614026934E+03 -0.12374958990E+04  0.15583493748E+04  0.50400001928E-02 0.  1.
</event>
<event>
 5   0  0.1513502E-06  0.3610823E+04  0.7818609E-02  0.8088017E-01
        2   -1    0    0  501    0  0.00000000000E+00  0.00000000000E+00  0.16764449115E+04  0.16764449115E+04  0.25500000920E-02 0.  1.
       -2   -1    0    0    0  501  0.00000000000E+00  0.00000000000E+00 -0.19442996224E+04  0.19442996224E+04  0.25500000920E-02 0. -1.
    10030    2    1    2    0    0  0.00000000000E+00  0.00000000000E+00 -0.26785471098E+03  0.36207445339E+04  0.36108232903E+04 0.  0.
        3    1    3    3  502    0  0.50184008476E+03 -0.16669252173E+04  0.34595632836E+03  0.17748715283E+04  0.10100000352E+00 0.  1.
       -3    1    3    3    0  502 -0.50184008476E+03  0.16669252173E+04 -0.61381103934E+03  0.18458730056E+04  0.10100000352E+00 0. -1.
</event>
<event>
 5   0  0.1513502E-06  0.3557796E+04  0.7818609E-02  0.8100228E-01
        2   -1    0    0  501    0  0.00000000000E+00  0.00000000000E+00  0.22551184969E+04  0.22551184969E+04  0.25500000920E-02 0. -1.
       -2   -1    0    0    0  501  0.00000000000E+00  0.00000000000E+00 -0.14032426886E+04  0.14032426886E+04  0.25500000920E-02 0.  1.
    10030    2    1    2    0    0  0.00000000000E+00  0.00000000000E+00  0.85187580837E+03  0.36583611855E+04  0.35577962520E+04 0.  0.
        3    1    3    3  502    0  0.51969749878E+02 -0.11960076507E+03  0.22501970703E+04  0.22539725072E+04  0.10100000352E+00 0. -1.
       -3    1    3    3    0  502 -0.51969749878E+02  0.11960076507E+03 -0.13983212619E+04  0.14043886783E+04  0.10100000352E+00 0.  1.
</event>
<event>
 5   0  0.8423692E-07  0.3484022E+04  0.7818609E-02  0.8117587E-01
        1   -1    0    0  501    0  0.00000000000E+00  0.00000000000E+00  0.27921866695E+04  0.27921866695E+04  0.50400001928E-02 0.  1.
       -1   -1    0    0    0  501  0.00000000000E+00  0.00000000000E+00 -0.10868191806E+04  0.10868191806E+04  0.50400001928E-02 0. -1.
    10030    2    1    2    0    0  0.00000000000E+00  0.00000000000E+00  0.17053674889E+04  0.38790058501E+04  0.34840218301E+04 0.  0.
        2    1    3    3  502    0  0.31084088662E+02  0.10277052940E+04  0.24183282606E+04  0.26278234278E+04  0.25500000920E-02 0.  1.
       -2    1    3    3    0  502 -0.31084088662E+02 -0.10277052940E+04 -0.71296077168E+03  0.12511824223E+04  0.25500000920E-02 0. -1.
</event>
<event>
 5   0  0.8423692E-07  0.3620452E+04  0.7818609E-02  0.8085823E-01
       -1   -1    0    0    0  501  0.00000000000E+00  0.00000000000E+00  0.22820548280E+04  0.22820548280E+04  0.50400001928E-02 0. -1.
        1   -1    0    0  501    0  0.00000000000E+00  0.00000000000E+00 -0.14359503013E+04  0.14359503013E+04  0.50400001928E-02 0.  1.
    10030    2    1    2    0    0  0.00000000000E+00  0.00000000000E+00  0.84610452669E+03  0.37180051294E+04  0.36204515288E+04 0.  0.
        2    1    3    3  502    0  0.10683472001E+04 -0.84313699563E+03 -0.80270543156E+03  0.15800575127E+04  0.25500000920E-02 0.  1.
       -2    1    3    3    0  502 -0.10683472001E+04  0.84313699563E+03  0.16488099583E+04  0.21379476167E+04  0.25500000920E-02 0. -1.
</event>
<event>
 5   0  0.2422436E-06  0.2109073E+04  0.7818609E-02  0.8557257E-01
       -2   -1    0    0    0  501  0.00000000000E+00  0.00000000000E+00  0.90304145461E+03  0.90304145461E+03  0.25500000920E-02 0. -1.
        2   -1    0    0  501    0  0.00000000000E+00  0.00000000000E+00 -0.12314468088E+04  0.12314468088E+04  0.25500000920E-02 0.  1.
    10030    2    1    2    0    0  0.00000000000E+00  0.00000000000E+00 -0.32840535420E+03  0.21344882634E+04  0.21090732728E+04 0.  0.
        2    1    3    3  502    0 -0.48209242772E+02 -0.10528757637E+04 -0.19890895954E+03  0.10725839263E+04  0.25500000920E-02 0.  1.
       -2    1    3    3    0  502  0.48209242772E+02  0.10528757637E+04 -0.12949639466E+03  0.10619043371E+04  0.25500000920E-02 0. -1.
</event>
<event>
 5   0  0.1513502E-06  0.3558614E+04  0.7818609E-02  0.8100038E-01
        2   -1    0    0  501    0  0.00000000000E+00  0.00000000000E+00  0.19191561431E+04  0.19191561431E+04  0.25500000920E-02 0.  1.
       -2   -1    0    0    0  501  0.00000000000E+00  0.00000000000E+00 -0.16496482444E+04  0.16496482444E+04  0.25500000920E-02 0. -1.
    10030    2    1    2    0    0  0.00000000000E+00  0.00000000000E+00  0.26950789874E+03  0.35688043875E+04  0.35586135290E+04 0.  0.
        3    1    3    3  502    0  0.59407006482E+02 -0.34311979494E+03 -0.16151418440E+04  0.16522540884E+04  0.10100000352E+00 0. -1.
       -3    1    3    3    0  502 -0.59407006482E+02  0.34311979494E+03  0.18846497427E+04  0.19165502991E+04  0.10100000352E+00 0.  1.
</event>
<event>
 5   0  0.7754556E-07  0.3608076E+04  0.7818609E-02  0.8088644E-01
       -1   -1    0    0    0  501  0.00000000000E+00  0.00000000000E+00  0.17009443634E+04  0.17009443634E+04  0.50400001928E-02 0.  1.
        1   -1    0    0  501    0  0.00000000000E+00  0.00000000000E+00 -0.19133806281E+04  0.19133806281E+04  0.50400001928E-02 0. -1.
    10030    2    1    2    0    0  0.00000000000E+00  0.00000000000E+00 -0.21243626472E+03  0.36143249915E+04  0.36080764927E+04 0.  0.
        4    1    3    3  502    0 -0.12020948726E+04  0.71139701656E+03  0.10374396363E+04  0.17399426455E+04  0.12699999809E+01 0.  1.
       -4    1    3    3    0  502  0.12020948726E+04 -0.71139701656E+03 -0.12498759010E+04  0.18743823459E+04  0.12699999809E+01 0. -1.
</event>
<event>
 5   0  0.1513502E-06  0.3500616E+04  0.7818609E-02  0.8113644E-01
        2   -1    0    0  501    0  0.00000000000E+00  0.00000000000E+00  0.15345870187E+04  0.15345870187E+04  0.25500000920E-02 0. -1.
       -2   -1    0    0    0  501  0.00000000000E+00  0.00000000000E+00 -0.19963530633E+04  0.19963530633E+04  0.25500000920E-02 0.  1.
    10030    2    1    2    0    0  0.00000000000E+00  0.00000000000E+00 -0.46176604463E+03  0.35309400820E+04  0.35006156577E+04 0.  0.
        3    1    3    3  502    0 -0.84882270511E+03 -0.20777687385E+03 -0.17605644213E+04  0.19655173125E+04  0.10100000352E+00 0.  1.
       -3    1    3    3    0  502  0.84882270511E+03  0.20777687385E+03  0.12987983766E+04  0.15654227695E+04  0.10100000352E+00 0. -1.
</event>
<event>
 5   0  0.7754556E-07  0.3502695E+04  0.7818609E-02  0.8113152E-01
       -1   -1    0    0    0  501  0.00000000000E+00  0.00000000000E+00  0.13321791207E+04  0.13321791207E+04  0.50400001928E-02 0. -1.
        1   -1    0    0  501    0  0.00000000000E+00  0.00000000000E+00 -0.23024068781E+04  0.23024068781E+04  0.50400001928E-02 0.  1.
    10030    2    1    2    0    0  0.00000000000E+00  0.00000000000E+00 -0.97022775742E+03  0.36345859987E+04  0.35026951739E+04 0.  0.
        4    1    3    3  502    0 -0.13586953396E+04  0.65597725713E+03 -0.14079014641E+04  0.20636248044E+04  0.12699999809E+01 0. -1.
       -4    1    3    3    0  502  0.13586953396E+04 -0.65597725713E+03  0.43767370672E+03  0.15709611943E+04  0.12699999809E+01 0.  1.
</event>
<event>
 5   0  0.1908273E-06  0.3660131E+04  0.7818609E-02  0.8076855E-01
        1   -1    0    0  501    0  0.00000000000E+00  0.00000000000E+00  0.20081752599E+04  0.20081752599E+04  0.50400001928E-02 0.  1.
       -1   -1    0    0    0  501  0.00000000000E+00  0.00000000000E+00 -0.16677523016E+04  0.16677523016E+04  0.50400001928E-02 0. -1.
    10030    2    1    2    0    0  0.00000000000E+00  0.00000000000E+00  0.34042295831E+03  0.36759275615E+04  0.36601305505E+04 0.  0.
        3    1    3    3  502    0  0.11510327637E+04  0.45030638308E+03  0.15256610468E+04  0.19634902347E+04  0.10100000352E+00 0.  1.
       -3    1    3    3    0  502 -0.11510327637E+04 -0.45030638308E+03 -0.11852380885E+04  0.17124373268E+04  0.10100000352E+00 0. -1.
</event>
<event>
 5   0  0.2422436E-06  0.2085466E+04  0.7818609E-02  0.8567673E-01
       -2   -1    0    0    0  501  0.00000000000E+00  0.00000000000E+00  0.91114507254E+03  0.91114507255E+03  0.25500000920E-02 0.  1.
        2   -1    0    0  501    0  0.00000000000E+00  0.00000000000E+00 -0.11933248353E+04  0.11933248353E+04  0.25500000920E-02 0. -1.
    10030    2    1    2    0    0  0.00000000000E+00  0.00000000000E+00 -0.28217976279E+03  0.21044699079E+04  0.20854659371E+04 0.  0.
        2    1    3    3  502    0 -0.48382510895E+03  0.88315313312E+02  0.78674823250E+03  0.92782493605E+03  0.25500000920E-02 0.  1.
       -2    1    3    3    0  502  0.48382510895E+03 -0.88315313312E+02 -0.10689279953E+04  0.11766449718E+04  0.25500000920E-02 0. -1.
</event>
<event>
 5   0  0.7754556E-07  0.3545319E+04  0.7818609E-02  0.8103133E-01
        1   -1    0    0  501    0  0.00000000000E+00  0.00000000000E+00  0.24189054295E+04  0.24189054296E+04  0.50400001928E-02 0. -1.
       -1   -1    0    0    0  501  0.00000000000E+00  0.00000000000E+00 -0.12990677314E+04  0.12990677314E+04  0.50400001928E-02 0.  1.
    10030    2    1    2    0    0  0.00000000000E+00  0.00000000000E+00  0.11198376982E+04  0.37179731609E+04  0.35453191612E+04 0.  0.
        4    1    3    3  502    0  0.17348500284E+03  0.86975916875E+03  0.21695071408E+04  0.23437877260E+04  0.12699999809E+01 0. -1.
       -4    1    3    3    0  502 -0.17348500284E+03 -0.86975916875E+03 -0.10496694426E+04  0.13741854349E+04  0.12699999809E+01 0.  1.
</event>
<event>
 5   0  0.2382711E-06  0.3568613E+04  0.7818609E-02  0.8097719E-01
        2   -1    0    0  501    0  0.00000000000E+00  0.00000000000E+00  0.26017434259E+04  0.26017434259E+04  0.25500000920E-02 0.  1.
       -2   -1    0    0    0  501  0.00000000000E+00  0.00000000000E+00 -0.12236986503E+04  0.12236986503E+04  0.25500000920E-02 0. -1.
    10030    2    1    2    0    0  0.00000000000E+00  0.00000000000E+00  0.13780447756E+04  0.38254420762E+04  0.35686131305E+04 0.  0.
        5    1    3    3  502    0 -0.17577885121E+04 -0.30216603127E+03  0.63433027897E+03  0.18930192172E+04  0.46999998093E+01 0. -1.
       -5    1    3    3    0  502  0.17577885121E+04  0.30216603127E+03  0.74371449661E+03  0.19324228590E+04  0.46999998093E+01 0.  1.
</event>
<event>
 5   0  0.1513502E-06  0.3567768E+04  0.7818609E-02  0.8097915E-01
        2   -1    0    0  501    0  0.00000000000E+00  0.00000000000E+00  0.19701462295E+04  0.19701462295E+04  0.25500000920E-02 0. -1.
       -2   -1    0    0    0  501  0.00000000000E+00  0.00000000000E+00 -0.16152315251E+04  0.16152315251E+04  0.25500000920E-02 0.  1.
    10030    2    1    2    0    0  0.00000000000E+00  0.00000000000E+00  0.35491470440E+03  0.35853777545E+04  0.35677680972E+04 0.  0.
        3    1    3    3  502    0 -0.14543257849E+03 -0.14711572451E+04 -0.82586319272E+03  0.16933706913E+04  0.10100000352E+00 0.  1.
       -3    1    3    3    0  502  0.14543257849E+03  0.14711572451E+04  0.11807778971E+04  0.18920070632E+04  0.10100000352E+00 0. -1.
</event>
<event>
 5   0  0.1566576E-06  0.2831269E+04  0.7818609E-02  0.8293626E-01
       -2   -1    0    0    0  501  0.00000000000E+00  0.00000000000E+00  0.68356491234E+03  0.68356491235E+03  0.25500000920E-02 0.  1.
        2   -1    0    0  501    0  0.00000000000E+00  0.00000000000E+00 -0.29317209883E+04  0.29317209883E+04  0.25500000920E-02 0. -1.
    10030    2    1    2    0    0  0.00000000000E+00  0.00000000000E+00 -0.22481560760E+04  0.36152859007E+04  0.28312693976E+04 0.  0.
        4    1    3    3  502    0  0.49520130874E+01  0.45431441106E+02 -0.29307780762E+04  0.29311346409E+04  0.12699999809E+01 0. -1.
       -4    1    3    3    0  502 -0.49520130874E+01 -0.45431441106E+02  0.68262200018E+03  0.68415125981E+03  0.12699999809E+01 0.  1.
</event>
<event>
 5   0  0.2382711E-06  0.1903069E+04  0.7818609E-02  0.8653330E-01
        2   -1    0    0  501    0  0.00000000000E+00  0.00000000000E+00  0.81052963883E+03  0.81052963883E+03  0.25500000920E-02 0. -1.
       -2   -1    0    0    0  501  0.00000000000E+00  0.00000000000E+00 -0.11170700176E+04  0.11170700176E+04  0.25500000920E-02 0.  1.
    10030    2    1    2    0    0  0.00000000000E+00  0.00000000000E+00 -0.30654037877E+03  0.19275996564E+04  0.19030694763E+04 0.  0.
        5    1    3    3  502    0  0.74998659371E+03 -0.55464050435E+03  0.37008345432E+02  0.93354040482E+03  0.46999998093E+01 0.  1.
       -5    1    3    3    0  502 -0.74998659371E+03  0.55464050435E+03 -0.34354872420E+03  0.99405925160E+03  0.46999998093E+01 0. -1.
</event>
<event>
 5   0  0.8452742E-07  0.2289795E+04  0.7818609E-02  0.8481956E-01
       -1   -1    0    0    0  501  0.00000000000E+00  0.00000000000E+00  0.79603697013E+03  0.79603697014E+03  0.50400001928E-02 0.  1.
        1   -1    0    0  501    0  0.00000000000E+00  0.00000000000E+00 -0.16466444065E+04  0.16466444065E+04  0.50400001928E-02 0. -1.
    10030    2    1    2    0    0  0.00000000000E+00  0.00000000000E+00 -0.85060743640E+03  0.24426813767E+04  0.22897945971E+04 0.  0.
        1    1    3    3  502    0 -0.92283400727E+03  0.33729551946E+03 -0.10522506808E+04  0.14396605043E+04  0.50400001928E-02 0. -1.
       -1    1    3    3    0  502  0.92283400727E+03 -0.33729551946E+03  0.20164324436E+03  0.10030208724E+04  0.50400001928E-02 0.  1.
</event>
<event>
 5   0  0.2382711E-06  0.3670148E+04  0.7818609E-02  0.8074610E-01
       -2   -1    0    0    0  501  0.00000000000E+00  0.00000000000E+00  0.14847805282E+04  0.14847805282E+04  0.25500000920E-02 0. -1.
        2   -1    0    0  501    0  0.00000000000E+00  0.00000000000E+00 -0.22680098480E+04  0.22680098480E+04  0.25500000920E-02 0.  1.
    10030    2    1    2    0    0  0.00000000000E+00  0.00000000000E+00 -0.78322931984E+03  0.37527903762E+04  0.36701481496E+04 0.  0.
        5    1    3    3  502    0  0.44493057488E+03 -0.17353698349E+04  0.14831945233E+02  0.17915674023E+04  0.46999998093E+01 0.  1.
       -5    1    3    3    0  502 -0.44493057488E+03  0.17353698349E+04 -0.79806126507E+03  0.19612229739E+04  0.46999998093E+01 0. -1.
</event>
<event>
 5   0  0.2536619E-06  0.2306833E+04  0.7818609E-02  0.8475232E-01
       -2   -1    0    0    0  501  0.00000000000E+00  0.00000000000E+00  0.12810773579E+04  0.12810773579E+04  0.25500000920E-02 0. -1.
        2   -1    0    0  501    0  0.00000000000E+00  0.00000000000E+00 -0.10384767665E+04  0.10384767665E+04  0.25500000920E-02 0.  1.
    10030    2    1    2    0    0  0.00000000000E+00  0.00000000000E+00  0.24260059141E+03  0.23195541244E+04  0.23068325230E+04 0.  0.
        1    1    3    3  502    0 -0.46770788313E+03  0.18435929607E+02  0.11812857507E+04  0.12706402215E+04  0.50400001928E-02 0. -1.
       -1    1    3    3    0  502  0.46770788313E+03 -0.18435929607E+02 -0.93868515934E+03  0.10489139030E+04  0.50400001928E-02 0.  1.
</event>
<event>
 5   0  0.7707500E-07  0.1808621E+04  0.7818609E-02  0.8701728E-01
        3   -1    0    0  501    0  0.00000000000E+00  0.00000000000E+00  0.13675458816E+04  0.13675458854E+04  0.10100000352E+00 0. -1.
       -3   -1    0    0    0  501  0.00000000000E+00  0.00000000000E+00 -0.59798912302E+03  0.59798913155E+03  0.10100000352E+00 0.  1.
    10030    2    1    2    0    0  0.00000000000E+00  0.00000000000E+00  0.76955675860E+03  0.19655350169E+04  0.18086211040E+04 0.  0.
        1    1    3    3  502    0  0.11422284585E+02  0.64537472259E+03 -0.30352579601E+03  0.71327898470E+03  0.50400001928E-02 0.  1.
       -1    1    3    3    0  502 -0.11422284585E+02 -0.64537472259E+03  0.10730825546E+04  0.12522560322E+04  0.50400001928E-02 0. -1.
</event>
<event>
 5   0  0.8423692E-07  0.3544185E+04  0.7818609E-02  0.8103398E-01
       -1   -1    0    0    0  501  0.00000000000E+00  0.00000000000E+00  0.30926419536E+04  0.30926419536E+04  0.50400001928E-02 0. -1.
        1   -1    0    0  501    0  0.00000000000E+00  0.00000000000E+00 -0.10154139525E+04  0.10154139525E+04  0.50400001928E-02 0.  1.
    10030    2    1    2    0    0  0.00000000000E+00  0.00000000000E+00  0.20772280011E+04  0.41080559061E+04  0.35441849782E+04 0.  0.
        2    1    3    3  502    0 -0.46677830293E+03  0.16734377389E+04  0.63369902464E+03  0.18492837273E+04  0.25500000920E-02 0.  1.
       -2    1    3    3    0  502  0.46677830293E+03 -0.16734377389E+04  0.14435289764E+04  0.22587721788E+04  0.25500000920E-02 0. -1.
</event>
<event>
 5   0  0.8452742E-07  0.1877612E+04  0.7818609E-02  0.8666081E-01
       -1   -1    0    0    0  501  0.00000000000E+00  0.00000000000E+00  0.11788161712E+04  0.11788161712E+04  0.50400001928E-02 0. -1.
        1   -1    0    0  501    0  0.00000000000E+00  0.00000000000E+00 -0.74766258430E+03  0.74766258432E+03  0.50400001928E-02 0.  1.
    10030    2    1    2    0    0  0.00000000000E+00  0.00000000000E+00  0.43115358693E+03  0.19264787556E+04  0.18776120420E+04 0.  0.
        1    1    3    3  502    0 -0.75604332893E+03  0.73513671584E+02  0.78161494917E+03  0.10899209622E+04  0.50400001928E-02 0. -1.
       -1    1    3    3    0  502  0.75604332893E+03 -0.73513671584E+02 -0.35046136224E+03  0.83655779333E+03  0.50400001928E-02 0.  1.
</event>
<event>
 5   0  0.1566576E-06  0.3606568E+04  0.7818609E-02  0.8088989E-01
       -2   -1    0    0    0  501  0.00000000000E+00  0.00000000000E+00  0.20775418319E+04  0.20775418319E+04  0.25500000920E-02 0. -1.
        2   -1    0    0  501    0  0.00000000000E+00  0.00000000000E+00 -0.15652310135E+04  0.15652310135E+04  0.25500000920E-02 0.  1.
    10030    2    1    2    0    0  0.00000000000E+00  0.00000000000E+00  0.51231081838E+03  0.36427728454E+04  0.36065678461E+04 0.  0.
        4    1    3    3  502    0 -0.69467574970E+02  0.10118656418E+04 -0.12498299609E+04  0.16095882595E+04  0.12699999809E+01 0.  1.
       -4    1    3    3    0  502  0.69467574970E+02 -0.10118656418E+04  0.17621407793E+04  0.20331845858E+04  0.12699999809E+01 0. -1.
</event>
<event>
 5   0  0.8037457E-07  0.2039537E+04  0.7818609E-02  0.8588356E-01
        1   -1    0    0  501    0  0.00000000000E+00  0.00000000000E+00  0.11370897425E+04  0.11370897425E+04  0.50400001928E-02 0. -1.
       -1   -1    0    0    0  501  0.00000000000E+00  0.00000000000E+00 -0.91455174614E+03  0.91455174616E+03  0.50400001928E-02 0.  1.
    10030    2    1    2    0    0  0.00000000000E+00  0.00000000000E+00  0.22253799632E+03  0.20516414886E+04  0.20395366234E+04 0.  0.
        4    1    3    3  502    0 -0.36790724071E+02  0.99882024660E+03  0.31478226054E+03  0.10478954752E+04  0.12699999809E+01 0. -1.
       -4    1    3    3    0  502  0.36790724071E+02 -0.99882024660E+03 -0.92244264222E+02  0.10037460135E+04  0.12699999809E+01 0.  1.
</event>
<event>
 5   0  0.2536619E-06  0.3533732E+04  0.7818609E-02  0.8105842E-01
       -2   -1    0    0    0  501  0.00000000000E+00  0.00000000000E+00  0.15485286241E+04  0.15485286241E+04  0.25500000920E-02 0.  1.
        2   -1    0    0  501    0  0.00000000000E+00  0.00000000000E+00 -0.20159879572E+04  0.20159879572E+04  0.25500000920E-02 0. -1.
    10030    2    1    2    0    0  0.00000000000E+00  0.00000000000E+00 -0.46745933303E+03  0.35645165813E+04  0.35337317712E+04 0.  0.
        1    1    3    3  502    0 -0.12898454388E+04 -0.30161020932E+03  0.94570628168E+03  0.16275842054E+04  0.50400001928E-02 0.  1.
       -1    1    3    3    0  502  0.12898454388E+04  0.30161020932E+03 -0.14131656147E+04  0.19369323759E+04  0.50400001928E-02 0. -1.
</event>
<event>
 5   0  0.1519479E-06  0.1983908E+04  0.7818609E-02  0.8614181E-01
       -2   -1    0    0    0  501  0.00000000000E+00  0.00000000000E+00  0.10446938946E+04  0.10446938946E+04  0.25500000920E-02 0.  1.
        2   -1    0    0  501    0  0.00000000000E+00  0.00000000000E+00 -0.94187694917E+03  0.94187694917E+03  0.25500000920E-02 0. -1.
    10030    2    1    2    0    0  0.00000000000E+00  0.00000000000E+00  0.10281694544E+03  0.19865708438E+04  0.19839083631E+04 0.  0.
        3    1    3    3  502    0  0.29099347491E+03 -0.94525023689E+03 -0.24837495475E+02  0.98933923614E+03  0.10100000352E+00 0.  1.
       -3    1    3    3    0  502 -0.29099347491E+03  0.94525023689E+03  0.12765444092E+03  0.99723160764E+03  0.10100000352E+00 0. -1.
</event>
<event>
 5   0  0.1566576E-06  0.2020984E+04  0.7818609E-02  0.8596872E-01
       -2   -1    0    0    0  501  0.00000000000E+00  0.00000000000E+00  0.10472949603E+04  0.10472949603E+04  0.25500000920E-02 0.  1.
        2   -1    0    0  501    0  0.00000000000E+00  0.00000000000E+00 -0.97498210713E+03  0.97498210713E+03  0.25500000920E-02 0. -1.
    10030    2    1    2    0    0  0.00000000000E+00  0.00000000000E+00  0.72312853130E+02  0.20222770674E+04  0.20209837675E+04 0.  0.
        4    1    3    3  502    0  0.64061295495E+03  0.12503393133E+03  0.80806034154E+03  0.10387403769E+04  0.12699999809E+01 0.  1.
       -4    1    3    3    0  502 -0.64061295495E+03 -0.12503393133E+03 -0.73574748841E+03  0.98353669054E+03  0.12699999809E+01 0. -1.
</event>
<event>
 5   0  0.8452742E-07  0.3592853E+04  0.7818609E-02  0.8092131E-01
       -1   -1    0    0    0  501  0.00000000000E+00  0.00000000000E+00  0.21718780369E+04  0.21718780370E+04  0.50400001928E-02 0. -1.
        1   -1    0    0  501    0  0.00000000000E+00  0.00000000000E+00 -0.14858786952E+04  0.14858786952E+04  0.50400001928E-02 0.  1.
    10030    2    1    2    0    0  0.00000000000E+00  0.00000000000E+00  0.68599934174E+03  0.36577567322E+04  0.35928525178E+04 0.  0.
        1    1    3    3  502    0  0.52880976684E+03 -0.14801794951E+04 -0.54252724180E+03  0.16628009247E+04  0.50400001928E-02 0.  1.
       -1    1    3    3    0  502 -0.52880976684E+03  0.14801794951E+04  0.12285265835E+04  0.19949558074E+04  0.50400001928E-02 0. -1.
</event>
<event>
 5   0  0.1566576E-06  0.3664172E+04  0.7818609E-02  0.8075949E-01
       -2   -1    0    0    0  501  0.00000000000E+00  0.00000000000E+00  0.27809317972E+04  0.27809317972E+04  0.25500000920E-02 0.  1.
        2   -1    0    0  501    0  0.00000000000E+00  0.00000000000E+00 -0.12069833666E+04  0.12069833666E+04  0.25500000920E-02 0. -1.
    10030    2    1    2    0    0  0.00000000000E+00  0.00000000000E+00  0.15739484306E+04  0.39879151638E+04  0.36641716242E+04 0.  0.
        4    1    3    3  502    0 -0.11209616313E+04 -0.46602636897E+03 -0.70641270473E+03  0.14045483536E+04  0.12699999809E+01 0. -1.
       -4    1    3    3    0  502  0.11209616313E+04  0.46602636897E+03  0.22803611353E+04  0.25833668101E+04  0.12699999809E+01 0.  1.
</event>
<event>
 5   0  0.1634374E-06  0.3342106E+04  0.7818609E-02  0.8152263E-01
        1   -1    0    0  501    0  0.00000000000E+00  0.00000000000E+00  0.16062804157E+04  0.16062804158E+04  0.50400001928E-02 0. -1.
       -1   -1    0    0    0  501  0.00000000000E+00  0.00000000000E+00 -0.17384377319E+04  0.17384377319E+04  0.50400001928E-02 0.  1.
    10030    2    1    2    0    0  0.00000000000E+00  0.00000000000E+00 -0.13215731612E+03  0.33447181476E+04  0.33421062118E+04 0.  0.
        5    1    3    3  502    0  0.15797050359E+04 -0.35432920816E+03 -0.48038190835E+03  0.16887291245E+04  0.46999998093E+01 0.  1.
       -5    1    3    3    0  502 -0.15797050359E+04  0.35432920816E+03  0.34822459222E+03  0.16559890231E+04  0.46999998093E+01 0. -1.
</event>
<event>
 5   0  0.2536619E-06  0.3663264E+04  0.7818609E-02  0.8076152E-01
       -2   -1    0    0    0  501  0.00000000000E+00  0.00000000000E+00  0.18387232449E+04  0.18387232449E+04  0.25500000920E-02 0.  1.
        2   -1    0    0  501    0  0.00000000000E+00  0.00000000000E+00 -0.18245685775E+04  0.18245685775E+04  0.25500000920E-02 0. -1.
    10030    2    1    2    0    0  0.00000000000E+00  0.00000000000E+00  0.14154667401E+02  0.36632918224E+04  0.36632644761E+04 0.  0.
        1    1    3    3  502    0 -0.32923714685E+02 -0.18251754316E+04 -0.14301485335E+03  0.18310659670E+04  0.50400001928E-02 0. -1.
       -1    1    3    3    0  502  0.32923714685E+02  0.18251754316E+04  0.15716952075E+03  0.18322258555E+04  0.50400001928E-02 0.  1.
</event>
<event>
 5   0  0.2382711E-06  0.3611222E+04  0.7818609E-02  0.8087926E-01
       -2   -1    0    0    0  501  0.00000000000E+00  0.00000000000E+00  0.18031909629E+04  0.18031909629E+04  0.25500000920E-02 0. -1.
        2   -1    0    0  501    0  0.00000000000E+00  0.00000000000E+00 -0.18080340154E+04  0.18080340154E+04  0.25500000920E-02 0.  1.
    10030    2    1    2    0    0  0.00000000000E+00  0.00000000000E+00 -0.48430524394E+01  0.36112249783E+04  0.36112217308E+04 0.  0.
        5    1    3    3  502    0  0.10045971429E+04 -0.14994229826E+04 -0.54611678082E+02  0.18056824819E+04  0.46999998093E+01 0. -1.
       -5    1    3    3    0  502 -0.10045971429E+04  0.14994229826E+04  0.49768625643E+02  0.18055424964E+04  0.46999998093E+01 0.  1.
</event>
<event>
 5   0  0.1513502E-06  0.3606711E+04  0.7818609E-02  0.8088956E-01
        2   -1    0    0  501    0  0.00000000000E+00  0.00000000000E+00  0.21652412650E+04  0.21652412650E+04  0.25500000920E-02 0. -1.
       -2   -1    0    0    0  501  0.00000000000E+00  0.00000000000E+00 -0.15019533601E+04  0.15019533601E+04  0.25500000920E-02 0.  1.
    10030    2    1    2    0    0  0.00000000000E+00  0.00000000000E+00  0.66328790483E+03  0.36671946251E+04  0.36067111853E+04 0.  0.
        3    1    3    3  502    0  0.14619271529E+03  0.93821108368E+03 -0.12271933284E+04  0.15516493879E+04  0.10100000352E+00 0.  1.
       -3    1    3    3    0  502 -0.14619271529E+03 -0.93821108368E+03  0.18904812332E+04  0.21155452372E+04  0.10100000352E+00 0. -1.
</event>
<event>
 5   0  0.8452742E-07  0.2944242E+04  0.7818609E-02  0.8259834E-01
       -1   -1    0    0    0  501  0.00000000000E+00  0.00000000000E+00  0.15319253204E+04  0.15319253204E+04  0.50400001928E-02 0. -1.
        1   -1    0    0  501    0  0.00000000000E+00  0.00000000000E+00 -0.14146517069E+04  0.14146517069E+04  0.50400001928E-02 0.  1.
    10030    2    1    2    0    0  0.00000000000E+00  0.00000000000E+00  0.11727361354E+03  0.29465770273E+04  0.29442423605E+04 0.  0.
        1    1    3    3  502    0 -0.28468711416E+03 -0.14014951835E+04  0.40806301619E+03  0.14871956588E+04  0.50400001928E-02 0. -1.
       -1    1    3    3    0  502  0.28468711416E+03  0.14014951835E+04 -0.29078940265E+03  0.14593813686E+04  0.50400001928E-02 0.  1.
</event>
<event>
 5   0  0.8452742E-07  0.3581576E+04  0.7818609E-02  0.8094725E-01
       -1   -1    0    0    0  501  0.00000000000E+00  0.00000000000E+00  0.19068989128E+04  0.19068989128E+04  0.50400001928E-02 0. -1.
        1   -1    0    0  501    0  0.00000000000E+00  0.00000000000E+00 -0.16817466374E+04  0.16817466374E+04  0.50400001928E-02 0.  1.
    10030    2    1    2    0    0  0.00000000000E+00  0.00000000000E+00  0.22515227547E+03  0.35886455502E+04  0.35815755385E+04 0.  0.
        1    1    3    3  502    0  0.22606918386E+03  0.90763444108E+03 -0.14175314178E+04  0.16983235484E+04  0.50400001928E-02 0.  1.
       -1    1    3    3    0  502 -0.22606918386E+03 -0.90763444108E+03  0.16426836932E+04  0.18903220018E+04  0.50400001928E-02 0. -1.
</event>
<event>
 5   0  0.8452742E-07  0.2672569E+04  0.7818609E-02  0.8343961E-01
       -1   -1    0    0    0  501  0.00000000000E+00  0.00000000000E+00  0.16023005517E+04  0.16023005517E+04  0.50400001928E-02 0. -1.
        1   -1    0    0  501    0  0.00000000000E+00  0.00000000000E+00 -0.11144328693E+04  0.11144328693E+04  0.50400001928E-02 0.  1.
    10030    2    1    2    0    0  0.00000000000E+00  0.00000000000E+00  0.48786768247E+03  0.27167334210E+04  0.26725691020E+04 0.  0.
        1    1    3    3  502    0  0.30803963309E+03  0.11663147374E+04  0.82830571637E+03  0.14633075009E+04  0.50400001928E-02 0. -1.
       -1    1    3    3    0  502 -0.30803963309E+03 -0.11663147374E+04 -0.34043803390E+03  0.12534259201E+04  0.50400001928E-02 0.  1.
</event>
<event>
 5   0  0.7707500E-07  0.1972901E+04  0.7818609E-02  0.8619396E-01
       -4   -1    0    0    0  501  0.00000000000E+00  0.00000000000E+00  0.86807752995E+03  0.86807845895E+03  0.12699999809E+01 0.  1.
        4   -1    0    0  501    0  0.00000000000E+00  0.00000000000E+00 -0.11209630119E+04  0.11209637314E+04  0.12699999809E+01 0. -1.
    10030    2    1    2    0    0  0.00000000000E+00  0.00000000000E+00 -0.25288548200E+03  0.19890421903E+04  0.19729008510E+04 0.  0.
        5    1    3    3  502    0  0.43782185716E+03  0.11616003903E+03  0.75701495393E+03  0.88219887993E+03  0.46999998093E+01 0.  1.
       -5    1    3    3    0  502 -0.43782185716E+03 -0.11616003903E+03 -0.10099004359E+04  0.11068433104E+04  0.46999998093E+01 0. -1.
</event>
<event>
 5   0  0.1908273E-06  0.2163483E+04  0.7818609E-02  0.8533783E-01
        1   -1    0    0  501    0  0.00000000000E+00  0.00000000000E+00  0.10447239689E+04  0.10447239689E+04  0.50400001928E-02 0. -1.
       -1   -1    0    0    0  501  0.00000000000E+00  0.00000000000E+00 -0.11200707111E+04  0.11200707111E+04  0.50400001928E-02 0.  1.
    10030    2    1    2    0    0  0.00000000000E+00  0.00000000000E+00 -0.75346742233E+02  0.21647946800E+04  0.21634830425E+04 0.  0.
        3    1    3    3  502    0 -0.25129369737E+03  0.24300620306E+03 -0.10619952143E+04  0.11180493649E+04  0.10100000352E+00 0.  1.
       -3    1    3    3    0  502  0.25129369737E+03 -0.24300620306E+03  0.98664847206E+03  0.10467453151E+04  0.10100000352E+00 0. -1.
</event>
<event>
 5   0  0.1513502E-06  0.3509342E+04  0.7818609E-02  0.8111580E-01
       -2   -1    0    0    0  501  0.00000000000E+00  0.00000000000E+00  0.16772830932E+04  0.16772830932E+04  0.25500000920E-02 0. -1.
        2   -1    0    0  501    0  0.00000000000E+00  0.00000000000E+00 -0.18356293590E+04  0.18356293590E+04  0.25500000920E-02 0.  1.
    10030    2    1    2    0    0  0.00000000000E+00  0.00000000000E+00 -0.15834626574E+03  0.35129124522E+04  0.35093418695E+04 0.  0.
        3    1    3    3  502    0  0.15660439270E+04  0.78854420159E+03 -0.11468971868E+02  0.17534044276E+04  0.10100000352E+00 0. -1.
       -3    1    3    3    0  502 -0.15660439270E+04 -0.78854420159E+03 -0.14687729387E+03  0.17595080246E+04  0.10100000352E+00 0.  1.
</event>
<event>
 5   0  0.7707500E-07  0.2361088E+04  0.7818609E-02  0.8454217E-01
       -3   -1    0    0    0  501  0.00000000000E+00  0.00000000000E+00  0.14157393222E+04  0.14157393258E+04  0.10100000352E+00 0. -1.
        3   -1    0    0  501    0  0.00000000000E+00  0.00000000000E+00 -0.98442160436E+03  0.98442160954E+03  0.10100000352E+00 0.  1.
    10030    2    1    2    0    0  0.00000000000E+00  0.00000000000E+00  0.43131771784E+03  0.24001609354E+04  0.23610882114E+04 0.  0.
        1    1    3    3  502    0 -0.17594393134E+03  0.52664014807E+03 -0.84339662147E+03  0.10097643159E+04  0.50400001928E-02 0.  1.
       -1    1    3    3    0  502  0.17594393134E+03 -0.52664014807E+03  0.12747143393E+04  0.13903966195E+04  0.50400001928E-02 0. -1.
</event>
<event>
 5   0  0.2536619E-06  0.3585415E+04  0.7818609E-02  0.8093841E-01
        2   -1    0    0  501    0  0.00000000000E+00  0.00000000000E+00  0.19486569004E+04  0.19486569004E+04  0.25500000920E-02 0. -1.
       -2   -1    0    0    0  501  0.00000000000E+00  0.00000000000E+00 -0.16492384822E+04  0.16492384822E+04  0.25500000920E-02 0.  1.
    10030    2    1    2    0    0  0.00000000000E+00  0.00000000000E+00  0.29941841821E+03  0.35978953826E+04  0.35854148707E+04 0.  0.
        1    1    3    3  502    0 -0.72329844584E+03 -0.16402992456E+04  0.14208724580E+03  0.17983133882E+04  0.50400001928E-02 0.  1.
       -1    1    3    3    0  502  0.72329844584E+03  0.16402992456E+04  0.15733117241E+03  0.17995819944E+04  0.50400001928E-02 0. -1.
</event>
<event>
 5   0  0.7754556E-07  0.3595720E+04  0.7818609E-02  0.8091473E-01
       -1   -1    0    0    0  501  0.00000000000E+00  0.00000000000E+00  0.11640956661E+04  0.11640956661E+04  0.50400001928E-02 0.  1.
        1   -1    0    0  501    0  0.00000000000E+00  0.00000000000E+00 -0.27766622519E+04  0.27766622519E+04  0.50400001928E-02 0. -1.
    10030    2    1    2    0    0  0.00000000000E+00  0.00000000000E+00 -0.16125665857E+04  0.39407579180E+04  0.35957199523E+04 0.  0.
        4    1    3    3  502    0 -0.92635706829E+03 -0.10610231278E+04 -0.20308128671E+04  0.24714590851E+04  0.12699999809E+01 0. -1.
       -4    1    3    3    0  502  0.92635706829E+03  0.10610231278E+04  0.41824628131E+03  0.14692988329E+04  0.12699999809E+01 0.  1.
</event>
<event>
 5   0  0.1566576E-06  0.3617292E+04  0.7818609E-02  0.8086542E-01
       -2   -1    0    0    0  501  0.00000000000E+00  0.00000000000E+00  0.16803259228E+04  0.16803259228E+04  0.25500000920E-02 0.  1.
        2   -1    0    0  501    0  0.00000000000E+00  0.00000000000E+00 -0.19467656721E+04  0.19467656721E+04  0.25500000920E-02 0. -1.
    10030    2    1    2    0    0  0.00000000000E+00  0.00000000000E+00 -0.26643974925E+03  0.36270915949E+04  0.36172922605E+04 0.  0.
        4    1    3    3  502    0 -0.12809630019E+04  0.12148311329E+04 -0.52737294102E+03  0.18424995863E+04  0.12699999809E+01 0.  1.
       -4    1    3    3    0  502  0.12809630019E+04 -0.12148311329E+04  0.26093319177E+03  0.17845920086E+04  0.12699999809E+01 0. -1.
</event>
<event>
 5   0  0.2536619E-06  0.3585642E+04  0.7818609E-02  0.8093789E-01
       -2   -1    0    0    0  501  0.00000000000E+00  0.00000000000E+00  0.16242924819E+04  0.16242924819E+04  0.25500000920E-02 0.  1.
        2   -1    0    0  501    0  0.00000000000E+00  0.00000000000E+00 -0.19788346713E+04  0.19788346713E+04  0.25500000920E-02 0. -1.
    10030    2    1    2    0    0  0.00000000000E+00  0.00000000000E+00 -0.35454218934E+03  0.36031271532E+04  0.35856415212E+04 0.  0.
        1    1    3    3  502    0  0.87708780333E+03 -0.78748148635E+01  0.13939591455E+04  0.16469569292E+04  0.50400001928E-02 0.  1.
       -1    1    3    3    0  502 -0.87708780333E+03  0.78748148635E+01 -0.17485013348E+04  0.19561702240E+04  0.50400001928E-02 0. -1.
</event>
<event>
 5   0  0.8452742E-07  0.1818537E+04  0.7818609E-02  0.8696504E-01
       -1   -1    0    0    0  501  0.00000000000E+00  0.00000000000E+00  0.53745357193E+03  0.53745357196E+03  0.50400001928E-02 0. -1.
        1   -1    0    0  501    0  0.00000000000E+00  0.00000000000E+00 -0.15383076249E+04  0.15383076249E+04  0.50400001928E-02 0.  1.
    10030    2    1    2    0    0  0.00000000000E+00  0.00000000000E+00 -0.10008540530E+04  0.20757611969E+04  0.18185366950E+04 0.  0.
        1    1    3    3  502    0  0.72397268214E+03  0.34189575118E+03 -0.99236209390E+03  0.12750732036E+04  0.50400001928E-02 0.  1.
       -1    1    3    3    0  502 -0.72397268214E+03 -0.34189575118E+03 -0.84919590813E+01  0.80068799326E+03  0.50400001928E-02 0. -1.
</event>
<event>
 5   0  0.1634374E-06  0.3385110E+04  0.7818609E-02  0.8141571E-01
       -1   -1    0    0    0  501  0.00000000000E+00  0.00000000000E+00  0.15191832376E+04  0.15191832376E+04  0.50400001928E-02 0.  1.
        1   -1    0    0  501    0  0.00000000000E+00  0.00000000000E+00 -0.18857117825E+04  0.18857117825E+04  0.50400001928E-02 0. -1.
    10030    2    1    2    0    0  0.00000000000E+00  0.00000000000E+00 -0.36652854494E+03  0.34048950201E+04  0.33851095882E+04 0.  0.
        5    1    3    3  502    0 -0.36925527941E+03 -0.14392553477E+04 -0.99850398296E+03  0.17902060527E+04  0.46999998093E+01 0. -1.
       -5    1    3    3    0  502  0.36925527941E+03  0.14392553477E+04  0.63197543802E+03  0.16146889674E+04  0.46999998093E+01 0.  1.
</event>
<event>
 5   0  0.8423692E-07  0.2223799E+04  0.7818609E-02  0.8508587E-01
        1   -1    0    0  501    0  0.00000000000E+00  0.00000000000E+00  0.78373311574E+03  0.78373311576E+03  0.50400001928E-02 0. -1.
       -1   -1    0    0    0  501  0.00000000000E+00  0.00000000000E+00 -0.15774768003E+04  0.15774768003E+04  0.50400001928E-02 0.  1.
    10030    2    1    2    0    0  0.00000000000E+00  0.00000000000E+00 -0.79374368456E+03  0.23612099161E+04  0.22237992785E+04 0.  0.
        2    1    3    3  502    0 -0.56975500851E+03  0.21577683858E+03  0.59073094828E+03  0.84861267199E+03  0.25500000920E-02 0. -1.
       -2    1    3    3    0  502  0.56975500851E+03 -0.21577683858E+03 -0.13844746328E+04  0.15125972441E+04  0.25500000920E-02 0.  1.
</event>
<event>
 5   0  0.1513502E-06  0.2729230E+04  0.7818609E-02  0.8325583E-01
       -2   -1    0    0    0  501  0.00000000000E+00  0.00000000000E+00  0.14344221736E+04  0.14344221736E+04  0.25500000920E-02 0. -1.
        2   -1    0    0  501    0  0.00000000000E+00  0.00000000000E+00 -0.12982048587E+04  0.12982048587E+04  0.25500000920E-02 0.  1.
    10030    2    1    2    0    0  0.00000000000E+00  0.00000000000E+00  0.13621731491E+03  0.27326270323E+04  0.27292298073E+04 0.  0.
        3    1    3    3  502    0 -0.97255745249E+03  0.49852991945E+03  0.88630008459E+03  0.14070991184E+04  0.10100000352E+00 0. -1.
       -3    1    3    3    0  502  0.97255745249E+03 -0.49852991945E+03 -0.75008276968E+03  0.13255279139E+04  0.10100000352E+00 0.  1.
</event>
<event>
 5   0  0.2422436E-06  0.3584282E+04  0.7818609E-02  0.8094102E-01
        2   -1    0    0  501    0  0.00000000000E+00  0.00000000000E+00  0.14009315583E+04  0.14009315583E+04  0.25500000920E-02 0. -1.
       -2   -1    0    0    0  501  0.00000000000E+00  0.00000000000E+00 -0.22925950454E+04  0.22925950454E+04  0.25500000920E-02 0.  1.
    10030    2    1    2    0    0  0.00000000000E+00  0.00000000000E+00 -0.89166348711E+03  0.36935266037E+04  0.35842816572E+04 0.  0.
        2    1    3    3  502    0 -0.75432226927E+03  0.97472474588E+03 -0.17865154130E+04  0.21704210967E+04  0.25500000920E-02 0.  1.
       -2    1    3    3    0  502  0.75432226927E+03 -0.97472474588E+03  0.89485192588E+03  0.15231055070E+04  0.25500000920E-02 0. -1.
</event>
<event>
 5   0  0.1513502E-06  0.3596553E+04  0.7818609E-02  0.8091282E-01
       -2   -1    0    0    0  501  0.00000000000E+00  0.00000000000E+00  0.11631780591E+04  0.11631780591E+04  0.25500000920E-02 0.  1.
        2   -1    0    0  501    0  0.00000000000E+00  0.00000000000E+00 -0.27801400066E+04  0.27801400066E+04  0.25500000920E-02 0. -1.
    10030    2    1    2    0    0  0.00000000000E+00  0.00000000000E+00 -0.16169619475E+04  0.39433180657E+04  0.35965527143E+04 0.  0.
        3    1    3    3  502    0 -0.11641202991E+04 -0.11987890117E+04 -0.79940213293E+02  0.16729200857E+04  0.10100000352E+00 0.  1.
       -3    1    3    3    0  502  0.11641202991E+04  0.11987890117E+04 -0.15370217343E+04  0.22703979799E+04  0.10100000352E+00 0. -1.
</event>
<event>
 5   0  0.2422436E-06  0.3234103E+04  0.7818609E-02  0.8179868E-01
        2   -1    0    0  501    0  0.00000000000E+00  0.00000000000E+00  0.13092635033E+04  0.13092635033E+04  0.25500000920E-02 0. -1.
       -2   -1    0    0    0  501  0.00000000000E+00  0.00000000000E+00 -0.19971961976E+04  0.19971961976E+04  0.25500000920E-02 0.  1.
    10030    2    1    2    0    0  0.00000000000E+00  0.00000000000E+00 -0.68793269431E+03  0.33064597010E+04  0.32341033320E+04 0.  0.
        2    1    3    3  502    0 -0.11660680362E+04 -0.11190041073E+04 -0.39969489445E+03  0.16648245751E+04  0.25500000920E-02 0.  1.
       -2    1    3    3    0  502  0.11660680362E+04  0.11190041073E+04 -0.28823779986E+03  0.16416351259E+04  0.25500000920E-02 0. -1.
</event>
<event>
 5   0  0.1513502E-06  0.3273546E+04  0.7818609E-02  0.8169659E-01
       -2   -1    0    0    0  501  0.00000000000E+00  0.00000000000E+00  0.22458044784E+04  0.22458044784E+04  0.25500000920E-02 0.  1.
        2   -1    0    0  501    0  0.00000000000E+00  0.00000000000E+00 -0.11929028487E+04  0.11929028487E+04  0.25500000920E-02 0. -1.
    10030    2    1    2    0    0  0.00000000000E+00  0.00000000000E+00  0.10529016297E+04  0.34387073271E+04  0.32735464315E+04 0.  0.
        3    1    3    3  502    0  0.89554412257E+03  0.43276467932E+03  0.18919357373E+04  0.21374530141E+04  0.10100000352E+00 0.  1.
       -3    1    3    3    0  502 -0.89554412257E+03 -0.43276467932E+03 -0.83903410760E+03  0.13012543130E+04  0.10100000352E+00 0. -1.
</event>
<event>
 5   0  0.1513502E-06  0.3462716E+04  0.7818609E-02  0.8122683E-01
       -2   -1    0    0    0  501  0.00000000000E+00  0.00000000000E+00  0.13440469529E+04  0.13440469529E+04  0.25500000920E-02 0.  1.
        2   -1    0    0  501    0  0.00000000000E+00  0.00000000000E+00 -0.22302795670E+04  0.22302795670E+04  0.25500000920E-02 0. -1.
    10030    2    1    2    0    0  0.00000000000E+00  0.00000000000E+00 -0.88623261403E+03  0.35743265199E+04  0.34627159607E+04 0.  0.
        3    1    3    3  502    0  0.47223795192E+03  0.62978016293E+03  0.11486540857E+04  0.13924934311E+04  0.10100000352E+00 0.  1.
       -3    1    3    3    0  502 -0.47223795192E+03 -0.62978016293E+03 -0.20348866997E+04  0.21818330889E+04  0.10100000352E+00 0. -1.
</event>
<event>
 5   0  0.1566576E-06  0.3530436E+04  0.7818609E-02  0.8106615E-01
       -2   -1    0    0    0  501  0.00000000000E+00  0.00000000000E+00  0.15080959673E+04  0.15080959673E+04  0.25500000920E-02 0. -1.
        2   -1    0    0  501    0  0.00000000000E+00  0.00000000000E+00 -0.20661777632E+04  0.20661777632E+04  0.25500000920E-02 0.  1.
    10030    2    1    2    0    0  0.00000000000E+00  0.00000000000E+00 -0.55808179587E+03  0.35742737305E+04  0.35304358669E+04 0.  0.
        4    1    3    3  502    0 -0.11495159719E+04  0.71114974817E+03 -0.14284227732E+04  0.19665996455E+04  0.12699999809E+01 0.  1.
       -4    1    3    3    0  502  0.11495159719E+04 -0.71114974817E+03  0.87034097732E+03  0.16076740850E+04  0.12699999809E+01 0. -1.
</event>
<event>
 5   0  0.1566576E-06  0.2657169E+04  0.7818609E-02  0.8349037E-01
        2   -1    0    0  501    0  0.00000000000E+00  0.00000000000E+00  0.19920768388E+04  0.19920768388E+04  0.25500000920E-02 0.  1.
       -2   -1    0    0    0  501  0.00000000000E+00  0.00000000000E+00 -0.88607858888E+03  0.88607858888E+03  0.25500000920E-02 0. -1.
    10030    2    1    2    0    0  0.00000000000E+00  0.00000000000E+00  0.11059982499E+04  0.28781554277E+04  0.26571688951E+04 0.  0.
        4    1    3    3  502    0  0.90914294139E+03 -0.96709027261E+03  0.61550952655E+03  0.14630987914E+04  0.12699999809E+01 0. -1.
       -4    1    3    3    0  502 -0.90914294139E+03  0.96709027261E+03  0.49048872338E+03  0.14150566363E+04  0.12699999809E+01 0.  1.
</event>
<event>
 5   0  0.7754556E-07  0.3444432E+04  0.7818609E-02  0.8127086E-01
        1   -1    0    0  501    0  0.00000000000E+00  0.00000000000E+00  0.19925727337E+04  0.19925727337E+04  0.50400001928E-02 0. -1.
       -1   -1    0    0    0  501  0.00000000000E+00  0.00000000000E+00 -0.14885422451E+04  0.14885422451E+04  0.50400001928E-02 0.  1.
    10030    2    1    2    0    0  0.00000000000E+00  0.00000000000E+00  0.50403048866E+03  0.34811149788E+04  0.34444324296E+04 0.  0.
        4    1    3    3  502    0 -0.82120778756E+03  0.10113924926E+04 -0.88635966652E+03  0.15757322348E+04  0.12699999809E+01 0.  1.
       -4    1    3    3    0  502  0.82120778756E+03 -0.10113924926E+04  0.13903901552E+04  0.19053827440E+04  0.12699999809E+01 0. -1.
</event>
<event>
 5   0  0.2422436E-06  0.3586608E+04  0.7818609E-02  0.8093566E-01
        2   -1    0    0  501    0  0.00000000000E+00  0.00000000000E+00  0.15929690894E+04  0.15929690894E+04  0.25500000920E-02 0.  1.
       -2   -1    0    0    0  501  0.00000000000E+00  0.00000000000E+00 -0.20188337448E+04  0.20188337448E+04  0.25500000920E-02 0. -1.
    10030    2    1    2    0    0  0.00000000000E+00  0.00000000000E+00 -0.42586465544E+03  0.36118028342E+04  0.35866082875E+04 0.  0.
        2    1    3    3  502    0 -0.13830676037E+04  0.34799584579E+03 -0.13077504126E+04  0.19349905030E+04  0.25500000920E-02 0. -1.
       -2    1    3    3    0  502  0.13830676037E+04 -0.34799584579E+03  0.88188575720E+03  0.16768123311E+04  0.25500000920E-02 0.  1.
</event>
<event>
 5   0  0.1634374E-06  0.2097393E+04  0.7818609E-02  0.8562393E-01
       -1   -1    0    0    0  501  0.00000000000E+00  0.00000000000E+00  0.82580839776E+03  0.82580839778E+03  0.50400001928E-02 0. -1.
        1   -1    0    0  501    0  0.00000000000E+00  0.00000000000E+00 -0.13317429847E+04  0.13317429847E+04  0.50400001928E-02 0.  1.
    10030    2    1    2    0    0  0.00000000000E+00  0.00000000000E+00 -0.50593458694E+03  0.21575513825E+04  0.20973931825E+04 0.  0.
        5    1    3    3  502    0 -0.36345596955E+03 -0.61060522025E+03 -0.10463231707E+04  0.12648135216E+04  0.46999998093E+01 0.  1.
       -5    1    3    3    0  502  0.36345596955E+03  0.61060522025E+03  0.54038858379E+03  0.89273786090E+03  0.46999998093E+01 0. -1.
</event>
<event>
 5   0  0.7754556E-07  0.2459520E+04  0.7818609E-02  0.8417550E-01
        1   -1    0    0  501    0  0.00000000000E+00  0.00000000000E+00  0.17452752502E+04  0.17452752502E+04  0.50400001928E-02 0.  1.
       -1   -1    0    0    0  501  0.00000000000E+00  0.00000000000E+00 -0.86651629661E+03  0.86651629662E+03  0.50400001928E-02 0. -1.
    10030    2    1    2    0    0  0.00000000000E+00  0.00000000000E+00  0.87875895361E+03  0.26117915468E+04  0.24595198283E+04 0.  0.
        4    1    3    3  502    0  0.80879988959E+03  0.85134516870E+03  0.51582700611E+02  0.11754183279E+04  0.12699999809E+01 0. -1.
       -4    1    3    3    0  502 -0.80879988959E+03 -0.85134516870E+03  0.82717625300E+03  0.14363732189E+04  0.12699999809E+01 0.  1.
</event>
<event>
 5   0  0.1908273E-06  0.3728445E+04  0.7818609E-02  0.8061687E-01
        1   -1    0    0  501    0  0.00000000000E+00  0.00000000000E+00  0.28275805352E+04  0.28275805352E+04  0.50400001928E-02 0.  1.
       -1   -1    0    0    0  501  0.00000000000E+00  0.00000000000E+00 -0.12290807834E+04  0.12290807834E+04  0.50400001928E-02 0. -1.
    10030    2    1    2    0    0  0.00000000000E+00  0.00000000000E+00  0.15984997518E+04  0.40566613186E+04  0.37284446619E+04 0.  0.
        3    1    3    3  502    0 -0.46065797796E+03 -0.18030692779E+04  0.91873670195E+03  0.20754136289E+04  0.10100000352E+00 0.  1.
       -3    1    3    3    0  502  0.46065797796E+03  0.18030692779E+04  0.67976304985E+03  0.19812476896E+04  0.10100000352E+00 0. -1.
</event>
<event>
 5   0  0.2536619E-06  0.2394956E+04  0.7818609E-02  0.8441394E-01
       -2   -1    0    0    0  501  0.00000000000E+00  0.00000000000E+00  0.56754769441E+03  0.56754769442E+03  0.25500000920E-02 0. -1.
        2   -1    0    0  501    0  0.00000000000E+00  0.00000000000E+00 -0.25265776749E+04  0.25265776749E+04  0.25500000920E-02 0.  1.
    10030    2    1    2    0    0  0.00000000000E+00  0.00000000000E+00 -0.19590299804E+04  0.30941253693E+04  0.23949558110E+04 0.  0.
        1    1    3    3  502    0  0.40222744724E+03 -0.93482711320E+03 -0.16419836130E+03  0.10308490446E+04  0.50400001928E-02 0. -1.
       -1    1    3    3    0  502 -0.40222744724E+03  0.93482711320E+03 -0.17948316191E+04  0.20632763247E+04  0.50400001928E-02 0.  1.
</event>
<event>
 5   0  0.1513502E-06  0.2248645E+04  0.7818609E-02  0.8498450E-01
       -2   -1    0    0    0  501  0.00000000000E+00  0.00000000000E+00  0.76182874533E+03  0.76182874534E+03  0.25500000920E-02 0. -1.
        2   -1    0    0  501    0  0.00000000000E+00  0.00000000000E+00 -0.16592980031E+04  0.16592980031E+04  0.25500000920E-02 0.  1.
    10030    2    1    2    0    0  0.00000000000E+00  0.00000000000E+00 -0.89746925778E+03  0.24211267485E+04  0.22486448504E+04 0.  0.
        3    1    3    3  502    0 -0.10844478292E+03 -0.12172516371E+03 -0.16465045575E+04  0.16545556970E+04  0.10100000352E+00 0.  1.
       -3    1    3    3    0  502  0.10844478292E+03  0.12172516371E+03  0.74903529974E+03  0.76657105142E+03  0.10100000352E+00 0. -1.
</event>
<event>
 5   0  0.1513502E-06  0.3601914E+04  0.7818609E-02  0.8090053E-01
        2   -1    0    0  501    0  0.00000000000E+00  0.00000000000E+00  0.13952861161E+04  0.13952861161E+04  0.25500000920E-02 0. -1.
       -2   -1    0    0    0  501  0.00000000000E+00  0.00000000000E+00 -0.23245745464E+04  0.23245745464E+04  0.25500000920E-02 0.  1.
    10030    2    1    2    0    0  0.00000000000E+00  0.00000000000E+00 -0.92928843028E+03  0.37198606625E+04  0.36019142636E+04 0.  0.
        3    1    3    3  502    0  0.44619660316E+03  0.17102595942E+04 -0.82145335657E+03  0.19490677042E+04  0.10100000352E+00 0.  1.
       -3    1    3    3    0  502 -0.44619660316E+03 -0.17102595942E+04 -0.10783507371E+03  0.17707929584E+04  0.10100000352E+00 0. -1.
</event>
<event>
 5   0  0.1634374E-06  0.3619320E+04  0.7818609E-02  0.8086081E-01
       -1   -1    0    0    0  501  0.00000000000E+00  0.00000000000E+00  0.23633343047E+04  0.23633343047E+04  0.50400001928E-02 0. -1.
        1   -1    0    0  501    0  0.00000000000E+00  0.00000000000E+00 -0.13856984475E+04  0.13856984475E+04  0.50400001928E-02 0.  1.
    10030    2    1    2    0    0  0.00000000000E+00  0.00000000000E+00  0.97763585720E+03  0.37490327523E+04  0.36193196471E+04 0.  0.
        5    1    3    3  502    0 -0.14007517943E+03  0.57437815683E+03  0.22604708015E+04  0.23365105729E+04  0.46999998093E+01 0. -1.
       -5    1    3    3    0  502  0.14007517943E+03 -0.57437815683E+03 -0.12828349443E+04  0.14125221794E+04  0.46999998093E+01 0.  1.
</event>
<event>
 5   0  0.2536619E-06  0.3457717E+04  0.7818609E-02  0.8123884E-01
       -2   -1    0    0    0  501  0.00000000000E+00  0.00000000000E+00  0.16499636030E+04  0.16499636030E+04  0.25500000920E-02 0.  1.
        2   -1    0    0  501    0  0.00000000000E+00  0.00000000000E+00 -0.18115261767E+04  0.18115261767E+04  0.25500000920E-02 0. -1.
    10030    2    1    2    0    0  0.00000000000E+00  0.00000000000E+00 -0.16156257375E+03  0.34614897797E+04  0.34577173149E+04 0.  0.
        1    1    3    3  502    0 -0.10615393459E+04  0.94792900536E+03  0.90187871001E+03  0.16848799333E+04  0.50400001928E-02 0.  1.
       -1    1    3    3    0  502  0.10615393459E+04 -0.94792900536E+03 -0.10634412838E+04  0.17766098463E+04  0.50400001928E-02 0. -1.
</event>
<event>
 5   0  0.1566576E-06  0.3726405E+04  0.7818609E-02  0.8062135E-01
       -2   -1    0    0    0  501  0.00000000000E+00  0.00000000000E+00  0.25809472297E+04  0.25809472297E+04  0.25500000920E-02 0. -1.
        2   -1    0    0  501    0  0.00000000000E+00  0.00000000000E+00 -0.13450580364E+04  0.13450580364E+04  0.25500000920E-02 0.  1.
    10030    2    1    2    0    0  0.00000000000E+00  0.00000000000E+00  0.12358891933E+04  0.39260052661E+04  0.37264051379E+04 0.  0.
        4    1    3    3  502    0 -0.28267764789E+03  0.65554745850E+03 -0.11952483871E+04  0.13922174552E+04  0.12699999809E+01 0.  1.
       -4    1    3    3    0  502  0.28267764789E+03 -0.65554745850E+03  0.24311375804E+04  0.25337878109E+04  0.12699999809E+01 0. -1.
</event>
<event>
 5   0  0.1513502E-06  0.2911954E+04  0.7818609E-02  0.8269330E-01
        2   -1    0    0  501    0  0.00000000000E+00  0.00000000000E+00  0.24409966945E+04  0.24409966945E+04  0.25500000920E-02 0.  1.
       -2   -1    0    0    0  501  0.00000000000E+00  0.00000000000E+00 -0.86844402038E+03  0.86844402039E+03  0.25500000920E-02 0. -1.
    10030    2    1    2    0    0  0.00000000000E+00  0.00000000000E+00  0.15725526741E+04  0.33094407149E+04  0.29119539716E+04 0.  0.
        3    1    3    3  502    0 -0.16785449952E+03 -0.59258323692E+03 -0.71310455696E+03  0.94225694216E+03  0.10100000352E+00 0. -1.
       -3    1    3    3    0  502  0.16785449952E+03  0.59258323692E+03  0.22856572311E+04  0.23671837727E+04  0.10100000352E+00 0.  1.
</event>
<event>
 5   0  0.3616593E-06  0.1847411E+04  0.7818609E-02  0.8681485E-01
       -1   -1    0    0    0  501  0.00000000000E+00  0.00000000000E+00  0.66281209657E+03  0.66281209658E+03  0.50400001928E-02 0. -1.
        1   -1    0    0  501    0  0.00000000000E+00  0.00000000000E+00 -0.12872911937E+04  0.12872911937E+04  0.50400001928E-02 0.  1.
    10030    2    1    2    0    0  0.00000000000E+00  0.00000000000E+00 -0.62447909714E+03  0.19501032903E+04  0.18474113511E+04 0.  0.
        3    1    3    3  502    0 -0.28620602506E+03  0.24153881966E+01 -0.12393023938E+04  0.12719238013E+04  0.10100000352E+00 0.  1.
       -3    1    3    3    0  502  0.28620602506E+03 -0.24153881966E+01  0.61482329669E+03  0.67817948895E+03  0.10100000352E+00 0. -1.
</event>
<event>
 5   0  0.1513502E-06  0.2086661E+04  0.7818609E-02  0.8567142E-01
        2   -1    0    0  501    0  0.00000000000E+00  0.00000000000E+00  0.85447254940E+03  0.85447254941E+03  0.25500000920E-02 0. -1.
       -2   -1    0    0    0  501  0.00000000000E+00  0.00000000000E+00 -0.12739300807E+04  0.12739300807E+04  0.25500000920E-02 0.  1.
    10030    2    1    2    0    0  0.00000000000E+00  0.00000000000E+00 -0.41945753132E+03  0.21284026301E+04  0.20866607619E+04 0.  0.
        3    1    3    3  502    0  0.66917282469E+03 -0.30142892315E+03  0.54664857362E+03  0.91513733300E+03  0.10100000352E+00 0. -1.
       -3    1    3    3    0  502 -0.66917282469E+03  0.30142892315E+03 -0.96610610494E+03  0.12132652971E+04  0.10100000352E+00 0.  1.
</event>
<event>
 5   0  0.2536619E-06  0.2644828E+04  0.7818609E-02  0.8353132E-01
        2   -1    0    0  501    0  0.00000000000E+00  0.00000000000E+00  0.92636351989E+03  0.92636351990E+03  0.25500000920E-02 0.  1.
       -2   -1    0    0    0  501  0.00000000000E+00  0.00000000000E+00 -0.18877886654E+04  0.18877886654E+04  0.25500000920E-02 0. -1.
    10030    2    1    2    0    0  0.00000000000E+00  0.00000000000E+00 -0.96142514550E+03  0.28141521853E+04  0.26448278227E+04 0.  0.
        1    1    3    3  502    0  0.80722955979E+03 -0.48951809510E+03  0.50460243033E+03  0.10704537077E+04  0.50400001928E-02 0.  1.
       -1    1    3    3    0  502 -0.80722955979E+03  0.48951809510E+03 -0.14660275758E+04  0.17436984776E+04  0.50400001928E-02 0. -1.
</event>
<event>
 5   0  0.1566576E-06  0.3163549E+04  0.7818609E-02  0.8198511E-01
       -2   -1    0    0    0  501  0.00000000000E+00  0.00000000000E+00  0.97078929462E+03  0.97078929462E+03  0.25500000920E-02 0.  1.
        2   -1    0    0  501    0  0.00000000000E+00  0.00000000000E+00 -0.25772958373E+04  0.25772958373E+04  0.25500000920E-02 0. -1.
    10030    2    1    2    0    0  0.00000000000E+00  0.00000000000E+00 -0.16065065426E+04  0.35480851319E+04  0.31635494040E+04 0.  0.
        4    1    3    3  502    0 -0.10701456827E+04  0.72446207872E+03  0.21973034563E+03  0.13108547301E+04  0.12699999809E+01 0.  1.
       -4    1    3    3    0  502  0.10701456827E+04 -0.72446207872E+03 -0.18262368883E+04  0.22372304018E+04  0.12699999809E+01 0. -1.
</event>
<event>
 5   0  0.1566576E-06  0.3516892E+04  0.7818609E-02  0.8109798E-01
        2   -1    0    0  501    0  0.00000000000E+00  0.00000000000E+00  0.26874317974E+04  0.26874317974E+04  0.25500000920E-02 0.  1.
       -2   -1    0    0    0  501  0.00000000000E+00  0.00000000000E+00 -0.11505902682E+04  0.11505902682E+04  0.25500000920E-02 0. -1.
    10030    2    1    2    0    0  0.00000000000E+00  0.00000000000E+00  0.15368415292E+04  0.38380220656E+04  0.35168923057E+04 0.  0.
        4    1    3    3  502    0 -0.80399507876E+03 -0.14878400824E+04  0.24271356936E+03  0.17085045177E+04  0.12699999809E+01 0. -1.
       -4    1    3    3    0  502  0.80399507876E+03  0.14878400824E+04  0.12941279598E+04  0.21295175479E+04  0.12699999809E+01 0.  1.
</event>
<event>
 5   0  0.1513502E-06  0.1952759E+04  0.7818609E-02  0.8629032E-01
        2   -1    0    0  501    0  0.00000000000E+00  0.00000000000E+00  0.13206956438E+04  0.13206956438E+04  0.25500000920E-02 0. -1.
       -2   -1    0    0    0  501  0.00000000000E+00  0.00000000000E+00 -0.72182925021E+03  0.72182925022E+03  0.25500000920E-02 0.  1.
    10030    2    1    2    0    0  0.00000000000E+00  0.00000000000E+00  0.59886639361E+03  0.20425248940E+04  0.19527588139E+04 0.  0.
        3    1    3    3  502    0  0.44514526656E+03 -0.84426418285E+03  0.84104770555E+02  0.95812835331E+03  0.10100000352E+00 0.  1.
       -3    1    3    3    0  502 -0.44514526656E+03  0.84426418285E+03  0.51476162305E+03  0.10843965407E+04  0.10100000352E+00 0. -1.
</event>
<event>
 5   0  0.2422436E-06  0.3684321E+04  0.7818609E-02  0.8071445E-01
        2   -1    0    0  501    0  0.00000000000E+00  0.00000000000E+00  0.13725117441E+04  0.13725117441E+04  0.25500000920E-02 0. -1.
       -2   -1    0    0    0  501  0.00000000000E+00  0.00000000000E+00 -0.24725148326E+04  0.24725148326E+04  0.25500000920E-02 0.  1.
    10030    2    1    2    0    0  0.00000000000E+00  0.00000000000E+00 -0.11000030885E+04  0.38450265767E+04  0.36843211832E+04 0.  0.
        2    1    3    3  502    0  0.53740590467E+03  0.54125633968E+03 -0.22999830829E+04  0.24231561471E+04  0.25500000920E-02 0.  1.
       -2    1    3    3    0  502 -0.53740590467E+03 -0.54125633968E+03  0.11999799944E+04  0.14218704296E+04  0.25500000920E-02 0. -1.
</event>
<event>
 5   0  0.2536619E-06  0.3001471E+04  0.7818609E-02  0.8243311E-01
        2   -1    0    0  501    0  0.00000000000E+00  0.00000000000E+00  0.27967987334E+04  0.27967987334E+04  0.25500000920E-02 0.  1.
       -2   -1    0    0    0  501  0.00000000000E+00  0.00000000000E+00 -0.80528040987E+03  0.80528040987E+03  0.25500000920E-02 0. -1.
    10030    2    1    2    0    0  0.00000000000E+00  0.00000000000E+00  0.19915183235E+04  0.36020791433E+04  0.30014711262E+04 0.  0.
        1    1    3    3  502    0 -0.58266615667E+03 -0.16769876744E+03  0.26432647210E+04  0.27119128143E+04  0.50400001928E-02 0.  1.
       -1    1    3    3    0  502  0.58266615667E+03  0.16769876744E+03 -0.65174639746E+03  0.89016632904E+03  0.50400001928E-02 0. -1.
</event>
<event>
 5   0  0.2422436E-06  0.3446629E+04  0.7818609E-02  0.8126556E-01
       -2   -1    0    0    0  501  0.00000000000E+00  0.00000000000E+00  0.10998257215E+04  0.10998257215E+04  0.25500000920E-02 0. -1.
        2   -1    0    0  501    0  0.00000000000E+00  0.00000000000E+00 -0.27002577372E+04  0.27002577372E+04  0.25500000920E-02 0.  1.
    10030    2    1    2    0    0  0.00000000000E+00  0.00000000000E+00 -0.16004320156E+04  0.38000834587E+04  0.34466290280E+04 0.  0.
        2    1    3    3  502    0 -0.62236551734E+02  0.14847470355E+04  0.16189190178E+03  0.14948431810E+04  0.25500000920E-02 0. -1.
       -2    1    3    3    0  502  0.62236551734E+02 -0.14847470355E+04 -0.17623239174E+04  0.23052402777E+04  0.25500000920E-02 0.  1.
</event>
<event>
 5   0  0.7754556E-07  0.2136985E+04  0.7818609E-02  0.8545124E-01
        1   -1    0    0  501    0  0.00000000000E+00  0.00000000000E+00  0.77088351481E+03  0.77088351483E+03  0.50400001928E-02 0. -1.
       -1   -1    0    0    0  501  0.00000000000E+00  0.00000000000E+00 -0.14809966238E+04  0.14809966238E+04  0.50400001928E-02 0.  1.
    10030    2    1    2    0    0  0.00000000000E+00  0.00000000000E+00 -0.71011310903E+03  0.22518801387E+04  0.21369846821E+04 0.  0.
        4    1    3    3  502    0  0.99526663556E+03 -0.27739431859E+02 -0.76365273608E+03  0.12547877375E+04  0.12699999809E+01 0.  1.
       -4    1    3    3    0  502 -0.99526663556E+03  0.27739431859E+02  0.53539627052E+02  0.99709240118E+03  0.12699999809E+01 0. -1.
</event>
<event>
 5   0  0.2382711E-06  0.3578411E+04  0.7818609E-02  0.8095455E-01
        2   -1    0    0  501    0  0.00000000000E+00  0.00000000000E+00  0.14904457660E+04  0.14904457660E+04  0.25500000920E-02 0.  1.
       -2   -1    0    0    0  501  0.00000000000E+00  0.00000000000E+00 -0.21478513112E+04  0.21478513112E+04  0.25500000920E-02 0. -1.
    10030    2    1    2    0    0  0.00000000000E+00  0.00000000000E+00 -0.65740554526E+03  0.36382970772E+04  0.35784107606E+04 0.  0.
        5    1    3    3  502    0 -0.43462311100E+03  0.68347746225E+02  0.14345830169E+04  0.15005396314E+04  0.46999998093E+01 0.  1.
       -5    1    3    3    0  502  0.43462311100E+03 -0.68347746225E+02 -0.20919885622E+04  0.21377574458E+04  0.46999998093E+01 0. -1.
</event>
<event>
 5   0  0.8423692E-07  0.1931292E+04  0.7818609E-02  0.8639435E-01
       -1   -1    0    0    0  501  0.00000000000E+00  0.00000000000E+00  0.97572892075E+03  0.97572892076E+03  0.50400001928E-02 0. -1.
        1   -1    0    0  501    0  0.00000000000E+00  0.00000000000E+00 -0.95566754486E+03  0.95566754487E+03  0.50400001928E-02 0.  1.
    10030    2    1    2    0    0  0.00000000000E+00  0.00000000000E+00  0.20061375890E+02  0.19313964656E+04  0.19312922743E+04 0.  0.
        2    1    3    3  502    0  0.79324935012E+03 -0.10538753482E+03  0.55054240695E+03  0.97131251707E+03  0.25500000920E-02 0. -1.
       -2    1    3    3    0  502 -0.79324935012E+03  0.10538753482E+03 -0.53048103106E+03  0.96008394856E+03  0.25500000920E-02 0.  1.
</event>
<event>
 5   0  0.7707500E-07  0.2928195E+04  0.7818609E-02  0.8264538E-01
        3   -1    0    0  501    0  0.00000000000E+00  0.00000000000E+00  0.23740672244E+04  0.23740672266E+04  0.10100000352E+00 0. -1.
       -3   -1    0    0    0  501  0.00000000000E+00  0.00000000000E+00 -0.90291547794E+03  0.90291548359E+03  0.10100000352E+00 0.  1.
    10030    2    1    2    0    0  0.00000000000E+00  0.00000000000E+00  0.14711517465E+04  0.32769827102E+04  0.29281953865E+04 0.  0.
        2    1    3    3  502    0  0.10149714992E+04 -0.25451382930E+03 -0.41042992599E+03  0.11240094117E+04  0.25500000920E-02 0.  1.
       -2    1    3    3    0  502 -0.10149714992E+04  0.25451382930E+03  0.18815816725E+04  0.21529732984E+04  0.25500000920E-02 0. -1.
</event>
<event>
 5   0  0.2536619E-06  0.3567950E+04  0.7818609E-02  0.8097873E-01
       -2   -1    0    0    0  501  0.00000000000E+00  0.00000000000E+00  0.14508272986E+04  0.14508272986E+04  0.25500000920E-02 0.  1.
        2   -1    0    0  501    0  0.00000000000E+00  0.00000000000E+00 -0.21936224934E+04  0.21936224934E+04  0.25500000920E-02 0. -1.
    10030    2    1    2    0    0  0.00000000000E+00  0.00000000000E+00 -0.74279519471E+03  0.36444497920E+04  0.35679503339E+04 0.  0.
        1    1    3    3  502    0 -0.11295970751E+04  0.74182495585E+03 -0.15609588840E+04  0.20646758716E+04  0.50400001928E-02 0. -1.
       -1    1    3    3    0  502  0.11295970751E+04 -0.74182495585E+03  0.81816368926E+03  0.15797739204E+04  0.50400001928E-02 0.  1.
</event>
<event>
 5   0  0.2536619E-06  0.3694085E+04  0.7818609E-02  0.8069274E-01
       -2   -1    0    0    0  501  0.00000000000E+00  0.00000000000E+00  0.16525752823E+04  0.16525752823E+04  0.25500000920E-02 0.  1.
        2   -1    0    0  501    0  0.00000000000E+00  0.00000000000E+00 -0.20643937930E+04  0.20643937930E+04  0.25500000920E-02 0. -1.
    10030    2    1    2    0    0  0.00000000000E+00  0.00000000000E+00 -0.41181851073E+03  0.37169690753E+04  0.36940850858E+04 0.  0.
        1    1    3    3  502    0  0.17378451560E+03 -0.44043587443E+03  0.15904742815E+04  0.16594557112E+04  0.50400001928E-02 0.  1.
       -1    1    3    3    0  502 -0.17378451560E+03  0.44043587443E+03 -0.20022927923E+04  0.20575133641E+04  0.50400001928E-02 0. -1.
</event>
<event>
 5   0  0.8452742E-07  0.2566695E+04  0.7818609E-02  0.8379603E-01
        1   -1    0    0  501    0  0.00000000000E+00  0.00000000000E+00  0.23487648483E+04  0.23487648483E+04  0.50400001928E-02 0. -1.
       -1   -1    0    0    0  501  0.00000000000E+00  0.00000000000E+00 -0.70121124023E+03  0.70121124025E+03  0.50400001928E-02 0.  1.
    10030    2    1    2    0    0  0.00000000000E+00  0.00000000000E+00  0.16475536081E+04  0.30499760886E+04  0.25666946155E+04 0.  0.
        1    1    3    3  502    0  0.34566978079E+03 -0.18299805006E+03  0.22762167259E+04  0.23095753867E+04  0.50400001928E-02 0. -1.
       -1    1    3    3    0  502 -0.34566978079E+03  0.18299805006E+03 -0.62866311777E+03  0.74040070189E+03  0.50400001928E-02 0.  1.
</event>
<event>
 5   0  0.8423692E-07  0.2009018E+04  0.7818609E-02  0.8602416E-01
        1   -1    0    0  501    0  0.00000000000E+00  0.00000000000E+00  0.12254044086E+04  0.12254044086E+04  0.50400001928E-02 0.  1.
       -1   -1    0    0    0  501  0.00000000000E+00  0.00000000000E+00 -0.82343323936E+03  0.82343323938E+03  0.50400001928E-02 0. -1.
    10030    2    1    2    0    0  0.00000000000E+00  0.00000000000E+00  0.40197116927E+03  0.20488376480E+04  0.20090183889E+04 0.  0.
        2    1    3    3  502    0  0.14633641545E+03  0.84775726201E+03  0.72985064320E+03  0.11281793666E+04  0.25500000920E-02 0.  1.
       -2    1    3    3    0  502 -0.14633641545E+03 -0.84775726201E+03 -0.32787947393E+03  0.92065828145E+03  0.25500000920E-02 0. -1.
</event>
<event>
 5   0  0.1634374E-06  0.3626610E+04  0.7818609E-02  0.8084423E-01
       -1   -1    0    0    0  501  0.00000000000E+00  0.00000000000E+00  0.15008875604E+04  0.15008875605E+04  0.50400001928E-02 0.  1.
        1   -1    0    0  501    0  0.00000000000E+00  0.00000000000E+00 -0.21907539752E+04  0.21907539752E+04  0.50400001928E-02 0. -1.
    10030    2    1    2    0    0  0.00000000000E+00  0.00000000000E+00 -0.68986641475E+03  0.36916415357E+04  0.36266102020E+04 0.  0.
        5    1    3    3  502    0  0.11584641062E+04  0.98513506462E+03  0.66046342870E+03  0.16579397490E+04  0.46999998093E+01 0.  1.
       -5    1    3    3    0  502 -0.11584641062E+04 -0.98513506462E+03 -0.13503298434E+04  0.20337017866E+04  0.46999998093E+01 0. -1.
</event>
<event>
 5   0  0.1566576E-06  0.3007858E+04  0.7818609E-02  0.8241491E-01
        2   -1    0    0  501    0  0.00000000000E+00  0.00000000000E+00  0.12257404101E+04  0.12257404101E+04  0.25500000920E-02 0. -1.
       -2   -1    0    0    0  501  0.00000000000E+00  0.00000000000E+00 -0.18452535577E+04  0.18452535577E+04  0.25500000920E-02 0.  1.
    10030    2    1    2    0    0  0.00000000000E+00  0.00000000000E+00 -0.61951314767E+03  0.30709939678E+04  0.30078576114E+04 0.  0.
        4    1    3    3  502    0  0.18541536800E+03 -0.82124053911E+03 -0.15821029890E+04  0.17921680620E+04  0.12699999809E+01 0.  1.
       -4    1    3    3    0  502 -0.18541536800E+03  0.82124053911E+03  0.96258984135E+03  0.12788259058E+04  0.12699999809E+01 0. -1.
</event>
<event>
 5   0  0.1566576E-06  0.3087563E+04  0.7818609E-02  0.8219159E-01
       -2   -1    0    0    0  501  0.00000000000E+00  0.00000000000E+00  0.29241698586E+04  0.29241698586E+04  0.25500000920E-02 0. -1.
        2   -1    0    0  501    0  0.00000000000E+00  0.00000000000E+00 -0.81502146190E+03  0.81502146190E+03  0.25500000920E-02 0.  1.
    10030    2    1    2    0    0  0.00000000000E+00  0.00000000000E+00  0.21091483967E+04  0.37391913205E+04  0.30875629179E+04 0.  0.
        4    1    3    3  502    0  0.10834835641E+04  0.62807757175E+03 -0.38622831700E+02  0.12529610552E+04  0.12699999809E+01 0.  1.
       -4    1    3    3    0  502 -0.10834835641E+04 -0.62807757175E+03  0.21477712284E+04  0.24862302654E+04  0.12699999809E+01 0. -1.
</event>
<event>
 5   0  0.1513502E-06  0.3683675E+04  0.7818609E-02  0.8071589E-01
       -2   -1    0    0    0  501  0.00000000000E+00  0.00000000000E+00  0.18320587805E+04  0.18320587805E+04  0.25500000920E-02 0.  1.
        2   -1    0    0  501    0  0.00000000000E+00  0.00000000000E+00 -0.18516687836E+04  0.18516687836E+04  0.25500000920E-02 0. -1.
    10030    2    1    2    0    0  0.00000000000E+00  0.00000000000E+00 -0.19610003103E+02  0.36837275640E+04  0.36836753676E+04 0.  0.
        3    1    3    3  502    0  0.14553500401E+03 -0.14478475075E+04  0.11193359691E+04  0.18358528983E+04  0.10100000352E+00 0.  1.
       -3    1    3    3    0  502 -0.14553500401E+03  0.14478475075E+04 -0.11389459722E+04  0.18478746657E+04  0.10100000352E+00 0. -1.
</event>
<event>
 5   0  0.7754556E-07  0.3944972E+04  0.7818609E-02  0.8015740E-01
        1   -1    0    0  501    0  0.00000000000E+00  0.00000000000E+00  0.21975067564E+04  0.21975067564E+04  0.50400001928E-02 0.  1.
       -1   -1    0    0    0  501  0.00000000000E+00  0.00000000000E+00 -0.17705071666E+04  0.17705071666E+04  0.50400001928E-02 0. -1.
    10030    2    1    2    0    0  0.00000000000E+00  0.00000000000E+00  0.42699958976E+03  0.39680139231E+04  0.39449722235E+04 0.  0.
        4    1    3    3  502    0 -0.53960037351E+03  0.18972308653E+04  0.22034608040E+03  0.19847436931E+04  0.12699999809E+01 0.  1.
       -4    1    3    3    0  502  0.53960037351E+03 -0.18972308653E+04  0.20665350936E+03  0.19832702300E+04  0.12699999809E+01 0. -1.
</event>
<event>
 5   0  0.1566576E-06  0.3001125E+04  0.7818609E-02  0.8243410E-01
       -2   -1    0    0    0  501  0.00000000000E+00  0.00000000000E+00  0.30423233894E+04  0.30423233894E+04  0.25500000920E-02 0. -1.
        2   -1    0    0  501    0  0.00000000000E+00  0.00000000000E+00 -0.74012136965E+03  0.74012136965E+03  0.25500000920E-02 0.  1.
    10030    2    1    2    0    0  0.00000000000E+00  0.00000000000E+00  0.23022020197E+04  0.37824447590E+04  0.30011254915E+04 0.  0.
        4    1    3    3  502    0  0.14605727703E+04  0.21698747413E+03  0.81449159833E+03  0.16863435468E+04  0.12699999809E+01 0.  1.
       -4    1    3    3    0  502 -0.14605727703E+04 -0.21698747413E+03  0.14877104214E+04  0.20961012123E+04  0.12699999809E+01 0. -1.
</event>
<event>
 5   0  0.8423692E-07  0.2015656E+04  0.7818609E-02  0.8599336E-01
        1   -1    0    0  501    0  0.00000000000E+00  0.00000000000E+00  0.73388455666E+03  0.73388455668E+03  0.50400001928E-02 0. -1.
       -1   -1    0    0    0  501  0.00000000000E+00  0.00000000000E+00 -0.13840284142E+04  0.13840284142E+04  0.50400001928E-02 0.  1.
    10030    2    1    2    0    0  0.00000000000E+00  0.00000000000E+00 -0.65014385752E+03  0.21179129709E+04  0.20156558031E+04 0.  0.
        2    1    3    3  502    0  0.88348430425E+03  0.84626228506E+02  0.17665753218E+03  0.90493867090E+03  0.25500000920E-02 0. -1.
       -2    1    3    3    0  502 -0.88348430425E+03 -0.84626228506E+02 -0.82680138970E+03  0.12129743000E+04  0.25500000920E-02 0.  1.
</event>
<event>
 5   0  0.2536619E-06  0.3416355E+04  0.7818609E-02  0.8133904E-01
       -2   -1    0    0    0  501  0.00000000000E+00  0.00000000000E+00  0.13644703144E+04  0.13644703144E+04  0.25500000920E-02 0. -1.
        2   -1    0    0  501    0  0.00000000000E+00  0.00000000000E+00 -0.21384632715E+04  0.21384632715E+04  0.25500000920E-02 0.  1.
    10030    2    1    2    0    0  0.00000000000E+00  0.00000000000E+00 -0.77399295706E+03  0.35029335859E+04  0.34163545790E+04 0.  0.
        1    1    3    3  502    0  0.42982190361E+03  0.13988940519E+04  0.51636356842E+03  0.15518642892E+04  0.50400001928E-02 0. -1.
       -1    1    3    3    0  502 -0.42982190361E+03 -0.13988940519E+04 -0.12903565255E+04  0.19510692966E+04  0.50400001928E-02 0.  1.
</event>
<event>
 5   0  0.1513502E-06  0.3337525E+04  0.7818609E-02  0.8153412E-01
       -2   -1    0    0    0  501  0.00000000000E+00  0.00000000000E+00  0.24855522105E+04  0.24855522105E+04  0.25500000920E-02 0. -1.
        2   -1    0    0  501    0  0.00000000000E+00  0.00000000000E+00 -0.11203818273E+04  0.11203818273E+04  0.25500000920E-02 0.  1.
    10030    2    1    2    0    0  0.00000000000E+00  0.00000000000E+00  0.13651703833E+04  0.36059340378E+04  0.33375245482E+04 0.  0.
        3    1    3    3  502    0 -0.12013772220E+02  0.10973160542E+04  0.20408779910E+04  0.23172030205E+04  0.10100000352E+00 0. -1.
       -3    1    3    3    0  502  0.12013772220E+02 -0.10973160542E+04 -0.67570760777E+03  0.12887310173E+04  0.10100000352E+00 0.  1.
</event>
<event>
 5   0  0.7754556E-07  0.3602782E+04  0.7818609E-02  0.8089855E-01
       -1   -1    0    0    0  501  0.00000000000E+00  0.00000000000E+00  0.15258734567E+04  0.15258734567E+04  0.50400001928E-02 0.  1.
        1   -1    0    0  501    0  0.00000000000E+00  0.00000000000E+00 -0.21266575513E+04  0.21266575513E+04  0.50400001928E-02 0. -1.
    10030    2    1    2    0    0  0.00000000000E+00  0.00000000000E+00 -0.60078409454E+03  0.36525310080E+04  0.36027824297E+04 0.  0.
        4    1    3    3  502    0  0.41232358661E+03 -0.75093080599E+03 -0.19069187763E+04  0.20905139674E+04  0.12699999809E+01 0. -1.
       -4    1    3    3    0  502 -0.41232358661E+03  0.75093080599E+03  0.13061346817E+04  0.15620170406E+04  0.12699999809E+01 0.  1.
</event>
<event>
 5   0  0.7754556E-07  0.1829428E+04  0.7818609E-02  0.8690805E-01
       -1   -1    0    0    0  501  0.00000000000E+00  0.00000000000E+00  0.77232224287E+03  0.77232224288E+03  0.50400001928E-02 0. -1.
        1   -1    0    0  501    0  0.00000000000E+00  0.00000000000E+00 -0.10833580662E+04  0.10833580662E+04  0.50400001928E-02 0.  1.
    10030    2    1    2    0    0  0.00000000000E+00  0.00000000000E+00 -0.31103582330E+03  0.18556803091E+04  0.18294278138E+04 0.  0.
        4    1    3    3  502    0 -0.27688153885E+02 -0.90952503780E+03 -0.60919278821E+02  0.91198421021E+03  0.12699999809E+01 0.  1.
       -4    1    3    3    0  502  0.27688153885E+02  0.90952503780E+03 -0.25011654448E+03  0.94369609884E+03  0.12699999809E+01 0. -1.
</event>
<event>
 5   0  0.8423692E-07  0.1896680E+04  0.7818609E-02  0.8656511E-01
       -1   -1    0    0    0  501  0.00000000000E+00  0.00000000000E+00  0.88151790620E+03  0.88151790621E+03  0.50400001928E-02 0. -1.
        1   -1    0    0  501    0  0.00000000000E+00  0.00000000000E+00 -0.10202275651E+04  0.10202275651E+04  0.50400001928E-02 0.  1.
    10030    2    1    2    0    0  0.00000000000E+00  0.00000000000E+00 -0.13870965888E+03  0.19017454713E+04  0.18966801175E+04 0.  0.
        2    1    3    3  502    0 -0.58365395615E+03 -0.26581933397E+03  0.63110732757E+03  0.89978237244E+03  0.25500000920E-02 0. -1.
       -2    1    3    3    0  502  0.58365395615E+03  0.26581933397E+03 -0.76981698644E+03  0.10019630989E+04  0.25500000920E-02 0.  1.
</event>
<event>
 5   0  0.1566576E-06  0.3091743E+04  0.7818609E-02  0.8218008E-01
        2   -1    0    0  501    0  0.00000000000E+00  0.00000000000E+00  0.91108563572E+03  0.91108563572E+03  0.25500000920E-02 0.  1.
       -2   -1    0    0    0  501  0.00000000000E+00  0.00000000000E+00 -0.26229346049E+04  0.26229346049E+04  0.25500000920E-02 0. -1.
    10030    2    1    2    0    0  0.00000000000E+00  0.00000000000E+00 -0.17118489692E+04  0.35340202406E+04  0.30917425779E+04 0.  0.
        4    1    3    3  502    0  0.12542886271E+03 -0.11296319484E+03  0.90051924050E+03  0.91620390657E+03  0.12699999809E+01 0.  1.
       -4    1    3    3    0  502 -0.12542886271E+03  0.11296319484E+03 -0.26123682097E+04  0.26178163341E+04  0.12699999809E+01 0. -1.
</event>
<event>
 5   0  0.7754556E-07  0.2560671E+04  0.7818609E-02  0.8381685E-01
        1   -1    0    0  501    0  0.00000000000E+00  0.00000000000E+00  0.14925748060E+04  0.14925748060E+04  0.50400001928E-02 0.  1.
       -1   -1    0    0    0  501  0.00000000000E+00  0.00000000000E+00 -0.10982755370E+04  0.10982755370E+04  0.50400001928E-02 0. -1.
    10030    2    1    2    0    0  0.00000000000E+00  0.00000000000E+00  0.39429926908E+03  0.25908503430E+04  0.25606705345E+04 0.  0.
        4    1    3    3  502    0 -0.19155074591E+02  0.16302482248E+03 -0.10875845219E+04  0.10999025933E+04  0.12699999809E+01 0. -1.
       -4    1    3    3    0  502  0.19155074591E+02 -0.16302482248E+03  0.14818837909E+04  0.14909477497E+04  0.12699999809E+01 0.  1.
</event>
<event>
 5   0  0.1566576E-06  0.3535900E+04  0.7818609E-02  0.8105335E-01
       -2   -1    0    0    0  501  0.00000000000E+00  0.00000000000E+00  0.24327548889E+04  0.24327548889E+04  0.25500000920E-02 0. -1.
        2   -1    0    0  501    0  0.00000000000E+00  0.00000000000E+00 -0.12848176338E+04  0.12848176338E+04  0.25500000920E-02 0.  1.
    10030    2    1    2    0    0  0.00000000000E+00  0.00000000000E+00  0.11479372551E+04  0.37175725228E+04  0.35358995348E+04 0.  0.
        4    1    3    3  502    0  0.45210167237E+03 -0.10509158747E+04  0.19911193473E+04  0.22963836714E+04  0.12699999809E+01 0. -1.
       -4    1    3    3    0  502 -0.45210167237E+03  0.10509158747E+04 -0.84318209223E+03  0.14211888514E+04  0.12699999809E+01 0.  1.
</event>
<event>
 5   0  0.7707500E-07  0.3619641E+04  0.7818609E-02  0.8086007E-01
        3   -1    0    0  501    0  0.00000000000E+00  0.00000000000E+00  0.21630506992E+04  0.21630507016E+04  0.10100000352E+00 0. -1.
       -3   -1    0    0    0  501  0.00000000000E+00  0.00000000000E+00 -0.15142734570E+04  0.15142734604E+04  0.10100000352E+00 0.  1.
    10030    2    1    2    0    0  0.00000000000E+00  0.00000000000E+00  0.64877724223E+03  0.36773241619E+04  0.36196410156E+04 0.  0.
        4    1    3    3  502    0 -0.16615174513E+04  0.38223106325E+03  0.94127842958E+03  0.19474977590E+04  0.12699999809E+01 0. -1.
       -4    1    3    3    0  502  0.16615174513E+04 -0.38223106325E+03 -0.29250118735E+03  0.17298264029E+04  0.12699999809E+01 0.  1.
</event>
<event>
 5   0  0.1513502E-06  0.3585430E+04  0.7818609E-02  0.8093837E-01
        2   -1    0    0  501    0  0.00000000000E+00  0.00000000000E+00  0.26770315708E+04  0.26770315708E+04  0.25500000920E-02 0.  1.
       -2   -1    0    0    0  501  0.00000000000E+00  0.00000000000E+00 -0.12005187932E+04  0.12005187932E+04  0.25500000920E-02 0. -1.
    10030    2    1    2    0    0  0.00000000000E+00  0.00000000000E+00  0.14765127776E+04  0.38775503639E+04  0.35854297988E+04 0.  0.
        3    1    3    3  502    0  0.17591946683E+03  0.85165826378E+03 -0.95712747383E+03  0.12931985418E+04  0.10100000352E+00 0. -1.
       -3    1    3    3    0  502 -0.17591946683E+03 -0.85165826378E+03  0.24336402514E+04  0.25843518222E+04  0.10100000352E+00 0.  1.
</event>
<event>
 5   0  0.7754556E-07  0.3506381E+04  0.7818609E-02  0.8112279E-01
       -1   -1    0    0    0  501  0.00000000000E+00  0.00000000000E+00  0.18507793854E+04  0.18507793854E+04  0.50400001928E-02 0. -1.
        1   -1    0    0  501    0  0.00000000000E+00  0.00000000000E+00 -0.16607470703E+04  0.16607470703E+04  0.50400001928E-02 0.  1.
    10030    2    1    2    0    0  0.00000000000E+00  0.00000000000E+00  0.19003231511E+03  0.35115264557E+04  0.35063807221E+04 0.  0.
        4    1    3    3  502    0  0.19931990816E+03  0.61410899496E+03  0.17273826010E+04  0.18441015554E+04  0.12699999809E+01 0. -1.
       -4    1    3    3    0  502 -0.19931990816E+03 -0.61410899496E+03 -0.15373502859E+04  0.16674249003E+04  0.12699999809E+01 0.  1.
</event>
<event>
 5   0  0.7707500E-07  0.3008180E+04  0.7818609E-02  0.8241399E-01
       -3   -1    0    0    0  501  0.00000000000E+00  0.00000000000E+00  0.13657744012E+04  0.13657744049E+04  0.10100000352E+00 0.  1.
        3   -1    0    0  501    0  0.00000000000E+00  0.00000000000E+00 -0.16564136216E+04  0.16564136247E+04  0.10100000352E+00 0. -1.
    10030    2    1    2    0    0  0.00000000000E+00  0.00000000000E+00 -0.29063922041E+03  0.30221880296E+04  0.30081804018E+04 0.  0.
        4    1    3    3  502    0  0.13997722703E+04  0.44226570658E+03  0.18380984302E+03  0.14794421365E+04  0.12699999809E+01 0.  1.
       -4    1    3    3    0  502 -0.13997722703E+04 -0.44226570658E+03 -0.47444906344E+03  0.15427458931E+04  0.12699999809E+01 0. -1.
</event>
<event>
 5   0  0.1513502E-06  0.2900559E+04  0.7818609E-02  0.8272711E-01
       -2   -1    0    0    0  501  0.00000000000E+00  0.00000000000E+00  0.13663105679E+04  0.13663105679E+04  0.25500000920E-02 0.  1.
        2   -1    0    0  501    0  0.00000000000E+00  0.00000000000E+00 -0.15394088255E+04  0.15394088255E+04  0.25500000920E-02 0. -1.
    10030    2    1    2    0    0  0.00000000000E+00  0.00000000000E+00 -0.17309825765E+03  0.29057193934E+04  0.29005589438E+04 0.  0.
        3    1    3    3  502    0  0.14343222749E+04 -0.97925247289E+02  0.10468521646E+03  0.14414675671E+04  0.10100000352E+00 0.  1.
       -3    1    3    3    0  502 -0.14343222749E+04  0.97925247289E+02 -0.27778347412E+03  0.14642518263E+04  0.10100000352E+00 0. -1.
</event>
<event>
 5   0  0.7754556E-07  0.3751245E+04  0.7818609E-02  0.8056699E-01
       -1   -1    0    0    0  501  0.00000000000E+00  0.00000000000E+00  0.15983809953E+04  0.15983809953E+04  0.50400001928E-02 0.  1.
        1   -1    0    0  501    0  0.00000000000E+00  0.00000000000E+00 -0.22009524609E+04  0.22009524609E+04  0.50400001928E-02 0. -1.
    10030    2    1    2    0    0  0.00000000000E+00  0.00000000000E+00 -0.60257146558E+03  0.37993334562E+04  0.37512454386E+04 0.  0.
        4    1    3    3  502    0  0.16501277069E+04 -0.85208902985E+03 -0.35274963412E+02  0.18574776176E+04  0.12699999809E+01 0.  1.
       -4    1    3    3    0  502 -0.16501277069E+04  0.85208902985E+03 -0.56729650216E+03  0.19418558386E+04  0.12699999809E+01 0. -1.
</event>
<event>
 5   0  0.1634374E-06  0.1949378E+04  0.7818609E-02  0.8630661E-01
       -1   -1    0    0    0  501  0.00000000000E+00  0.00000000000E+00  0.12233666163E+04  0.12233666163E+04  0.50400001928E-02 0.  1.
        1   -1    0    0  501    0  0.00000000000E+00  0.00000000000E+00 -0.77656126488E+03  0.77656126490E+03  0.50400001928E-02 0. -1.
    10030    2    1    2    0    0  0.00000000000E+00  0.00000000000E+00  0.44680535144E+03  0.19999278812E+04  0.19493784928E+04 0.  0.
        5    1    3    3  502    0  0.59695411604E+03 -0.70185424239E+02  0.10105778504E+04  0.11758273224E+04  0.46999998093E+01 0.  1.
       -5    1    3    3    0  502 -0.59695411604E+03  0.70185424239E+02 -0.56377249897E+03  0.82410055881E+03  0.46999998093E+01 0. -1.
</event>
<event>
 5   0  0.8452742E-07  0.3383202E+04  0.7818609E-02  0.8142041E-01
       -1   -1    0    0    0  501  0.00000000000E+00  0.00000000000E+00  0.22659915234E+04  0.22659915234E+04  0.50400001928E-02 0.  1.
        1   -1    0    0  501    0  0.00000000000E+00  0.00000000000E+00 -0.12628089109E+04  0.12628089109E+04  0.50400001928E-02 0. -1.
    10030    2    1    2    0    0  0.00000000000E+00  0.00000000000E+00  0.10031826125E+04  0.35288004343E+04  0.33832022037E+04 0.  0.
        1    1    3    3  502    0  0.39390293792E+02  0.14117971703E+04  0.14726745284E+04  0.20404639453E+04  0.50400001928E-02 0.  1.
       -1    1    3    3    0  502 -0.39390293792E+02 -0.14117971703E+04 -0.46949191589E+03  0.14883364890E+04  0.50400001928E-02 0. -1.
</event>
<event>
 5   0  0.1566576E-06  0.3649802E+04  0.7818609E-02  0.8079178E-01
       -2   -1    0    0    0  501  0.00000000000E+00  0.00000000000E+00  0.23771799351E+04  0.23771799351E+04  0.25500000920E-02 0.  1.
        2   -1    0    0  501    0  0.00000000000E+00  0.00000000000E+00 -0.14009302801E+04  0.14009302801E+04  0.25500000920E-02 0. -1.
    10030    2    1    2    0    0  0.00000000000E+00  0.00000000000E+00  0.97624965499E+03  0.37781102152E+04  0.36498018316E+04 0.  0.
        4    1    3    3  502    0  0.20925225788E+03  0.12618584427E+04  0.18354927489E+04  0.22372099770E+04  0.12699999809E+01 0.  1.
       -4    1    3    3    0  502 -0.20925225788E+03 -0.12618584427E+04 -0.85924309390E+03  0.15409002383E+04  0.12699999809E+01 0. -1.
</event>
<event>
 5   0  0.2382711E-06  0.3618231E+04  0.7818609E-02  0.8086328E-01
       -2   -1    0    0    0  501  0.00000000000E+00  0.00000000000E+00  0.14125328116E+04  0.14125328116E+04  0.25500000920E-02 0.  1.
        2   -1    0    0  501    0  0.00000000000E+00  0.00000000000E+00 -0.23170424447E+04  0.23170424447E+04  0.25500000920E-02 0. -1.
    10030    2    1    2    0    0  0.00000000000E+00  0.00000000000E+00 -0.90450963306E+03  0.37295752563E+04  0.36182307716E+04 0.  0.
        5    1    3    3  502    0 -0.51294476617E+03  0.13287033864E+04  0.69755932657E+03  0.15859306814E+04  0.46999998093E+01 0.  1.
       -5    1    3    3    0  502  0.51294476617E+03 -0.13287033864E+04 -0.16020689596E+04  0.21436445749E+04  0.46999998093E+01 0. -1.
</event>
<event>
 5   0  0.2053329E-06  0.1820310E+04  0.7818609E-02  0.8695573E-01
       -2   -1    0    0    0  501  0.00000000000E+00  0.00000000000E+00  0.69263089933E+03  0.69263089934E+03  0.25500000920E-02 0.  1.
        2   -1    0    0  501    0  0.00000000000E+00  0.00000000000E+00 -0.11959937271E+04  0.11959937271E+04  0.25500000920E-02 0. -1.
    10030    2    1    2    0    0  0.00000000000E+00  0.00000000000E+00 -0.50336282777E+03  0.18886246264E+04  0.18203100953E+04 0.  0.
        4    1    3    3  502    0 -0.25247585009E+03  0.51404484297E+02 -0.11573641330E+04  0.11856980328E+04  0.12699999809E+01 0. -1.
       -4    1    3    3    0  502  0.25247585009E+03 -0.51404484297E+02  0.65400130520E+03  0.70292659360E+03  0.12699999809E+01 0.  1.
</event>
<event>
 5   0  0.1566576E-06  0.3627207E+04  0.7818609E-02  0.8084288E-01
       -2   -1    0    0    0  501  0.00000000000E+00  0.00000000000E+00  0.10217273136E+04  0.10217273136E+04  0.25500000920E-02 0. -1.
        2   -1    0    0  501    0  0.00000000000E+00  0.00000000000E+00 -0.32192131822E+04  0.32192131822E+04  0.25500000920E-02 0.  1.
    10030    2    1    2    0    0  0.00000000000E+00  0.00000000000E+00 -0.21974858686E+04  0.42409404958E+04  0.36272072102E+04 0.  0.
        4    1    3    3  502    0  0.85778737302E+03 -0.73733981483E+03 -0.27562448950E+04  0.29793215191E+04  0.12699999809E+01 0.  1.
       -4    1    3    3    0  502 -0.85778737302E+03  0.73733981483E+03  0.55875902640E+03  0.12616189767E+04  0.12699999809E+01 0. -1.
</event>
<event>
 5   0  0.1566576E-06  0.3826022E+04  0.7818609E-02  0.8040594E-01
        2   -1    0    0  501    0  0.00000000000E+00  0.00000000000E+00  0.22419024277E+04  0.22419024277E+04  0.25500000920E-02 0.  1.
       -2   -1    0    0    0  501  0.00000000000E+00  0.00000000000E+00 -0.16323687369E+04  0.16323687369E+04  0.25500000920E-02 0. -1.
    10030    2    1    2    0    0  0.00000000000E+00  0.00000000000E+00  0.60953369082E+03  0.38742711647E+04  0.38260221820E+04 0.  0.
        4    1    3    3  502    0 -0.12435456682E+04 -0.81586774657E+02 -0.11649313745E+04  0.17059100067E+04  0.12699999809E+01 0. -1.
       -4    1    3    3    0  502  0.12435456682E+04  0.81586774657E+02  0.17744650653E+04  0.21683611580E+04  0.12699999809E+01 0.  1.
</event>
<event>
 5   0  0.1566576E-06  0.3626718E+04  0.7818609E-02  0.8084399E-01
        2   -1    0    0  501    0  0.00000000000E+00  0.00000000000E+00  0.16466378450E+04  0.16466378450E+04  0.25500000920E-02 0. -1.
       -2   -1    0    0    0  501  0.00000000000E+00  0.00000000000E+00 -0.19969605155E+04  0.19969605155E+04  0.25500000920E-02 0.  1.
    10030    2    1    2    0    0  0.00000000000E+00  0.00000000000E+00 -0.35032267051E+03  0.36435983605E+04  0.36267179432E+04 0.  0.
        4    1    3    3  502    0 -0.24312771053E+03  0.13678039507E+04  0.99571178971E+03  0.17092227217E+04  0.12699999809E+01 0. -1.
       -4    1    3    3    0  502  0.24312771053E+03 -0.13678039507E+04 -0.13460344602E+04  0.19343756389E+04  0.12699999809E+01 0.  1.
</event>
<event>
 5   0  0.2536619E-06  0.3615050E+04  0.7818609E-02  0.8087053E-01
        2   -1    0    0  501    0  0.00000000000E+00  0.00000000000E+00  0.10014198920E+04  0.10014198920E+04  0.25500000920E-02 0.  1.
       -2   -1    0    0    0  501  0.00000000000E+00  0.00000000000E+00 -0.32625134666E+04  0.32625134666E+04  0.25500000920E-02 0. -1.
    10030    2    1    2    0    0  0.00000000000E+00  0.00000000000E+00 -0.22610935746E+04  0.42639333586E+04  0.36150495893E+04 0.  0.
        1    1    3    3  502    0  0.13465205050E+04 -0.13081434724E+03 -0.25444244804E+04  0.28817227140E+04  0.50400001928E-02 0. -1.
       -1    1    3    3    0  502 -0.13465205050E+04  0.13081434724E+03  0.28333090585E+03  0.13822106446E+04  0.50400001928E-02 0.  1.
</event>
<event>
 5   0  0.8452742E-07  0.3531263E+04  0.7818609E-02  0.8106421E-01
        1   -1    0    0  501    0  0.00000000000E+00  0.00000000000E+00  0.32992202224E+04  0.32992202224E+04  0.50400001928E-02 0.  1.
       -1   -1    0    0    0  501  0.00000000000E+00  0.00000000000E+00 -0.94490652100E+03  0.94490652102E+03  0.50400001928E-02 0. -1.
    10030    2    1    2    0    0  0.00000000000E+00  0.00000000000E+00  0.23543137014E+04  0.42441267435E+04  0.35312630615E+04 0.  0.
        1    1    3    3  502    0 -0.55705339149E+03  0.17902814036E+03 -0.82499591896E+03  0.10114236611E+04  0.50400001928E-02 0. -1.
       -1    1    3    3    0  502  0.55705339149E+03 -0.17902814036E+03  0.31793096204E+04  0.32327030823E+04  0.50400001928E-02 0.  1.
</event>
<event>
 5   0  0.8423692E-07  0.2266989E+04  0.7818609E-02  0.8491052E-01
       -1   -1    0    0    0  501  0.00000000000E+00  0.00000000000E+00  0.13222154422E+04  0.13222154422E+04  0.50400001928E-02 0.  1.
        1   -1    0    0  501    0  0.00000000000E+00  0.00000000000E+00 -0.97170971707E+03  0.97170971708E+03  0.50400001928E-02 0. -1.
    10030    2    1    2    0    0  0.00000000000E+00  0.00000000000E+00  0.35050572510E+03  0.22939251593E+04  0.22669888339E+04 0.  0.
        2    1    3    3  502    0  0.92494557174E+03  0.58065368417E+03  0.48238293488E+03  0.11938912461E+04  0.25500000920E-02 0.  1.
       -2    1    3    3    0  502 -0.92494557174E+03 -0.58065368417E+03 -0.13187720979E+03  0.11000339132E+04  0.25500000920E-02 0. -1.
</event>
<event>
 5   0  0.1513502E-06  0.3654513E+04  0.7818609E-02  0.8078118E-01
       -2   -1    0    0    0  501  0.00000000000E+00  0.00000000000E+00  0.13629959048E+04  0.13629959048E+04  0.25500000920E-02 0. -1.
        2   -1    0    0  501    0  0.00000000000E+00  0.00000000000E+00 -0.24496527356E+04  0.24496527356E+04  0.25500000920E-02 0.  1.
    10030    2    1    2    0    0  0.00000000000E+00  0.00000000000E+00 -0.10866568308E+04  0.38126486403E+04  0.36545131805E+04 0.  0.
        3    1    3    3  502    0 -0.47190421968E+03 -0.17650703290E+04 -0.57092639453E+03  0.19141901204E+04  0.10100000352E+00 0. -1.
       -3    1    3    3    0  502  0.47190421968E+03  0.17650703290E+04 -0.51573043629E+03  0.18984585199E+04  0.10100000352E+00 0.  1.
</event>
<event>
 5   0  0.2422436E-06  0.3244646E+04  0.7818609E-02  0.8177125E-01
        2   -1    0    0  501    0  0.00000000000E+00  0.00000000000E+00  0.23949617053E+04  0.23949617053E+04  0.25500000920E-02 0. -1.
       -2   -1    0    0    0  501  0.00000000000E+00  0.00000000000E+00 -0.10989451807E+04  0.10989451807E+04  0.25500000920E-02 0.  1.
    10030    2    1    2    0    0  0.00000000000E+00  0.00000000000E+00  0.12960165246E+04  0.34939068860E+04  0.32446458198E+04 0.  0.
        2    1    3    3  502    0 -0.99215741658E+03  0.12482487965E+04  0.97003074629E+03  0.18664032378E+04  0.25500000920E-02 0. -1.
       -2    1    3    3    0  502  0.99215741658E+03 -0.12482487965E+04  0.32598577831E+03  0.16275036482E+04  0.25500000920E-02 0.  1.
</event>
<event>
 5   0  0.7754556E-07  0.2588083E+04  0.7818609E-02  0.8372260E-01
        1   -1    0    0  501    0  0.00000000000E+00  0.00000000000E+00  0.15370169960E+04  0.15370169960E+04  0.50400001928E-02 0.  1.
       -1   -1    0    0    0  501  0.00000000000E+00  0.00000000000E+00 -0.10894765382E+04  0.10894765382E+04  0.50400001928E-02 0. -1.
    10030    2    1    2    0    0  0.00000000000E+00  0.00000000000E+00  0.44754045778E+03  0.26264935342E+04  0.25880834267E+04 0.  0.
        4    1    3    3  502    0  0.15017065218E+03 -0.77682368441E+03 -0.81540731719E+03  0.11361764684E+04  0.12699999809E+01 0. -1.
       -4    1    3    3    0  502 -0.15017065218E+03  0.77682368441E+03  0.12629477750E+04  0.14903170658E+04  0.12699999809E+01 0.  1.
</event>
<event>
 5   0  0.1566576E-06  0.3613762E+04  0.7818609E-02  0.8087347E-01
       -2   -1    0    0    0  501  0.00000000000E+00  0.00000000000E+00  0.10748634864E+04  0.10748634864E+04  0.25500000920E-02 0. -1.
        2   -1    0    0  501    0  0.00000000000E+00  0.00000000000E+00 -0.30374263121E+04  0.30374263121E+04  0.25500000920E-02 0.  1.
    10030    2    1    2    0    0  0.00000000000E+00  0.00000000000E+00 -0.19625628257E+04  0.41122897984E+04  0.36137618269E+04 0.  0.
        4    1    3    3  502    0 -0.31205904222E+02  0.17903881204E+04 -0.70639201777E+03  0.19249557724E+04  0.12699999809E+01 0. -1.
       -4    1    3    3    0  502  0.31205904222E+02 -0.17903881204E+04 -0.12561708079E+04  0.21873340260E+04  0.12699999809E+01 0.  1.
</event>
<event>
 5   0  0.2382711E-06  0.1928036E+04  0.7818609E-02  0.8641026E-01
        2   -1    0    0  501    0  0.00000000000E+00  0.00000000000E+00  0.12560890225E+04  0.12560890225E+04  0.25500000920E-02 0.  1.
       -2   -1    0    0    0  501  0.00000000000E+00  0.00000000000E+00 -0.73986062538E+03  0.73986062538E+03  0.25500000920E-02 0. -1.
    10030    2    1    2    0    0  0.00000000000E+00  0.00000000000E+00  0.51622839714E+03  0.19959496479E+04  0.19280361094E+04 0.  0.
        5    1    3    3  502    0  0.74371936585E+02 -0.45824034372E+03 -0.61650832661E+03  0.77176421551E+03  0.46999998093E+01 0. -1.
       -5    1    3    3    0  502 -0.74371936585E+02  0.45824034372E+03  0.11327367237E+04  0.12241854324E+04  0.46999998093E+01 0.  1.
</event>
<event>
 5   0  0.2392930E-06  0.1915971E+04  0.7818609E-02  0.8646947E-01
       -2   -1    0    0    0  501  0.00000000000E+00  0.00000000000E+00  0.80012422690E+03  0.80012422691E+03  0.25500000920E-02 0.  1.
        2   -1    0    0  501    0  0.00000000000E+00  0.00000000000E+00 -0.11469924155E+04  0.11469924155E+04  0.25500000920E-02 0. -1.
    10030    2    1    2    0    0  0.00000000000E+00  0.00000000000E+00 -0.34686818855E+03  0.19471166424E+04  0.19159712103E+04 0.  0.
        3    1    3    3  502    0  0.50224564176E+03  0.30058561469E+03 -0.94413792195E+03  0.11108549961E+04  0.10100000352E+00 0. -1.
       -3    1    3    3    0  502 -0.50224564176E+03 -0.30058561469E+03  0.59726973340E+03  0.83626164629E+03  0.10100000352E+00 0.  1.
</event>
<event>
 5   0  0.2382711E-06  0.3099117E+04  0.7818609E-02  0.8215980E-01
        2   -1    0    0  501    0  0.00000000000E+00  0.00000000000E+00  0.17513648653E+04  0.17513648653E+04  0.25500000920E-02 0. -1.
       -2   -1    0    0    0  501  0.00000000000E+00  0.00000000000E+00 -0.13710055008E+04  0.13710055008E+04  0.25500000920E-02 0.  1.
    10030    2    1    2    0    0  0.00000000000E+00  0.00000000000E+00  0.38035936453E+03  0.31223703661E+04  0.30991165608E+04 0.  0.
        5    1    3    3  502    0  0.11061626912E+04 -0.17422667722E+03  0.12692707891E+04  0.16926373683E+04  0.46999998093E+01 0. -1.
       -5    1    3    3    0  502 -0.11061626912E+04  0.17422667722E+03 -0.88891142458E+03  0.14297329979E+04  0.46999998093E+01 0.  1.
</event>
<event>
 5   0  0.8452742E-07  0.3602992E+04  0.7818609E-02  0.8089807E-01
        1   -1    0    0  501    0  0.00000000000E+00  0.00000000000E+00  0.16852932271E+04  0.16852932272E+04  0.50400001928E-02 0.  1.
       -1   -1    0    0    0  501  0.00000000000E+00  0.00000000000E+00 -0.19257113262E+04  0.19257113262E+04  0.50400001928E-02 0. -1.
    10030    2    1    2    0    0  0.00000000000E+00  0.00000000000E+00 -0.24041809906E+03  0.36110045534E+04  0.36029922318E+04 0.  0.
        1    1    3    3  502    0  0.46993190338E+03  0.46303151571E+03 -0.18002883321E+04  0.19173607530E+04  0.50400001928E-02 0.  1.
       -1    1    3    3    0  502 -0.46993190338E+03 -0.46303151571E+03  0.15598702331E+04  0.16936438003E+04  0.50400001928E-02 0. -1.
</event>
<event>
 5   0  0.1634374E-06  0.3609109E+04  0.7818609E-02  0.8088408E-01
       -1   -1    0    0    0  501  0.00000000000E+00  0.00000000000E+00  0.13360659362E+04  0.13360659362E+04  0.50400001928E-02 0.  1.
        1   -1    0    0  501    0  0.00000000000E+00  0.00000000000E+00 -0.24373180113E+04  0.24373180113E+04  0.50400001928E-02 0. -1.
    10030    2    1    2    0    0  0.00000000000E+00  0.00000000000E+00 -0.11012520751E+04  0.37733839475E+04  0.36091093475E+04 0.  0.
        5    1    3    3  502    0  0.36454980013E+03 -0.37282806604E+02  0.12967486214E+04  0.13475405900E+04  0.46999998093E+01 0.  1.
       -5    1    3    3    0  502 -0.36454980013E+03  0.37282806604E+02 -0.23980006966E+04  0.24258433575E+04  0.46999998093E+01 0. -1.
</event>
<event>
 5   0  0.1566576E-06  0.3578767E+04  0.7818609E-02  0.8095373E-01
        2   -1    0    0  501    0  0.00000000000E+00  0.00000000000E+00  0.23956597865E+04  0.23956597865E+04  0.25500000920E-02 0. -1.
       -2   -1    0    0    0  501  0.00000000000E+00  0.00000000000E+00 -0.13365394907E+04  0.13365394907E+04  0.25500000920E-02 0.  1.
    10030    2    1    2    0    0  0.00000000000E+00  0.00000000000E+00  0.10591202958E+04  0.37321992772E+04  0.35787673358E+04 0.  0.
        4    1    3    3  502    0  0.41795541737E+03  0.15699109522E+04  0.13117739941E+04  0.20880756100E+04  0.12699999809E+01 0. -1.
       -4    1    3    3    0  502 -0.41795541737E+03 -0.15699109522E+04 -0.25265369834E+03  0.16441236671E+04  0.12699999809E+01 0.  1.
</event>
<event>
 5   0  0.8452742E-07  0.3781079E+04  0.7818609E-02  0.8050227E-01
       -1   -1    0    0    0  501  0.00000000000E+00  0.00000000000E+00  0.20882998794E+04  0.20882998795E+04  0.50400001928E-02 0.  1.
        1   -1    0    0  501    0  0.00000000000E+00  0.00000000000E+00 -0.17115070924E+04  0.17115070924E+04  0.50400001928E-02 0. -1.
    10030    2    1    2    0    0  0.00000000000E+00  0.00000000000E+00  0.37679278707E+03  0.37998069718E+04  0.37810792400E+04 0.  0.
        1    1    3    3  502    0  0.18567352653E+04 -0.12455042102E+03  0.52345653218E+03  0.19331283956E+04  0.50400001928E-02 0.  1.
       -1    1    3    3    0  502 -0.18567352653E+04  0.12455042102E+03 -0.14666374511E+03  0.18666785762E+04  0.50400001928E-02 0. -1.
</event>
<event>
 5   0  0.2422436E-06  0.2551763E+04  0.7818609E-02  0.8384773E-01
        2   -1    0    0  501    0  0.00000000000E+00  0.00000000000E+00  0.24543340025E+04  0.24543340025E+04  0.25500000920E-02 0. -1.
       -2   -1    0    0    0  501  0.00000000000E+00  0.00000000000E+00 -0.66326501439E+03  0.66326501440E+03  0.25500000920E-02 0.  1.
    10030    2    1    2    0    0  0.00000000000E+00  0.00000000000E+00  0.17910689881E+04  0.31175990169E+04  0.25517632159E+04 0.  0.
        2    1    3    3  502    0  0.11254083395E+04  0.10439466360E+03  0.17229592785E+03  0.11432970144E+04  0.25500000920E-02 0.  1.
       -2    1    3    3    0  502 -0.11254083395E+04 -0.10439466360E+03  0.16187730602E+04  0.19743020025E+04  0.25500000920E-02 0. -1.
</event>
<event>
 5   0  0.8423692E-07  0.2152825E+04  0.7818609E-02  0.8538324E-01
       -1   -1    0    0    0  501  0.00000000000E+00  0.00000000000E+00  0.10256701494E+04  0.10256701494E+04  0.50400001928E-02 0.  1.
        1   -1    0    0  501    0  0.00000000000E+00  0.00000000000E+00 -0.11296656043E+04  0.11296656043E+04  0.50400001928E-02 0. -1.
    10030    2    1    2    0    0  0.00000000000E+00  0.00000000000E+00 -0.10399545490E+03  0.21553357537E+04  0.21528253892E+04 0.  0.
        2    1    3    3  502    0 -0.83684390040E+03 -0.27721399075E+03  0.56638664879E+03  0.10478306859E+04  0.25500000920E-02 0.  1.
       -2    1    3    3    0  502  0.83684390040E+03  0.27721399075E+03 -0.67038210369E+03  0.11075050678E+04  0.25500000920E-02 0. -1.
</event>
<event>
 5   0  0.1908273E-06  0.2106104E+04  0.7818609E-02  0.8558559E-01
       -1   -1    0    0    0  501  0.00000000000E+00  0.00000000000E+00  0.10046782266E+04  0.10046782266E+04  0.50400001928E-02 0.  1.
        1   -1    0    0  501    0  0.00000000000E+00  0.00000000000E+00 -0.11037553545E+04  0.11037553545E+04  0.50400001928E-02 0. -1.
    10030    2    1    2    0    0  0.00000000000E+00  0.00000000000E+00 -0.99077127902E+02  0.21084335810E+04  0.21061044343E+04 0.  0.
        3    1    3    3  502    0 -0.44301552169E+03 -0.40904065952E+03  0.81474808485E+03  0.10136032091E+04  0.10100000352E+00 0.  1.
       -3    1    3    3    0  502  0.44301552169E+03  0.40904065952E+03 -0.91382521275E+03  0.10948303719E+04  0.10100000352E+00 0. -1.
</event>
<event>
 5   0  0.1513502E-06  0.3011842E+04  0.7818609E-02  0.8240357E-01
        2   -1    0    0  501    0  0.00000000000E+00  0.00000000000E+00  0.25314422317E+04  0.25314422317E+04  0.25500000920E-02 0.  1.
       -2   -1    0    0    0  501  0.00000000000E+00  0.00000000000E+00 -0.89585231993E+03  0.89585231993E+03  0.25500000920E-02 0. -1.
    10030    2    1    2    0    0  0.00000000000E+00  0.00000000000E+00  0.16355899118E+04  0.34272945517E+04  0.30118422243E+04 0.  0.
        3    1    3    3  502    0 -0.58767424633E+03 -0.31096900713E+03  0.23553765093E+04  0.24474193049E+04  0.10100000352E+00 0.  1.
       -3    1    3    3    0  502  0.58767424633E+03  0.31096900713E+03 -0.71978659747E+03  0.97987524680E+03  0.10100000352E+00 0. -1.
</event>
<event>
 5   0  0.1634374E-06  0.3570200E+04  0.7818609E-02  0.8097352E-01
       -1   -1    0    0    0  501  0.00000000000E+00  0.00000000000E+00  0.15916633147E+04  0.15916633148E+04  0.50400001928E-02 0.  1.
        1   -1    0    0  501    0  0.00000000000E+00  0.00000000000E+00 -0.20020448017E+04  0.20020448017E+04  0.50400001928E-02 0. -1.
    10030    2    1    2    0    0  0.00000000000E+00  0.00000000000E+00 -0.41038148700E+03  0.35937081165E+04  0.35701995829E+04 0.  0.
        5    1    3    3  502    0  0.13172929400E+02 -0.24885405004E+03  0.15740618325E+04  0.15936733062E+04  0.46999998093E+01 0.  1.
       -5    1    3    3    0  502 -0.13172929400E+02  0.24885405004E+03 -0.19844433195E+04  0.20000348103E+04  0.46999998093E+01 0. -1.
</event>
<event>
 5   0  0.2382711E-06  0.3592495E+04  0.7818609E-02  0.8092213E-01
        2   -1    0    0  501    0  0.00000000000E+00  0.00000000000E+00  0.20895484634E+04  0.20895484634E+04  0.25500000920E-02 0. -1.
       -2   -1    0    0    0  501  0.00000000000E+00  0.00000000000E+00 -0.15441156096E+04  0.15441156096E+04  0.25500000920E-02 0.  1.
    10030    2    1    2    0    0  0.00000000000E+00  0.00000000000E+00  0.54543285375E+03  0.36336640730E+04  0.35924946203E+04 0.  0.
        5    1    3    3  502    0  0.91050843417E+03  0.10271367149E+04 -0.89920151077E+03  0.16409207436E+04  0.46999998093E+01 0.  1.
       -5    1    3    3    0  502 -0.91050843417E+03 -0.10271367149E+04  0.14446343645E+04  0.19927433294E+04  0.46999998093E+01 0. -1.
</event>
<event>
 5   0  0.1566576E-06  0.2738527E+04  0.7818609E-02  0.8322612E-01
        2   -1    0    0  501    0  0.00000000000E+00  0.00000000000E+00  0.19261566004E+04  0.19261566004E+04  0.25500000920E-02 0. -1.
       -2   -1    0    0    0  501  0.00000000000E+00  0.00000000000E+00 -0.97337979410E+03  0.97337979410E+03  0.25500000920E-02 0.  1.
    10030    2    1    2    0    0  0.00000000000E+00  0.00000000000E+00  0.95277680626E+03  0.28995363945E+04  0.27385265491E+04 0.  0.
        4    1    3    3  502    0 -0.20755116500E+03  0.92111902412E+03 -0.57355049723E+03  0.11047622045E+04  0.12699999809E+01 0.  1.
       -4    1    3    3    0  502  0.20755116500E+03 -0.92111902412E+03  0.15263273035E+04  0.17947741900E+04  0.12699999809E+01 0. -1.
</event>
<event>
 5   0  0.8423692E-07  0.3128765E+04  0.7818609E-02  0.8207888E-01
        1   -1    0    0  501    0  0.00000000000E+00  0.00000000000E+00  0.27876345621E+04  0.27876345621E+04  0.50400001928E-02 0. -1.
       -1   -1    0    0    0  501  0.00000000000E+00  0.00000000000E+00 -0.87790994417E+03  0.87790994419E+03  0.50400001928E-02 0.  1.
    10030    2    1    2    0    0  0.00000000000E+00  0.00000000000E+00  0.19097246179E+04  0.36655445063E+04  0.31287646781E+04 0.  0.
        2    1    3    3  502    0  0.37320897412E+03  0.11345404225E+04  0.21385613259E+04  0.24494716682E+04  0.25500000920E-02 0. -1.
       -2    1    3    3    0  502 -0.37320897412E+03 -0.11345404225E+04 -0.22883670798E+03  0.12160728381E+04  0.25500000920E-02 0.  1.
</event>
<event>
 5   0  0.1566576E-06  0.2487291E+04  0.7818609E-02  0.8407527E-01
       -2   -1    0    0    0  501  0.00000000000E+00  0.00000000000E+00  0.63237845859E+03  0.63237845859E+03  0.25500000920E-02 0. -1.
        2   -1    0    0  501    0  0.00000000000E+00  0.00000000000E+00 -0.24457720878E+04  0.24457720878E+04  0.25500000920E-02 0.  1.
    10030    2    1    2    0    0  0.00000000000E+00  0.00000000000E+00 -0.18133936292E+04  0.30781505464E+04  0.24872905604E+04 0.  0.
        4    1    3    3  502    0 -0.10491172434E+04 -0.66718188066E+03 -0.87012474877E+03  0.15175300141E+04  0.12699999809E+01 0.  1.
       -4    1    3    3    0  502  0.10491172434E+04  0.66718188066E+03 -0.94326888041E+03  0.15606205323E+04  0.12699999809E+01 0. -1.
</event>
<event>
 5   0  0.1566576E-06  0.1885520E+04  0.7818609E-02  0.8662098E-01
       -2   -1    0    0    0  501  0.00000000000E+00  0.00000000000E+00  0.12959916471E+04  0.12959916471E+04  0.25500000920E-02 0.  1.
        2   -1    0    0  501    0  0.00000000000E+00  0.00000000000E+00 -0.68580425500E+03  0.68580425500E+03  0.25500000920E-02 0. -1.
    10030    2    1    2    0    0  0.00000000000E+00  0.00000000000E+00  0.61018739214E+03  0.19817959021E+04  0.18855201787E+04 0.  0.
        4    1    3    3  502    0  0.42670029684E+03 -0.60092925081E+03 -0.31280644405E+03  0.80064885696E+03  0.12699999809E+01 0. -1.
       -4    1    3    3    0  502 -0.42670029684E+03  0.60092925081E+03  0.92299383619E+03  0.11811470452E+04  0.12699999809E+01 0.  1.
</event>
<event>
 5   0  0.8423692E-07  0.3562922E+04  0.7818609E-02  0.8099038E-01
        1   -1    0    0  501    0  0.00000000000E+00  0.00000000000E+00  0.20371738769E+04  0.20371738769E+04  0.50400001928E-02 0. -1.
       -1   -1    0    0    0  501  0.00000000000E+00  0.00000000000E+00 -0.15578458987E+04  0.15578458987E+04  0.50400001928E-02 0.  1.
    10030    2    1    2    0    0  0.00000000000E+00  0.00000000000E+00  0.47932797822E+03  0.35950197757E+04  0.35629218174E+04 0.  0.
        2    1    3    3  502    0  0.63031849494E+03  0.16582004649E+04  0.40445334270E+03  0.18194814353E+04  0.25500000920E-02 0.  1.
       -2    1    3    3    0  502 -0.63031849494E+03 -0.16582004649E+04  0.74874635518E+02  0.17755383404E+04  0.25500000920E-02 0. -1.
</event>
<event>
 5   0  0.8452742E-07  0.2399647E+04  0.7818609E-02  0.8439636E-01
       -1   -1    0    0    0  501  0.00000000000E+00  0.00000000000E+00  0.57340201310E+03  0.57340201312E+03  0.50400001928E-02 0.  1.
        1   -1    0    0  501    0  0.00000000000E+00  0.00000000000E+00 -0.25105892690E+04  0.25105892690E+04  0.50400001928E-02 0. -1.
    10030    2    1    2    0    0  0.00000000000E+00  0.00000000000E+00 -0.19371872559E+04  0.30839912821E+04  0.23996474249E+04 0.  0.
        1    1    3    3  502    0 -0.17526003172E+03  0.16761011235E+03  0.54157699163E+03  0.59339267469E+03  0.50400001928E-02 0.  1.
       -1    1    3    3    0  502  0.17526003172E+03 -0.16761011235E+03 -0.24787642475E+04  0.24905986074E+04  0.50400001928E-02 0. -1.
</event>
<event>
 5   0  0.1566576E-06  0.3633985E+04  0.7818609E-02  0.8082751E-01
        2   -1    0    0  501    0  0.00000000000E+00  0.00000000000E+00  0.21848097304E+04  0.21848097304E+04  0.25500000920E-02 0. -1.
       -2   -1    0    0    0  501  0.00000000000E+00  0.00000000000E+00 -0.15110980695E+04  0.15110980695E+04  0.25500000920E-02 0.  1.
    10030    2    1    2    0    0  0.00000000000E+00  0.00000000000E+00  0.67371166096E+03  0.36959077999E+04  0.36339850115E+04 0.  0.
        4    1    3    3  502    0 -0.34309225001E+03  0.39595754551E+03  0.21063198300E+04  0.21705021330E+04  0.12699999809E+01 0. -1.
       -4    1    3    3    0  502  0.34309225001E+03 -0.39595754551E+03 -0.14326081691E+04  0.15254056670E+04  0.12699999809E+01 0.  1.
</event>
<event>
 5   0  0.8423692E-07  0.3195924E+04  0.7818609E-02  0.8189894E-01
       -1   -1    0    0    0  501  0.00000000000E+00  0.00000000000E+00  0.14588979413E+04  0.14588979413E+04  0.50400001928E-02 0. -1.
        1   -1    0    0  501    0  0.00000000000E+00  0.00000000000E+00 -0.17502818852E+04  0.17502818852E+04  0.50400001928E-02 0.  1.
    10030    2    1    2    0    0  0.00000000000E+00  0.00000000000E+00 -0.29138394391E+03  0.32091798265E+04  0.31959240536E+04 0.  0.
        2    1    3    3  502    0  0.12762675550E+04 -0.96125804770E+03 -0.17042608412E+03  0.16068356968E+04  0.25500000920E-02 0. -1.
       -2    1    3    3    0  502 -0.12762675550E+04  0.96125804770E+03 -0.12095785978E+03  0.16023441297E+04  0.25500000920E-02 0.  1.
</event>
<event>
 5   0  0.7754556E-07  0.2099386E+04  0.7818609E-02  0.8561514E-01
        1   -1    0    0  501    0  0.00000000000E+00  0.00000000000E+00  0.27030027635E+04  0.27030027635E+04  0.50400001928E-02 0. -1.
       -1   -1    0    0    0  501  0.00000000000E+00  0.00000000000E+00 -0.40764128737E+03  0.40764128740E+03  0.50400001928E-02 0.  1.
    10030    2    1    2    0    0  0.00000000000E+00  0.00000000000E+00  0.22953614761E+04  0.31106440509E+04  0.20993861258E+04 0.  0.
        4    1    3    3  502    0 -0.10803599989E+03 -0.10235541871E+04  0.14532075464E+04  0.17807719498E+04  0.12699999809E+01 0.  1.
       -4    1    3    3    0  502  0.10803599989E+03  0.10235541871E+04  0.84215392967E+03  0.13298721011E+04  0.12699999809E+01 0. -1.
</event>
<event>
 5   0  0.1634374E-06  0.2992864E+04  0.7818609E-02  0.8245772E-01
       -1   -1    0    0    0  501  0.00000000000E+00  0.00000000000E+00  0.11068087166E+04  0.11068087166E+04  0.50400001928E-02 0. -1.
        1   -1    0    0  501    0  0.00000000000E+00  0.00000000000E+00 -0.20232117588E+04  0.20232117588E+04  0.50400001928E-02 0.  1.
    10030    2    1    2    0    0  0.00000000000E+00  0.00000000000E+00 -0.91640304225E+03  0.31300204754E+04  0.29928637859E+04 0.  0.
        5    1    3    3  502    0 -0.12221960199E+04  0.78979888933E+03 -0.82310543670E+03  0.16718462987E+04  0.46999998093E+01 0.  1.
       -5    1    3    3    0  502  0.12221960199E+04 -0.78979888933E+03 -0.93297605552E+02  0.14581741767E+04  0.46999998093E+01 0. -1.
</event>
<event>
 5   0  0.1566576E-06  0.3663724E+04  0.7818609E-02  0.8076049E-01
       -2   -1    0    0    0  501  0.00000000000E+00  0.00000000000E+00  0.16706262406E+04  0.16706262406E+04  0.25500000920E-02 0. -1.
        2   -1    0    0  501    0  0.00000000000E+00  0.00000000000E+00 -0.20086589104E+04  0.20086589104E+04  0.25500000920E-02 0.  1.
    10030    2    1    2    0    0  0.00000000000E+00  0.00000000000E+00 -0.33803266982E+03  0.36792851510E+04  0.36637239438E+04 0.  0.
        4    1    3    3  502    0 -0.13559929171E+03 -0.20828401539E+03  0.16536158140E+04  0.16721890659E+04  0.12699999809E+01 0. -1.
       -4    1    3    3    0  502  0.13559929171E+03  0.20828401539E+03 -0.19916484838E+04  0.20070960851E+04  0.12699999809E+01 0.  1.
</event>
<event>
 5   0  0.2422436E-06  0.3709314E+04  0.7818609E-02  0.8065901E-01
        2   -1    0    0  501    0  0.00000000000E+00  0.00000000000E+00  0.13862588517E+04  0.13862588517E+04  0.25500000920E-02 0.  1.
       -2   -1    0    0    0  501  0.00000000000E+00  0.00000000000E+00 -0.24813209280E+04  0.24813209280E+04  0.25500000920E-02 0. -1.
    10030    2    1    2    0    0  0.00000000000E+00  0.00000000000E+00 -0.10950620763E+04  0.38675797797E+04  0.37093142765E+04 0.  0.
        2    1    3    3  502    0  0.85120537232E+03 -0.34572686496E+03  0.11323202808E+04  0.14581587257E+04  0.25500000920E-02 0.  1.
       -2    1    3    3    0  502 -0.85120537232E+03  0.34572686496E+03 -0.22273823571E+04  0.24094210540E+04  0.25500000920E-02 0. -1.
</event>
<event>
 5   0  0.1634374E-06  0.3560739E+04  0.7818609E-02  0.8099544E-01
       -1   -1    0    0    0  501  0.00000000000E+00  0.00000000000E+00  0.31852181485E+04  0.31852181485E+04  0.50400001928E-02 0.  1.
        1   -1    0    0  501    0  0.00000000000E+00  0.00000000000E+00 -0.99513309219E+03  0.99513309220E+03  0.50400001928E-02 0. -1.
    10030    2    1    2    0    0  0.00000000000E+00  0.00000000000E+00  0.21900850563E+04  0.41803512407E+04  0.35607392409E+04 0.  0.
        5    1    3    3  502    0  0.11344519154E+03  0.16627104224E+04  0.35979014979E+03  0.17049770679E+04  0.46999998093E+01 0. -1.
       -5    1    3    3    0  502 -0.11344519154E+03 -0.16627104224E+04  0.18302949065E+04  0.24753741728E+04  0.46999998093E+01 0.  1.
</event>
<event>
 5   0  0.7754556E-07  0.2204430E+04  0.7818609E-02  0.8516586E-01
       -1   -1    0    0    0  501  0.00000000000E+00  0.00000000000E+00  0.10567337775E+04  0.10567337775E+04  0.50400001928E-02 0.  1.
        1   -1    0    0  501    0  0.00000000000E+00  0.00000000000E+00 -0.11496539682E+04  0.11496539682E+04  0.50400001928E-02 0. -1.
    10030    2    1    2    0    0  0.00000000000E+00  0.00000000000E+00 -0.92920190756E+02  0.22063877457E+04  0.22044302490E+04 0.  0.
        4    1    3    3  502    0  0.10614374255E+04 -0.13187787546E+03  0.21992541947E+03  0.10919752677E+04  0.12699999809E+01 0.  1.
       -4    1    3    3    0  502 -0.10614374255E+04  0.13187787546E+03 -0.31284561023E+03  0.11144124780E+04  0.12699999809E+01 0. -1.
</event>
<event>
 5   0  0.1513502E-06  0.3914805E+04  0.7818609E-02  0.8021957E-01
       -2   -1    0    0    0  501  0.00000000000E+00  0.00000000000E+00  0.14453475274E+04  0.14453475274E+04  0.25500000920E-02 0.  1.
        2   -1    0    0  501    0  0.00000000000E+00  0.00000000000E+00 -0.26508676121E+04  0.26508676121E+04  0.25500000920E-02 0. -1.
    10030    2    1    2    0    0  0.00000000000E+00  0.00000000000E+00 -0.12055200847E+04  0.40962151395E+04  0.39148052052E+04 0.  0.
        3    1    3    3  502    0  0.18225270324E+04 -0.49058245674E+03 -0.11455964813E+04  0.22078648597E+04  0.10100000352E+00 0. -1.
       -3    1    3    3    0  502 -0.18225270324E+04  0.49058245674E+03 -0.59923603350E+02  0.18883502798E+04  0.10100000352E+00 0.  1.
</event>
<event>
 5   0  0.1566576E-06  0.3509441E+04  0.7818609E-02  0.8111556E-01
       -2   -1    0    0    0  501  0.00000000000E+00  0.00000000000E+00  0.11479757852E+04  0.11479757852E+04  0.25500000920E-02 0.  1.
        2   -1    0    0  501    0  0.00000000000E+00  0.00000000000E+00 -0.26821508735E+04  0.26821508735E+04  0.25500000920E-02 0. -1.
    10030    2    1    2    0    0  0.00000000000E+00  0.00000000000E+00 -0.15341750883E+04  0.38301266587E+04  0.35094411264E+04 0.  0.
        4    1    3    3  502    0 -0.10157980921E+04  0.21445146167E+03  0.77681978933E+03  0.12966440496E+04  0.12699999809E+01 0.  1.
       -4    1    3    3    0  502  0.10157980921E+04 -0.21445146167E+03 -0.23109948776E+04  0.25334826091E+04  0.12699999809E+01 0. -1.
</event>
<event>
 5   0  0.1566576E-06  0.2217920E+04  0.7818609E-02  0.8511006E-01
        2   -1    0    0  501    0  0.00000000000E+00  0.00000000000E+00  0.86987100190E+03  0.86987100190E+03  0.25500000920E-02 0.  1.
       -2   -1    0    0    0  501  0.00000000000E+00  0.00000000000E+00 -0.14137637151E+04  0.14137637151E+04  0.25500000920E-02 0. -1.
    10030    2    1    2    0    0  0.00000000000E+00  0.00000000000E+00 -0.54389271320E+03  0.22836347170E+04  0.22179197995E+04 0.  0.
        4    1    3    3  502    0 -0.15340924040E+03  0.79438156706E+03 -0.10528465207E+04  0.13278041566E+04  0.12699999809E+01 0. -1.
       -4    1    3    3    0  502  0.15340924040E+03 -0.79438156706E+03  0.50895380753E+03  0.95583056042E+03  0.12699999809E+01 0.  1.
</event>
<event>
 5   0  0.8452742E-07  0.2140492E+04  0.7818609E-02  0.8543613E-01
       -1   -1    0    0    0  501  0.00000000000E+00  0.00000000000E+00  0.68609109421E+03  0.68609109423E+03  0.50400001928E-02 0. -1.
        1   -1    0    0  501    0  0.00000000000E+00  0.00000000000E+00 -0.16694967832E+04  0.16694967833E+04  0.50400001928E-02 0.  1.
    10030    2    1    2    0    0  0.00000000000E+00  0.00000000000E+00 -0.98340568904E+03  0.23555878775E+04  0.21404923497E+04 0.  0.
        1    1    3    3  502    0  0.29299343417E+03  0.20392645236E+03 -0.16020495483E+04  0.16413390587E+04  0.50400001928E-02 0.  1.
       -1    1    3    3    0  502 -0.29299343417E+03 -0.20392645236E+03  0.61864385928E+03  0.71424881875E+03  0.50400001928E-02 0. -1.
</event>
<event>
 5   0  0.8452742E-07  0.2475205E+04  0.7818609E-02  0.8411872E-01
       -1   -1    0    0    0  501  0.00000000000E+00  0.00000000000E+00  0.68579218303E+03  0.68579218305E+03  0.50400001928E-02 0.  1.
        1   -1    0    0  501    0  0.00000000000E+00  0.00000000000E+00 -0.22334171066E+04  0.22334171066E+04  0.50400001928E-02 0. -1.
    10030    2    1    2    0    0  0.00000000000E+00  0.00000000000E+00 -0.15476249235E+04  0.29192092896E+04  0.24752050365E+04 0.  0.
        1    1    3    3  502    0 -0.54343599802E+03  0.72174484174E+03  0.22373852960E+03  0.93075089588E+03  0.50400001928E-02 0.  1.
       -1    1    3    3    0  502  0.54343599802E+03 -0.72174484174E+03 -0.17713634531E+04  0.19884583937E+04  0.50400001928E-02 0. -1.
</event>
<event>
 5   0  0.7754556E-07  0.3480981E+04  0.7818609E-02  0.8118312E-01
       -1   -1    0    0    0  501  0.00000000000E+00  0.00000000000E+00  0.22835620683E+04  0.22835620683E+04  0.50400001928E-02 0. -1.
        1   -1    0    0  501    0  0.00000000000E+00  0.00000000000E+00 -0.13265712968E+04  0.13265712968E+04  0.50400001928E-02 0.  1.
    10030    2    1    2    0    0  0.00000000000E+00  0.00000000000E+00  0.95699077149E+03  0.36101333651E+04  0.34809814100E+04 0.  0.
        4    1    3    3  502    0  0.89665816865E+03 -0.14132947999E+04  0.97360519974E+03  0.19363126712E+04  0.12699999809E+01 0. -1.
       -4    1    3    3    0  502 -0.89665816865E+03  0.14132947999E+04 -0.16614428254E+02  0.16738206938E+04  0.12699999809E+01 0.  1.
</event>
<event>
 5   0  0.2382711E-06  0.2753280E+04  0.7818609E-02  0.8317922E-01
       -2   -1    0    0    0  501  0.00000000000E+00  0.00000000000E+00  0.71529653011E+03  0.71529653011E+03  0.25500000920E-02 0. -1.
        2   -1    0    0  501    0  0.00000000000E+00  0.00000000000E+00 -0.26494425853E+04  0.26494425853E+04  0.25500000920E-02 0.  1.
    10030    2    1    2    0    0  0.00000000000E+00  0.00000000000E+00 -0.19341460551E+04  0.33647391154E+04  0.27532795630E+04 0.  0.
        5    1    3    3  502    0  0.51327376815E+02 -0.74560637707E+03  0.44577013940E+03  0.87022783012E+03  0.46999998093E+01 0. -1.
       -5    1    3    3    0  502 -0.51327376815E+02  0.74560637707E+03 -0.23799161945E+04  0.24945112852E+04  0.46999998093E+01 0.  1.
</event>
<event>
 5   0  0.2536619E-06  0.3723205E+04  0.7818609E-02  0.8062839E-01
       -2   -1    0    0    0  501  0.00000000000E+00  0.00000000000E+00  0.14709409945E+04  0.14709409945E+04  0.25500000920E-02 0. -1.
        2   -1    0    0  501    0  0.00000000000E+00  0.00000000000E+00 -0.23560179141E+04  0.23560179141E+04  0.25500000920E-02 0.  1.
    10030    2    1    2    0    0  0.00000000000E+00  0.00000000000E+00 -0.88507691954E+03  0.38269589086E+04  0.37232047130E+04 0.  0.
        1    1    3    3  502    0 -0.97988619477E+02  0.11801980188E+04 -0.19189125419E+04  0.22549267120E+04  0.50400001928E-02 0.  1.
       -1    1    3    3    0  502  0.97988619477E+02 -0.11801980188E+04  0.10338356223E+04  0.15720321966E+04  0.50400001928E-02 0. -1.
</event>
<event>
 5   0  0.2536619E-06  0.1849229E+04  0.7818609E-02  0.8680550E-01
       -2   -1    0    0    0  501  0.00000000000E+00  0.00000000000E+00  0.66627379830E+03  0.66627379831E+03  0.25500000920E-02 0.  1.
        2   -1    0    0  501    0  0.00000000000E+00  0.00000000000E+00 -0.12831238387E+04  0.12831238387E+04  0.25500000920E-02 0. -1.
    10030    2    1    2    0    0  0.00000000000E+00  0.00000000000E+00 -0.61685004037E+03  0.19493976370E+04  0.18492288054E+04 0.  0.
        1    1    3    3  502    0  0.12085560055E+03  0.68147711727E+02 -0.12720876337E+04  0.12796316402E+04  0.50400001928E-02 0. -1.
       -1    1    3    3    0  502 -0.12085560055E+03 -0.68147711727E+02  0.65523759329E+03  0.66976599681E+03  0.50400001928E-02 0.  1.
</event>
<event>
 5   0  0.8452742E-07  0.3320767E+04  0.7818609E-02  0.8157631E-01
       -1   -1    0    0    0  501  0.00000000000E+00  0.00000000000E+00  0.20443506808E+04  0.20443506808E+04  0.50400001928E-02 0.  1.
        1   -1    0    0  501    0  0.00000000000E+00  0.00000000000E+00 -0.13485328221E+04  0.13485328221E+04  0.50400001928E-02 0. -1.
    10030    2    1    2    0    0  0.00000000000E+00  0.00000000000E+00  0.69581785863E+03  0.33928835029E+04  0.33207673770E+04 0.  0.
        1    1    3    3  502    0 -0.22022317335E+03 -0.13464022988E+04 -0.61899174291E+03  0.14981482484E+04  0.50400001928E-02 0. -1.
       -1    1    3    3    0  502  0.22022317335E+03  0.13464022988E+04  0.13148096015E+04  0.18947352545E+04  0.50400001928E-02 0.  1.
</event>
<event>
 5   0  0.2422436E-06  0.2969734E+04  0.7818609E-02  0.8252427E-01
       -2   -1    0    0    0  501  0.00000000000E+00  0.00000000000E+00  0.12621013407E+04  0.12621013407E+04  0.25500000920E-02 0. -1.
        2   -1    0    0  501    0  0.00000000000E+00  0.00000000000E+00 -0.17469521194E+04  0.17469521194E+04  0.25500000920E-02 0.  1.
    10030    2    1    2    0    0  0.00000000000E+00  0.00000000000E+00 -0.48485077875E+03  0.30090534601E+04  0.29697344070E+04 0.  0.
        2    1    3    3  502    0 -0.37999142843E+03 -0.14822735956E+03  0.12042263889E+04  0.12714267700E+04  0.25500000920E-02 0. -1.
       -2    1    3    3    0  502  0.37999142843E+03  0.14822735956E+03 -0.16890771677E+04  0.17376266901E+04  0.25500000920E-02 0.  1.
</event>
<event>
 5   0  0.1566576E-06  0.3524719E+04  0.7818609E-02  0.8107957E-01
       -2   -1    0    0    0  501  0.00000000000E+00  0.00000000000E+00  0.19742455209E+04  0.19742455209E+04  0.25500000920E-02 0.  1.
        2   -1    0    0  501    0  0.00000000000E+00  0.00000000000E+00 -0.15732138330E+04  0.15732138330E+04  0.25500000920E-02 0. -1.
    10030    2    1    2    0    0  0.00000000000E+00  0.00000000000E+00  0.40103168787E+03  0.35474593539E+04  0.35247186346E+04 0.  0.
        4    1    3    3  502    0 -0.11439995987E+04  0.10803348698E+04  0.99939403143E+03  0.18640409211E+04  0.12699999809E+01 0.  1.
       -4    1    3    3    0  502  0.11439995987E+04 -0.10803348698E+04 -0.59836234356E+03  0.16834184328E+04  0.12699999809E+01 0. -1.
</event>
<event>
 5   0  0.1566576E-06  0.2011984E+04  0.7818609E-02  0.8601038E-01
       -2   -1    0    0    0  501  0.00000000000E+00  0.00000000000E+00  0.80186537283E+03  0.80186537284E+03  0.25500000920E-02 0. -1.
        2   -1    0    0  501    0  0.00000000000E+00  0.00000000000E+00 -0.12620826720E+04  0.12620826720E+04  0.25500000920E-02 0.  1.
    10030    2    1    2    0    0  0.00000000000E+00  0.00000000000E+00 -0.46021729912E+03  0.20639480448E+04  0.20119844853E+04 0.  0.
        4    1    3    3  502    0  0.68792137965E+03 -0.39432318135E+03 -0.86520426515E+03  0.11735870778E+04  0.12699999809E+01 0.  1.
       -4    1    3    3    0  502 -0.68792137965E+03  0.39432318135E+03  0.40498696603E+03  0.89036096696E+03  0.12699999809E+01 0. -1.
</event>
<event>
 5   0  0.1634374E-06  0.3622208E+04  0.7818609E-02  0.8085423E-01
       -1   -1    0    0    0  501  0.00000000000E+00  0.00000000000E+00  0.19959405568E+04  0.19959405568E+04  0.50400001928E-02 0. -1.
        1   -1    0    0  501    0  0.00000000000E+00  0.00000000000E+00 -0.16433848575E+04  0.16433848576E+04  0.50400001928E-02 0.  1.
    10030    2    1    2    0    0  0.00000000000E+00  0.00000000000E+00  0.35255569925E+03  0.36393254144E+04  0.36222084355E+04 0.  0.
        5    1    3    3  502    0  0.16140722290E+04 -0.71886053682E+03  0.57575800473E+03  0.18583619136E+04  0.46999998093E+01 0. -1.
       -5    1    3    3    0  502 -0.16140722290E+04  0.71886053682E+03 -0.22320230547E+03  0.17809635008E+04  0.46999998093E+01 0.  1.
</event>
<event>
 5   0  0.2536619E-06  0.3567281E+04  0.7818609E-02  0.8098028E-01
       -2   -1    0    0    0  501  0.00000000000E+00  0.00000000000E+00  0.11202155872E+04  0.11202155872E+04  0.25500000920E-02 0.  1.
        2   -1    0    0  501    0  0.00000000000E+00  0.00000000000E+00 -0.28399652910E+04  0.28399652910E+04  0.25500000920E-02 0. -1.
    10030    2    1    2    0    0  0.00000000000E+00  0.00000000000E+00 -0.17197497038E+04  0.39601808782E+04  0.35672809736E+04 0.  0.
        1    1    3    3  502    0 -0.16982020986E+04 -0.26457164017E+03 -0.13893602153E+04  0.22100249610E+04  0.50400001928E-02 0.  1.
       -1    1    3    3    0  502  0.16982020986E+04  0.26457164017E+03 -0.33038948851E+03  0.17501559172E+04  0.50400001928E-02 0. -1.
</event>
<event>
 5   0  0.1513502E-06  0.3783115E+04  0.7818609E-02  0.8049788E-01
       -2   -1    0    0    0  501  0.00000000000E+00  0.00000000000E+00  0.24460790769E+04  0.24460790769E+04  0.25500000920E-02 0. -1.
        2   -1    0    0  501    0  0.00000000000E+00  0.00000000000E+00 -0.14627447104E+04  0.14627447104E+04  0.25500000920E-02 0.  1.
    10030    2    1    2    0    0  0.00000000000E+00  0.00000000000E+00  0.98333436652E+03  0.39088237874E+04  0.37831147120E+04 0.  0.
        3    1    3    3  502    0 -0.14041309970E+04 -0.12099299950E+04  0.88166804501E+03  0.20525235690E+04  0.10100000352E+00 0. -1.
       -3    1    3    3    0  502  0.14041309970E+04  0.12099299950E+04  0.10166632151E+03  0.18563002184E+04  0.10100000352E+00 0.  1.
</event>
<event>
 5   0  0.8423692E-07  0.3613082E+04  0.7818609E-02  0.8087502E-01
       -1   -1    0    0    0  501  0.00000000000E+00  0.00000000000E+00  0.23887585559E+04  0.23887585559E+04  0.50400001928E-02 0.  1.
        1   -1    0    0  501    0  0.00000000000E+00  0.00000000000E+00 -0.13662288914E+04  0.13662288914E+04  0.50400001928E-02 0. -1.
    10030    2    1    2    0    0  0.00000000000E+00  0.00000000000E+00  0.10225296645E+04  0.37549874472E+04  0.36130823149E+04 0.  0.
        2    1    3    3  502    0 -0.28036545876E+03 -0.17292733782E+04  0.96972516859E+03  0.20023381606E+04  0.25500000920E-02 0.  1.
       -2    1    3    3    0  502  0.28036545876E+03  0.17292733782E+04  0.52804495904E+02  0.17526492866E+04  0.25500000920E-02 0. -1.
</event>
<event>
 5   0  0.1513502E-06  0.3554178E+04  0.7818609E-02  0.8101069E-01
        2   -1    0    0  501    0  0.00000000000E+00  0.00000000000E+00  0.22620263676E+04  0.22620263676E+04  0.25500000920E-02 0. -1.
       -2   -1    0    0    0  501  0.00000000000E+00  0.00000000000E+00 -0.13961136832E+04  0.13961136832E+04  0.25500000920E-02 0.  1.
    10030    2    1    2    0    0  0.00000000000E+00  0.00000000000E+00  0.86591268443E+03  0.36581400508E+04  0.35541783656E+04 0.  0.
        3    1    3    3  502    0 -0.13845330067E+04  0.63027252317E+03 -0.51253836660E+03  0.16052634324E+04  0.10100000352E+00 0.  1.
       -3    1    3    3    0  502  0.13845330067E+04 -0.63027252317E+03  0.13784510510E+04  0.20528766184E+04  0.10100000352E+00 0. -1.
</event>
<event>
 5   0  0.2422436E-06  0.3729185E+04  0.7818609E-02  0.8061525E-01
       -2   -1    0    0    0  501  0.00000000000E+00  0.00000000000E+00  0.14543439530E+04  0.14543439530E+04  0.25500000920E-02 0.  1.
        2   -1    0    0  501    0  0.00000000000E+00  0.00000000000E+00 -0.23905666272E+04  0.23905666272E+04  0.25500000920E-02 0. -1.
    10030    2    1    2    0    0  0.00000000000E+00  0.00000000000E+00 -0.93622267415E+03  0.38449105802E+04  0.37291854974E+04 0.  0.
        2    1    3    3  502    0 -0.75488788994E+03 -0.13695738360E+04  0.57883981820E+03  0.16675262378E+04  0.25500000920E-02 0.  1.
       -2    1    3    3    0  502  0.75488788994E+03  0.13695738360E+04 -0.15150624924E+04  0.21773843424E+04  0.25500000920E-02 0. -1.
</event>
<event>
 5   0  0.2422436E-06  0.3850713E+04  0.7818609E-02  0.8035359E-01
       -2   -1    0    0    0  501  0.00000000000E+00  0.00000000000E+00  0.18888123195E+04  0.18888123195E+04  0.25500000920E-02 0. -1.
        2   -1    0    0  501    0  0.00000000000E+00  0.00000000000E+00 -0.19626081224E+04  0.19626081224E+04  0.25500000920E-02 0.  1.
    10030    2    1    2    0    0  0.00000000000E+00  0.00000000000E+00 -0.73795802941E+02  0.38514204419E+04  0.38507133884E+04 0.  0.
        2    1    3    3  502    0 -0.18429645785E+04  0.45466904307E+03 -0.35906886513E+03  0.19318832330E+04  0.25500000920E-02 0.  1.
       -2    1    3    3    0  502  0.18429645785E+04 -0.45466904307E+03  0.28527306218E+03  0.19195372089E+04  0.25500000920E-02 0. -1.
</event>
<event>
 5   0  0.8452742E-07  0.2764554E+04  0.7818609E-02  0.8314358E-01
       -1   -1    0    0    0  501  0.00000000000E+00  0.00000000000E+00  0.17615902571E+04  0.17615902571E+04  0.50400001928E-02 0. -1.
        1   -1    0    0  501    0  0.00000000000E+00  0.00000000000E+00 -0.10846389653E+04  0.10846389653E+04  0.50400001928E-02 0.  1.
    10030    2    1    2    0    0  0.00000000000E+00  0.00000000000E+00  0.67695129184E+03  0.28462292224E+04  0.27645538040E+04 0.  0.
        1    1    3    3  502    0 -0.90474761088E+03  0.93884270637E+03 -0.13410129401E+03  0.13107162255E+04  0.50400001928E-02 0.  1.
       -1    1    3    3    0  502  0.90474761088E+03 -0.93884270637E+03  0.81105258585E+03  0.15355129969E+04  0.50400001928E-02 0. -1.
</event>
<event>
 5   0  0.2382711E-06  0.3571649E+04  0.7818609E-02  0.8097017E-01
        2   -1    0    0  501    0  0.00000000000E+00  0.00000000000E+00  0.12057178665E+04  0.12057178665E+04  0.25500000920E-02 0. -1.
       -2   -1    0    0    0  501  0.00000000000E+00  0.00000000000E+00 -0.26450376699E+04  0.26450376699E+04  0.25500000920E-02 0.  1.
    10030    2    1    2    0    0  0.00000000000E+00  0.00000000000E+00 -0.14393198034E+04  0.38507555364E+04  0.35716490175E+04 0.  0.
        5    1    3    3  502    0  0.22426061783E+03  0.15196436797E+04  0.26230314771E+03  0.15583435979E+04  0.46999998093E+01 0. -1.
       -5    1    3    3    0  502 -0.22426061783E+03 -0.15196436797E+04 -0.17016229511E+04  0.22924119385E+04  0.46999998093E+01 0.  1.
</event>
<event>
 5   0  0.1566576E-06  0.2019483E+04  0.7818609E-02  0.8597566E-01
        2   -1    0    0  501    0  0.00000000000E+00  0.00000000000E+00  0.90367008881E+03  0.90367008881E+03  0.25500000920E-02 0.  1.
       -2   -1    0    0    0  501  0.00000000000E+00  0.00000000000E+00 -0.11282633469E+04  0.11282633469E+04  0.25500000920E-02 0. -1.
    10030    2    1    2    0    0  0.00000000000E+00  0.00000000000E+00 -0.22459325813E+03  0.20319334358E+04  0.20194829427E+04 0.  0.
        4    1    3    3  502    0  0.14792533453E+02 -0.62202441506E+03  0.68786918752E+03  0.92752295066E+03  0.12699999809E+01 0.  1.
       -4    1    3    3    0  502 -0.14792533453E+02  0.62202441506E+03 -0.91246244565E+03  0.11044104851E+04  0.12699999809E+01 0. -1.
</event>
<event>
 5   0  0.2382711E-06  0.3561174E+04  0.7818609E-02  0.8099444E-01
        2   -1    0    0  501    0  0.00000000000E+00  0.00000000000E+00  0.15665119906E+04  0.15665119906E+04  0.25500000920E-02 0. -1.
       -2   -1    0    0    0  501  0.00000000000E+00  0.00000000000E+00 -0.20239170573E+04  0.20239170573E+04  0.25500000920E-02 0.  1.
    10030    2    1    2    0    0  0.00000000000E+00  0.00000000000E+00 -0.45740506671E+03  0.35904290479E+04  0.35611741537E+04 0.  0.
        5    1    3    3  502    0  0.83533129569E+03  0.45071821088E+02 -0.18134478904E+04  0.19971041996E+04  0.46999998093E+01 0.  1.
       -5    1    3    3    0  502 -0.83533129569E+03 -0.45071821088E+02  0.13560428237E+04  0.15933248483E+04  0.46999998093E+01 0. -1.
</event>
<event>
 5   0  0.1634374E-06  0.3609571E+04  0.7818609E-02  0.8088303E-01
       -1   -1    0    0    0  501  0.00000000000E+00  0.00000000000E+00  0.14024352073E+04  0.14024352073E+04  0.50400001928E-02 0.  1.
        1   -1    0    0  501    0  0.00000000000E+00  0.00000000000E+00 -0.23225676118E+04  0.23225676118E+04  0.50400001928E-02 0. -1.
    10030    2    1    2    0    0  0.00000000000E+00  0.00000000000E+00 -0.92013240451E+03  0.37250028191E+04  0.36095709385E+04 0.  0.
        5    1    3    3  502    0  0.89459195785E+03 -0.60387662010E+03 -0.19527903270E+04  0.22312269931E+04  0.46999998093E+01 0. -1.
       -5    1    3    3    0  502 -0.89459195785E+03  0.60387662010E+03  0.10326579225E+04  0.14937758260E+04  0.46999998093E+01 0.  1.
</event>
<event>
 5   0  0.1513502E-06  0.2333795E+04  0.7818609E-02  0.8464714E-01
       -2   -1    0    0    0  501  0.00000000000E+00  0.00000000000E+00  0.83718485969E+03  0.83718485969E+03  0.25500000920E-02 0.  1.
        2   -1    0    0  501    0  0.00000000000E+00  0.00000000000E+00 -0.16264623556E+04  0.16264623556E+04  0.25500000920E-02 0. -1.
    10030    2    1    2    0    0  0.00000000000E+00  0.00000000000E+00 -0.78927749586E+03  0.24636472152E+04  0.23337949001E+04 0.  0.
        3    1    3    3  502    0  0.37988707404E+03  0.90085324756E+03 -0.10671061821E+04  0.14472616822E+04  0.10100000352E+00 0. -1.
       -3    1    3    3    0  502 -0.37988707404E+03 -0.90085324756E+03  0.27782868626E+03  0.10163855330E+04  0.10100000352E+00 0.  1.
</event>
<event>
 5   0  0.2382711E-06  0.3153206E+04  0.7818609E-02  0.8201286E-01
       -2   -1    0    0    0  501  0.00000000000E+00  0.00000000000E+00  0.14101328940E+04  0.14101328940E+04  0.25500000920E-02 0.  1.
        2   -1    0    0  501    0  0.00000000000E+00  0.00000000000E+00 -0.17627250260E+04  0.17627250260E+04  0.25500000920E-02 0. -1.
    10030    2    1    2    0    0  0.00000000000E+00  0.00000000000E+00 -0.35259213195E+03  0.31728579200E+04  0.31532056972E+04 0.  0.
        5    1    3    3  502    0  0.32497266227E+03  0.11495169047E+04  0.85902770643E+03  0.14713758989E+04  0.46999998093E+01 0.  1.
       -5    1    3    3    0  502 -0.32497266227E+03 -0.11495169047E+04 -0.12116198384E+04  0.17014820211E+04  0.46999998093E+01 0. -1.
</event>
<event>
 5   0  0.8452742E-07  0.3515887E+04  0.7818609E-02  0.8110035E-01
        1   -1    0    0  501    0  0.00000000000E+00  0.00000000000E+00  0.19259321924E+04  0.19259321924E+04  0.50400001928E-02 0.  1.
       -1   -1    0    0    0  501  0.00000000000E+00  0.00000000000E+00 -0.16046072162E+04  0.16046072162E+04  0.50400001928E-02 0. -1.
    10030    2    1    2    0    0  0.00000000000E+00  0.00000000000E+00  0.32132497620E+03  0.35305394086E+04  0.35158866272E+04 0.  0.
        1    1    3    3  502    0 -0.62281609024E+03  0.16252377389E+04 -0.87484988110E+02  0.17426850586E+04  0.50400001928E-02 0.  1.
       -1    1    3    3    0  502  0.62281609024E+03 -0.16252377389E+04  0.40880996431E+03  0.17878543501E+04  0.50400001928E-02 0. -1.
</event>
<event>
 5   0  0.1908273E-06  0.3255151E+04  0.7818609E-02  0.8174402E-01
       -1   -1    0    0    0  501  0.00000000000E+00  0.00000000000E+00  0.13958805210E+04  0.13958805210E+04  0.50400001928E-02 0. -1.
        1   -1    0    0  501    0  0.00000000000E+00  0.00000000000E+00 -0.18977281240E+04  0.18977281240E+04  0.50400001928E-02 0.  1.
    10030    2    1    2    0    0  0.00000000000E+00  0.00000000000E+00 -0.50184760303E+03  0.32936086450E+04  0.32551508244E+04 0.  0.
        3    1    3    3  502    0  0.93030483087E+03 -0.14977339096E+03  0.10918201439E+04  0.14422102426E+04  0.10100000352E+00 0. -1.
       -3    1    3    3    0  502 -0.93030483087E+03  0.14977339096E+03 -0.15936677469E+04  0.18513984025E+04  0.10100000352E+00 0.  1.
</event>
<event>
 5   0  0.2422436E-06  0.3636970E+04  0.7818609E-02  0.8082075E-01
        2   -1    0    0  501    0  0.00000000000E+00  0.00000000000E+00  0.18577703257E+04  0.18577703257E+04  0.25500000920E-02 0.  1.
       -2   -1    0    0    0  501  0.00000000000E+00  0.00000000000E+00 -0.17800307668E+04  0.17800307668E+04  0.25500000920E-02 0. -1.
    10030    2    1    2    0    0  0.00000000000E+00  0.00000000000E+00  0.77739558823E+02  0.36378010925E+04  0.36369703532E+04 0.  0.
        2    1    3    3  502    0 -0.24573465753E+03  0.12444679107E+04 -0.12644253257E+04  0.17910492196E+04  0.25500000920E-02 0. -1.
       -2    1    3    3    0  502  0.24573465753E+03 -0.12444679107E+04  0.13421648846E+04  0.18467518729E+04  0.25500000920E-02 0.  1.
</event>
<event>
 5   0  0.2536619E-06  0.3213954E+04  0.7818609E-02  0.8185142E-01
        2   -1    0    0  501    0  0.00000000000E+00  0.00000000000E+00  0.13599920190E+04  0.13599920190E+04  0.25500000920E-02 0.  1.
       -2   -1    0    0    0  501  0.00000000000E+00  0.00000000000E+00 -0.18988163391E+04  0.18988163391E+04  0.25500000920E-02 0. -1.
    10030    2    1    2    0    0  0.00000000000E+00  0.00000000000E+00 -0.53882432002E+03  0.32588083581E+04  0.32139539927E+04 0.  0.
        1    1    3    3  502    0 -0.15891095301E+04 -0.14109721512E+03 -0.46497048031E+03  0.16617385686E+04  0.50400001928E-02 0. -1.
       -1    1    3    3    0  502  0.15891095301E+04  0.14109721512E+03 -0.73853839708E+02  0.15970697895E+04  0.50400001928E-02 0.  1.
</event>
<event>
 5   0  0.8452742E-07  0.3607615E+04  0.7818609E-02  0.8088750E-01
        1   -1    0    0  501    0  0.00000000000E+00  0.00000000000E+00  0.21619742391E+04  0.21619742391E+04  0.50400001928E-02 0.  1.
       -1   -1    0    0    0  501  0.00000000000E+00  0.00000000000E+00 -0.15049768982E+04  0.15049768982E+04  0.50400001928E-02 0. -1.
    10030    2    1    2    0    0  0.00000000000E+00  0.00000000000E+00  0.65699734092E+03  0.36669511373E+04  0.36076148821E+04 0.  0.
        1    1    3    3  502    0 -0.78981677003E+03 -0.13677689052E+04 -0.55710595684E+03  0.16748042738E+04  0.50400001928E-02 0. -1.
       -1    1    3    3    0  502  0.78981677003E+03  0.13677689052E+04  0.12141032978E+04  0.19921468636E+04  0.50400001928E-02 0.  1.
</event>
<event>
 5   0  0.1566576E-06  0.3337306E+04  0.7818609E-02  0.8153467E-01
        2   -1    0    0  501    0  0.00000000000E+00  0.00000000000E+00  0.15706396096E+04  0.15706396096E+04  0.25500000920E-02 0.  1.
       -2   -1    0    0    0  501  0.00000000000E+00  0.00000000000E+00 -0.17727822754E+04  0.17727822754E+04  0.25500000920E-02 0. -1.
    10030    2    1    2    0    0  0.00000000000E+00  0.00000000000E+00 -0.20214266580E+03  0.33434218850E+04  0.33373055364E+04 0.  0.
        4    1    3    3  502    0  0.35757822189E+02 -0.15592421316E+04  0.49321546639E+03  0.16357804730E+04  0.12699999809E+01 0.  1.
       -4    1    3    3    0  502 -0.35757822189E+02  0.15592421316E+04 -0.69535813219E+03  0.17076414119E+04  0.12699999809E+01 0. -1.
</event>
<event>
 5   0  0.2536619E-06  0.3587621E+04  0.7818609E-02  0.8093333E-01
        2   -1    0    0  501    0  0.00000000000E+00  0.00000000000E+00  0.23297945605E+04  0.23297945605E+04  0.25500000920E-02 0. -1.
       -2   -1    0    0    0  501  0.00000000000E+00  0.00000000000E+00 -0.13811329936E+04  0.13811329936E+04  0.25500000920E-02 0.  1.
    10030    2    1    2    0    0  0.00000000000E+00  0.00000000000E+00  0.94866156690E+03  0.37109275541E+04  0.35876210144E+04 0.  0.
        1    1    3    3  502    0 -0.11101466107E+04  0.12842509797E+04 -0.12527385162E+03  0.17021808406E+04  0.50400001928E-02 0. -1.
       -1    1    3    3    0  502  0.11101466107E+04 -0.12842509797E+04  0.10739354185E+04  0.20087467135E+04  0.50400001928E-02 0.  1.
</event>
<event>
 5   0  0.1513502E-06  0.2384494E+04  0.7818609E-02  0.8445331E-01
        2   -1    0    0  501    0  0.00000000000E+00  0.00000000000E+00  0.12601547795E+04  0.12601547795E+04  0.25500000920E-02 0. -1.
       -2   -1    0    0    0  501  0.00000000000E+00  0.00000000000E+00 -0.11279990883E+04  0.11279990883E+04  0.25500000920E-02 0.  1.
    10030    2    1    2    0    0  0.00000000000E+00  0.00000000000E+00  0.13215569120E+03  0.23881538677E+04  0.23844944473E+04 0.  0.
        3    1    3    3  502    0 -0.61821394896E+03  0.83662749237E+03 -0.51732739309E+03  0.11617924468E+04  0.10100000352E+00 0.  1.
       -3    1    3    3    0  502  0.61821394896E+03 -0.83662749237E+03  0.64948308429E+03  0.12263614209E+04  0.10100000352E+00 0. -1.
</event>
<event>
 5   0  0.2536619E-06  0.3529914E+04  0.7818609E-02  0.8106737E-01
       -2   -1    0    0    0  501  0.00000000000E+00  0.00000000000E+00  0.17523429606E+04  0.17523429606E+04  0.25500000920E-02 0.  1.
        2   -1    0    0  501    0  0.00000000000E+00  0.00000000000E+00 -0.17776614961E+04  0.17776614961E+04  0.25500000920E-02 0. -1.
    10030    2    1    2    0    0  0.00000000000E+00  0.00000000000E+00 -0.25318535494E+02  0.35300044567E+04  0.35299136585E+04 0.  0.
        1    1    3    3  502    0  0.52007703299E+03  0.16780243792E+04  0.15712929077E+03  0.17637844402E+04  0.50400001928E-02 0.  1.
       -1    1    3    3    0  502 -0.52007703299E+03 -0.16780243792E+04 -0.18244782626E+03  0.17662200165E+04  0.50400001928E-02 0. -1.
</event>
<event>
 5   0  0.7754556E-07  0.2130727E+04  0.7818609E-02  0.8547827E-01
        1   -1    0    0  501    0  0.00000000000E+00  0.00000000000E+00  0.77329901066E+03  0.77329901068E+03  0.50400001928E-02 0. -1.
       -1   -1    0    0    0  501  0.00000000000E+00  0.00000000000E+00 -0.14677365818E+04  0.14677365818E+04  0.50400001928E-02 0.  1.
    10030    2    1    2    0    0  0.00000000000E+00  0.00000000000E+00 -0.69443757115E+03  0.22410355925E+04  0.21307268681E+04 0.  0.
        4    1    3    3  502    0  0.82749574013E+03  0.51127421930E+03  0.10984429174E+03  0.97888605495E+03  0.12699999809E+01 0. -1.
       -4    1    3    3    0  502 -0.82749574013E+03 -0.51127421930E+03 -0.80428186288E+03  0.12621495375E+04  0.12699999809E+01 0.  1.
</event>
<event>
 5   0  0.7754556E-07  0.2498607E+04  0.7818609E-02  0.8403482E-01
       -1   -1    0    0    0  501  0.00000000000E+00  0.00000000000E+00  0.10784785889E+04  0.10784785889E+04  0.50400001928E-02 0. -1.
        1   -1    0    0  501    0  0.00000000000E+00  0.00000000000E+00 -0.14471865410E+04  0.14471865410E+04  0.50400001928E-02 0.  1.
    10030    2    1    2    0    0  0.00000000000E+00  0.00000000000E+00 -0.36870795206E+03  0.25256651299E+04  0.24986073710E+04 0.  0.
        4    1    3    3  502    0 -0.10189375412E+04  0.66654781711E+03 -0.46709425158E+03  0.13041082617E+04  0.12699999809E+01 0.  1.
       -4    1    3    3    0  502  0.10189375412E+04 -0.66654781711E+03  0.98386299527E+02  0.12215568682E+04  0.12699999809E+01 0. -1.
</event>
<event>
 5   0  0.7754556E-07  0.3407390E+04  0.7818609E-02  0.8136095E-01
        1   -1    0    0  501    0  0.00000000000E+00  0.00000000000E+00  0.19830873508E+04  0.19830873508E+04  0.50400001928E-02 0.  1.
       -1   -1    0    0    0  501  0.00000000000E+00  0.00000000000E+00 -0.14636657842E+04  0.14636657842E+04  0.50400001928E-02 0. -1.
    10030    2    1    2    0    0  0.00000000000E+00  0.00000000000E+00  0.51942156663E+03  0.34467531350E+04  0.34073902638E+04 0.  0.
        4    1    3    3  502    0 -0.82579595239E+03 -0.93838495935E+03  0.14306977906E+04  0.18998429061E+04  0.12699999809E+01 0.  1.
       -4    1    3    3    0  502  0.82579595239E+03  0.93838495935E+03 -0.91127622398E+03  0.15469102289E+04  0.12699999809E+01 0. -1.
</event>
<event>
 5   0  0.1513502E-06  0.3553427E+04  0.7818609E-02  0.8101244E-01
       -2   -1    0    0    0  501  0.00000000000E+00  0.00000000000E+00  0.20674897543E+04  0.20674897543E+04  0.25500000920E-02 0.  1.
        2   -1    0    0  501    0  0.00000000000E+00  0.00000000000E+00 -0.15268326744E+04  0.15268326744E+04  0.25500000920E-02 0. -1.
    10030    2    1    2    0    0  0.00000000000E+00  0.00000000000E+00  0.54065707992E+03  0.35943224286E+04  0.35534270279E+04 0.  0.
        3    1    3    3  502    0 -0.16775062420E+04  0.13422217471E+03  0.84668272672E+03  0.18838562668E+04  0.10100000352E+00 0.  1.
       -3    1    3    3    0  502  0.16775062420E+04 -0.13422217471E+03 -0.30602564680E+03  0.17104661618E+04  0.10100000352E+00 0. -1.
</event>
<event>
 5   0  0.1566576E-06  0.3902968E+04  0.7818609E-02  0.8024412E-01
        2   -1    0    0  501    0  0.00000000000E+00  0.00000000000E+00  0.17355481376E+04  0.17355481376E+04  0.25500000920E-02 0.  1.
       -2   -1    0    0    0  501  0.00000000000E+00  0.00000000000E+00 -0.21942867012E+04  0.21942867012E+04  0.25500000920E-02 0. -1.
    10030    2    1    2    0    0  0.00000000000E+00  0.00000000000E+00 -0.45873856362E+03  0.39298348388E+04  0.39029682026E+04 0.  0.
        4    1    3    3  502    0 -0.18179070544E+04  0.69776645451E+03 -0.35919286633E+03  0.19800720219E+04  0.12699999809E+01 0. -1.
       -4    1    3    3    0  502  0.18179070544E+04 -0.69776645451E+03 -0.99545697293E+02  0.19497628169E+04  0.12699999809E+01 0.  1.
</event>
<event>
 5   0  0.1908273E-06  0.3572444E+04  0.7818609E-02  0.8096833E-01
       -1   -1    0    0    0  501  0.00000000000E+00  0.00000000000E+00  0.14544997182E+04  0.14544997182E+04  0.50400001928E-02 0. -1.
        1   -1    0    0  501    0  0.00000000000E+00  0.00000000000E+00 -0.21935994236E+04  0.21935994236E+04  0.50400001928E-02 0.  1.
    10030    2    1    2    0    0  0.00000000000E+00  0.00000000000E+00 -0.73909970536E+03  0.36480991418E+04  0.35724443976E+04 0.  0.
        3    1    3    3  502    0 -0.78397131097E+03 -0.49546577026E+03  0.11893743463E+04  0.15082137420E+04  0.10100000352E+00 0. -1.
       -3    1    3    3    0  502  0.78397131097E+03  0.49546577026E+03 -0.19284740516E+04  0.21398853997E+04  0.10100000352E+00 0.  1.
</event>
<event>
 5   0  0.1908273E-06  0.2027521E+04  0.7818609E-02  0.8593861E-01
       -1   -1    0    0    0  501  0.00000000000E+00  0.00000000000E+00  0.10146707300E+04  0.10146707300E+04  0.50400001928E-02 0. -1.
        1   -1    0    0  501    0  0.00000000000E+00  0.00000000000E+00 -0.10128509865E+04  0.10128509865E+04  0.50400001928E-02 0.  1.
    10030    2    1    2    0    0  0.00000000000E+00  0.00000000000E+00  0.18197435082E+01  0.20275217165E+04  0.20275208999E+04 0.  0.
        3    1    3    3  502    0 -0.26046287988E+03  0.97942599364E+03  0.25283040381E+02  0.10137827337E+04  0.10100000352E+00 0. -1.
       -3    1    3    3    0  502  0.26046287988E+03 -0.97942599364E+03 -0.23463296873E+02  0.10137389828E+04  0.10100000352E+00 0.  1.
</event>
<event>
 5   0  0.1566576E-06  0.2711920E+04  0.7818609E-02  0.8331148E-01
        2   -1    0    0  501    0  0.00000000000E+00  0.00000000000E+00  0.95193561997E+03  0.95193561997E+03  0.25500000920E-02 0. -1.
       -2   -1    0    0    0  501  0.00000000000E+00  0.00000000000E+00 -0.19314622072E+04  0.19314622072E+04  0.25500000920E-02 0.  1.
    10030    2    1    2    0    0  0.00000000000E+00  0.00000000000E+00 -0.97952658726E+03  0.28833978272E+04  0.27119201122E+04 0.  0.
        4    1    3    3  502    0  0.11634277730E+04 -0.53788749552E+03 -0.96016216262E+03  0.16014993388E+04  0.12699999809E+01 0.  1.
       -4    1    3    3    0  502 -0.11634277730E+04  0.53788749552E+03 -0.19364424638E+02  0.12818984884E+04  0.12699999809E+01 0. -1.
</event>
<event>
 5   0  0.8452742E-07  0.3595148E+04  0.7818609E-02  0.8091604E-01
        1   -1    0    0  501    0  0.00000000000E+00  0.00000000000E+00  0.15304099477E+04  0.15304099477E+04  0.50400001928E-02 0.  1.
       -1   -1    0    0    0  501  0.00000000000E+00  0.00000000000E+00 -0.21113765908E+04  0.21113765908E+04  0.50400001928E-02 0. -1.
    10030    2    1    2    0    0  0.00000000000E+00  0.00000000000E+00 -0.58096664318E+03  0.36417865385E+04  0.35951476954E+04 0.  0.
        1    1    3    3  502    0 -0.63148081468E+03 -0.16600541856E+04 -0.57106729195E+03  0.18656542473E+04  0.50400001928E-02 0. -1.
       -1    1    3    3    0  502  0.63148081468E+03  0.16600541856E+04 -0.98993512310E+01  0.17761322912E+04  0.50400001928E-02 0.  1.
</event>
<event>
 5   0  0.2382711E-06  0.1914258E+04  0.7818609E-02  0.8647792E-01
        2   -1    0    0  501    0  0.00000000000E+00  0.00000000000E+00  0.22960775524E+04  0.22960775524E+04  0.25500000920E-02 0. -1.
       -2   -1    0    0    0  501  0.00000000000E+00  0.00000000000E+00 -0.39898302793E+03  0.39898302794E+03  0.25500000920E-02 0.  1.
    10030    2    1    2    0    0  0.00000000000E+00  0.00000000000E+00  0.18970945245E+04  0.26950605804E+04  0.19142580539E+04 0.  0.
        5    1    3    3  502    0 -0.76875604321E+03 -0.56953781237E+03  0.91090868990E+03  0.13210359212E+04  0.46999998093E+01 0. -1.
       -5    1    3    3    0  502  0.76875604321E+03  0.56953781237E+03  0.98618583458E+03  0.13740246592E+04  0.46999998093E+01 0.  1.
</event>
<event>
 5   0  0.8423692E-07  0.3796533E+04  0.7818609E-02  0.8046899E-01
       -1   -1    0    0    0  501  0.00000000000E+00  0.00000000000E+00  0.16609149666E+04  0.16609149666E+04  0.50400001928E-02 0.  1.
        1   -1    0    0  501    0  0.00000000000E+00  0.00000000000E+00 -0.21695364048E+04  0.21695364048E+04  0.50400001928E-02 0. -1.
    10030    2    1    2    0    0  0.00000000000E+00  0.00000000000E+00 -0.50862143823E+03  0.38304513714E+04  0.37965328843E+04 0.  0.
        2    1    3    3  502    0  0.59591100722E+03 -0.12193461887E+04 -0.15933834433E+04  0.20930326930E+04  0.25500000920E-02 0. -1.
       -2    1    3    3    0  502 -0.59591100722E+03  0.12193461887E+04  0.10847620051E+04  0.17374186784E+04  0.25500000920E-02 0.  1.
</event>
<event>
 5   0  0.8423692E-07  0.3277703E+04  0.7818609E-02  0.8168592E-01
        1   -1    0    0  501    0  0.00000000000E+00  0.00000000000E+00  0.14283481299E+04  0.14283481299E+04  0.50400001928E-02 0.  1.
       -1   -1    0    0    0  501  0.00000000000E+00  0.00000000000E+00 -0.18803774843E+04  0.18803774843E+04  0.50400001928E-02 0. -1.
    10030    2    1    2    0    0  0.00000000000E+00  0.00000000000E+00 -0.45202935438E+03  0.33087256143E+04  0.32777026487E+04 0.  0.
        2    1    3    3  502    0  0.13228065998E+04 -0.96745193433E+03 -0.21865750797E+03  0.16533576901E+04  0.25500000920E-02 0.  1.
       -2    1    3    3    0  502 -0.13228065998E+04  0.96745193433E+03 -0.23337184641E+03  0.16553679242E+04  0.25500000920E-02 0. -1.
</event>
<event>
 5   0  0.7754556E-07  0.3574508E+04  0.7818609E-02  0.8096356E-01
        1   -1    0    0  501    0  0.00000000000E+00  0.00000000000E+00  0.22850552112E+04  0.22850552112E+04  0.50400001928E-02 0.  1.
       -1   -1    0    0    0  501  0.00000000000E+00  0.00000000000E+00 -0.13978994176E+04  0.13978994176E+04  0.50400001928E-02 0. -1.
    10030    2    1    2    0    0  0.00000000000E+00  0.00000000000E+00  0.88715579364E+03  0.36829546288E+04  0.35745082733E+04 0.  0.
        4    1    3    3  502    0  0.15900550521E+04 -0.30360859713E+03  0.12240705939E+04  0.20294835996E+04  0.12699999809E+01 0.  1.
       -4    1    3    3    0  502 -0.15900550521E+04  0.30360859713E+03 -0.33691480031E+03  0.16534710293E+04  0.12699999809E+01 0. -1.
</event>
<event>
 5   0  0.8452742E-07  0.3575151E+04  0.7818609E-02  0.8096207E-01
       -1   -1    0    0    0  501  0.00000000000E+00  0.00000000000E+00  0.20206356659E+04  0.20206356659E+04  0.50400001928E-02 0.  1.
        1   -1    0    0  501    0  0.00000000000E+00  0.00000000000E+00 -0.15813968398E+04  0.15813968398E+04  0.50400001928E-02 0. -1.
    10030    2    1    2    0    0  0.00000000000E+00  0.00000000000E+00  0.43923882612E+03  0.36020325058E+04  0.35751513851E+04 0.  0.
        1    1    3    3  502    0  0.10003675798E+04  0.12676263730E+04 -0.55283614374E+03  0.17068215249E+04  0.50400001928E-02 0. -1.
       -1    1    3    3    0  502 -0.10003675798E+04 -0.12676263730E+04  0.99207496986E+03  0.18952109808E+04  0.50400001928E-02 0.  1.
</event>
<event>
 5   0  0.8423692E-07  0.1968833E+04  0.7818609E-02  0.8621332E-01
        1   -1    0    0  501    0  0.00000000000E+00  0.00000000000E+00  0.19993472157E+04  0.19993472157E+04  0.50400001928E-02 0. -1.
       -1   -1    0    0    0  501  0.00000000000E+00  0.00000000000E+00 -0.48469614305E+03  0.48469614308E+03  0.50400001928E-02 0.  1.
    10030    2    1    2    0    0  0.00000000000E+00  0.00000000000E+00  0.15146510727E+04  0.24840433588E+04  0.19688330393E+04 0.  0.
        2    1    3    3  502    0 -0.56038785057E+03  0.35491114474E+03 -0.16039556575E+03  0.68243915571E+03  0.25500000920E-02 0. -1.
       -2    1    3    3    0  502  0.56038785057E+03 -0.35491114474E+03  0.16750466384E+04  0.18016042031E+04  0.25500000920E-02 0.  1.
</event>
<event>
 5   0  0.1513502E-06  0.3389814E+04  0.7818609E-02  0.8140411E-01
        2   -1    0    0  501    0  0.00000000000E+00  0.00000000000E+00  0.21654986937E+04  0.21654986937E+04  0.25500000920E-02 0.  1.
       -2   -1    0    0    0  501  0.00000000000E+00  0.00000000000E+00 -0.13265814830E+04  0.13265814830E+04  0.25500000920E-02 0. -1.
    10030    2    1    2    0    0  0.00000000000E+00  0.00000000000E+00  0.83891721064E+03  0.34920801767E+04  0.33898144306E+04 0.  0.
        3    1    3    3  502    0  0.97423059916E+02 -0.11703304867E+04 -0.83951767670E+03  0.14435908840E+04  0.10100000352E+00 0. -1.
       -3    1    3    3    0  502 -0.97423059916E+02  0.11703304867E+04  0.16784348873E+04  0.20484892926E+04  0.10100000352E+00 0.  1.
</event>
<event>
 5   0  0.2382711E-06  0.3384691E+04  0.7818609E-02  0.8141674E-01
        2   -1    0    0  501    0  0.00000000000E+00  0.00000000000E+00  0.12267171204E+04  0.12267171204E+04  0.25500000920E-02 0.  1.
       -2   -1    0    0    0  501  0.00000000000E+00  0.00000000000E+00 -0.23347136361E+04  0.23347136361E+04  0.25500000920E-02 0. -1.
    10030    2    1    2    0    0  0.00000000000E+00  0.00000000000E+00 -0.11079965157E+04  0.35614307564E+04  0.33846909392E+04 0.  0.
        5    1    3    3  502    0  0.14439405421E+04  0.49440058974E+03  0.21535536229E+03  0.15413618181E+04  0.46999998093E+01 0.  1.
       -5    1    3    3    0  502 -0.14439405421E+04 -0.49440058974E+03 -0.13233518780E+04  0.20200689383E+04  0.46999998093E+01 0. -1.
</event>
<event>
 5   0  0.8452742E-07  0.1807850E+04  0.7818609E-02  0.8702136E-01
        1   -1    0    0  501    0  0.00000000000E+00  0.00000000000E+00  0.12796719292E+04  0.12796719292E+04  0.50400001928E-02 0. -1.
       -1   -1    0    0    0  501  0.00000000000E+00  0.00000000000E+00 -0.63850746225E+03  0.63850746227E+03  0.50400001928E-02 0.  1.
    10030    2    1    2    0    0  0.00000000000E+00  0.00000000000E+00  0.64116446699E+03  0.19181793915E+04  0.18078496354E+04 0.  0.
        1    1    3    3  502    0 -0.81833336459E+03 -0.34130357184E+03  0.13400275327E+03  0.89672423947E+03  0.50400001928E-02 0.  1.
       -1    1    3    3    0  502  0.81833336459E+03  0.34130357184E+03  0.50716171372E+03  0.10214551520E+04  0.50400001928E-02 0. -1.
</event>
<event>
 5   0  0.2382711E-06  0.3566883E+04  0.7818609E-02  0.8098120E-01
        2   -1    0    0  501    0  0.00000000000E+00  0.00000000000E+00  0.19188408446E+04  0.19188408446E+04  0.25500000920E-02 0.  1.
       -2   -1    0    0    0  501  0.00000000000E+00  0.00000000000E+00 -0.16575966471E+04  0.16575966471E+04  0.25500000920E-02 0. -1.
    10030    2    1    2    0    0  0.00000000000E+00  0.00000000000E+00  0.26124419751E+03  0.35764374916E+04  0.35668833175E+04 0.  0.
        5    1    3    3  502    0 -0.32743766021E+03 -0.16378895314E+04  0.75739207597E+03  0.18340017408E+04  0.46999998093E+01 0.  1.
       -5    1    3    3    0  502  0.32743766021E+03  0.16378895314E+04 -0.49614787846E+03  0.17424357508E+04  0.46999998093E+01 0. -1.
</event>
<event>
 5   0  0.1566576E-06  0.3557013E+04  0.7818609E-02  0.8100410E-01
       -2   -1    0    0    0  501  0.00000000000E+00  0.00000000000E+00  0.22284840881E+04  0.22284840881E+04  0.25500000920E-02 0.  1.
        2   -1    0    0  501    0  0.00000000000E+00  0.00000000000E+00 -0.14193885253E+04  0.14193885253E+04  0.25500000920E-02 0. -1.
    10030    2    1    2    0    0  0.00000000000E+00  0.00000000000E+00  0.80909556282E+03  0.36478726134E+04  0.35570126474E+04 0.  0.
        4    1    3    3  502    0  0.14534571979E+04  0.10175982160E+04  0.27878090834E+03  0.17960413033E+04  0.12699999809E+01 0. -1.
       -4    1    3    3    0  502 -0.14534571979E+04 -0.10175982160E+04  0.53031465448E+03  0.18518313101E+04  0.12699999809E+01 0.  1.
</event>
<event>
 5   0  0.7754556E-07  0.3749767E+04  0.7818609E-02  0.8057022E-01
       -1   -1    0    0    0  501  0.00000000000E+00  0.00000000000E+00  0.18871971057E+04  0.18871971057E+04  0.50400001928E-02 0.  1.
        1   -1    0    0  501    0  0.00000000000E+00  0.00000000000E+00 -0.18626497679E+04  0.18626497679E+04  0.50400001928E-02 0. -1.
    10030    2    1    2    0    0  0.00000000000E+00  0.00000000000E+00  0.24547337802E+02  0.37498468735E+04  0.37497665265E+04 0.  0.
        4    1    3    3  502    0  0.11250525574E+04 -0.81980424760E+03 -0.12436845208E+04  0.18667016531E+04  0.12699999809E+01 0. -1.
       -4    1    3    3    0  502 -0.11250525574E+04  0.81980424760E+03  0.12682318586E+04  0.18831452205E+04  0.12699999809E+01 0.  1.
</event>
<event>
 5   0  0.2422436E-06  0.3396355E+04  0.7818609E-02  0.8138802E-01
       -2   -1    0    0    0  501  0.00000000000E+00  0.00000000000E+00  0.11587477688E+04  0.11587477688E+04  0.25500000920E-02 0.  1.
        2   -1    0    0  501    0  0.00000000000E+00  0.00000000000E+00 -0.24887264782E+04  0.24887264782E+04  0.25500000920E-02 0. -1.
    10030    2    1    2    0    0  0.00000000000E+00  0.00000000000E+00 -0.13299787094E+04  0.36474742470E+04  0.33963546657E+04 0.  0.
        2    1    3    3  502    0 -0.16571328649E+04  0.17819967093E+03 -0.10145752166E+04  0.19512066330E+04  0.25500000920E-02 0.  1.
       -2    1    3    3    0  502  0.16571328649E+04 -0.17819967093E+03 -0.31540349278E+03  0.16962676139E+04  0.25500000920E-02 0. -1.
</event>
<event>
 5   0  0.7707500E-07  0.3616210E+04  0.7818609E-02  0.8086789E-01
        3   -1    0    0  501    0  0.00000000000E+00  0.00000000000E+00  0.20568770161E+04  0.20568770185E+04  0.10100000352E+00 0. -1.
       -3   -1    0    0    0  501  0.00000000000E+00  0.00000000000E+00 -0.15894212894E+04  0.15894212926E+04  0.10100000352E+00 0.  1.
    10030    2    1    2    0    0  0.00000000000E+00  0.00000000000E+00  0.46745572667E+03  0.36462983112E+04  0.36162102424E+04 0.  0.
        3    1    3    3  502    0  0.13084907270E+03  0.98512375042E+03  0.17568102719E+04  0.20184084386E+04  0.10100000352E+00 0. -1.
       -3    1    3    3    0  502 -0.13084907270E+03 -0.98512375042E+03 -0.12893545452E+04  0.16278898725E+04  0.10100000352E+00 0.  1.
</event>
<event>
 5   0  0.7754556E-07  0.2697819E+04  0.7818609E-02  0.8335713E-01
        1   -1    0    0  501    0  0.00000000000E+00  0.00000000000E+00  0.16200580838E+04  0.16200580839E+04  0.50400001928E-02 0. -1.
       -1   -1    0    0    0  501  0.00000000000E+00  0.00000000000E+00 -0.11231432102E+04  0.11231432102E+04  0.50400001928E-02 0.  1.
    10030    2    1    2    0    0  0.00000000000E+00  0.00000000000E+00  0.49691487367E+03  0.27432012940E+04  0.26978192949E+04 0.  0.
        4    1    3    3  502    0  0.84781165641E+03 -0.94676162957E+03  0.70818393828E+03  0.14548774145E+04  0.12699999809E+01 0.  1.
       -4    1    3    3    0  502 -0.84781165641E+03  0.94676162957E+03 -0.21126906461E+03  0.12883238795E+04  0.12699999809E+01 0. -1.
</event>
<event>
 5   0  0.8452742E-07  0.3827682E+04  0.7818609E-02  0.8040240E-01
        1   -1    0    0  501    0  0.00000000000E+00  0.00000000000E+00  0.18245567751E+04  0.18245567751E+04  0.50400001928E-02 0.  1.
       -1   -1    0    0    0  501  0.00000000000E+00  0.00000000000E+00 -0.20074944861E+04  0.20074944861E+04  0.50400001928E-02 0. -1.
    10030    2    1    2    0    0  0.00000000000E+00  0.00000000000E+00 -0.18293771091E+03  0.38320512612E+04  0.38276821527E+04 0.  0.
        1    1    3    3  502    0  0.54981551939E+03  0.20121667052E+02 -0.19266148435E+04  0.20036333851E+04  0.50400001928E-02 0. -1.
       -1    1    3    3    0  502 -0.54981551939E+03 -0.20121667052E+02  0.17436771326E+04  0.18284178761E+04  0.50400001928E-02 0.  1.
</event>
<event>
 5   0  0.1513502E-06  0.3584658E+04  0.7818609E-02  0.8094015E-01
       -2   -1    0    0    0  501  0.00000000000E+00  0.00000000000E+00  0.15181175351E+04  0.15181175351E+04  0.25500000920E-02 0. -1.
        2   -1    0    0  501    0  0.00000000000E+00  0.00000000000E+00 -0.21160700802E+04  0.21160700802E+04  0.25500000920E-02 0.  1.
    10030    2    1    2    0    0  0.00000000000E+00  0.00000000000E+00 -0.59795254514E+03  0.36341876153E+04  0.35846579163E+04 0.  0.
        3    1    3    3  502    0  0.87214294343E+03 -0.45621622377E+03  0.12196109767E+04  0.15672324337E+04  0.10100000352E+00 0. -1.
       -3    1    3    3    0  502 -0.87214294343E+03  0.45621622377E+03 -0.18175635218E+04  0.20669551816E+04  0.10100000352E+00 0.  1.
</event>
<event>
 5   0  0.1566576E-06  0.3611992E+04  0.7818609E-02  0.8087750E-01
       -2   -1    0    0    0  501  0.00000000000E+00  0.00000000000E+00  0.11972668923E+04  0.11972668923E+04  0.25500000920E-02 0.  1.
        2   -1    0    0  501    0  0.00000000000E+00  0.00000000000E+00 -0.27242228518E+04  0.27242228518E+04  0.25500000920E-02 0. -1.
    10030    2    1    2    0    0  0.00000000000E+00  0.00000000000E+00 -0.15269559595E+04  0.39214897441E+04  0.36119921527E+04 0.  0.
        4    1    3    3  502    0  0.34740970663E+03  0.15357490692E+04  0.19684898748E+03  0.15868112189E+04  0.12699999809E+01 0. -1.
       -4    1    3    3    0  502 -0.34740970663E+03 -0.15357490692E+04 -0.17238049470E+04  0.23346785252E+04  0.12699999809E+01 0.  1.
</event>
<event>
 5   0  0.7754556E-07  0.3534061E+04  0.7818609E-02  0.8105765E-01
       -1   -1    0    0    0  501  0.00000000000E+00  0.00000000000E+00  0.19977421892E+04  0.19977421892E+04  0.50400001928E-02 0.  1.
        1   -1    0    0  501    0  0.00000000000E+00  0.00000000000E+00 -0.15629626647E+04  0.15629626648E+04  0.50400001928E-02 0. -1.
    10030    2    1    2    0    0  0.00000000000E+00  0.00000000000E+00  0.43477952442E+03  0.35607048539E+04  0.35340608119E+04 0.  0.
        4    1    3    3  502    0 -0.45349559328E+03 -0.13334378687E+04 -0.85774477259E+03  0.16490732278E+04  0.12699999809E+01 0. -1.
       -4    1    3    3    0  502  0.45349559328E+03  0.13334378687E+04  0.12925242970E+04  0.19116316261E+04  0.12699999809E+01 0.  1.
</event>
<event>
 5   0  0.1908273E-06  0.3603662E+04  0.7818609E-02  0.8089653E-01
       -1   -1    0    0    0  501  0.00000000000E+00  0.00000000000E+00  0.14566210081E+04  0.14566210082E+04  0.50400001928E-02 0.  1.
        1   -1    0    0  501    0  0.00000000000E+00  0.00000000000E+00 -0.22288529804E+04  0.22288529804E+04  0.50400001928E-02 0. -1.
    10030    2    1    2    0    0  0.00000000000E+00  0.00000000000E+00 -0.77223197225E+03  0.36854739886E+04  0.36036615131E+04 0.  0.
        3    1    3    3  502    0  0.26434317583E+03 -0.38978936345E+02  0.14362463185E+04  0.14608901976E+04  0.10100000352E+00 0.  1.
       -3    1    3    3    0  502 -0.26434317583E+03  0.38978936345E+02 -0.22084782907E+04  0.22245837909E+04  0.10100000352E+00 0. -1.
</event>
<event>
 5   0  0.2536619E-06  0.3063711E+04  0.7818609E-02  0.8225768E-01
        2   -1    0    0  501    0  0.00000000000E+00  0.00000000000E+00  0.20648096404E+04  0.20648096404E+04  0.25500000920E-02 0.  1.
       -2   -1    0    0    0  501  0.00000000000E+00  0.00000000000E+00 -0.11364635096E+04  0.11364635096E+04  0.25500000920E-02 0. -1.
    10030    2    1    2    0    0  0.00000000000E+00  0.00000000000E+00  0.92834613080E+03  0.32012731500E+04  0.30637106983E+04 0.  0.
        1    1    3    3  502    0 -0.74594915173E+02 -0.81429097484E+03 -0.88934497607E+03  0.12081261025E+04  0.50400001928E-02 0. -1.
       -1    1    3    3    0  502  0.74594915173E+02  0.81429097484E+03  0.18176911069E+04  0.19931470475E+04  0.50400001928E-02 0.  1.
</event>
<event>
 5   0  0.8423692E-07  0.3506395E+04  0.7818609E-02  0.8112276E-01
        1   -1    0    0  501    0  0.00000000000E+00  0.00000000000E+00  0.99462979020E+03  0.99462979021E+03  0.50400001928E-02 0.  1.
       -1   -1    0    0    0  501  0.00000000000E+00  0.00000000000E+00 -0.30902976721E+04  0.30902976721E+04  0.50400001928E-02 0. -1.
    10030    2    1    2    0    0  0.00000000000E+00  0.00000000000E+00 -0.20956678819E+04  0.40849274623E+04  0.35063953715E+04 0.  0.
        2    1    3    3  502    0 -0.35681657861E+02  0.97619357418E+02  0.99103744736E+03  0.99647275011E+03  0.25500000920E-02 0.  1.
       -2    1    3    3    0  502  0.35681657861E+02 -0.97619357418E+02 -0.30867053293E+04  0.30884547122E+04  0.25500000920E-02 0. -1.
</event>
<event>
 5   0  0.1513502E-06  0.2110546E+04  0.7818609E-02  0.8556612E-01
       -2   -1    0    0    0  501  0.00000000000E+00  0.00000000000E+00  0.14053209400E+04  0.14053209400E+04  0.25500000920E-02 0. -1.
        2   -1    0    0  501    0  0.00000000000E+00  0.00000000000E+00 -0.79241727607E+03  0.79241727608E+03  0.25500000920E-02 0.  1.
    10030    2    1    2    0    0  0.00000000000E+00  0.00000000000E+00  0.61290366390E+03  0.21977382161E+04  0.21105455136E+04 0.  0.
        3    1    3    3  502    0 -0.38354638974E+03 -0.30074036204E+03 -0.66819030844E+03  0.82706160408E+03  0.10100000352E+00 0.  1.
       -3    1    3    3    0  502  0.38354638974E+03  0.30074036204E+03  0.12810939723E+04  0.13706766120E+04  0.10100000352E+00 0. -1.
</event>
<event>
 5   0  0.7707500E-07  0.3378155E+04  0.7818609E-02  0.8143289E-01
       -3   -1    0    0    0  501  0.00000000000E+00  0.00000000000E+00  0.15365692278E+04  0.15365692311E+04  0.10100000352E+00 0. -1.
        3   -1    0    0  501    0  0.00000000000E+00  0.00000000000E+00 -0.18567221079E+04  0.18567221106E+04  0.10100000352E+00 0.  1.
    10030    2    1    2    0    0  0.00000000000E+00  0.00000000000E+00 -0.32015288008E+03  0.33932913418E+04  0.33781545648E+04 0.  0.
        1    1    3    3  502    0 -0.12853311799E+03 -0.27750964636E+03  0.15085259967E+04  0.15392150756E+04  0.50400001928E-02 0. -1.
       -1    1    3    3    0  502  0.12853311799E+03  0.27750964636E+03 -0.18286788768E+04  0.18540762661E+04  0.50400001928E-02 0.  1.
</event>
<event>
 5   0  0.2382711E-06  0.1971355E+04  0.7818609E-02  0.8620131E-01
       -2   -1    0    0    0  501  0.00000000000E+00  0.00000000000E+00  0.23334989681E+04  0.23334989681E+04  0.25500000920E-02 0. -1.
        2   -1    0    0  501    0  0.00000000000E+00  0.00000000000E+00 -0.41635346364E+03  0.41635346365E+03  0.25500000920E-02 0.  1.
    10030    2    1    2    0    0  0.00000000000E+00  0.00000000000E+00  0.19171455044E+04  0.27498524317E+04  0.19713552473E+04 0.  0.
        5    1    3    3  502    0 -0.71203308794E+02  0.59325734894E+03 -0.13490617848E+03  0.61257322847E+03  0.46999998093E+01 0.  1.
       -5    1    3    3    0  502  0.71203308794E+02 -0.59325734894E+03  0.20520516829E+04  0.21372792032E+04  0.46999998093E+01 0. -1.
</event>
<event>
 5   0  0.1513502E-06  0.2056785E+04  0.7818609E-02  0.8580522E-01
        2   -1    0    0  501    0  0.00000000000E+00  0.00000000000E+00  0.90770734666E+03  0.90770734666E+03  0.25500000920E-02 0. -1.
       -2   -1    0    0    0  501  0.00000000000E+00  0.00000000000E+00 -0.11651238816E+04  0.11651238816E+04  0.25500000920E-02 0.  1.
    10030    2    1    2    0    0  0.00000000000E+00  0.00000000000E+00 -0.25741653491E+03  0.20728312282E+04  0.20567853627E+04 0.  0.
        3    1    3    3  502    0 -0.89365796571E+03  0.48112059404E+03  0.38386033729E+02  0.10156648480E+04  0.10100000352E+00 0.  1.
       -3    1    3    3    0  502  0.89365796571E+03 -0.48112059404E+03 -0.29580256864E+03  0.10571663802E+04  0.10100000352E+00 0. -1.
</event>
<event>
 5   0  0.7754556E-07  0.2850961E+04  0.7818609E-02  0.8287619E-01
       -1   -1    0    0    0  501  0.00000000000E+00  0.00000000000E+00  0.17646756038E+04  0.17646756038E+04  0.50400001928E-02 0.  1.
        1   -1    0    0  501    0  0.00000000000E+00  0.00000000000E+00 -0.11514834045E+04  0.11514834045E+04  0.50400001928E-02 0. -1.
    10030    2    1    2    0    0  0.00000000000E+00  0.00000000000E+00  0.61319219932E+03  0.29161590083E+04  0.28509610114E+04 0.  0.
        4    1    3    3  502    0 -0.27300814481E+03  0.13945577813E+04  0.42172318078E+03  0.14822877273E+04  0.12699999809E+01 0. -1.
       -4    1    3    3    0  502  0.27300814481E+03 -0.13945577813E+04  0.19146901853E+03  0.14338712810E+04  0.12699999809E+01 0.  1.
</event>
<event>
 5   0  0.7754556E-07  0.3277808E+04  0.7818609E-02  0.8168565E-01
        1   -1    0    0  501    0  0.00000000000E+00  0.00000000000E+00  0.20507377186E+04  0.20507377186E+04  0.50400001928E-02 0.  1.
       -1   -1    0    0    0  501  0.00000000000E+00  0.00000000000E+00 -0.13097758299E+04  0.13097758299E+04  0.50400001928E-02 0. -1.
    10030    2    1    2    0    0  0.00000000000E+00  0.00000000000E+00  0.74096188866E+03  0.33605135485E+04  0.32778082295E+04 0.  0.
        4    1    3    3  502    0 -0.13856453618E+04  0.81859675589E+03  0.53004239098E+02  0.16102561224E+04  0.12699999809E+01 0. -1.
       -4    1    3    3    0  502  0.13856453618E+04 -0.81859675589E+03  0.68795764956E+03  0.17502574261E+04  0.12699999809E+01 0.  1.
</event>
<event>
 5   0  0.1513502E-06  0.3581010E+04  0.7818609E-02  0.8094856E-01
        2   -1    0    0  501    0  0.00000000000E+00  0.00000000000E+00  0.18782003038E+04  0.18782003038E+04  0.25500000920E-02 0. -1.
       -2   -1    0    0    0  501  0.00000000000E+00  0.00000000000E+00 -0.17069039680E+04  0.17069039680E+04  0.25500000920E-02 0.  1.
    10030    2    1    2    0    0  0.00000000000E+00  0.00000000000E+00  0.17129633581E+03  0.35851042718E+04  0.35810096628E+04 0.  0.
        3    1    3    3  502    0  0.12457253179E+04  0.10994799125E+04 -0.58236278034E+03  0.17606345628E+04  0.10100000352E+00 0.  1.
       -3    1    3    3    0  502 -0.12457253179E+04 -0.10994799125E+04  0.75365911614E+03  0.18244697090E+04  0.10100000352E+00 0. -1.
</event>
<event>
 5   0  0.8423692E-07  0.2000607E+04  0.7818609E-02  0.8606337E-01
       -1   -1    0    0    0  501  0.00000000000E+00  0.00000000000E+00  0.11022413879E+04  0.11022413879E+04  0.50400001928E-02 0. -1.
        1   -1    0    0  501    0  0.00000000000E+00  0.00000000000E+00 -0.90779333083E+03  0.90779333085E+03  0.50400001928E-02 0.  1.
    10030    2    1    2    0    0  0.00000000000E+00  0.00000000000E+00  0.19444805706E+03  0.20100347188E+04  0.20006072887E+04 0.  0.
        2    1    3    3  502    0 -0.24880964082E+03  0.87026045248E+03 -0.33063230356E+03  0.96362711288E+03  0.25500000920E-02 0.  1.
       -2    1    3    3    0  502  0.24880964082E+03 -0.87026045248E+03  0.52508036063E+03  0.10464076059E+04  0.25500000920E-02 0. -1.
</event>
<event>
 5   0  0.7754556E-07  0.3330291E+04  0.7818609E-02  0.8155230E-01
        1   -1    0    0  501    0  0.00000000000E+00  0.00000000000E+00  0.20579943060E+04  0.20579943060E+04  0.50400001928E-02 0. -1.
       -1   -1    0    0    0  501  0.00000000000E+00  0.00000000000E+00 -0.13472870574E+04  0.13472870574E+04  0.50400001928E-02 0.  1.
    10030    2    1    2    0    0  0.00000000000E+00  0.00000000000E+00  0.71070724862E+03  0.34052813634E+04  0.33302907336E+04 0.  0.
        4    1    3    3  502    0 -0.70719344348E+03  0.29854464097E+02 -0.11857992910E+04  0.13809907411E+04  0.12699999809E+01 0.  1.
       -4    1    3    3    0  502  0.70719344348E+03 -0.29854464097E+02  0.18965065397E+04  0.20242906223E+04  0.12699999809E+01 0. -1.
</event>
<event>
 5   0  0.1513502E-06  0.3583601E+04  0.7818609E-02  0.8094258E-01
        2   -1    0    0  501    0  0.00000000000E+00  0.00000000000E+00  0.21559262204E+04  0.21559262204E+04  0.25500000920E-02 0.  1.
       -2   -1    0    0    0  501  0.00000000000E+00  0.00000000000E+00 -0.14891737498E+04  0.14891737498E+04  0.25500000920E-02 0. -1.
    10030    2    1    2    0    0  0.00000000000E+00  0.00000000000E+00  0.66675247061E+03  0.36450999703E+04  0.35836008338E+04 0.  0.
        3    1    3    3  502    0  0.95548171745E+03  0.12611025590E+04  0.11887742388E+04  0.19790172252E+04  0.10100000352E+00 0.  1.
       -3    1    3    3    0  502 -0.95548171745E+03 -0.12611025590E+04 -0.52202176817E+03  0.16660827450E+04  0.10100000352E+00 0. -1.
</event>
<event>
 5   0  0.1634374E-06  0.2577513E+04  0.7818609E-02  0.8375880E-01
       -1   -1    0    0    0  501  0.00000000000E+00  0.00000000000E+00  0.11615678403E+04  0.11615678403E+04  0.50400001928E-02 0. -1.
        1   -1    0    0  501    0  0.00000000000E+00  0.00000000000E+00 -0.14298718855E+04  0.14298718855E+04  0.50400001928E-02 0.  1.
    10030    2    1    2    0    0  0.00000000000E+00  0.00000000000E+00 -0.26830404524E+03  0.25914397259E+04  0.25775129082E+04 0.  0.
        5    1    3    3  502    0 -0.18026169941E+03  0.12590144716E+04 -0.34326474136E+03  0.13173702945E+04  0.46999998093E+01 0.  1.
       -5    1    3    3    0  502  0.18026169941E+03 -0.12590144716E+04  0.74960696116E+02  0.12740694314E+04  0.46999998093E+01 0. -1.
</event>
<event>
 5   0  0.2536619E-06  0.3551974E+04  0.7818609E-02  0.8101582E-01
        2   -1    0    0  501    0  0.00000000000E+00  0.00000000000E+00  0.21984029495E+04  0.21984029495E+04  0.25500000920E-02 0. -1.
       -2   -1    0    0    0  501  0.00000000000E+00  0.00000000000E+00 -0.14347370072E+04  0.14347370072E+04  0.25500000920E-02 0.  1.
    10030    2    1    2    0    0  0.00000000000E+00  0.00000000000E+00  0.76366594227E+03  0.36331399567E+04  0.35519741375E+04 0.  0.
        1    1    3    3  502    0  0.18675614028E+02 -0.29429125154E+03 -0.14095215191E+04  0.14400371634E+04  0.50400001928E-02 0.  1.
       -1    1    3    3    0  502 -0.18675614028E+02  0.29429125154E+03  0.21731874614E+04  0.21931027932E+04  0.50400001928E-02 0. -1.
</event>
<event>
 5   0  0.2382711E-06  0.3635785E+04  0.7818609E-02  0.8082343E-01
       -2   -1    0    0    0  501  0.00000000000E+00  0.00000000000E+00  0.16359274191E+04  0.16359274191E+04  0.25500000920E-02 0. -1.
        2   -1    0    0  501    0  0.00000000000E+00  0.00000000000E+00 -0.20200980211E+04  0.20200980211E+04  0.25500000920E-02 0.  1.
    10030    2    1    2    0    0  0.00000000000E+00  0.00000000000E+00 -0.38417060195E+03  0.36560254402E+04  0.36357853302E+04 0.  0.
        5    1    3    3  502    0  0.12339819756E+04  0.31622860337E+02 -0.15340557475E+04  0.19690253040E+04  0.46999998093E+01 0.  1.
       -5    1    3    3    0  502 -0.12339819756E+04 -0.31622860337E+02  0.11498851456E+04  0.16870001361E+04  0.46999998093E+01 0. -1.
</event>
<event>
 5   0  0.8423692E-07  0.2643470E+04  0.7818609E-02  0.8353584E-01
       -1   -1    0    0    0  501  0.00000000000E+00  0.00000000000E+00  0.10942607012E+04  0.10942607012E+04  0.50400001928E-02 0.  1.
        1   -1    0    0  501    0  0.00000000000E+00  0.00000000000E+00 -0.15964964666E+04  0.15964964666E+04  0.50400001928E-02 0. -1.
    10030    2    1    2    0    0  0.00000000000E+00  0.00000000000E+00 -0.50223576544E+03  0.26907571678E+04  0.26434699491E+04 0.  0.
        2    1    3    3  502    0  0.99689077410E+03 -0.97736799074E+02  0.62665345545E+03  0.11815406259E+04  0.25500000920E-02 0.  1.
       -2    1    3    3    0  502 -0.99689077410E+03  0.97736799074E+02 -0.11288892209E+04  0.15092165419E+04  0.25500000920E-02 0. -1.
</event>
<event>
 5   0  0.7754556E-07  0.3565511E+04  0.7818609E-02  0.8098438E-01
        1   -1    0    0  501    0  0.00000000000E+00  0.00000000000E+00  0.20372427346E+04  0.20372427346E+04  0.50400001928E-02 0.  1.
       -1   -1    0    0    0  501  0.00000000000E+00  0.00000000000E+00 -0.15600579042E+04  0.15600579042E+04  0.50400001928E-02 0. -1.
    10030    2    1    2    0    0  0.00000000000E+00  0.00000000000E+00  0.47718483046E+03  0.35973006388E+04  0.35655106961E+04 0.  0.
        4    1    3    3  502    0 -0.46075433631E+03  0.91119625062E+03 -0.12358207592E+04  0.16030682229E+04  0.12699999809E+01 0. -1.
       -4    1    3    3    0  502  0.46075433631E+03 -0.91119625062E+03  0.17130055897E+04  0.19942324159E+04  0.12699999809E+01 0.  1.
</event>
<event>
 5   0  0.8423692E-07  0.1921869E+04  0.7818609E-02  0.8644047E-01
        1   -1    0    0  501    0  0.00000000000E+00  0.00000000000E+00  0.12785281332E+04  0.12785281332E+04  0.50400001928E-02 0. -1.
       -1   -1    0    0    0  501  0.00000000000E+00  0.00000000000E+00 -0.72223291095E+03  0.72223291097E+03  0.50400001928E-02 0.  1.
    10030    2    1    2    0    0  0.00000000000E+00  0.00000000000E+00  0.55629522226E+03  0.20007610442E+04  0.19218689814E+04 0.  0.
        2    1    3    3  502    0  0.83588106058E+02  0.23116164034E+03 -0.68894909376E+03  0.73148720375E+03  0.25500000920E-02 0.  1.
       -2    1    3    3    0  502 -0.83588106058E+02 -0.23116164034E+03  0.12452443160E+04  0.12692738404E+04  0.25500000920E-02 0. -1.
</event>
<event>
 5   0  0.2422436E-06  0.3442336E+04  0.7818609E-02  0.8127593E-01
        2   -1    0    0  501    0  0.00000000000E+00  0.00000000000E+00  0.22409295338E+04  0.22409295338E+04  0.25500000920E-02 0. -1.
       -2   -1    0    0    0  501  0.00000000000E+00  0.00000000000E+00 -0.13219601636E+04  0.13219601636E+04  0.25500000920E-02 0.  1.
    10030    2    1    2    0    0  0.00000000000E+00  0.00000000000E+00  0.91896937015E+03  0.35628896974E+04  0.34423361679E+04 0.  0.
        2    1    3    3  502    0  0.13088526838E+04  0.72911291727E+03  0.13363364729E+04  0.20076095643E+04  0.25500000920E-02 0. -1.
       -2    1    3    3    0  502 -0.13088526838E+04 -0.72911291727E+03 -0.41736710272E+03  0.15552801331E+04  0.25500000920E-02 0.  1.
</event>
<event>
 5   0  0.2536619E-06  0.3537915E+04  0.7818609E-02  0.8104863E-01
        2   -1    0    0  501    0  0.00000000000E+00  0.00000000000E+00  0.25015907430E+04  0.25015907430E+04  0.25500000920E-02 0.  1.
       -2   -1    0    0    0  501  0.00000000000E+00  0.00000000000E+00 -0.12508880222E+04  0.12508880222E+04  0.25500000920E-02 0. -1.
    10030    2    1    2    0    0  0.00000000000E+00  0.00000000000E+00  0.12507027209E+04  0.37524787652E+04  0.35379145817E+04 0.  0.
        1    1    3    3  502    0 -0.36558345330E+03 -0.90037110956E+03  0.21931335929E+04  0.23987818476E+04  0.50400001928E-02 0.  1.
       -1    1    3    3    0  502  0.36558345330E+03  0.90037110956E+03 -0.94243087201E+03  0.13536969176E+04  0.50400001928E-02 0. -1.
</event>
<event>
 5   0  0.2536619E-06  0.3628006E+04  0.7818609E-02  0.8084107E-01
        2   -1    0    0  501    0  0.00000000000E+00  0.00000000000E+00  0.19305832688E+04  0.19305832688E+04  0.25500000920E-02 0. -1.
       -2   -1    0    0    0  501  0.00000000000E+00  0.00000000000E+00 -0.17044621488E+04  0.17044621488E+04  0.25500000920E-02 0.  1.
    10030    2    1    2    0    0  0.00000000000E+00  0.00000000000E+00  0.22612111993E+03  0.36350454176E+04  0.36280055715E+04 0.  0.
        1    1    3    3  502    0  0.21619590057E+03  0.18006720792E+04  0.74967022236E+02  0.18151530676E+04  0.50400001928E-02 0. -1.
       -1    1    3    3    0  502 -0.21619590057E+03 -0.18006720792E+04  0.15115409770E+03  0.18198923500E+04  0.50400001928E-02 0.  1.
</event>
<event>
 5   0  0.2536619E-06  0.2032747E+04  0.7818609E-02  0.8591462E-01
       -2   -1    0    0    0  501  0.00000000000E+00  0.00000000000E+00  0.97098794376E+03  0.97098794376E+03  0.25500000920E-02 0. -1.
        2   -1    0    0  501    0  0.00000000000E+00  0.00000000000E+00 -0.10638804100E+04  0.10638804100E+04  0.25500000920E-02 0.  1.
    10030    2    1    2    0    0  0.00000000000E+00  0.00000000000E+00 -0.92892466251E+02  0.20348683538E+04  0.20327469609E+04 0.  0.
        1    1    3    3  502    0 -0.85163100759E+03  0.42051046530E+03 -0.40863956378E+03  0.10339684316E+04  0.50400001928E-02 0.  1.
       -1    1    3    3    0  502  0.85163100759E+03 -0.42051046530E+03  0.31574709753E+03  0.10008999221E+04  0.50400001928E-02 0. -1.
</event>
<event>
 5   0  0.1566576E-06  0.3608121E+04  0.7818609E-02  0.8088634E-01
        2   -1    0    0  501    0  0.00000000000E+00  0.00000000000E+00  0.23995384434E+04  0.23995384434E+04  0.25500000920E-02 0. -1.
       -2   -1    0    0    0  501  0.00000000000E+00  0.00000000000E+00 -0.13563585987E+04  0.13563585987E+04  0.25500000920E-02 0.  1.
    10030    2    1    2    0    0  0.00000000000E+00  0.00000000000E+00  0.10431798447E+04  0.37558970421E+04  0.36081211735E+04 0.  0.
        4    1    3    3  502    0 -0.30292896434E+03  0.46451800051E+02 -0.13290624101E+04  0.13639399657E+04  0.12699999809E+01 0.  1.
       -4    1    3    3    0  502  0.30292896434E+03 -0.46451800051E+02  0.23722422548E+04  0.23919570765E+04  0.12699999809E+01 0. -1.
</event>
<event>
 5   0  0.8452742E-07  0.3644162E+04  0.7818609E-02  0.8080450E-01
        1   -1    0    0  501    0  0.00000000000E+00  0.00000000000E+00  0.20066358571E+04  0.20066358571E+04  0.50400001928E-02 0.  1.
       -1   -1    0    0    0  501  0.00000000000E+00  0.00000000000E+00 -0.16544999999E+04  0.16544999999E+04  0.50400001928E-02 0. -1.
    10030    2    1    2    0    0  0.00000000000E+00  0.00000000000E+00  0.35213585721E+03  0.36611358571E+04  0.36441619204E+04 0.  0.
        1    1    3    3  502    0 -0.58723426919E+03 -0.11869289665E+04 -0.10812944029E+04  0.17096321371E+04  0.50400001928E-02 0. -1.
       -1    1    3    3    0  502  0.58723426919E+03  0.11869289665E+04  0.14334302602E+04  0.19515037200E+04  0.50400001928E-02 0.  1.
</event>
<event>
 5   0  0.7754556E-07  0.3574355E+04  0.7818609E-02  0.8096391E-01
        1   -1    0    0  501    0  0.00000000000E+00  0.00000000000E+00  0.29913321100E+04  0.29913321100E+04  0.50400001928E-02 0. -1.
       -1   -1    0    0    0  501  0.00000000000E+00  0.00000000000E+00 -0.10677527813E+04  0.10677527813E+04  0.50400001928E-02 0.  1.
    10030    2    1    2    0    0  0.00000000000E+00  0.00000000000E+00  0.19235793287E+04  0.40590848913E+04  0.35743548678E+04 0.  0.
        4    1    3    3  502    0  0.14054599677E+04 -0.11030109178E+04  0.10132162965E+04  0.20539132605E+04  0.12699999809E+01 0.  1.
       -4    1    3    3    0  502 -0.14054599677E+04  0.11030109178E+04  0.91036303225E+03  0.20051716308E+04  0.12699999809E+01 0. -1.
</event>
<event>
 5   0  0.7707500E-07  0.1995372E+04  0.7818609E-02  0.8608787E-01
       -3   -1    0    0    0  501  0.00000000000E+00  0.00000000000E+00  0.13043350827E+04  0.13043350866E+04  0.10100000352E+00 0.  1.
        3   -1    0    0  501    0  0.00000000000E+00  0.00000000000E+00 -0.76313004106E+03  0.76313004775E+03  0.10100000352E+00 0. -1.
    10030    2    1    2    0    0  0.00000000000E+00  0.00000000000E+00  0.54120504161E+03  0.20674651343E+04  0.19953719414E+04 0.  0.
        3    1    3    3  502    0 -0.10996417097E+03 -0.88887440307E+03  0.72601382095E+03  0.11529466170E+04  0.10100000352E+00 0.  1.
       -3    1    3    3    0  502  0.10996417097E+03  0.88887440307E+03 -0.18480877934E+03  0.91451851729E+03  0.10100000352E+00 0. -1.
</event>
<event>
 5   0  0.7754556E-07  0.3569751E+04  0.7818609E-02  0.8097456E-01
        1   -1    0    0  501    0  0.00000000000E+00  0.00000000000E+00  0.16521092077E+04  0.16521092077E+04  0.50400001928E-02 0.  1.
       -1   -1    0    0    0  501  0.00000000000E+00  0.00000000000E+00 -0.19283108995E+04  0.19283108996E+04  0.50400001928E-02 0. -1.
    10030    2    1    2    0    0  0.00000000000E+00  0.00000000000E+00 -0.27620169189E+03  0.35804201072E+04  0.35697507994E+04 0.  0.
        4    1    3    3  502    0  0.40709246573E+03  0.51721674126E+03  0.15259362274E+04  0.16618424763E+04  0.12699999809E+01 0.  1.
       -4    1    3    3    0  502 -0.40709246573E+03 -0.51721674126E+03 -0.18021379192E+04  0.19185776309E+04  0.12699999809E+01 0. -1.
</event>
<event>
 5   0  0.8423692E-07  0.2662358E+04  0.7818609E-02  0.8347323E-01
       -1   -1    0    0    0  501  0.00000000000E+00  0.00000000000E+00  0.16552215886E+04  0.16552215886E+04  0.50400001928E-02 0. -1.
        1   -1    0    0  501    0  0.00000000000E+00  0.00000000000E+00 -0.10705743864E+04  0.10705743864E+04  0.50400001928E-02 0.  1.
    10030    2    1    2    0    0  0.00000000000E+00  0.00000000000E+00  0.58464720224E+03  0.27257959750E+04  0.26623582302E+04 0.  0.
        2    1    3    3  502    0 -0.65023018462E+03 -0.90560107881E+03  0.10370660180E+04  0.15226353906E+04  0.25500000920E-02 0. -1.
       -2    1    3    3    0  502  0.65023018462E+03  0.90560107881E+03 -0.45241881579E+03  0.12031605844E+04  0.25500000920E-02 0.  1.
</event>
<event>
 5   0  0.8452742E-07  0.3635659E+04  0.7818609E-02  0.8082372E-01
       -1   -1    0    0    0  501  0.00000000000E+00  0.00000000000E+00  0.17326136594E+04  0.17326136594E+04  0.50400001928E-02 0. -1.
        1   -1    0    0  501    0  0.00000000000E+00  0.00000000000E+00 -0.19072370640E+04  0.19072370641E+04  0.50400001928E-02 0.  1.
    10030    2    1    2    0    0  0.00000000000E+00  0.00000000000E+00 -0.17462340464E+03  0.36398507235E+04  0.36356594939E+04 0.  0.
        1    1    3    3  502    0 -0.69377764541E+03 -0.16797869703E+04 -0.48623885979E+02  0.18180692971E+04  0.50400001928E-02 0.  1.
       -1    1    3    3    0  502  0.69377764541E+03  0.16797869703E+04 -0.12599951866E+03  0.18217814264E+04  0.50400001928E-02 0. -1.
</event>
<event>
 5   0  0.1566576E-06  0.3249405E+04  0.7818609E-02  0.8175890E-01
        2   -1    0    0  501    0  0.00000000000E+00  0.00000000000E+00  0.14845560176E+04  0.14845560176E+04  0.25500000920E-02 0.  1.
       -2   -1    0    0    0  501  0.00000000000E+00  0.00000000000E+00 -0.17780787110E+04  0.17780787110E+04  0.25500000920E-02 0. -1.
    10030    2    1    2    0    0  0.00000000000E+00  0.00000000000E+00 -0.29352269346E+03  0.32626347286E+04  0.32494045302E+04 0.  0.
        4    1    3    3  502    0  0.18286792296E+03  0.10645463275E+04 -0.13653569329E+04  0.17409482266E+04  0.12699999809E+01 0. -1.
       -4    1    3    3    0  502 -0.18286792296E+03 -0.10645463275E+04  0.10718342394E+04  0.15216865020E+04  0.12699999809E+01 0.  1.
</event>
<event>
 5   0  0.2382711E-06  0.1995642E+04  0.7818609E-02  0.8608661E-01
       -2   -1    0    0    0  501  0.00000000000E+00  0.00000000000E+00  0.18052593843E+04  0.18052593843E+04  0.25500000920E-02 0.  1.
        2   -1    0    0  501    0  0.00000000000E+00  0.00000000000E+00 -0.55152539970E+03  0.55152539971E+03  0.25500000920E-02 0. -1.
    10030    2    1    2    0    0  0.00000000000E+00  0.00000000000E+00  0.12537339846E+04  0.23567847840E+04  0.19956416547E+04 0.  0.
        5    1    3    3  502    0 -0.13443590530E+02 -0.61658819415E+03 -0.29946703454E+03  0.68561237304E+03  0.46999998093E+01 0. -1.
       -5    1    3    3    0  502  0.13443590530E+02  0.61658819415E+03  0.15532010191E+04  0.16711724109E+04  0.46999998093E+01 0.  1.
</event>
<event>
 5   0  0.8452742E-07  0.3013761E+04  0.7818609E-02  0.8239812E-01
        1   -1    0    0  501    0  0.00000000000E+00  0.00000000000E+00  0.72364789726E+03  0.72364789728E+03  0.50400001928E-02 0.  1.
       -1   -1    0    0    0  501  0.00000000000E+00  0.00000000000E+00 -0.31378370248E+04  0.31378370248E+04  0.50400001928E-02 0. -1.
    10030    2    1    2    0    0  0.00000000000E+00  0.00000000000E+00 -0.24141891276E+04  0.38614849221E+04  0.30137612148E+04 0.  0.
        1    1    3    3  502    0  0.48243720084E+03  0.12539679877E+04 -0.20812909044E+04  0.24772874673E+04  0.50400001928E-02 0.  1.
       -1    1    3    3    0  502 -0.48243720084E+03 -0.12539679877E+04 -0.33289822315E+03  0.13841974548E+04  0.50400001928E-02 0. -1.
</event>
<event>
 5   0  0.1513502E-06  0.3627313E+04  0.7818609E-02  0.8084264E-01
        2   -1    0    0  501    0  0.00000000000E+00  0.00000000000E+00  0.16973345639E+04  0.16973345639E+04  0.25500000920E-02 0.  1.
       -2   -1    0    0    0  501  0.00000000000E+00  0.00000000000E+00 -0.19379503451E+04  0.19379503451E+04  0.25500000920E-02 0. -1.
    10030    2    1    2    0    0  0.00000000000E+00  0.00000000000E+00 -0.24061578123E+03  0.36352849090E+04  0.36273131124E+04 0.  0.
        3    1    3    3  502    0  0.49932545547E+02 -0.66002732052E+03  0.15719588961E+04  0.17056330508E+04  0.10100000352E+00 0.  1.
       -3    1    3    3    0  502 -0.49932545547E+02  0.66002732052E+03 -0.18125746773E+04  0.19296518582E+04  0.10100000352E+00 0. -1.
</event>
<event>
 5   0  0.2382711E-06  0.3708813E+04  0.7818609E-02  0.8066012E-01
       -2   -1    0    0    0  501  0.00000000000E+00  0.00000000000E+00  0.16226929764E+04  0.16226929764E+04  0.25500000920E-02 0. -1.
        2   -1    0    0  501    0  0.00000000000E+00  0.00000000000E+00 -0.21192080176E+04  0.21192080176E+04  0.25500000920E-02 0.  1.
    10030    2    1    2    0    0  0.00000000000E+00  0.00000000000E+00 -0.49651504119E+03  0.37419009941E+04  0.37088132688E+04 0.  0.
        5    1    3    3  502    0 -0.57775174400E+03  0.14249415588E+04 -0.12941087264E+04  0.20097251079E+04  0.46999998093E+01 0. -1.
       -5    1    3    3    0  502  0.57775174400E+03 -0.14249415588E+04  0.79759368518E+03  0.17321758861E+04  0.46999998093E+01 0.  1.
</event>
<event>
 5   0  0.1908273E-06  0.3411893E+04  0.7818609E-02  0.8134994E-01
       -1   -1    0    0    0  501  0.00000000000E+00  0.00000000000E+00  0.13063815128E+04  0.13063815128E+04  0.50400001928E-02 0. -1.
        1   -1    0    0  501    0  0.00000000000E+00  0.00000000000E+00 -0.22277205465E+04  0.22277205465E+04  0.50400001928E-02 0.  1.
    10030    2    1    2    0    0  0.00000000000E+00  0.00000000000E+00 -0.92133903378E+03  0.35341020593E+04  0.34118926933E+04 0.  0.
        3    1    3    3  502    0 -0.72668866076E+03 -0.97259402487E+03  0.78068787933E+03  0.14434296388E+04  0.10100000352E+00 0. -1.
       -3    1    3    3    0  502  0.72668866076E+03  0.97259402487E+03 -0.17020269131E+04  0.20906724206E+04  0.10100000352E+00 0.  1.
</event>
<event>
 5   0  0.1634374E-06  0.3593046E+04  0.7818609E-02  0.8092086E-01
       -1   -1    0    0    0  501  0.00000000000E+00  0.00000000000E+00  0.15234973706E+04  0.15234973706E+04  0.50400001928E-02 0.  1.
        1   -1    0    0  501    0  0.00000000000E+00  0.00000000000E+00 -0.21184774964E+04  0.21184774964E+04  0.50400001928E-02 0. -1.
    10030    2    1    2    0    0  0.00000000000E+00  0.00000000000E+00 -0.59498012581E+03  0.36419748671E+04  0.35930460034E+04 0.  0.
        5    1    3    3  502    0 -0.10212188314E+04  0.51799404988E+03  0.11056537474E+04  0.15917594154E+04  0.46999998093E+01 0.  1.
       -5    1    3    3    0  502  0.10212188314E+04 -0.51799404988E+03 -0.17006338733E+04  0.20502154517E+04  0.46999998093E+01 0. -1.
</event>
<event>
 5   0  0.2422436E-06  0.3023840E+04  0.7818609E-02  0.8236956E-01
        2   -1    0    0  501    0  0.00000000000E+00  0.00000000000E+00  0.21545614514E+04  0.21545614514E+04  0.25500000920E-02 0. -1.
       -2   -1    0    0    0  501  0.00000000000E+00  0.00000000000E+00 -0.10609592034E+04  0.10609592034E+04  0.25500000920E-02 0.  1.
    10030    2    1    2    0    0  0.00000000000E+00  0.00000000000E+00  0.10936022480E+04  0.32155206548E+04  0.30238398113E+04 0.  0.
        2    1    3    3  502    0  0.31991994172E+03 -0.41002082453E+03 -0.96285149258E+03  0.10943257479E+04  0.25500000920E-02 0.  1.
       -2    1    3    3    0  502 -0.31991994172E+03  0.41002082453E+03  0.20564537406E+04  0.21211949069E+04  0.25500000920E-02 0. -1.
</event>
<event>
 5   0  0.2422436E-06  0.3591689E+04  0.7818609E-02  0.8092398E-01
        2   -1    0    0  501    0  0.00000000000E+00  0.00000000000E+00  0.23806122639E+04  0.23806122639E+04  0.25500000920E-02 0. -1.
       -2   -1    0    0    0  501  0.00000000000E+00  0.00000000000E+00 -0.13547179883E+04  0.13547179883E+04  0.25500000920E-02 0.  1.
    10030    2    1    2    0    0  0.00000000000E+00  0.00000000000E+00  0.10258942755E+04  0.37353302522E+04  0.35916894393E+04 0.  0.
        2    1    3    3  502    0  0.60079750240E+02  0.17826307687E+04  0.29560058041E+03  0.18079717191E+04  0.25500000920E-02 0. -1.
       -2    1    3    3    0  502 -0.60079750240E+02 -0.17826307687E+04  0.73029369510E+03  0.19273585331E+04  0.25500000920E-02 0.  1.
</event>
<event>
 5   0  0.1513502E-06  0.3586525E+04  0.7818609E-02  0.8093585E-01
       -2   -1    0    0    0  501  0.00000000000E+00  0.00000000000E+00  0.13610122953E+04  0.13610122953E+04  0.25500000920E-02 0.  1.
        2   -1    0    0  501    0  0.00000000000E+00  0.00000000000E+00 -0.23627936000E+04  0.23627936000E+04  0.25500000920E-02 0. -1.
    10030    2    1    2    0    0  0.00000000000E+00  0.00000000000E+00 -0.10017813047E+04  0.37238058954E+04  0.35865254166E+04 0.  0.
        3    1    3    3  502    0  0.46483543111E+02  0.17898301921E+04 -0.60543380075E+03  0.18900272309E+04  0.10100000352E+00 0. -1.
       -3    1    3    3    0  502 -0.46483543111E+02 -0.17898301921E+04 -0.39634750397E+03  0.18337786645E+04  0.10100000352E+00 0.  1.
</event>
<event>
 5   0  0.1566576E-06  0.3827472E+04  0.7818609E-02  0.8040285E-01
       -2   -1    0    0    0  501  0.00000000000E+00  0.00000000000E+00  0.16709560169E+04  0.16709560169E+04  0.25500000920E-02 0.  1.
        2   -1    0    0  501    0  0.00000000000E+00  0.00000000000E+00 -0.21917901040E+04  0.21917901040E+04  0.25500000920E-02 0. -1.
    10030    2    1    2    0    0  0.00000000000E+00  0.00000000000E+00 -0.52083408711E+03  0.38627461210E+04  0.38274716784E+04 0.  0.
        4    1    3    3  502    0  0.50897547147E+03 -0.11136735135E+04  0.12238714278E+04  0.17312387501E+04  0.12699999809E+01 0.  1.
       -4    1    3    3    0  502 -0.50897547147E+03  0.11136735135E+04 -0.17447055149E+04  0.21315073708E+04  0.12699999809E+01 0. -1.
</event>
<event>
 5   0  0.7754556E-07  0.1935103E+04  0.7818609E-02  0.8637578E-01
        1   -1    0    0  501    0  0.00000000000E+00  0.00000000000E+00  0.23984573061E+04  0.23984573061E+04  0.50400001928E-02 0.  1.
       -1   -1    0    0    0  501  0.00000000000E+00  0.00000000000E+00 -0.39031566475E+03  0.39031566478E+03  0.50400001928E-02 0. -1.
    10030    2    1    2    0    0  0.00000000000E+00  0.00000000000E+00  0.20081416414E+04  0.27887729709E+04  0.19351025377E+04 0.  0.
        4    1    3    3  502    0  0.60074957342E+03 -0.60537054030E+03  0.34557360829E+03  0.92021534038E+03  0.12699999809E+01 0.  1.
       -4    1    3    3    0  502 -0.60074957342E+03  0.60537054030E+03  0.16625680331E+04  0.18685576305E+04  0.12699999809E+01 0. -1.
</event>
<event>
 5   0  0.1566576E-06  0.3370452E+04  0.7818609E-02  0.8145197E-01
        2   -1    0    0  501    0  0.00000000000E+00  0.00000000000E+00  0.19284821088E+04  0.19284821088E+04  0.25500000920E-02 0.  1.
       -2   -1    0    0    0  501  0.00000000000E+00  0.00000000000E+00 -0.14726534953E+04  0.14726534953E+04  0.25500000920E-02 0. -1.
    10030    2    1    2    0    0  0.00000000000E+00  0.00000000000E+00  0.45582861356E+03  0.34011356041E+04  0.33704515532E+04 0.  0.
        4    1    3    3  502    0 -0.12681549857E+04  0.90152638951E+03  0.88112290224E+03  0.17881124351E+04  0.12699999809E+01 0.  1.
       -4    1    3    3    0  502  0.12681549857E+04 -0.90152638951E+03 -0.42529428867E+03  0.16130231690E+04  0.12699999809E+01 0. -1.
</event>
<event>
 5   0  0.8423692E-07  0.1830372E+04  0.7818609E-02  0.8690313E-01
       -1   -1    0    0    0  501  0.00000000000E+00  0.00000000000E+00  0.84652818852E+03  0.84652818853E+03  0.50400001928E-02 0.  1.
        1   -1    0    0  501    0  0.00000000000E+00  0.00000000000E+00 -0.98941235935E+03  0.98941235936E+03  0.50400001928E-02 0. -1.
    10030    2    1    2    0    0  0.00000000000E+00  0.00000000000E+00 -0.14288417083E+03  0.18359405479E+04  0.18303720412E+04 0.  0.
        2    1    3    3  502    0  0.67044645705E+03 -0.51828154615E+03 -0.41811073637E+03  0.94495015780E+03  0.25500000920E-02 0. -1.
       -2    1    3    3    0  502 -0.67044645705E+03  0.51828154615E+03  0.27522656554E+03  0.89099039009E+03  0.25500000920E-02 0.  1.
</event>
<event>
 5   0  0.1566576E-06  0.3434468E+04  0.7818609E-02  0.8129498E-01
        2   -1    0    0  501    0  0.00000000000E+00  0.00000000000E+00  0.15684045640E+04  0.15684045640E+04  0.25500000920E-02 0. -1.
       -2   -1    0    0    0  501  0.00000000000E+00  0.00000000000E+00 -0.18801860332E+04  0.18801860332E+04  0.25500000920E-02 0.  1.
    10030    2    1    2    0    0  0.00000000000E+00  0.00000000000E+00 -0.31178146921E+03  0.34485905972E+04  0.34344678515E+04 0.  0.
        4    1    3    3  502    0 -0.12472351283E+03  0.17061413830E+04 -0.55541015231E+01  0.17107036080E+04  0.12699999809E+01 0. -1.
       -4    1    3    3    0  502  0.12472351283E+03 -0.17061413830E+04 -0.30622736769E+03  0.17378869892E+04  0.12699999809E+01 0.  1.
</event>
<event>
 5   0  0.8452742E-07  0.1813074E+04  0.7818609E-02  0.8699377E-01
       -1   -1    0    0    0  501  0.00000000000E+00  0.00000000000E+00  0.40958095632E+03  0.40958095636E+03  0.50400001928E-02 0.  1.
        1   -1    0    0  501    0  0.00000000000E+00  0.00000000000E+00 -0.20064642671E+04  0.20064642671E+04  0.50400001928E-02 0. -1.
    10030    2    1    2    0    0  0.00000000000E+00  0.00000000000E+00 -0.15968833108E+04  0.24160452235E+04  0.18130742438E+04 0.  0.
        1    1    3    3  502    0  0.45149118512E+03  0.51934476878E+03 -0.12061201729E+02  0.68826503014E+03  0.50400001928E-02 0.  1.
       -1    1    3    3    0  502 -0.45149118512E+03 -0.51934476878E+03 -0.15848221091E+04  0.17277801933E+04  0.50400001928E-02 0. -1.
</event>
<event>
 5   0  0.2536619E-06  0.3683451E+04  0.7818609E-02  0.8071639E-01
        2   -1    0    0  501    0  0.00000000000E+00  0.00000000000E+00  0.20064691886E+04  0.20064691886E+04  0.25500000920E-02 0.  1.
       -2   -1    0    0    0  501  0.00000000000E+00  0.00000000000E+00 -0.16905080284E+04  0.16905080284E+04  0.25500000920E-02 0. -1.
    10030    2    1    2    0    0  0.00000000000E+00  0.00000000000E+00  0.31596116018E+03  0.36969772171E+04  0.36834507040E+04 0.  0.
        1    1    3    3  502    0 -0.88111834291E+03  0.15488408467E+04 -0.30921215829E+03  0.18085601072E+04  0.50400001928E-02 0.  1.
       -1    1    3    3    0  502  0.88111834291E+03 -0.15488408467E+04  0.62517331847E+03  0.18884171098E+04  0.50400001928E-02 0. -1.
</event>
<event>
 5   0  0.1634374E-06  0.3607418E+04  0.7818609E-02  0.8088795E-01
        1   -1    0    0  501    0  0.00000000000E+00  0.00000000000E+00  0.22982246288E+04  0.22982246288E+04  0.50400001928E-02 0. -1.
       -1   -1    0    0    0  501  0.00000000000E+00  0.00000000000E+00 -0.14155998398E+04  0.14155998398E+04  0.50400001928E-02 0.  1.
    10030    2    1    2    0    0  0.00000000000E+00  0.00000000000E+00  0.88262478900E+03  0.37138244687E+04  0.36074181440E+04 0.  0.
        5    1    3    3  502    0 -0.14370188661E+04 -0.60658698236E+03  0.13737733517E+04  0.20785202189E+04  0.46999998093E+01 0. -1.
       -5    1    3    3    0  502  0.14370188661E+04  0.60658698236E+03 -0.49114856267E+03  0.16353042497E+04  0.46999998093E+01 0.  1.
</event>
<event>
 5   0  0.1566576E-06  0.3602918E+04  0.7818609E-02  0.8089824E-01
        2   -1    0    0  501    0  0.00000000000E+00  0.00000000000E+00  0.19649745918E+04  0.19649745918E+04  0.25500000920E-02 0.  1.
       -2   -1    0    0    0  501  0.00000000000E+00  0.00000000000E+00 -0.16515507919E+04  0.16515507919E+04  0.25500000920E-02 0. -1.
    10030    2    1    2    0    0  0.00000000000E+00  0.00000000000E+00  0.31342379995E+03  0.36165253837E+04  0.36029184521E+04 0.  0.
        4    1    3    3  502    0  0.59423726165E+03 -0.73609241657E+03  0.16955718005E+04  0.19416269756E+04  0.12699999809E+01 0.  1.
       -4    1    3    3    0  502 -0.59423726165E+03  0.73609241657E+03 -0.13821480006E+04  0.16748984081E+04  0.12699999809E+01 0. -1.
</event>
<event>
 5   0  0.2536619E-06  0.3040282E+04  0.7818609E-02  0.8232321E-01
       -2   -1    0    0    0  501  0.00000000000E+00  0.00000000000E+00  0.13258723659E+04  0.13258723659E+04  0.25500000920E-02 0. -1.
        2   -1    0    0  501    0  0.00000000000E+00  0.00000000000E+00 -0.17428736096E+04  0.17428736096E+04  0.25500000920E-02 0.  1.
    10030    2    1    2    0    0  0.00000000000E+00  0.00000000000E+00 -0.41700124365E+03  0.30687459755E+04  0.30402815371E+04 0.  0.
        1    1    3    3  502    0  0.73633553429E+03  0.97630034473E+03 -0.11199921077E+04  0.16582324033E+04  0.50400001928E-02 0.  1.
       -1    1    3    3    0  502 -0.73633553429E+03 -0.97630034473E+03  0.70299086406E+03  0.14105135721E+04  0.50400001928E-02 0. -1.
</event>
<event>
 5   0  0.7707500E-07  0.3516969E+04  0.7818609E-02  0.8109780E-01
       -3   -1    0    0    0  501  0.00000000000E+00  0.00000000000E+00  0.22176051377E+04  0.22176051400E+04  0.10100000352E+00 0. -1.
        3   -1    0    0  501    0  0.00000000000E+00  0.00000000000E+00 -0.13944178580E+04  0.13944178617E+04  0.10100000352E+00 0.  1.
    10030    2    1    2    0    0  0.00000000000E+00  0.00000000000E+00  0.82318727964E+03  0.36120230017E+04  0.35169692730E+04 0.  0.
        3    1    3    3  502    0  0.74010859343E+02 -0.64372200511E+03 -0.12673406033E+04  0.14233790227E+04  0.10100000352E+00 0.  1.
       -3    1    3    3    0  502 -0.74010859343E+02  0.64372200511E+03  0.20905278830E+04  0.21886439790E+04  0.10100000352E+00 0. -1.
</event>
<event>
 5   0  0.8423692E-07  0.3561173E+04  0.7818609E-02  0.8099444E-01
        1   -1    0    0  501    0  0.00000000000E+00  0.00000000000E+00  0.22456356795E+04  0.22456356796E+04  0.50400001928E-02 0. -1.
       -1   -1    0    0    0  501  0.00000000000E+00  0.00000000000E+00 -0.14118448095E+04  0.14118448095E+04  0.50400001928E-02 0.  1.
    10030    2    1    2    0    0  0.00000000000E+00  0.00000000000E+00  0.83379087006E+03  0.36574804890E+04  0.35611734460E+04 0.  0.
        2    1    3    3  502    0 -0.47914036218E+03 -0.17094071919E+04  0.55786870145E+03  0.18608777290E+04  0.25500000920E-02 0.  1.
       -2    1    3    3    0  502  0.47914036218E+03  0.17094071919E+04  0.27592216861E+03  0.17966027600E+04  0.25500000920E-02 0. -1.
</event>
<event>
 5   0  0.7707500E-07  0.2986043E+04  0.7818609E-02  0.8247728E-01
        4   -1    0    0  501    0  0.00000000000E+00  0.00000000000E+00  0.21801135080E+04  0.21801138779E+04  0.12699999809E+01 0. -1.
       -4   -1    0    0    0  501  0.00000000000E+00  0.00000000000E+00 -0.10224752014E+04  0.10224759902E+04  0.12699999809E+01 0.  1.
    10030    2    1    2    0    0  0.00000000000E+00  0.00000000000E+00  0.11576383065E+04  0.32025898680E+04  0.29860434381E+04 0.  0.
        4    1    3    3  502    0 -0.30946669025E+03 -0.11513589574E+04 -0.38508604234E+03  0.12528726807E+04  0.12699999809E+01 0.  1.
       -4    1    3    3    0  502  0.30946669025E+03  0.11513589574E+04  0.15427243489E+04  0.19497171873E+04  0.12699999809E+01 0. -1.
</event>
<event>
 5   0  0.1566576E-06  0.3626452E+04  0.7818609E-02  0.8084459E-01
        2   -1    0    0  501    0  0.00000000000E+00  0.00000000000E+00  0.32400034028E+04  0.32400034028E+04  0.25500000920E-02 0. -1.
       -2   -1    0    0    0  501  0.00000000000E+00  0.00000000000E+00 -0.10147482365E+04  0.10147482365E+04  0.25500000920E-02 0.  1.
    10030    2    1    2    0    0  0.00000000000E+00  0.00000000000E+00  0.22252551663E+04  0.42547516393E+04  0.36264515655E+04 0.  0.
        4    1    3    3  502    0  0.55069580100E+03  0.16982708149E+04  0.14843781335E+04  0.23218031101E+04  0.12699999809E+01 0. -1.
       -4    1    3    3    0  502 -0.55069580100E+03 -0.16982708149E+04  0.74087703273E+03  0.19329485292E+04  0.12699999809E+01 0.  1.
</event>
<event>
 5   0  0.2536619E-06  0.2022039E+04  0.7818609E-02  0.8596386E-01
       -2   -1    0    0    0  501  0.00000000000E+00  0.00000000000E+00  0.34173544629E+03  0.34173544630E+03  0.25500000920E-02 0.  1.
        2   -1    0    0  501    0  0.00000000000E+00  0.00000000000E+00 -0.29910855745E+04  0.29910855745E+04  0.25500000920E-02 0. -1.
    10030    2    1    2    0    0  0.00000000000E+00  0.00000000000E+00 -0.26493501282E+04  0.33328210208E+04  0.20220385394E+04 0.  0.
        1    1    3    3  502    0  0.82971127155E+03  0.49940118362E+03 -0.84600832332E+03  0.12859052918E+04  0.50400001928E-02 0.  1.
       -1    1    3    3    0  502 -0.82971127155E+03 -0.49940118362E+03 -0.18033418049E+04  0.20469157290E+04  0.50400001928E-02 0. -1.
</event>
<event>
 5   0  0.7754556E-07  0.3162199E+04  0.7818609E-02  0.8198872E-01
       -1   -1    0    0    0  501  0.00000000000E+00  0.00000000000E+00  0.11136581978E+04  0.11136581979E+04  0.50400001928E-02 0.  1.
        1   -1    0    0  501    0  0.00000000000E+00  0.00000000000E+00 -0.22447417293E+04  0.22447417293E+04  0.50400001928E-02 0. -1.
    10030    2    1    2    0    0  0.00000000000E+00  0.00000000000E+00 -0.11310835315E+04  0.33583999272E+04  0.31621986205E+04 0.  0.
        4    1    3    3  502    0  0.10825914578E+04 -0.83248502374E+03  0.28066144435E+03  0.13942051637E+04  0.12699999809E+01 0.  1.
       -4    1    3    3    0  502 -0.10825914578E+04  0.83248502374E+03 -0.14117449758E+04  0.19641947635E+04  0.12699999809E+01 0. -1.
</event>
<event>
 5   0  0.1513502E-06  0.3646884E+04  0.7818609E-02  0.8079836E-01
        2   -1    0    0  501    0  0.00000000000E+00  0.00000000000E+00  0.25755222759E+04  0.25755222760E+04  0.25500000920E-02 0.  1.
       -2   -1    0    0    0  501  0.00000000000E+00  0.00000000000E+00 -0.12909772835E+04  0.12909772835E+04  0.25500000920E-02 0. -1.
    10030    2    1    2    0    0  0.00000000000E+00  0.00000000000E+00  0.12845449925E+04  0.38664995594E+04  0.36468840132E+04 0.  0.
        3    1    3    3  502    0  0.18486546732E+03 -0.13090702766E+04  0.19737250659E+04  0.23755906373E+04  0.10100000352E+00 0.  1.
       -3    1    3    3    0  502 -0.18486546732E+03  0.13090702766E+04 -0.68918007347E+03  0.14909089221E+04  0.10100000352E+00 0. -1.
</event>
<event>
 5   0  0.8423692E-07  0.2010985E+04  0.7818609E-02  0.8601502E-01
        1   -1    0    0  501    0  0.00000000000E+00  0.00000000000E+00  0.13619324230E+04  0.13619324231E+04  0.50400001928E-02 0.  1.
       -1   -1    0    0    0  501  0.00000000000E+00  0.00000000000E+00 -0.74233880315E+03  0.74233880317E+03  0.50400001928E-02 0. -1.
    10030    2    1    2    0    0  0.00000000000E+00  0.00000000000E+00  0.61959361989E+03  0.21042712262E+04  0.20109851167E+04 0.  0.
        2    1    3    3  502    0 -0.34130348578E+03  0.53880189794E+03  0.11231708583E+04  0.12916301064E+04  0.25500000920E-02 0.  1.
       -2    1    3    3    0  502  0.34130348578E+03 -0.53880189794E+03 -0.50357723844E+03  0.81264111987E+03  0.25500000920E-02 0. -1.
</event>
<event>
 5   0  0.8452742E-07  0.2265884E+04  0.7818609E-02  0.8491495E-01
        1   -1    0    0  501    0  0.00000000000E+00  0.00000000000E+00  0.12049531215E+04  0.12049531215E+04  0.50400001928E-02 0. -1.
       -1   -1    0    0    0  501  0.00000000000E+00  0.00000000000E+00 -0.10652343901E+04  0.10652343901E+04  0.50400001928E-02 0.  1.
    10030    2    1    2    0    0  0.00000000000E+00  0.00000000000E+00  0.13971873140E+03  0.22701875117E+04  0.22658839366E+04 0.  0.
        1    1    3    3  502    0  0.51882312577E+03 -0.95801477257E+03 -0.24151662626E+03  0.11159301148E+04  0.50400001928E-02 0.  1.
       -1    1    3    3    0  502 -0.51882312577E+03  0.95801477257E+03  0.38123535766E+03  0.11542573969E+04  0.50400001928E-02 0. -1.
</event>
<event>
 5   0  0.2382711E-06  0.3662583E+04  0.7818609E-02  0.8076305E-01
       -2   -1    0    0    0  501  0.00000000000E+00  0.00000000000E+00  0.22108019392E+04  0.22108019392E+04  0.25500000920E-02 0.  1.
        2   -1    0    0  501    0  0.00000000000E+00  0.00000000000E+00 -0.15169284929E+04  0.15169284929E+04  0.25500000920E-02 0. -1.
    10030    2    1    2    0    0  0.00000000000E+00  0.00000000000E+00  0.69387344631E+03  0.37277304322E+04  0.36625829432E+04 0.  0.
        5    1    3    3  502    0 -0.91012603199E+03  0.14338179004E+04  0.10442831117E+04  0.19936680950E+04  0.46999998093E+01 0.  1.
       -5    1    3    3    0  502  0.91012603199E+03 -0.14338179004E+04 -0.35040966542E+03  0.17340623372E+04  0.46999998093E+01 0. -1.
</event>
<event>
 5   0  0.1777795E-06  0.1782415E+04  0.7818609E-02  0.8715707E-01
       -2   -1    0    0    0  501  0.00000000000E+00  0.00000000000E+00  0.51065511194E+03  0.51065511194E+03  0.25500000920E-02 0. -1.
        2   -1    0    0  501    0  0.00000000000E+00  0.00000000000E+00 -0.15553559966E+04  0.15553559966E+04  0.25500000920E-02 0.  1.
    10030    2    1    2    0    0  0.00000000000E+00  0.00000000000E+00 -0.10447008847E+04  0.20660111086E+04  0.17824146438E+04 0.  0.
        4    1    3    3  502    0 -0.68609634883E+03  0.42851465716E+03 -0.95588762587E+03  0.12522283248E+04  0.12699999809E+01 0.  1.
       -4    1    3    3    0  502  0.68609634883E+03 -0.42851465716E+03 -0.88813258819E+02  0.81378278375E+03  0.12699999809E+01 0. -1.
</event>
<event>
 5   0  0.7754556E-07  0.3552306E+04  0.7818609E-02  0.8101505E-01
        1   -1    0    0  501    0  0.00000000000E+00  0.00000000000E+00  0.21784589714E+04  0.21784589714E+04  0.50400001928E-02 0.  1.
       -1   -1    0    0    0  501  0.00000000000E+00  0.00000000000E+00 -0.14481426604E+04  0.14481426604E+04  0.50400001928E-02 0. -1.
    10030    2    1    2    0    0  0.00000000000E+00  0.00000000000E+00  0.73031631098E+03  0.36266016318E+04  0.35523059386E+04 0.  0.
        4    1    3    3  502    0 -0.39888019614E+02 -0.10516486555E+04 -0.10955571377E+04  0.15191454846E+04  0.12699999809E+01 0. -1.
       -4    1    3    3    0  502  0.39888019614E+02  0.10516486555E+04  0.18258734487E+04  0.21074561472E+04  0.12699999809E+01 0.  1.
</event>
<event>
 5   0  0.8452742E-07  0.3611700E+04  0.7818609E-02  0.8087817E-01
        1   -1    0    0  501    0  0.00000000000E+00  0.00000000000E+00  0.17819565265E+04  0.17819565265E+04  0.50400001928E-02 0. -1.
       -1   -1    0    0    0  501  0.00000000000E+00  0.00000000000E+00 -0.18300634416E+04  0.18300634416E+04  0.50400001928E-02 0.  1.
    10030    2    1    2    0    0  0.00000000000E+00  0.00000000000E+00 -0.48106915021E+02  0.36120199681E+04  0.36116995964E+04 0.  0.
        1    1    3    3  502    0 -0.29460146894E+03  0.92133904048E+03 -0.15491273605E+04  0.18263217767E+04  0.50400001928E-02 0.  1.
       -1    1    3    3    0  502  0.29460146894E+03 -0.92133904048E+03  0.15010204455E+04  0.17856981914E+04  0.50400001928E-02 0. -1.
</event>
<event>
 5   0  0.2422436E-06  0.2889701E+04  0.7818609E-02  0.8275948E-01
        2   -1    0    0  501    0  0.00000000000E+00  0.00000000000E+00  0.22771587906E+04  0.22771587906E+04  0.25500000920E-02 0.  1.
       -2   -1    0    0    0  501  0.00000000000E+00  0.00000000000E+00 -0.91675312755E+03  0.91675312756E+03  0.25500000920E-02 0. -1.
    10030    2    1    2    0    0  0.00000000000E+00  0.00000000000E+00  0.13604056630E+04  0.31939119181E+04  0.28897006372E+04 0.  0.
        2    1    3    3  502    0 -0.93736134386E+03  0.35477191131E+03  0.18304759218E+04  0.20868999732E+04  0.25500000920E-02 0.  1.
       -2    1    3    3    0  502  0.93736134386E+03 -0.35477191131E+03 -0.47007025875E+03  0.11070119449E+04  0.25500000920E-02 0. -1.
</event>
<event>
 5   0  0.1566576E-06  0.4202810E+04  0.7818609E-02  0.7964838E-01
        2   -1    0    0  501    0  0.00000000000E+00  0.00000000000E+00  0.24892377070E+04  0.24892377071E+04  0.25500000920E-02 0. -1.
       -2   -1    0    0    0  501  0.00000000000E+00  0.00000000000E+00 -0.17739978064E+04  0.17739978064E+04  0.25500000920E-02 0.  1.
    10030    2    1    2    0    0  0.00000000000E+00  0.00000000000E+00  0.71523990066E+03  0.42632355134E+04  0.42028096468E+04 0.  0.
        4    1    3    3  502    0  0.34623428761E+03 -0.12364710469E+04 -0.13297755257E+04  0.18485246532E+04  0.12699999809E+01 0.  1.
       -4    1    3    3    0  502 -0.34623428761E+03  0.12364710469E+04  0.20450154263E+04  0.24147108603E+04  0.12699999809E+01 0. -1.
</event>
<event>
 5   0  0.1634374E-06  0.3062757E+04  0.7818609E-02  0.8226034E-01
       -1   -1    0    0    0  501  0.00000000000E+00  0.00000000000E+00  0.13256304270E+04  0.13256304270E+04  0.50400001928E-02 0. -1.
        1   -1    0    0  501    0  0.00000000000E+00  0.00000000000E+00 -0.17690604509E+04  0.17690604510E+04  0.50400001928E-02 0.  1.
    10030    2    1    2    0    0  0.00000000000E+00  0.00000000000E+00 -0.44343002392E+03  0.30946908780E+04  0.30627571638E+04 0.  0.
        5    1    3    3  502    0 -0.70559618259E+03  0.76989023092E+03  0.91000833050E+03  0.13851838117E+04  0.46999998093E+01 0. -1.
       -5    1    3    3    0  502  0.70559618259E+03 -0.76989023092E+03 -0.13534383544E+04  0.17095070663E+04  0.46999998093E+01 0.  1.
</event>
<event>
 5   0  0.1566576E-06  0.2535309E+04  0.7818609E-02  0.8390513E-01
        2   -1    0    0  501    0  0.00000000000E+00  0.00000000000E+00  0.12348036449E+04  0.12348036449E+04  0.25500000920E-02 0.  1.
       -2   -1    0    0    0  501  0.00000000000E+00  0.00000000000E+00 -0.13013791664E+04  0.13013791664E+04  0.25500000920E-02 0. -1.
    10030    2    1    2    0    0  0.00000000000E+00  0.00000000000E+00 -0.66575521422E+02  0.25361828113E+04  0.25353088475E+04 0.  0.
        4    1    3    3  502    0  0.13264948521E+03  0.57988490500E+03 -0.11530858690E+04  0.12974864250E+04  0.12699999809E+01 0. -1.
       -4    1    3    3    0  502 -0.13264948521E+03 -0.57988490500E+03  0.10865103476E+04  0.12386963862E+04  0.12699999809E+01 0.  1.
</event>
<event>
 5   0  0.2382711E-06  0.3593800E+04  0.7818609E-02  0.8091913E-01
       -2   -1    0    0    0  501  0.00000000000E+00  0.00000000000E+00  0.11973459001E+04  0.11973459001E+04  0.25500000920E-02 0. -1.
        2   -1    0    0  501    0  0.00000000000E+00  0.00000000000E+00 -0.26966728942E+04  0.26966728942E+04  0.25500000920E-02 0.  1.
    10030    2    1    2    0    0  0.00000000000E+00  0.00000000000E+00 -0.14993269941E+04  0.38940187943E+04  0.35938003471E+04 0.  0.
        5    1    3    3  502    0  0.95634197370E+03  0.98681163163E+03  0.50482864350E+03  0.14639881203E+04  0.46999998093E+01 0. -1.
       -5    1    3    3    0  502 -0.95634197370E+03 -0.98681163163E+03 -0.20041556376E+04  0.24300306740E+04  0.46999998093E+01 0.  1.
</event>
<event>
 5   0  0.1513502E-06  0.3529093E+04  0.7818609E-02  0.8106930E-01
       -2   -1    0    0    0  501  0.00000000000E+00  0.00000000000E+00  0.18424838497E+04  0.18424838497E+04  0.25500000920E-02 0. -1.
        2   -1    0    0  501    0  0.00000000000E+00  0.00000000000E+00 -0.16899062552E+04  0.16899062552E+04  0.25500000920E-02 0.  1.
    10030    2    1    2    0    0  0.00000000000E+00  0.00000000000E+00  0.15257759444E+03  0.35323901049E+04  0.35290933582E+04 0.  0.
        3    1    3    3  502    0  0.15879950845E+04 -0.34037256431E+03  0.76689209892E+03  0.17960248808E+04  0.10100000352E+00 0. -1.
       -3    1    3    3    0  502 -0.15879950845E+04  0.34037256431E+03 -0.61431450448E+03  0.17363652241E+04  0.10100000352E+00 0.  1.
</event>
<event>
 5   0  0.8423692E-07  0.2487488E+04  0.7818609E-02  0.8407457E-01
       -1   -1    0    0    0  501  0.00000000000E+00  0.00000000000E+00  0.62965328185E+03  0.62965328187E+03  0.50400001928E-02 0.  1.
        1   -1    0    0  501    0  0.00000000000E+00  0.00000000000E+00 -0.24567470191E+04  0.24567470191E+04  0.50400001928E-02 0. -1.
    10030    2    1    2    0    0  0.00000000000E+00  0.00000000000E+00 -0.18270937373E+04  0.30864003010E+04  0.24874877473E+04 0.  0.
        2    1    3    3  502    0 -0.61346998822E+03  0.93726869914E+03 -0.24297891590E+03  0.11462359244E+04  0.25500000920E-02 0.  1.
       -2    1    3    3    0  502  0.61346998822E+03 -0.93726869914E+03 -0.15841148214E+04  0.19401643766E+04  0.25500000920E-02 0. -1.
</event>
<event>
 5   0  0.2536619E-06  0.3371457E+04  0.7818609E-02  0.8144948E-01
        2   -1    0    0  501    0  0.00000000000E+00  0.00000000000E+00  0.30163070347E+04  0.30163070347E+04  0.25500000920E-02 0.  1.
       -2   -1    0    0    0  501  0.00000000000E+00  0.00000000000E+00 -0.94210566896E+03  0.94210566896E+03  0.25500000920E-02 0. -1.
    10030    2    1    2    0    0  0.00000000000E+00  0.00000000000E+00  0.20742013658E+04  0.39584127037E+04  0.33714566328E+04 0.  0.
        1    1    3    3  502    0 -0.11237965911E+04  0.11152932415E+04  0.35766319910E+03  0.16231822931E+04  0.50400001928E-02 0. -1.
       -1    1    3    3    0  502  0.11237965911E+04 -0.11152932415E+04  0.17165381667E+04  0.23352304106E+04  0.50400001928E-02 0.  1.
</event>
<event>
 5   0  0.2382711E-06  0.3648353E+04  0.7818609E-02  0.8079505E-01
       -2   -1    0    0    0  501  0.00000000000E+00  0.00000000000E+00  0.14620788236E+04  0.14620788236E+04  0.25500000920E-02 0. -1.
        2   -1    0    0  501    0  0.00000000000E+00  0.00000000000E+00 -0.22759513948E+04  0.22759513948E+04  0.25500000920E-02 0.  1.
    10030    2    1    2    0    0  0.00000000000E+00  0.00000000000E+00 -0.81387257125E+03  0.37380302184E+04  0.36483532383E+04 0.  0.
        5    1    3    3  502    0 -0.45670353129E+03  0.14731592210E+04  0.59108156656E+03  0.16517190179E+04  0.46999998093E+01 0. -1.
       -5    1    3    3    0  502  0.45670353129E+03 -0.14731592210E+04 -0.14049541378E+04  0.20863112005E+04  0.46999998093E+01 0.  1.
</event>
<event>
 5   0  0.2422436E-06  0.3645069E+04  0.7818609E-02  0.8080245E-01
        2   -1    0    0  501    0  0.00000000000E+00  0.00000000000E+00  0.19634815145E+04  0.19634815145E+04  0.25500000920E-02 0. -1.
       -2   -1    0    0    0  501  0.00000000000E+00  0.00000000000E+00 -0.16917055709E+04  0.16917055709E+04  0.25500000920E-02 0.  1.
    10030    2    1    2    0    0  0.00000000000E+00  0.00000000000E+00  0.27177594362E+03  0.36551870854E+04  0.36450693362E+04 0.  0.
        2    1    3    3  502    0  0.13772482293E+04 -0.88478338782E+03  0.93934746567E+03  0.18873335661E+04  0.25500000920E-02 0. -1.
       -2    1    3    3    0  502 -0.13772482293E+04  0.88478338782E+03 -0.66757152205E+03  0.17678535193E+04  0.25500000920E-02 0.  1.
</event>
<event>
 5   0  0.1566576E-06  0.1978862E+04  0.7818609E-02  0.8616568E-01
        2   -1    0    0  501    0  0.00000000000E+00  0.00000000000E+00  0.15555719149E+04  0.15555719149E+04  0.25500000920E-02 0. -1.
       -2   -1    0    0    0  501  0.00000000000E+00  0.00000000000E+00 -0.62933364386E+03  0.62933364387E+03  0.25500000920E-02 0.  1.
    10030    2    1    2    0    0  0.00000000000E+00  0.00000000000E+00  0.92623827099E+03  0.21849055587E+04  0.19788620381E+04 0.  0.
        4    1    3    3  502    0 -0.11404876752E+03  0.92876649404E+03  0.10815146956E+03  0.94197275708E+03  0.12699999809E+01 0. -1.
       -4    1    3    3    0  502  0.11404876752E+03 -0.92876649404E+03  0.81808680144E+03  0.12429328016E+04  0.12699999809E+01 0.  1.
</event>
<event>
 5   0  0.1513502E-06  0.3562818E+04  0.7818609E-02  0.8099062E-01
        2   -1    0    0  501    0  0.00000000000E+00  0.00000000000E+00  0.27745928644E+04  0.27745928644E+04  0.25500000920E-02 0.  1.
       -2   -1    0    0    0  501  0.00000000000E+00  0.00000000000E+00 -0.11437418113E+04  0.11437418113E+04  0.25500000920E-02 0. -1.
    10030    2    1    2    0    0  0.00000000000E+00  0.00000000000E+00  0.16308510531E+04  0.39183346757E+04  0.35628179119E+04 0.  0.
        3    1    3    3  502    0  0.50642712249E+03  0.83371283336E+03 -0.82390849366E+03  0.12768597163E+04  0.10100000352E+00 0. -1.
       -3    1    3    3    0  502 -0.50642712249E+03 -0.83371283336E+03  0.24547595467E+04  0.26414749595E+04  0.10100000352E+00 0.  1.
</event>
<event>
 5   0  0.7754556E-07  0.3283794E+04  0.7818609E-02  0.8167031E-01
        1   -1    0    0  501    0  0.00000000000E+00  0.00000000000E+00  0.22237033212E+04  0.22237033212E+04  0.50400001928E-02 0.  1.
       -1   -1    0    0    0  501  0.00000000000E+00  0.00000000000E+00 -0.12123137244E+04  0.12123137244E+04  0.50400001928E-02 0. -1.
    10030    2    1    2    0    0  0.00000000000E+00  0.00000000000E+00  0.10113895968E+04  0.34360170456E+04  0.32837941807E+04 0.  0.
        4    1    3    3  502    0  0.13558521916E+04  0.60325964280E+03 -0.22941544352E+03  0.15016292554E+04  0.12699999809E+01 0.  1.
       -4    1    3    3    0  502 -0.13558521916E+04 -0.60325964280E+03  0.12408050403E+04  0.19343877902E+04  0.12699999809E+01 0. -1.
</event>
<event>
 5   0  0.2382711E-06  0.3549465E+04  0.7818609E-02  0.8102166E-01
       -2   -1    0    0    0  501  0.00000000000E+00  0.00000000000E+00  0.22333197464E+04  0.22333197464E+04  0.25500000920E-02 0.  1.
        2   -1    0    0  501    0  0.00000000000E+00  0.00000000000E+00 -0.14103111574E+04  0.14103111574E+04  0.25500000920E-02 0. -1.
    10030    2    1    2    0    0  0.00000000000E+00  0.00000000000E+00  0.82300858905E+03  0.36436309038E+04  0.35494651746E+04 0.  0.
        5    1    3    3  502    0 -0.14250050311E+04 -0.10577607215E+04  0.39865897782E+03  0.18189140038E+04  0.46999998093E+01 0. -1.
       -5    1    3    3    0  502  0.14250050311E+04  0.10577607215E+04  0.42434961123E+03  0.18247169000E+04  0.46999998093E+01 0.  1.
</event>
<event>
 5   0  0.1513502E-06  0.2324682E+04  0.7818609E-02  0.8468252E-01
       -2   -1    0    0    0  501  0.00000000000E+00  0.00000000000E+00  0.14803524387E+04  0.14803524387E+04  0.25500000920E-02 0. -1.
        2   -1    0    0  501    0  0.00000000000E+00  0.00000000000E+00 -0.91264540840E+03  0.91264540840E+03  0.25500000920E-02 0.  1.
    10030    2    1    2    0    0  0.00000000000E+00  0.00000000000E+00  0.56770703026E+03  0.23929978471E+04  0.23246822200E+04 0.  0.
        3    1    3    3  502    0 -0.60786911648E+03 -0.59896947399E+03  0.10962007419E+04  0.13892175389E+04  0.10100000352E+00 0. -1.
       -3    1    3    3    0  502  0.60786911648E+03  0.59896947399E+03 -0.52849371169E+03  0.10037803082E+04  0.10100000352E+00 0.  1.
</event>
<event>
 5   0  0.8452742E-07  0.2479433E+04  0.7818609E-02  0.8410350E-01
        1   -1    0    0  501    0  0.00000000000E+00  0.00000000000E+00  0.12521552466E+04  0.12521552466E+04  0.50400001928E-02 0.  1.
       -1   -1    0    0    0  501  0.00000000000E+00  0.00000000000E+00 -0.12274009669E+04  0.12274009670E+04  0.50400001928E-02 0. -1.
    10030    2    1    2    0    0  0.00000000000E+00  0.00000000000E+00  0.24754279658E+02  0.24795562136E+04  0.24794326452E+04 0.  0.
        1    1    3    3  502    0  0.11581769180E+04  0.19876352609E+03 -0.38263096002E+03  0.12358346023E+04  0.50400001928E-02 0. -1.
       -1    1    3    3    0  502 -0.11581769180E+04 -0.19876352609E+03  0.40738523967E+03  0.12437216112E+04  0.50400001928E-02 0.  1.
</event>
<event>
 5   0  0.1566576E-06  0.3385391E+04  0.7818609E-02  0.8141501E-01
       -2   -1    0    0    0  501  0.00000000000E+00  0.00000000000E+00  0.11474544470E+04  0.11474544470E+04  0.25500000920E-02 0. -1.
        2   -1    0    0  501    0  0.00000000000E+00  0.00000000000E+00 -0.24970211441E+04  0.24970211441E+04  0.25500000920E-02 0.  1.
    10030    2    1    2    0    0  0.00000000000E+00  0.00000000000E+00 -0.13495666971E+04  0.36444755912E+04  0.33853909767E+04 0.  0.
        4    1    3    3  502    0 -0.16190482359E+03 -0.12674486417E+04 -0.18699632290E+04  0.22648186068E+04  0.12699999809E+01 0.  1.
       -4    1    3    3    0  502  0.16190482359E+03  0.12674486417E+04  0.52039653191E+03  0.13796569843E+04  0.12699999809E+01 0. -1.
</event>
<event>
 5   0  0.7754556E-07  0.1876054E+04  0.7818609E-02  0.8666868E-01
       -1   -1    0    0    0  501  0.00000000000E+00  0.00000000000E+00  0.72835986221E+03  0.72835986222E+03  0.50400001928E-02 0. -1.
        1   -1    0    0  501    0  0.00000000000E+00  0.00000000000E+00 -0.12080498493E+04  0.12080498493E+04  0.50400001928E-02 0.  1.
    10030    2    1    2    0    0  0.00000000000E+00  0.00000000000E+00 -0.47968998706E+03  0.19364097115E+04  0.18760543934E+04 0.  0.
        4    1    3    3  502    0 -0.82163527262E+03 -0.52332587955E+02 -0.70382893384E+03  0.10831435740E+04  0.12699999809E+01 0.  1.
       -4    1    3    3    0  502  0.82163527262E+03  0.52332587955E+02  0.22413894678E+03  0.85326613746E+03  0.12699999809E+01 0. -1.
</event>
<event>
 5   0  0.1566576E-06  0.3581426E+04  0.7818609E-02  0.8094759E-01
       -2   -1    0    0    0  501  0.00000000000E+00  0.00000000000E+00  0.15695063647E+04  0.15695063647E+04  0.25500000920E-02 0.  1.
        2   -1    0    0  501    0  0.00000000000E+00  0.00000000000E+00 -0.20430970973E+04  0.20430970973E+04  0.25500000920E-02 0. -1.
    10030    2    1    2    0    0  0.00000000000E+00  0.00000000000E+00 -0.47359073263E+03  0.36126034619E+04  0.35814264743E+04 0.  0.
        4    1    3    3  502    0 -0.67361935373E+03  0.44886019187E+03 -0.18480148408E+04  0.20175229789E+04  0.12699999809E+01 0. -1.
       -4    1    3    3    0  502  0.67361935373E+03 -0.44886019187E+03  0.13744241081E+04  0.15950804831E+04  0.12699999809E+01 0.  1.
</event>
<event>
 5   0  0.2536619E-06  0.3478539E+04  0.7818609E-02  0.8118895E-01
        2   -1    0    0  501    0  0.00000000000E+00  0.00000000000E+00  0.19927383837E+04  0.19927383837E+04  0.25500000920E-02 0. -1.
       -2   -1    0    0    0  501  0.00000000000E+00  0.00000000000E+00 -0.15180404912E+04  0.15180404913E+04  0.25500000920E-02 0.  1.
    10030    2    1    2    0    0  0.00000000000E+00  0.00000000000E+00  0.47469789246E+03  0.35107788750E+04  0.34785385178E+04 0.  0.
        1    1    3    3  502    0 -0.88665153437E+03 -0.64397049322E+03 -0.11258018797E+04  0.15710756863E+04  0.50400001928E-02 0.  1.
       -1    1    3    3    0  502  0.88665153437E+03  0.64397049322E+03  0.16004997722E+04  0.19397031887E+04  0.50400001928E-02 0. -1.
</event>
<event>
 5   0  0.1513502E-06  0.3180114E+04  0.7818609E-02  0.8194089E-01
        2   -1    0    0  501    0  0.00000000000E+00  0.00000000000E+00  0.18116121875E+04  0.18116121875E+04  0.25500000920E-02 0. -1.
       -2   -1    0    0    0  501  0.00000000000E+00  0.00000000000E+00 -0.13955973752E+04  0.13955973752E+04  0.25500000920E-02 0.  1.
    10030    2    1    2    0    0  0.00000000000E+00  0.00000000000E+00  0.41601481229E+03  0.32072095627E+04  0.31801139689E+04 0.  0.
        3    1    3    3  502    0  0.62434076148E+03 -0.14072995159E+04 -0.19285612940E+03  0.15516078148E+04  0.10100000352E+00 0.  1.
       -3    1    3    3    0  502 -0.62434076148E+03  0.14072995159E+04  0.60887094169E+03  0.16556017480E+04  0.10100000352E+00 0. -1.
</event>
<event>
 5   0  0.1513502E-06  0.3435012E+04  0.7818609E-02  0.8129366E-01
        2   -1    0    0  501    0  0.00000000000E+00  0.00000000000E+00  0.13870143987E+04  0.13870143987E+04  0.25500000920E-02 0. -1.
       -2   -1    0    0    0  501  0.00000000000E+00  0.00000000000E+00 -0.21267457063E+04  0.21267457063E+04  0.25500000920E-02 0.  1.
    10030    2    1    2    0    0  0.00000000000E+00  0.00000000000E+00 -0.73973130766E+03  0.35137601050E+04  0.34350120332E+04 0.  0.
        3    1    3    3  502    0 -0.12248658654E+04 -0.10038555071E+03 -0.15971427478E+04  0.20152515015E+04  0.10100000352E+00 0.  1.
       -3    1    3    3    0  502  0.12248658654E+04  0.10038555071E+03  0.85741144014E+03  0.14985086036E+04  0.10100000352E+00 0. -1.
</event>
<event>
 5   0  0.8423692E-07  0.3600243E+04  0.7818609E-02  0.8090436E-01
        1   -1    0    0  501    0  0.00000000000E+00  0.00000000000E+00  0.12443349668E+04  0.12443349668E+04  0.50400001928E-02 0.  1.
       -1   -1    0    0    0  501  0.00000000000E+00  0.00000000000E+00 -0.26041524906E+04  0.26041524906E+04  0.50400001928E-02 0. -1.
    10030    2    1    2    0    0  0.00000000000E+00  0.00000000000E+00 -0.13598175238E+04  0.38484874574E+04  0.36002433267E+04 0.  0.
        2    1    3    3  502    0 -0.11266759011E+04  0.35385265995E+03 -0.21322002847E+04  0.24373937608E+04  0.25500000920E-02 0. -1.
       -2    1    3    3    0  502  0.11266759011E+04 -0.35385265995E+03  0.77238276093E+03  0.14110936966E+04  0.25500000920E-02 0.  1.
</event>
<event>
 5   0  0.8452742E-07  0.1956820E+04  0.7818609E-02  0.8627079E-01
        1   -1    0    0  501    0  0.00000000000E+00  0.00000000000E+00  0.17986330843E+04  0.17986330843E+04  0.50400001928E-02 0. -1.
       -1   -1    0    0    0  501  0.00000000000E+00  0.00000000000E+00 -0.53222969353E+03  0.53222969355E+03  0.50400001928E-02 0.  1.
    10030    2    1    2    0    0  0.00000000000E+00  0.00000000000E+00  0.12664033908E+04  0.23308627778E+04  0.19568198029E+04 0.  0.
        1    1    3    3  502    0  0.40170806543E+03 -0.60232373584E+02 -0.42704659933E+03  0.58937772836E+03  0.50400001928E-02 0.  1.
       -1    1    3    3    0  502 -0.40170806543E+03  0.60232373584E+02  0.16934499901E+04  0.17414850495E+04  0.50400001928E-02 0. -1.
</event>
<event>
 5   0  0.2382711E-06  0.3547879E+04  0.7818609E-02  0.8102536E-01
        2   -1    0    0  501    0  0.00000000000E+00  0.00000000000E+00  0.18779895995E+04  0.18779895995E+04  0.25500000920E-02 0. -1.
       -2   -1    0    0    0  501  0.00000000000E+00  0.00000000000E+00 -0.16756545922E+04  0.16756545922E+04  0.25500000920E-02 0.  1.
    10030    2    1    2    0    0  0.00000000000E+00  0.00000000000E+00  0.20233500729E+03  0.35536441916E+04  0.35478793082E+04 0.  0.
        5    1    3    3  502    0  0.38618506666E+03 -0.14951309053E+04  0.97567521273E+03  0.18266142287E+04  0.46999998093E+01 0. -1.
       -5    1    3    3    0  502 -0.38618506666E+03  0.14951309053E+04 -0.77334020544E+03  0.17270299630E+04  0.46999998093E+01 0.  1.
</event>
<event>
 5   0  0.7754556E-07  0.3636203E+04  0.7818609E-02  0.8082249E-01
        1   -1    0    0  501    0  0.00000000000E+00  0.00000000000E+00  0.16580136267E+04  0.16580136267E+04  0.50400001928E-02 0.  1.
       -1   -1    0    0    0  501  0.00000000000E+00  0.00000000000E+00 -0.19936467031E+04  0.19936467031E+04  0.50400001928E-02 0. -1.
    10030    2    1    2    0    0  0.00000000000E+00  0.00000000000E+00 -0.33563307645E+03  0.36516603298E+04  0.36362031850E+04 0.  0.
        4    1    3    3  502    0 -0.59519500497E+03  0.15695572350E+04  0.53352512879E+03  0.17613681285E+04  0.12699999809E+01 0.  1.
       -4    1    3    3    0  502  0.59519500497E+03 -0.15695572350E+04 -0.86915820524E+03  0.18902922014E+04  0.12699999809E+01 0. -1.
</event>
<event>
 5   0  0.1566576E-06  0.3355883E+04  0.7818609E-02  0.8148820E-01
       -2   -1    0    0    0  501  0.00000000000E+00  0.00000000000E+00  0.13906712044E+04  0.13906712044E+04  0.25500000920E-02 0. -1.
        2   -1    0    0  501    0  0.00000000000E+00  0.00000000000E+00 -0.20245527840E+04  0.20245527840E+04  0.25500000920E-02 0.  1.
    10030    2    1    2    0    0  0.00000000000E+00  0.00000000000E+00 -0.63388157968E+03  0.34152239884E+04  0.33558827503E+04 0.  0.
        4    1    3    3  502    0 -0.82559356102E+03  0.56345466283E+03 -0.16885112766E+04  0.19621819052E+04  0.12699999809E+01 0.  1.
       -4    1    3    3    0  502  0.82559356102E+03 -0.56345466283E+03  0.10546296969E+04  0.14530420832E+04  0.12699999809E+01 0. -1.
</event>
<event>
 5   0  0.8452742E-07  0.3562398E+04  0.7818609E-02  0.8099160E-01
        1   -1    0    0  501    0  0.00000000000E+00  0.00000000000E+00  0.22309678915E+04  0.22309678915E+04  0.50400001928E-02 0.  1.
       -1   -1    0    0    0  501  0.00000000000E+00  0.00000000000E+00 -0.14221048393E+04  0.14221048393E+04  0.50400001928E-02 0. -1.
    10030    2    1    2    0    0  0.00000000000E+00  0.00000000000E+00  0.80886305220E+03  0.36530727307E+04  0.35623982005E+04 0.  0.
        1    1    3    3  502    0 -0.10412729026E+04  0.14013533563E+04  0.42416402550E+02  0.17463790076E+04  0.50400001928E-02 0. -1.
       -1    1    3    3    0  502  0.10412729026E+04 -0.14013533563E+04  0.76644664965E+03  0.19066937231E+04  0.50400001928E-02 0.  1.
</event>
<event>
 5   0  0.2422436E-06  0.3277117E+04  0.7818609E-02  0.8168743E-01
       -2   -1    0    0    0  501  0.00000000000E+00  0.00000000000E+00  0.13792184982E+04  0.13792184982E+04  0.25500000920E-02 0. -1.
        2   -1    0    0  501    0  0.00000000000E+00  0.00000000000E+00 -0.19466630479E+04  0.19466630479E+04  0.25500000920E-02 0.  1.
    10030    2    1    2    0    0  0.00000000000E+00  0.00000000000E+00 -0.56744454966E+03  0.33258815461E+04  0.32771168337E+04 0.  0.
        2    1    3    3  502    0 -0.10287006834E+04  0.10439407399E+04  0.45987159066E+03  0.15360726690E+04  0.25500000920E-02 0. -1.
       -2    1    3    3    0  502  0.10287006834E+04 -0.10439407399E+04 -0.10273161403E+04  0.17898088771E+04  0.25500000920E-02 0.  1.
</event>
<event>
 5   0  0.1634374E-06  0.3568776E+04  0.7818609E-02  0.8097682E-01
        1   -1    0    0  501    0  0.00000000000E+00  0.00000000000E+00  0.28518180194E+04  0.28518180194E+04  0.50400001928E-02 0.  1.
       -1   -1    0    0    0  501  0.00000000000E+00  0.00000000000E+00 -0.11164951614E+04  0.11164951615E+04  0.50400001928E-02 0. -1.
    10030    2    1    2    0    0  0.00000000000E+00  0.00000000000E+00  0.17353228579E+04  0.39683131808E+04  0.35687762720E+04 0.  0.
        5    1    3    3  502    0  0.10070437772E+04  0.63815759939E+03 -0.60861611444E+03  0.13385880456E+04  0.46999998093E+01 0. -1.
       -5    1    3    3    0  502 -0.10070437772E+04 -0.63815759939E+03  0.23439389724E+04  0.26297251353E+04  0.46999998093E+01 0.  1.
</event>
<event>
 5   0  0.1566576E-06  0.1938230E+04  0.7818609E-02  0.8636057E-01
       -2   -1    0    0    0  501  0.00000000000E+00  0.00000000000E+00  0.86095293284E+03  0.86095293285E+03  0.25500000920E-02 0. -1.
        2   -1    0    0  501    0  0.00000000000E+00  0.00000000000E+00 -0.10908659416E+04  0.10908659416E+04  0.25500000920E-02 0.  1.
    10030    2    1    2    0    0  0.00000000000E+00  0.00000000000E+00 -0.22991300876E+03  0.19518188745E+04  0.19382303596E+04 0.  0.
        4    1    3    3  502    0  0.59100348226E+03 -0.66771079753E+03 -0.49716955836E+03  0.10209319311E+04  0.12699999809E+01 0.  1.
       -4    1    3    3    0  502 -0.59100348226E+03  0.66771079753E+03  0.26725654961E+03  0.93088694340E+03  0.12699999809E+01 0. -1.
</event>
<event>
 5   0  0.1566576E-06  0.3487932E+04  0.7818609E-02  0.8116656E-01
        2   -1    0    0  501    0  0.00000000000E+00  0.00000000000E+00  0.29281591420E+04  0.29281591420E+04  0.25500000920E-02 0.  1.
       -2   -1    0    0    0  501  0.00000000000E+00  0.00000000000E+00 -0.10386790641E+04  0.10386790641E+04  0.25500000920E-02 0. -1.
    10030    2    1    2    0    0  0.00000000000E+00  0.00000000000E+00  0.18894800779E+04  0.39668382061E+04  0.34879321078E+04 0.  0.
        4    1    3    3  502    0 -0.12632780312E+04 -0.34534070294E+03  0.22545093041E+04  0.26072869809E+04  0.12699999809E+01 0.  1.
       -4    1    3    3    0  502  0.12632780312E+04  0.34534070294E+03 -0.36502922627E+03  0.13595512253E+04  0.12699999809E+01 0. -1.
</event>
<event>
 5   0  0.2536619E-06  0.3496323E+04  0.7818609E-02  0.8114662E-01
        2   -1    0    0  501    0  0.00000000000E+00  0.00000000000E+00  0.20174465888E+04  0.20174465888E+04  0.25500000920E-02 0. -1.
       -2   -1    0    0    0  501  0.00000000000E+00  0.00000000000E+00 -0.15148199228E+04  0.15148199228E+04  0.25500000920E-02 0.  1.
    10030    2    1    2    0    0  0.00000000000E+00  0.00000000000E+00  0.50262666603E+03  0.35322665116E+04  0.34963228031E+04 0.  0.
        1    1    3    3  502    0  0.16822757541E+04 -0.26932646450E+03  0.64710586360E+03  0.18224528680E+04  0.50400001928E-02 0. -1.
       -1    1    3    3    0  502 -0.16822757541E+04  0.26932646450E+03 -0.14447919757E+03  0.17098136436E+04  0.50400001928E-02 0.  1.
</event>
<event>
 5   0  0.8423692E-07  0.3001857E+04  0.7818609E-02  0.8243201E-01
       -1   -1    0    0    0  501  0.00000000000E+00  0.00000000000E+00  0.15414694539E+04  0.15414694539E+04  0.50400001928E-02 0. -1.
        1   -1    0    0  501    0  0.00000000000E+00  0.00000000000E+00 -0.14614541045E+04  0.14614541045E+04  0.50400001928E-02 0.  1.
    10030    2    1    2    0    0  0.00000000000E+00  0.00000000000E+00  0.80015349368E+02  0.30029235584E+04  0.30018573320E+04 0.  0.
        2    1    3    3  502    0 -0.17144761521E+03  0.71986879962E+03  0.13462974684E+04  0.15362689370E+04  0.25500000920E-02 0. -1.
       -2    1    3    3    0  502  0.17144761521E+03 -0.71986879962E+03 -0.12662821190E+04  0.14666546214E+04  0.25500000920E-02 0.  1.
</event>
<event>
 5   0  0.1566576E-06  0.3684781E+04  0.7818609E-02  0.8071343E-01
       -2   -1    0    0    0  501  0.00000000000E+00  0.00000000000E+00  0.17765783749E+04  0.17765783749E+04  0.25500000920E-02 0.  1.
        2   -1    0    0  501    0  0.00000000000E+00  0.00000000000E+00 -0.19106405806E+04  0.19106405806E+04  0.25500000920E-02 0. -1.
    10030    2    1    2    0    0  0.00000000000E+00  0.00000000000E+00 -0.13406220570E+03  0.36872189555E+04  0.36847809909E+04 0.  0.
        4    1    3    3  502    0 -0.68756501802E+03  0.36100218543E+02 -0.17770655801E+04  0.19057839775E+04  0.12699999809E+01 0. -1.
       -4    1    3    3    0  502  0.68756501802E+03 -0.36100218543E+02  0.16430033744E+04  0.17814349781E+04  0.12699999809E+01 0.  1.
</event>
<event>
 5   0  0.1566576E-06  0.2538328E+04  0.7818609E-02  0.8389457E-01
        2   -1    0    0  501    0  0.00000000000E+00  0.00000000000E+00  0.18127273178E+04  0.18127273178E+04  0.25500000920E-02 0. -1.
       -2   -1    0    0    0  501  0.00000000000E+00  0.00000000000E+00 -0.88859323534E+03  0.88859323534E+03  0.25500000920E-02 0.  1.
    10030    2    1    2    0    0  0.00000000000E+00  0.00000000000E+00  0.92413408246E+03  0.27013205531E+04  0.25383279789E+04 0.  0.
        4    1    3    3  502    0  0.11412595917E+04 -0.96187814199E+02 -0.11990261191E+03  0.11515658038E+04  0.12699999809E+01 0.  1.
       -4    1    3    3    0  502 -0.11412595917E+04  0.96187814199E+02  0.10440366944E+04  0.15497547494E+04  0.12699999809E+01 0. -1.
</event>
<event>
 5   0  0.2382711E-06  0.3865932E+04  0.7818609E-02  0.8032152E-01
        2   -1    0    0  501    0  0.00000000000E+00  0.00000000000E+00  0.20855655781E+04  0.20855655781E+04  0.25500000920E-02 0.  1.
       -2   -1    0    0    0  501  0.00000000000E+00  0.00000000000E+00 -0.17915322591E+04  0.17915322591E+04  0.25500000920E-02 0. -1.
    10030    2    1    2    0    0  0.00000000000E+00  0.00000000000E+00  0.29403331902E+03  0.38770978371E+04  0.38659322351E+04 0.  0.
        5    1    3    3  502    0 -0.26641845699E+02  0.12803657024E+03  0.20811178986E+04  0.20852282727E+04  0.46999998093E+01 0.  1.
       -5    1    3    3    0  502  0.26641845699E+02 -0.12803657024E+03 -0.17870845796E+04  0.17918695644E+04  0.46999998093E+01 0. -1.
</event>
<event>
 5   0  0.1566576E-06  0.3536752E+04  0.7818609E-02  0.8105135E-01
        2   -1    0    0  501    0  0.00000000000E+00  0.00000000000E+00  0.17802262847E+04  0.17802262847E+04  0.25500000920E-02 0.  1.
       -2   -1    0    0    0  501  0.00000000000E+00  0.00000000000E+00 -0.17566045430E+04  0.17566045430E+04  0.25500000920E-02 0. -1.
    10030    2    1    2    0    0  0.00000000000E+00  0.00000000000E+00  0.23621741674E+02  0.35368308277E+04  0.35367519445E+04 0.  0.
        4    1    3    3  502    0  0.10978189270E+04  0.75936420375E+02  0.13961030030E+04  0.17776608069E+04  0.12699999809E+01 0.  1.
       -4    1    3    3    0  502 -0.10978189270E+04 -0.75936420375E+02 -0.13724812613E+04  0.17591700208E+04  0.12699999809E+01 0. -1.
</event>
<event>
 5   0  0.1908273E-06  0.3536008E+04  0.7818609E-02  0.8105309E-01
        1   -1    0    0  501    0  0.00000000000E+00  0.00000000000E+00  0.19812122739E+04  0.19812122740E+04  0.50400001928E-02 0. -1.
       -1   -1    0    0    0  501  0.00000000000E+00  0.00000000000E+00 -0.15777400716E+04  0.15777400716E+04  0.50400001928E-02 0.  1.
    10030    2    1    2    0    0  0.00000000000E+00  0.00000000000E+00  0.40347220233E+03  0.35589523456E+04  0.35360079157E+04 0.  0.
        3    1    3    3  502    0 -0.40463881177E+03  0.84666014392E+03 -0.13064100364E+04  0.16085002831E+04  0.10100000352E+00 0.  1.
       -3    1    3    3    0  502  0.40463881177E+03 -0.84666014392E+03  0.17098822388E+04  0.19504520625E+04  0.10100000352E+00 0. -1.
</event>
<event>
 5   0  0.1908273E-06  0.2726224E+04  0.7818609E-02  0.8326546E-01
        1   -1    0    0  501    0  0.00000000000E+00  0.00000000000E+00  0.13459880346E+04  0.13459880346E+04  0.50400001928E-02 0.  1.
       -1   -1    0    0    0  501  0.00000000000E+00  0.00000000000E+00 -0.13804542521E+04  0.13804542521E+04  0.50400001928E-02 0. -1.
    10030    2    1    2    0    0  0.00000000000E+00  0.00000000000E+00 -0.34466217460E+02  0.27264422867E+04  0.27262244263E+04 0.  0.
        3    1    3    3  502    0  0.22467434288E+03 -0.23886876417E+02 -0.13615971119E+04  0.13802158703E+04  0.10100000352E+00 0. -1.
       -3    1    3    3    0  502 -0.22467434288E+03  0.23886876417E+02  0.13271308944E+04  0.13462264164E+04  0.10100000352E+00 0.  1.
</event>
<event>
 5   0  0.1908273E-06  0.3566167E+04  0.7818609E-02  0.8098286E-01
        1   -1    0    0  501    0  0.00000000000E+00  0.00000000000E+00  0.21405255412E+04  0.21405255412E+04  0.50400001928E-02 0.  1.
       -1   -1    0    0    0  501  0.00000000000E+00  0.00000000000E+00 -0.14853302072E+04  0.14853302072E+04  0.50400001928E-02 0. -1.
    10030    2    1    2    0    0  0.00000000000E+00  0.00000000000E+00  0.65519533401E+03  0.36258557484E+04  0.35661672679E+04 0.  0.
        3    1    3    3  502    0 -0.15775092447E+04  0.51372714389E+03  0.99193754583E+03  0.19329746767E+04  0.10100000352E+00 0.  1.
       -3    1    3    3    0  502  0.15775092447E+04 -0.51372714389E+03 -0.33674221182E+03  0.16928810717E+04  0.10100000352E+00 0. -1.
</event>
<event>
 5   0  0.2382711E-06  0.2676303E+04  0.7818609E-02  0.8342735E-01
        2   -1    0    0  501    0  0.00000000000E+00  0.00000000000E+00  0.16985594444E+04  0.16985594444E+04  0.25500000920E-02 0. -1.
       -2   -1    0    0    0  501  0.00000000000E+00  0.00000000000E+00 -0.10542167818E+04  0.10542167818E+04  0.25500000920E-02 0.  1.
    10030    2    1    2    0    0  0.00000000000E+00  0.00000000000E+00  0.64434266256E+03  0.27527762262E+04  0.26763033245E+04 0.  0.
        5    1    3    3  502    0  0.11228635771E+04  0.30393276531E+03  0.10024547394E+04  0.15356221323E+04  0.46999998093E+01 0. -1.
       -5    1    3    3    0  502 -0.11228635771E+04 -0.30393276531E+03 -0.35811207685E+03  0.12171540939E+04  0.46999998093E+01 0.  1.
</event>
<event>
 5   0  0.2536619E-06  0.3367376E+04  0.7818609E-02  0.8145960E-01
       -2   -1    0    0    0  501  0.00000000000E+00  0.00000000000E+00  0.14275081247E+04  0.14275081247E+04  0.25500000920E-02 0. -1.
        2   -1    0    0  501    0  0.00000000000E+00  0.00000000000E+00 -0.19858422991E+04  0.19858422991E+04  0.25500000920E-02 0.  1.
    10030    2    1    2    0    0  0.00000000000E+00  0.00000000000E+00 -0.55833417443E+03  0.34133504238E+04  0.33673764365E+04 0.  0.
        1    1    3    3  502    0 -0.60987372615E+03 -0.14174022556E+04 -0.96203426562E+03  0.18183742861E+04  0.50400001928E-02 0.  1.
       -1    1    3    3    0  502  0.60987372615E+03  0.14174022556E+04  0.40370009119E+03  0.15949761377E+04  0.50400001928E-02 0. -1.
</event>
<event>
 5   0  0.1513502E-06  0.3658623E+04  0.7818609E-02  0.8077194E-01
       -2   -1    0    0    0  501  0.00000000000E+00  0.00000000000E+00  0.14566304612E+04  0.14566304612E+04  0.25500000920E-02 0.  1.
        2   -1    0    0  501    0  0.00000000000E+00  0.00000000000E+00 -0.22973433248E+04  0.22973433248E+04  0.25500000920E-02 0. -1.
    10030    2    1    2    0    0  0.00000000000E+00  0.00000000000E+00 -0.84071286361E+03  0.37539737861E+04  0.36586228376E+04 0.  0.
        3    1    3    3  502    0 -0.83179614729E+03 -0.16125456758E+04 -0.65921490986E+03  0.19304799131E+04  0.10100000352E+00 0.  1.
       -3    1    3    3    0  502  0.83179614729E+03  0.16125456758E+04 -0.18149795375E+03  0.18234938730E+04  0.10100000352E+00 0. -1.
</event>
<event>
 5   0  0.2422436E-06  0.3613850E+04  0.7818609E-02  0.8087327E-01
        2   -1    0    0  501    0  0.00000000000E+00  0.00000000000E+00  0.27484389236E+04  0.27484389236E+04  0.25500000920E-02 0.  1.
       -2   -1    0    0    0  501  0.00000000000E+00  0.00000000000E+00 -0.11879389760E+04  0.11879389760E+04  0.25500000920E-02 0. -1.
    10030    2    1    2    0    0  0.00000000000E+00  0.00000000000E+00  0.15604999476E+04  0.39363778995E+04  0.36138498698E+04 0.  0.
        2    1    3    3  502    0 -0.17999892774E+04  0.12542741888E+03  0.67529551467E+03  0.19265818094E+04  0.25500000920E-02 0. -1.
       -2    1    3    3    0  502  0.17999892774E+04 -0.12542741888E+03  0.88520443293E+03  0.20097960902E+04  0.25500000920E-02 0.  1.
</event>
<event>
 5   0  0.8423692E-07  0.3441711E+04  0.7818609E-02  0.8127744E-01
        1   -1    0    0  501    0  0.00000000000E+00  0.00000000000E+00  0.17407332110E+04  0.17407332110E+04  0.50400001928E-02 0. -1.
       -1   -1    0    0    0  501  0.00000000000E+00  0.00000000000E+00 -0.17012047515E+04  0.17012047515E+04  0.50400001928E-02 0.  1.
    10030    2    1    2    0    0  0.00000000000E+00  0.00000000000E+00  0.39528459443E+02  0.34419379625E+04  0.34417109755E+04 0.  0.
        2    1    3    3  502    0 -0.89280240985E+03 -0.14369824736E+04  0.33494979302E+03  0.17245886862E+04  0.25500000920E-02 0. -1.
       -2    1    3    3    0  502  0.89280240985E+03  0.14369824736E+04 -0.29542133358E+03  0.17173492763E+04  0.25500000920E-02 0.  1.
</event>
<event>
 5   0  0.1566576E-06  0.3570690E+04  0.7818609E-02  0.8097239E-01
       -2   -1    0    0    0  501  0.00000000000E+00  0.00000000000E+00  0.14434783862E+04  0.14434783862E+04  0.25500000920E-02 0. -1.
        2   -1    0    0  501    0  0.00000000000E+00  0.00000000000E+00 -0.22081774411E+04  0.22081774411E+04  0.25500000920E-02 0.  1.
    10030    2    1    2    0    0  0.00000000000E+00  0.00000000000E+00 -0.76469905487E+03  0.36516558273E+04  0.35706897985E+04 0.  0.
        4    1    3    3  502    0  0.21762867022E+03  0.10624965503E+04 -0.18326722748E+04  0.21295423070E+04  0.12699999809E+01 0.  1.
       -4    1    3    3    0  502 -0.21762867022E+03 -0.10624965503E+04  0.10679732199E+04  0.15221135204E+04  0.12699999809E+01 0. -1.
</event>
<event>
 5   0  0.2382711E-06  0.3674139E+04  0.7818609E-02  0.8073717E-01
        2   -1    0    0  501    0  0.00000000000E+00  0.00000000000E+00  0.27915462117E+04  0.27915462117E+04  0.25500000920E-02 0. -1.
       -2   -1    0    0    0  501  0.00000000000E+00  0.00000000000E+00 -0.12089445320E+04  0.12089445320E+04  0.25500000920E-02 0.  1.
    10030    2    1    2    0    0  0.00000000000E+00  0.00000000000E+00  0.15826016797E+04  0.40004907438E+04  0.36741390984E+04 0.  0.
        5    1    3    3  502    0 -0.14173870656E+03  0.17198643874E+04  0.14771554331E+04  0.22715707419E+04  0.46999998093E+01 0. -1.
       -5    1    3    3    0  502  0.14173870656E+03 -0.17198643874E+04  0.10544624665E+03  0.17289200019E+04  0.46999998093E+01 0.  1.
</event>
<event>
 5   0  0.7754556E-07  0.1898645E+04  0.7818609E-02  0.8655531E-01
        1   -1    0    0  501    0  0.00000000000E+00  0.00000000000E+00  0.15570804042E+04  0.15570804042E+04  0.50400001928E-02 0. -1.
       -1   -1    0    0    0  501  0.00000000000E+00  0.00000000000E+00 -0.57878417654E+03  0.57878417657E+03  0.50400001928E-02 0.  1.
    10030    2    1    2    0    0  0.00000000000E+00  0.00000000000E+00  0.97829622766E+03  0.21358645808E+04  0.18986453061E+04 0.  0.
        4    1    3    3  502    0 -0.25324428541E+03 -0.27748937162E+03 -0.49160388709E+03  0.61871561654E+03  0.12699999809E+01 0.  1.
       -4    1    3    3    0  502  0.25324428541E+03  0.27748937162E+03  0.14699001147E+04  0.15171489642E+04  0.12699999809E+01 0. -1.
</event>
<event>
 5   0  0.8452742E-07  0.2102559E+04  0.7818609E-02  0.8560117E-01
        1   -1    0    0  501    0  0.00000000000E+00  0.00000000000E+00  0.62759400054E+03  0.62759400056E+03  0.50400001928E-02 0.  1.
       -1   -1    0    0    0  501  0.00000000000E+00  0.00000000000E+00 -0.17609928581E+04  0.17609928581E+04  0.50400001928E-02 0. -1.
    10030    2    1    2    0    0  0.00000000000E+00  0.00000000000E+00 -0.11333988575E+04  0.23885868586E+04  0.21025589673E+04 0.  0.
        1    1    3    3  502    0 -0.24336449541E+03 -0.46080433835E+03 -0.16039348590E+04  0.16864678911E+04  0.50400001928E-02 0. -1.
       -1    1    3    3    0  502  0.24336449541E+03  0.46080433835E+03  0.47053600146E+03  0.70211896753E+03  0.50400001928E-02 0.  1.
</event>
<event>
 5   0  0.2382711E-06  0.3844096E+04  0.7818609E-02  0.8036758E-01
        2   -1    0    0  501    0  0.00000000000E+00  0.00000000000E+00  0.22089112625E+04  0.22089112625E+04  0.25500000920E-02 0. -1.
       -2   -1    0    0    0  501  0.00000000000E+00  0.00000000000E+00 -0.16724385834E+04  0.16724385834E+04  0.25500000920E-02 0.  1.
    10030    2    1    2    0    0  0.00000000000E+00  0.00000000000E+00  0.53647267916E+03  0.38813498459E+04  0.38440959524E+04 0.  0.
        5    1    3    3  502    0 -0.17591782290E+04 -0.66903789922E+03 -0.12531867653E+03  0.18862785088E+04  0.46999998093E+01 0.  1.
       -5    1    3    3    0  502  0.17591782290E+04  0.66903789922E+03  0.66179135569E+03  0.19950713372E+04  0.46999998093E+01 0. -1.
</event>
<event>
 5   0  0.8452742E-07  0.2001837E+04  0.7818609E-02  0.8605762E-01
       -1   -1    0    0    0  501  0.00000000000E+00  0.00000000000E+00  0.10827332492E+04  0.10827332492E+04  0.50400001928E-02 0.  1.
        1   -1    0    0  501    0  0.00000000000E+00  0.00000000000E+00 -0.92528586931E+03  0.92528586933E+03  0.50400001928E-02 0. -1.
    10030    2    1    2    0    0  0.00000000000E+00  0.00000000000E+00  0.15744737990E+03  0.20080191185E+04  0.20018369322E+04 0.  0.
        1    1    3    3  502    0  0.25264225376E+03 -0.30614262470E+03 -0.84296452143E+03  0.93174062885E+03  0.50400001928E-02 0. -1.
       -1    1    3    3    0  502 -0.25264225376E+03  0.30614262470E+03  0.10004119013E+04  0.10762784897E+04  0.50400001928E-02 0.  1.
</event>
<event>
 5   0  0.7754556E-07  0.1868655E+04  0.7818609E-02  0.8670618E-01
       -1   -1    0    0    0  501  0.00000000000E+00  0.00000000000E+00  0.13162465883E+04  0.13162465883E+04  0.50400001928E-02 0. -1.
        1   -1    0    0  501    0  0.00000000000E+00  0.00000000000E+00 -0.66322515126E+03  0.66322515128E+03  0.50400001928E-02 0.  1.
    10030    2    1    2    0    0  0.00000000000E+00  0.00000000000E+00  0.65302143707E+03  0.19794717396E+04  0.18686549630E+04 0.  0.
        4    1    3    3  502    0 -0.47396624994E+03  0.19907835728E+03 -0.49994251235E+03  0.71709157502E+03  0.12699999809E+01 0.  1.
       -4    1    3    3    0  502  0.47396624994E+03 -0.19907835728E+03  0.11529639494E+04  0.12623801646E+04  0.12699999809E+01 0. -1.
</event>
<event>
 5   0  0.2382711E-06  0.3627246E+04  0.7818609E-02  0.8084279E-01
        2   -1    0    0  501    0  0.00000000000E+00  0.00000000000E+00  0.20771458389E+04  0.20771458389E+04  0.25500000920E-02 0.  1.
       -2   -1    0    0    0  501  0.00000000000E+00  0.00000000000E+00 -0.15835328127E+04  0.15835328127E+04  0.25500000920E-02 0. -1.
    10030    2    1    2    0    0  0.00000000000E+00  0.00000000000E+00  0.49361302627E+03  0.36606786516E+04  0.36272461139E+04 0.  0.
        5    1    3    3  502    0 -0.94335522890E+03  0.13159548442E+04 -0.57776166045E+03  0.17191529502E+04  0.46999998093E+01 0. -1.
       -5    1    3    3    0  502  0.94335522890E+03 -0.13159548442E+04  0.10713746867E+04  0.19415257014E+04  0.46999998093E+01 0.  1.
</event>
<event>
 5   0  0.2422436E-06  0.3565194E+04  0.7818609E-02  0.8098511E-01
        2   -1    0    0  501    0  0.00000000000E+00  0.00000000000E+00  0.22636117189E+04  0.22636117189E+04  0.25500000920E-02 0. -1.
       -2   -1    0    0    0  501  0.00000000000E+00  0.00000000000E+00 -0.14037975999E+04  0.14037975999E+04  0.25500000920E-02 0.  1.
    10030    2    1    2    0    0  0.00000000000E+00  0.00000000000E+00  0.85981411902E+03  0.36674093188E+04  0.35651943554E+04 0.  0.
        2    1    3    3  502    0  0.79559942787E+03  0.65768354948E+03 -0.10650755704E+04  0.14832100565E+04  0.25500000920E-02 0.  1.
       -2    1    3    3    0  502 -0.79559942787E+03 -0.65768354948E+03  0.19248896894E+04  0.21841992623E+04  0.25500000920E-02 0. -1.
</event>
<event>
 5   0  0.2382711E-06  0.3576957E+04  0.7818609E-02  0.8095790E-01
       -2   -1    0    0    0  501  0.00000000000E+00  0.00000000000E+00  0.11350187648E+04  0.11350187648E+04  0.25500000920E-02 0.  1.
        2   -1    0    0  501    0  0.00000000000E+00  0.00000000000E+00 -0.28181523387E+04  0.28181523387E+04  0.25500000920E-02 0. -1.
    10030    2    1    2    0    0  0.00000000000E+00  0.00000000000E+00 -0.16831335739E+04  0.39531711036E+04  0.35769572469E+04 0.  0.
        5    1    3    3  502    0  0.10039785976E+04  0.56057896215E+03  0.67232890108E+03  0.13320172816E+04  0.46999998093E+01 0.  1.
       -5    1    3    3    0  502 -0.10039785976E+04 -0.56057896215E+03 -0.23554624750E+04  0.26211538220E+04  0.46999998093E+01 0. -1.
</event>
<event>
 5   0  0.1908273E-06  0.2499029E+04  0.7818609E-02  0.8403332E-01
        1   -1    0    0  501    0  0.00000000000E+00  0.00000000000E+00  0.18436418133E+04  0.18436418133E+04  0.50400001928E-02 0. -1.
       -1   -1    0    0    0  501  0.00000000000E+00  0.00000000000E+00 -0.84684889980E+03  0.84684889982E+03  0.50400001928E-02 0.  1.
    10030    2    1    2    0    0  0.00000000000E+00  0.00000000000E+00  0.99679291350E+03  0.26904907131E+04  0.24990286443E+04 0.  0.
        3    1    3    3  502    0  0.31904675018E+03  0.12043004175E+04  0.60141281643E+03  0.13834116200E+04  0.10100000352E+00 0.  1.
       -3    1    3    3    0  502 -0.31904675018E+03 -0.12043004175E+04  0.39538009707E+03  0.13070790931E+04  0.10100000352E+00 0. -1.
</event>
<event>
 5   0  0.2536619E-06  0.3470684E+04  0.7818609E-02  0.8120773E-01
        2   -1    0    0  501    0  0.00000000000E+00  0.00000000000E+00  0.26378848537E+04  0.26378848537E+04  0.25500000920E-02 0.  1.
       -2   -1    0    0    0  501  0.00000000000E+00  0.00000000000E+00 -0.11416009320E+04  0.11416009320E+04  0.25500000920E-02 0. -1.
    10030    2    1    2    0    0  0.00000000000E+00  0.00000000000E+00  0.14962839217E+04  0.37794857857E+04  0.34706839715E+04 0.  0.
        1    1    3    3  502    0 -0.60405185529E+00  0.11258566440E+04 -0.68990555955E+03  0.13204253969E+04  0.50400001928E-02 0. -1.
       -1    1    3    3    0  502  0.60405185529E+00 -0.11258566440E+04  0.21861894813E+04  0.24590603888E+04  0.50400001928E-02 0.  1.
</event>
<event>
 5   0  0.2536619E-06  0.3458526E+04  0.7818609E-02  0.8123690E-01
        2   -1    0    0  501    0  0.00000000000E+00  0.00000000000E+00  0.10283347466E+04  0.10283347466E+04  0.25500000920E-02 0.  1.
       -2   -1    0    0    0  501  0.00000000000E+00  0.00000000000E+00 -0.29079545080E+04  0.29079545080E+04  0.25500000920E-02 0. -1.
    10030    2    1    2    0    0  0.00000000000E+00  0.00000000000E+00 -0.18796197613E+04  0.39362892546E+04  0.34585260804E+04 0.  0.
        1    1    3    3  502    0 -0.79619159615E+03  0.66460957298E+02 -0.26852934563E+04  0.28016315003E+04  0.50400001928E-02 0. -1.
       -1    1    3    3    0  502  0.79619159615E+03 -0.66460957298E+02  0.80567369501E+03  0.11346577543E+04  0.50400001928E-02 0.  1.
</event>
<event>
 5   0  0.1566576E-06  0.3419604E+04  0.7818609E-02  0.8133112E-01
        2   -1    0    0  501    0  0.00000000000E+00  0.00000000000E+00  0.28248385324E+04  0.28248385324E+04  0.25500000920E-02 0.  1.
       -2   -1    0    0    0  501  0.00000000000E+00  0.00000000000E+00 -0.10348990383E+04  0.10348990383E+04  0.25500000920E-02 0. -1.
    10030    2    1    2    0    0  0.00000000000E+00  0.00000000000E+00  0.17899394941E+04  0.38597375707E+04  0.34196038839E+04 0.  0.
        4    1    3    3  502    0  0.11103024264E+04 -0.60190724972E+03 -0.40591679639E+03  0.13265873035E+04  0.12699999809E+01 0. -1.
       -4    1    3    3    0  502 -0.11103024264E+04  0.60190724972E+03  0.21958562904E+04  0.25331502673E+04  0.12699999809E+01 0.  1.
</event>
<event>
 5   0  0.2536619E-06  0.3663546E+04  0.7818609E-02  0.8076089E-01
       -2   -1    0    0    0  501  0.00000000000E+00  0.00000000000E+00  0.16000454467E+04  0.16000454467E+04  0.25500000920E-02 0. -1.
        2   -1    0    0  501    0  0.00000000000E+00  0.00000000000E+00 -0.20970605724E+04  0.20970605724E+04  0.25500000920E-02 0.  1.
    10030    2    1    2    0    0  0.00000000000E+00  0.00000000000E+00 -0.49701512566E+03  0.36971060191E+04  0.36635459437E+04 0.  0.
        1    1    3    3  502    0  0.12501950137E+04 -0.67073159677E+03 -0.14177949224E+04  0.20057444726E+04  0.50400001928E-02 0.  1.
       -1    1    3    3    0  502 -0.12501950137E+04  0.67073159677E+03  0.92077979672E+03  0.16913615466E+04  0.50400001928E-02 0. -1.
</event>
<event>
 5   0  0.1566576E-06  0.2412517E+04  0.7818609E-02  0.8434832E-01
       -2   -1    0    0    0  501  0.00000000000E+00  0.00000000000E+00  0.15584712967E+04  0.15584712967E+04  0.25500000920E-02 0.  1.
        2   -1    0    0  501    0  0.00000000000E+00  0.00000000000E+00 -0.93364563377E+03  0.93364563377E+03  0.25500000920E-02 0. -1.
    10030    2    1    2    0    0  0.00000000000E+00  0.00000000000E+00  0.62482566294E+03  0.24921169305E+04  0.24125172924E+04 0.  0.
        4    1    3    3  502    0  0.92504560319E+01 -0.96603643955E+03  0.10585654789E+04  0.14331344876E+04  0.12699999809E+01 0.  1.
       -4    1    3    3    0  502 -0.92504560319E+01  0.96603643955E+03 -0.43373981598E+03  0.10589824429E+04  0.12699999809E+01 0. -1.
</event>
<event>
 5   0  0.1513502E-06  0.3593733E+04  0.7818609E-02  0.8091929E-01
       -2   -1    0    0    0  501  0.00000000000E+00  0.00000000000E+00  0.21607752652E+04  0.21607752652E+04  0.25500000920E-02 0. -1.
        2   -1    0    0  501    0  0.00000000000E+00  0.00000000000E+00 -0.14942454689E+04  0.14942454689E+04  0.25500000920E-02 0.  1.
    10030    2    1    2    0    0  0.00000000000E+00  0.00000000000E+00  0.66652979627E+03  0.36550207341E+04  0.35937326830E+04 0.  0.
        3    1    3    3  502    0 -0.10162133807E+04 -0.73848093069E+03  0.16399657294E+04  0.20658004076E+04  0.10100000352E+00 0. -1.
       -3    1    3    3    0  502  0.10162133807E+04  0.73848093069E+03 -0.97343593315E+03  0.15892203265E+04  0.10100000352E+00 0.  1.
</event>
<event>
 5   0  0.1513502E-06  0.3496250E+04  0.7818609E-02  0.8114679E-01
       -2   -1    0    0    0  501  0.00000000000E+00  0.00000000000E+00  0.13512019519E+04  0.13512019519E+04  0.25500000920E-02 0. -1.
        2   -1    0    0  501    0  0.00000000000E+00  0.00000000000E+00 -0.22616460177E+04  0.22616460177E+04  0.25500000920E-02 0.  1.
    10030    2    1    2    0    0  0.00000000000E+00  0.00000000000E+00 -0.91044406576E+03  0.36128479696E+04  0.34962497128E+04 0.  0.
        3    1    3    3  502    0  0.15916600618E+04  0.27995640626E+03 -0.11439191870E+04  0.19799768833E+04  0.10100000352E+00 0.  1.
       -3    1    3    3    0  502 -0.15916600618E+04 -0.27995640626E+03  0.23347512127E+03  0.16328710863E+04  0.10100000352E+00 0. -1.
</event>
<event>
 5   0  0.8452742E-07  0.2975115E+04  0.7818609E-02  0.8250873E-01
       -1   -1    0    0    0  501  0.00000000000E+00  0.00000000000E+00  0.13245402618E+04  0.13245402619E+04  0.50400001928E-02 0. -1.
        1   -1    0    0  501    0  0.00000000000E+00  0.00000000000E+00 -0.16706381368E+04  0.16706381368E+04  0.50400001928E-02 0.  1.
    10030    2    1    2    0    0  0.00000000000E+00  0.00000000000E+00 -0.34609787491E+03  0.29951783986E+04  0.29751151071E+04 0.  0.
        1    1    3    3  502    0 -0.13380182902E+04  0.11447667502E+03  0.47113301200E+03  0.14231528973E+04  0.50400001928E-02 0. -1.
       -1    1    3    3    0  502  0.13380182902E+04 -0.11447667502E+03 -0.81723088691E+03  0.15720255013E+04  0.50400001928E-02 0.  1.
</event>
<event>
 5   0  0.7754556E-07  0.3636323E+04  0.7818609E-02  0.8082222E-01
        1   -1    0    0  501    0  0.00000000000E+00  0.00000000000E+00  0.21162951799E+04  0.21162951799E+04  0.50400001928E-02 0. -1.
       -1   -1    0    0    0  501  0.00000000000E+00  0.00000000000E+00 -0.15620270812E+04  0.15620270812E+04  0.50400001928E-02 0.  1.
    10030    2    1    2    0    0  0.00000000000E+00  0.00000000000E+00  0.55426809870E+03  0.36783222612E+04  0.36363225286E+04 0.  0.
        4    1    3    3  502    0 -0.16086657381E+04  0.59241105487E+03 -0.33562858951E+03  0.17468269742E+04  0.12699999809E+01 0. -1.
       -4    1    3    3    0  502  0.16086657381E+04 -0.59241105487E+03  0.88989668821E+03  0.19314952869E+04  0.12699999809E+01 0.  1.
</event>
<event>
 5   0  0.8452742E-07  0.1828134E+04  0.7818609E-02  0.8691479E-01
        1   -1    0    0  501    0  0.00000000000E+00  0.00000000000E+00  0.12539266506E+04  0.12539266506E+04  0.50400001928E-02 0.  1.
       -1   -1    0    0    0  501  0.00000000000E+00  0.00000000000E+00 -0.66632195566E+03  0.66632195568E+03  0.50400001928E-02 0. -1.
    10030    2    1    2    0    0  0.00000000000E+00  0.00000000000E+00  0.58760469489E+03  0.19202486062E+04  0.18281344131E+04 0.  0.
        1    1    3    3  502    0 -0.20846050679E+03 -0.69415183174E+02  0.12257771740E+04  0.12453127844E+04  0.50400001928E-02 0.  1.
       -1    1    3    3    0  502  0.20846050679E+03  0.69415183174E+02 -0.63817247912E+03  0.67493582189E+03  0.50400001928E-02 0. -1.
</event>
<event>
 5   0  0.7754556E-07  0.3105350E+04  0.7818609E-02  0.8214271E-01
       -1   -1    0    0    0  501  0.00000000000E+00  0.00000000000E+00  0.13292249116E+04  0.13292249116E+04  0.50400001928E-02 0.  1.
        1   -1    0    0  501    0  0.00000000000E+00  0.00000000000E+00 -0.18136878014E+04  0.18136878014E+04  0.50400001928E-02 0. -1.
    10030    2    1    2    0    0  0.00000000000E+00  0.00000000000E+00 -0.48446288982E+03  0.31429127130E+04  0.31053495826E+04 0.  0.
        4    1    3    3  502    0 -0.63334836512E+03 -0.36674215910E+03 -0.16281632068E+04  0.17850901948E+04  0.12699999809E+01 0. -1.
       -4    1    3    3    0  502  0.63334836512E+03  0.36674215910E+03  0.11437003170E+04  0.13578225182E+04  0.12699999809E+01 0.  1.
</event>
<event>
 5   0  0.8423692E-07  0.2035280E+04  0.7818609E-02  0.8590301E-01
       -1   -1    0    0    0  501  0.00000000000E+00  0.00000000000E+00  0.67914518518E+03  0.67914518519E+03  0.50400001928E-02 0. -1.
        1   -1    0    0  501    0  0.00000000000E+00  0.00000000000E+00 -0.15248451023E+04  0.15248451023E+04  0.50400001928E-02 0.  1.
    10030    2    1    2    0    0  0.00000000000E+00  0.00000000000E+00 -0.84569991712E+03  0.22039902875E+04  0.20352800391E+04 0.  0.
        2    1    3    3  502    0  0.60172496438E+03  0.29185835822E+02  0.46529814149E+03  0.76120109449E+03  0.25500000920E-02 0. -1.
       -2    1    3    3    0  502 -0.60172496438E+03 -0.29185835822E+02 -0.13109980586E+04  0.14427891930E+04  0.25500000920E-02 0.  1.
</event>
<event>
 5   0  0.1566576E-06  0.3467084E+04  0.7818609E-02  0.8121635E-01
        2   -1    0    0  501    0  0.00000000000E+00  0.00000000000E+00  0.18995617432E+04  0.18995617432E+04  0.25500000920E-02 0. -1.
       -2   -1    0    0    0  501  0.00000000000E+00  0.00000000000E+00 -0.15820325931E+04  0.15820325931E+04  0.25500000920E-02 0.  1.
    10030    2    1    2    0    0  0.00000000000E+00  0.00000000000E+00  0.31752915010E+03  0.34815943363E+04  0.34670844180E+04 0.  0.
        4    1    3    3  502    0 -0.15825624173E+04  0.18757105876E+03 -0.52635186680E+03  0.16783130242E+04  0.12699999809E+01 0.  1.
       -4    1    3    3    0  502  0.15825624173E+04 -0.18757105876E+03  0.84388101690E+03  0.18032813120E+04  0.12699999809E+01 0. -1.
</event>
<event>
 5   0  0.1513502E-06  0.3559904E+04  0.7818609E-02  0.8099738E-01
        2   -1    0    0  501    0  0.00000000000E+00  0.00000000000E+00  0.12685860893E+04  0.12685860893E+04  0.25500000920E-02 0. -1.
       -2   -1    0    0    0  501  0.00000000000E+00  0.00000000000E+00 -0.24974495877E+04  0.24974495877E+04  0.25500000920E-02 0.  1.
    10030    2    1    2    0    0  0.00000000000E+00  0.00000000000E+00 -0.12288634984E+04  0.37660356770E+04  0.35599043840E+04 0.  0.
        3    1    3    3  502    0 -0.32873427137E+02 -0.11484103166E+04 -0.20526760656E+04  0.23523192721E+04  0.10100000352E+00 0.  1.
       -3    1    3    3    0  502  0.32873427137E+02  0.11484103166E+04  0.82381256720E+03  0.14137164049E+04  0.10100000352E+00 0. -1.
</event>
<event>
 5   0  0.7754556E-07  0.3592863E+04  0.7818609E-02  0.8092129E-01
        1   -1    0    0  501    0  0.00000000000E+00  0.00000000000E+00  0.27534374544E+04  0.27534374544E+04  0.50400001928E-02 0.  1.
       -1   -1    0    0    0  501  0.00000000000E+00  0.00000000000E+00 -0.11720498088E+04  0.11720498088E+04  0.50400001928E-02 0. -1.
    10030    2    1    2    0    0  0.00000000000E+00  0.00000000000E+00  0.15813876456E+04  0.39254872632E+04  0.35928628373E+04 0.  0.
        4    1    3    3  502    0  0.13624881914E+03 -0.13417692191E+04  0.20872571005E+04  0.24850658330E+04  0.12699999809E+01 0.  1.
       -4    1    3    3    0  502 -0.13624881914E+03  0.13417692191E+04 -0.50586945490E+03  0.14404214302E+04  0.12699999809E+01 0. -1.
</event>
<event>
 5   0  0.2536619E-06  0.2320867E+04  0.7818609E-02  0.8469739E-01
       -2   -1    0    0    0  501  0.00000000000E+00  0.00000000000E+00  0.82324921588E+03  0.82324921588E+03  0.25500000920E-02 0. -1.
        2   -1    0    0  501    0  0.00000000000E+00  0.00000000000E+00 -0.16357214656E+04  0.16357214656E+04  0.25500000920E-02 0.  1.
    10030    2    1    2    0    0  0.00000000000E+00  0.00000000000E+00 -0.81247224975E+03  0.24589706815E+04  0.23208674361E+04 0.  0.
        1    1    3    3  502    0  0.10457342444E+04 -0.49786170180E+03 -0.48249126976E+03  0.12546809194E+04  0.50400001928E-02 0. -1.
       -1    1    3    3    0  502 -0.10457342444E+04  0.49786170180E+03 -0.32998097999E+03  0.12042897621E+04  0.50400001928E-02 0.  1.
</event>
<event>
 5   0  0.2536619E-06  0.3664516E+04  0.7818609E-02  0.8075871E-01
       -2   -1    0    0    0  501  0.00000000000E+00  0.00000000000E+00  0.13169695132E+04  0.13169695132E+04  0.25500000920E-02 0. -1.
        2   -1    0    0  501    0  0.00000000000E+00  0.00000000000E+00 -0.25491619172E+04  0.25491619172E+04  0.25500000920E-02 0.  1.
    10030    2    1    2    0    0  0.00000000000E+00  0.00000000000E+00 -0.12321924040E+04  0.38661314304E+04  0.36645155364E+04 0.  0.
        1    1    3    3  502    0  0.83048586753E+03 -0.14631269434E+04 -0.13817818158E+04  0.21771008739E+04  0.50400001928E-02 0.  1.
       -1    1    3    3    0  502 -0.83048586753E+03  0.14631269434E+04  0.14958941183E+03  0.16890305565E+04  0.50400001928E-02 0. -1.
</event>
<event>
 5   0  0.2422436E-06  0.3661649E+04  0.7818609E-02  0.8076514E-01
        2   -1    0    0  501    0  0.00000000000E+00  0.00000000000E+00  0.20713663397E+04  0.20713663397E+04  0.25500000920E-02 0. -1.
       -2   -1    0    0    0  501  0.00000000000E+00  0.00000000000E+00 -0.16182158581E+04  0.16182158581E+04  0.25500000920E-02 0.  1.
    10030    2    1    2    0    0  0.00000000000E+00  0.00000000000E+00  0.45315048159E+03  0.36895821978E+04  0.36616487318E+04 0.  0.
        2    1    3    3  502    0  0.16940949130E+04 -0.39533715809E+03  0.80160271913E+03  0.19154153497E+04  0.25500000920E-02 0. -1.
       -2    1    3    3    0  502 -0.16940949130E+04  0.39533715809E+03 -0.34845223753E+03  0.17741668480E+04  0.25500000920E-02 0.  1.
</event>
<event>
 5   0  0.2382711E-06  0.3534858E+04  0.7818609E-02  0.8105578E-01
        2   -1    0    0  501    0  0.00000000000E+00  0.00000000000E+00  0.20670537415E+04  0.20670537415E+04  0.25500000920E-02 0. -1.
       -2   -1    0    0    0  501  0.00000000000E+00  0.00000000000E+00 -0.15112354502E+04  0.15112354502E+04  0.25500000920E-02 0.  1.
    10030    2    1    2    0    0  0.00000000000E+00  0.00000000000E+00  0.55581829126E+03  0.35782891917E+04  0.35348577859E+04 0.  0.
        5    1    3    3  502    0  0.47632443503E+03 -0.81757057926E+03 -0.12332405535E+04  0.15544166019E+04  0.46999998093E+01 0.  1.
       -5    1    3    3    0  502 -0.47632443503E+03  0.81757057926E+03  0.17890588448E+04  0.20238725898E+04  0.46999998093E+01 0. -1.
</event>
<event>
 5   0  0.8423692E-07  0.3767608E+04  0.7818609E-02  0.8053142E-01
       -1   -1    0    0    0  501  0.00000000000E+00  0.00000000000E+00  0.27584802555E+04  0.27584802555E+04  0.50400001928E-02 0.  1.
        1   -1    0    0  501    0  0.00000000000E+00  0.00000000000E+00 -0.12864757084E+04  0.12864757084E+04  0.50400001928E-02 0. -1.
    10030    2    1    2    0    0  0.00000000000E+00  0.00000000000E+00  0.14720045471E+04  0.40449559639E+04  0.37676081753E+04 0.  0.
        2    1    3    3  502    0 -0.11160707711E+04  0.99553008394E+03 -0.49375361782E+03  0.15749561102E+04  0.25500000920E-02 0. -1.
       -2    1    3    3    0  502  0.11160707711E+04 -0.99553008394E+03  0.19657581649E+04  0.24699998536E+04  0.25500000920E-02 0.  1.
</event>
<event>
 5   0  0.1513502E-06  0.3596574E+04  0.7818609E-02  0.8091277E-01
       -2   -1    0    0    0  501  0.00000000000E+00  0.00000000000E+00  0.16535218569E+04  0.16535218569E+04  0.25500000920E-02 0. -1.
        2   -1    0    0  501    0  0.00000000000E+00  0.00000000000E+00 -0.19557261568E+04  0.19557261568E+04  0.25500000920E-02 0.  1.
    10030    2    1    2    0    0  0.00000000000E+00  0.00000000000E+00 -0.30220429993E+03  0.36092480138E+04  0.35965738955E+04 0.  0.
        3    1    3    3  502    0 -0.58471673011E+03 -0.13743401031E+04 -0.11561961629E+04  0.18887810754E+04  0.10100000352E+00 0.  1.
       -3    1    3    3    0  502  0.58471673011E+03  0.13743401031E+04  0.85399186301E+03  0.17204669383E+04  0.10100000352E+00 0. -1.
</event>
<event>
 5   0  0.2382711E-06  0.3615800E+04  0.7818609E-02  0.8086882E-01
       -2   -1    0    0    0  501  0.00000000000E+00  0.00000000000E+00  0.14861035236E+04  0.14861035236E+04  0.25500000920E-02 0.  1.
        2   -1    0    0  501    0  0.00000000000E+00  0.00000000000E+00 -0.21993772920E+04  0.21993772920E+04  0.25500000920E-02 0. -1.
    10030    2    1    2    0    0  0.00000000000E+00  0.00000000000E+00 -0.71327376845E+03  0.36854808156E+04  0.36157999632E+04 0.  0.
        5    1    3    3  502    0 -0.12031213966E+04 -0.12113639119E+04 -0.96271909324E+03  0.19600392252E+04  0.46999998093E+01 0. -1.
       -5    1    3    3    0  502  0.12031213966E+04  0.12113639119E+04  0.24944532479E+03  0.17254415904E+04  0.46999998093E+01 0.  1.
</event>
<event>
 5   0  0.1634374E-06  0.3625626E+04  0.7818609E-02  0.8084647E-01
       -1   -1    0    0    0  501  0.00000000000E+00  0.00000000000E+00  0.11364455509E+04  0.11364455509E+04  0.50400001928E-02 0. -1.
        1   -1    0    0  501    0  0.00000000000E+00  0.00000000000E+00 -0.28917279548E+04  0.28917279548E+04  0.50400001928E-02 0.  1.
    10030    2    1    2    0    0  0.00000000000E+00  0.00000000000E+00 -0.17552824039E+04  0.40281735056E+04  0.36256262182E+04 0.  0.
        5    1    3    3  502    0  0.11833024966E+04 -0.93649149981E+03 -0.19936846067E+04  0.25004042731E+04  0.46999998093E+01 0.  1.
       -5    1    3    3    0  502 -0.11833024966E+04  0.93649149981E+03  0.23840220278E+03  0.15277692326E+04  0.46999998093E+01 0. -1.
</event>
<event>
 5   0  0.8423692E-07  0.2069315E+04  0.7818609E-02  0.8574882E-01
        1   -1    0    0  501    0  0.00000000000E+00  0.00000000000E+00  0.73577893303E+03  0.73577893304E+03  0.50400001928E-02 0. -1.
       -1   -1    0    0    0  501  0.00000000000E+00  0.00000000000E+00 -0.14549422471E+04  0.14549422471E+04  0.50400001928E-02 0.  1.
    10030    2    1    2    0    0  0.00000000000E+00  0.00000000000E+00 -0.71916331404E+03  0.21907211801E+04  0.20693147215E+04 0.  0.
        2    1    3    3  502    0  0.17464166507E+03  0.40486758905E+03 -0.13504980152E+04  0.14206556110E+04  0.25500000920E-02 0.  1.
       -2    1    3    3    0  502 -0.17464166507E+03 -0.40486758905E+03  0.63133470119E+03  0.77006556914E+03  0.25500000920E-02 0. -1.
</event>
<event>
 5   0  0.8452742E-07  0.3393069E+04  0.7818609E-02  0.8139610E-01
       -1   -1    0    0    0  501  0.00000000000E+00  0.00000000000E+00  0.12829178945E+04  0.12829178945E+04  0.50400001928E-02 0.  1.
        1   -1    0    0  501    0  0.00000000000E+00  0.00000000000E+00 -0.22435018236E+04  0.22435018236E+04  0.50400001928E-02 0. -1.
    10030    2    1    2    0    0  0.00000000000E+00  0.00000000000E+00 -0.96058392917E+03  0.35264197181E+04  0.33930686028E+04 0.  0.
        1    1    3    3  502    0  0.16217342973E+04 -0.45560705731E+03 -0.27080456835E+03  0.17061462528E+04  0.50400001928E-02 0.  1.
       -1    1    3    3    0  502 -0.16217342973E+04  0.45560705731E+03 -0.68977936083E+03  0.18202734653E+04  0.50400001928E-02 0. -1.
</event>
<event>
 5   0  0.1908273E-06  0.2034289E+04  0.7818609E-02  0.8590755E-01
       -1   -1    0    0    0  501  0.00000000000E+00  0.00000000000E+00  0.49272148907E+03  0.49272148910E+03  0.50400001928E-02 0. -1.
        1   -1    0    0  501    0  0.00000000000E+00  0.00000000000E+00 -0.20997322632E+04  0.20997322632E+04  0.50400001928E-02 0.  1.
    10030    2    1    2    0    0  0.00000000000E+00  0.00000000000E+00 -0.16070107742E+04  0.25924537523E+04  0.20342892690E+04 0.  0.
        3    1    3    3  502    0  0.54466465955E+03  0.33172738982E+03 -0.18133087731E+04  0.19221840103E+04  0.10100000352E+00 0.  1.
       -3    1    3    3    0  502 -0.54466465955E+03 -0.33172738982E+03  0.20629799897E+03  0.67026974204E+03  0.10100000352E+00 0. -1.
</event>
<event>
 5   0  0.7754556E-07  0.3568554E+04  0.7818609E-02  0.8097733E-01
       -1   -1    0    0    0  501  0.00000000000E+00  0.00000000000E+00  0.12547381757E+04  0.12547381757E+04  0.50400001928E-02 0. -1.
        1   -1    0    0  501    0  0.00000000000E+00  0.00000000000E+00 -0.25372973978E+04  0.25372973978E+04  0.50400001928E-02 0.  1.
    10030    2    1    2    0    0  0.00000000000E+00  0.00000000000E+00 -0.12825592221E+04  0.37920355735E+04  0.35685537172E+04 0.  0.
        4    1    3    3  502    0  0.93477851329E+03  0.34888368150E+03  0.93058414040E+03  0.13643750025E+04  0.12699999809E+01 0. -1.
       -4    1    3    3    0  502 -0.93477851329E+03 -0.34888368150E+03 -0.22131433625E+04  0.24276605710E+04  0.12699999809E+01 0.  1.
</event>
<event>
 5   0  0.1566576E-06  0.3569889E+04  0.7818609E-02  0.8097424E-01
       -2   -1    0    0    0  501  0.00000000000E+00  0.00000000000E+00  0.10586561174E+04  0.10586561174E+04  0.25500000920E-02 0.  1.
        2   -1    0    0  501    0  0.00000000000E+00  0.00000000000E+00 -0.30095008451E+04  0.30095008451E+04  0.25500000920E-02 0. -1.
    10030    2    1    2    0    0  0.00000000000E+00  0.00000000000E+00 -0.19508447277E+04  0.40681569625E+04  0.35698887825E+04 0.  0.
        4    1    3    3  502    0  0.68276964175E+03 -0.11781995202E+04  0.33963780379E+03  0.14034542899E+04  0.12699999809E+01 0.  1.
       -4    1    3    3    0  502 -0.68276964175E+03  0.11781995202E+04 -0.22904825315E+04  0.26647026726E+04  0.12699999809E+01 0. -1.
</event>
<event>
 5   0  0.7754556E-07  0.3423942E+04  0.7818609E-02  0.8132055E-01
       -1   -1    0    0    0  501  0.00000000000E+00  0.00000000000E+00  0.19048305645E+04  0.19048305645E+04  0.50400001928E-02 0.  1.
        1   -1    0    0  501    0  0.00000000000E+00  0.00000000000E+00 -0.15386376499E+04  0.15386376499E+04  0.50400001928E-02 0. -1.
    10030    2    1    2    0    0  0.00000000000E+00  0.00000000000E+00  0.36619291459E+03  0.34434682144E+04  0.34239416018E+04 0.  0.
        4    1    3    3  502    0 -0.44874729430E+02 -0.11133183059E+04  0.14902592535E+04  0.18607433050E+04  0.12699999809E+01 0. -1.
       -4    1    3    3    0  502  0.44874729430E+02  0.11133183059E+04 -0.11240663389E+04  0.15827249094E+04  0.12699999809E+01 0.  1.
</event>
<event>
 5   0  0.1566576E-06  0.3319545E+04  0.7818609E-02  0.8157940E-01
        2   -1    0    0  501    0  0.00000000000E+00  0.00000000000E+00  0.16721368858E+04  0.16721368858E+04  0.25500000920E-02 0. -1.
       -2   -1    0    0    0  501  0.00000000000E+00  0.00000000000E+00 -0.16474990618E+04  0.16474990618E+04  0.25500000920E-02 0.  1.
    10030    2    1    2    0    0  0.00000000000E+00  0.00000000000E+00  0.24637823997E+02  0.33196359477E+04  0.33195445174E+04 0.  0.
        4    1    3    3  502    0 -0.11727644784E+04 -0.10321406062E+03 -0.11576759928E+04  0.16511344528E+04  0.12699999809E+01 0.  1.
       -4    1    3    3    0  502  0.11727644784E+04  0.10321406062E+03  0.11823138168E+04  0.16685014949E+04  0.12699999809E+01 0. -1.
</event>
<event>
 5   0  0.1513502E-06  0.3555442E+04  0.7818609E-02  0.8100775E-01
       -2   -1    0    0    0  501  0.00000000000E+00  0.00000000000E+00  0.16296535963E+04  0.16296535963E+04  0.25500000920E-02 0.  1.
        2   -1    0    0  501    0  0.00000000000E+00  0.00000000000E+00 -0.19392414066E+04  0.19392414066E+04  0.25500000920E-02 0. -1.
    10030    2    1    2    0    0  0.00000000000E+00  0.00000000000E+00 -0.30958781028E+03  0.35688950028E+04  0.35554418753E+04 0.  0.
        3    1    3    3  502    0 -0.42182476815E+03  0.15787354492E+04  0.54781889100E+03  0.17234985643E+04  0.10100000352E+00 0.  1.
       -3    1    3    3    0  502  0.42182476815E+03 -0.15787354492E+04 -0.85740670128E+03  0.18453964385E+04  0.10100000352E+00 0. -1.
</event>
<event>
 5   0  0.2382711E-06  0.3488200E+04  0.7818609E-02  0.8116592E-01
        2   -1    0    0  501    0  0.00000000000E+00  0.00000000000E+00  0.29712107630E+04  0.29712107630E+04  0.25500000920E-02 0. -1.
       -2   -1    0    0    0  501  0.00000000000E+00  0.00000000000E+00 -0.10237865190E+04  0.10237865190E+04  0.25500000920E-02 0.  1.
    10030    2    1    2    0    0  0.00000000000E+00  0.00000000000E+00  0.19474242440E+04  0.39949972820E+04  0.34882004095E+04 0.  0.
        5    1    3    3  502    0  0.15256011477E+03 -0.55258965957E+03  0.28602200987E+04  0.29171066184E+04  0.46999998093E+01 0. -1.
       -5    1    3    3    0  502 -0.15256011477E+03  0.55258965957E+03 -0.91279585462E+03  0.10778906636E+04  0.46999998093E+01 0.  1.
</event>
<event>
 5   0  0.7754556E-07  0.1824416E+04  0.7818609E-02  0.8693422E-01
       -1   -1    0    0    0  501  0.00000000000E+00  0.00000000000E+00  0.15865619212E+04  0.15865619212E+04  0.50400001928E-02 0. -1.
        1   -1    0    0  501    0  0.00000000000E+00  0.00000000000E+00 -0.52448230953E+03  0.52448230956E+03  0.50400001928E-02 0.  1.
    10030    2    1    2    0    0  0.00000000000E+00  0.00000000000E+00  0.10620796116E+04  0.21110442307E+04  0.18244162471E+04 0.  0.
        4    1    3    3  502    0  0.53523167355E+03  0.65755913517E+03  0.92046265810E+03  0.12514431983E+04  0.12699999809E+01 0. -1.
       -4    1    3    3    0  502 -0.53523167355E+03 -0.65755913517E+03  0.14161695355E+03  0.85960103249E+03  0.12699999809E+01 0.  1.
</event>
<event>
 5   0  0.2422436E-06  0.3085938E+04  0.7818609E-02  0.8219608E-01
       -2   -1    0    0    0  501  0.00000000000E+00  0.00000000000E+00  0.14047925596E+04  0.14047925596E+04  0.25500000920E-02 0.  1.
        2   -1    0    0  501    0  0.00000000000E+00  0.00000000000E+00 -0.16947366444E+04  0.16947366444E+04  0.25500000920E-02 0. -1.
    10030    2    1    2    0    0  0.00000000000E+00  0.00000000000E+00 -0.28994408477E+03  0.30995292040E+04  0.30859380607E+04 0.  0.
        2    1    3    3  502    0 -0.13011104142E+04 -0.63598408672E+03 -0.67965987091E+03  0.15997817378E+04  0.25500000920E-02 0. -1.
       -2    1    3    3    0  502  0.13011104142E+04  0.63598408672E+03  0.38971578614E+03  0.14997474662E+04  0.25500000920E-02 0.  1.
</event>
<event>
 5   0  0.8452742E-07  0.1839590E+04  0.7818609E-02  0.8685525E-01
       -1   -1    0    0    0  501  0.00000000000E+00  0.00000000000E+00  0.68081533038E+03  0.68081533040E+03  0.50400001928E-02 0.  1.
        1   -1    0    0  501    0  0.00000000000E+00  0.00000000000E+00 -0.12426613551E+04  0.12426613551E+04  0.50400001928E-02 0. -1.
    10030    2    1    2    0    0  0.00000000000E+00  0.00000000000E+00 -0.56184602469E+03  0.19234766855E+04  0.18395900642E+04 0.  0.
        1    1    3    3  502    0  0.58409981862E+03  0.58693054752E+03  0.13779123095E+03  0.83943224210E+03  0.50400001928E-02 0.  1.
       -1    1    3    3    0  502 -0.58409981862E+03 -0.58693054752E+03 -0.69963725564E+03  0.10840444434E+04  0.50400001928E-02 0. -1.
</event>
<event>
 5   0  0.8452742E-07  0.3830028E+04  0.7818609E-02  0.8039741E-01
        1   -1    0    0  501    0  0.00000000000E+00  0.00000000000E+00  0.13535534120E+04  0.13535534120E+04  0.50400001928E-02 0. -1.
       -1   -1    0    0    0  501  0.00000000000E+00  0.00000000000E+00 -0.27093714571E+04  0.27093714571E+04  0.50400001928E-02 0.  1.
    10030    2    1    2    0    0  0.00000000000E+00  0.00000000000E+00 -0.13558180451E+04  0.40629248690E+04  0.38300281879E+04 0.  0.
        1    1    3    3  502    0  0.12538664800E+04 -0.12117467181E+04  0.16191855657E+03  0.17512078339E+04  0.50400001928E-02 0. -1.
       -1    1    3    3    0  502 -0.12538664800E+04  0.12117467181E+04 -0.15177366017E+04  0.23117170351E+04  0.50400001928E-02 0.  1.
</event>
<event>
 5   0  0.2422436E-06  0.3637190E+04  0.7818609E-02  0.8082026E-01
       -2   -1    0    0    0  501  0.00000000000E+00  0.00000000000E+00  0.19339464097E+04  0.19339464097E+04  0.25500000920E-02 0.  1.
        2   -1    0    0  501    0  0.00000000000E+00  0.00000000000E+00 -0.17101241064E+04  0.17101241064E+04  0.25500000920E-02 0. -1.
    10030    2    1    2    0    0  0.00000000000E+00  0.00000000000E+00  0.22382230327E+03  0.36440705160E+04  0.36371903308E+04 0.  0.
        2    1    3    3  502    0 -0.31968378506E+02  0.89608561736E+03 -0.14732628135E+04  0.17246723540E+04  0.25500000920E-02 0. -1.
       -2    1    3    3    0  502  0.31968378506E+02 -0.89608561736E+03  0.16970851168E+04  0.19193981621E+04  0.25500000920E-02 0.  1.
</event>
<event>
 5   0  0.1908273E-06  0.3478924E+04  0.7818609E-02  0.8118803E-01
        1   -1    0    0  501    0  0.00000000000E+00  0.00000000000E+00  0.16053157302E+04  0.16053157302E+04  0.50400001928E-02 0. -1.
       -1   -1    0    0    0  501  0.00000000000E+00  0.00000000000E+00 -0.18848183086E+04  0.18848183086E+04  0.50400001928E-02 0.  1.
    10030    2    1    2    0    0  0.00000000000E+00  0.00000000000E+00 -0.27950257844E+03  0.34901340388E+04  0.34789242472E+04 0.  0.
        3    1    3    3  502    0 -0.96966487058E+03 -0.14361720416E+04 -0.29152781724E+03  0.17572218337E+04  0.10100000352E+00 0.  1.
       -3    1    3    3    0  502  0.96966487058E+03  0.14361720416E+04  0.12025238803E+02  0.17329122052E+04  0.10100000352E+00 0. -1.
</event>
<event>
 5   0  0.2536619E-06  0.3773851E+04  0.7818609E-02  0.8051790E-01
       -2   -1    0    0    0  501  0.00000000000E+00  0.00000000000E+00  0.16475633849E+04  0.16475633849E+04  0.25500000920E-02 0. -1.
        2   -1    0    0  501    0  0.00000000000E+00  0.00000000000E+00 -0.21610626768E+04  0.21610626768E+04  0.25500000920E-02 0.  1.
    10030    2    1    2    0    0  0.00000000000E+00  0.00000000000E+00 -0.51349929194E+03  0.38086260618E+04  0.37738509450E+04 0.  0.
        1    1    3    3  502    0  0.17601837389E+04  0.57603242236E+03  0.10772584603E+03  0.18551724999E+04  0.50400001928E-02 0.  1.
       -1    1    3    3    0  502 -0.17601837389E+04 -0.57603242236E+03 -0.62122513797E+03  0.19534535619E+04  0.50400001928E-02 0. -1.
</event>
<event>
 5   0  0.1513502E-06  0.2097175E+04  0.7818609E-02  0.8562489E-01
       -2   -1    0    0    0  501  0.00000000000E+00  0.00000000000E+00  0.91775347835E+03  0.91775347835E+03  0.25500000920E-02 0. -1.
        2   -1    0    0  501    0  0.00000000000E+00  0.00000000000E+00 -0.11980732815E+04  0.11980732815E+04  0.25500000920E-02 0.  1.
    10030    2    1    2    0    0  0.00000000000E+00  0.00000000000E+00 -0.28031980311E+03  0.21158267598E+04  0.20971751681E+04 0.  0.
        3    1    3    3  502    0  0.31938249916E+03 -0.29602229068E+03  0.82221125319E+03  0.93041159302E+03  0.10100000352E+00 0. -1.
       -3    1    3    3    0  502 -0.31938249916E+03  0.29602229068E+03 -0.11025310563E+04  0.11854151668E+04  0.10100000352E+00 0.  1.
</event>
<event>
 5   0  0.2422436E-06  0.1835823E+04  0.7818609E-02  0.8687478E-01
        2   -1    0    0  501    0  0.00000000000E+00  0.00000000000E+00  0.14758948902E+04  0.14758948902E+04  0.25500000920E-02 0. -1.
       -2   -1    0    0    0  501  0.00000000000E+00  0.00000000000E+00 -0.57088193843E+03  0.57088193843E+03  0.25500000920E-02 0.  1.
    10030    2    1    2    0    0  0.00000000000E+00  0.00000000000E+00  0.90501295181E+03  0.20467768287E+04  0.18358232332E+04 0.  0.
        2    1    3    3  502    0  0.28545611802E+03 -0.35257790411E+03 -0.43716434214E+03  0.63000717125E+03  0.25500000920E-02 0.  1.
       -2    1    3    3    0  502 -0.28545611802E+03  0.35257790411E+03  0.13421772939E+04  0.14167696574E+04  0.25500000920E-02 0. -1.
</event>
<event>
 5   0  0.8423692E-07  0.3318736E+04  0.7818609E-02  0.8158144E-01
       -1   -1    0    0    0  501  0.00000000000E+00  0.00000000000E+00  0.20794589635E+04  0.20794589635E+04  0.50400001928E-02 0. -1.
        1   -1    0    0  501    0  0.00000000000E+00  0.00000000000E+00 -0.13241436390E+04  0.13241436390E+04  0.50400001928E-02 0.  1.
    10030    2    1    2    0    0  0.00000000000E+00  0.00000000000E+00  0.75531532454E+03  0.34036026025E+04  0.33187361203E+04 0.  0.
        2    1    3    3  502    0  0.55136568505E+02 -0.32836427451E+03  0.20448475335E+04  0.20717781187E+04  0.25500000920E-02 0. -1.
       -2    1    3    3    0  502 -0.55136568505E+02  0.32836427451E+03 -0.12895322089E+04  0.13318244839E+04  0.25500000920E-02 0.  1.
</event>
<event>
 5   0  0.1566576E-06  0.2147696E+04  0.7818609E-02  0.8540519E-01
        2   -1    0    0  501    0  0.00000000000E+00  0.00000000000E+00  0.89129846046E+03  0.89129846047E+03  0.25500000920E-02 0. -1.
       -2   -1    0    0    0  501  0.00000000000E+00  0.00000000000E+00 -0.12937856783E+04  0.12937856783E+04  0.25500000920E-02 0.  1.
    10030    2    1    2    0    0  0.00000000000E+00  0.00000000000E+00 -0.40248721785E+03  0.21850841388E+04  0.21476956798E+04 0.  0.
        4    1    3    3  502    0  0.20102130119E+03  0.10074763839E+04 -0.51930277065E+03  0.11511277984E+04  0.12699999809E+01 0. -1.
       -4    1    3    3    0  502 -0.20102130119E+03 -0.10074763839E+04  0.11681555280E+03  0.10339563404E+04  0.12699999809E+01 0.  1.
</event>
<event>
 5   0  0.2422436E-06  0.3898845E+04  0.7818609E-02  0.8025269E-01
        2   -1    0    0  501    0  0.00000000000E+00  0.00000000000E+00  0.18190246235E+04  0.18190246235E+04  0.25500000920E-02 0. -1.
       -2   -1    0    0    0  501  0.00000000000E+00  0.00000000000E+00 -0.20891679935E+04  0.20891679935E+04  0.25500000920E-02 0.  1.
    10030    2    1    2    0    0  0.00000000000E+00  0.00000000000E+00 -0.27014337003E+03  0.39081926170E+04  0.38988449689E+04 0.  0.
        2    1    3    3  502    0 -0.24898064163E+03  0.43290630949E+03  0.17538157722E+04  0.18235320111E+04  0.25500000920E-02 0. -1.
       -2    1    3    3    0  502  0.24898064163E+03 -0.43290630949E+03 -0.20239591422E+04  0.20846606059E+04  0.25500000920E-02 0.  1.
</event>
<event>
 5   0  0.1566576E-06  0.3395735E+04  0.7818609E-02  0.8138954E-01
       -2   -1    0    0    0  501  0.00000000000E+00  0.00000000000E+00  0.12103482152E+04  0.12103482152E+04  0.25500000920E-02 0.  1.
        2   -1    0    0  501    0  0.00000000000E+00  0.00000000000E+00 -0.23817557519E+04  0.23817557519E+04  0.25500000920E-02 0. -1.
    10030    2    1    2    0    0  0.00000000000E+00  0.00000000000E+00 -0.11714075367E+04  0.35921039672E+04  0.33957348680E+04 0.  0.
        4    1    3    3  502    0  0.29907769657E+03  0.16713180553E+04 -0.58481859426E+03  0.17957633228E+04  0.12699999809E+01 0. -1.
       -4    1    3    3    0  502 -0.29907769657E+03 -0.16713180553E+04 -0.58658894245E+03  0.17963406444E+04  0.12699999809E+01 0.  1.
</event>
<event>
 5   0  0.1513502E-06  0.3439114E+04  0.7818609E-02  0.8128373E-01
        2   -1    0    0  501    0  0.00000000000E+00  0.00000000000E+00  0.25042495041E+04  0.25042495041E+04  0.25500000920E-02 0. -1.
       -2   -1    0    0    0  501  0.00000000000E+00  0.00000000000E+00 -0.11807433943E+04  0.11807433943E+04  0.25500000920E-02 0.  1.
    10030    2    1    2    0    0  0.00000000000E+00  0.00000000000E+00  0.13235061097E+04  0.36849928984E+04  0.34391138741E+04 0.  0.
        3    1    3    3  502    0  0.24785539550E+03 -0.10426099077E+04 -0.77916190003E+03  0.13249758463E+04  0.10100000352E+00 0.  1.
       -3    1    3    3    0  502 -0.24785539550E+03  0.10426099077E+04  0.21026680098E+04  0.23600170521E+04  0.10100000352E+00 0. -1.
</event>
<event>
 5   0  0.2382711E-06  0.2376145E+04  0.7818609E-02  0.8448489E-01
        2   -1    0    0  501    0  0.00000000000E+00  0.00000000000E+00  0.19644319634E+04  0.19644319634E+04  0.25500000920E-02 0.  1.
       -2   -1    0    0    0  501  0.00000000000E+00  0.00000000000E+00 -0.71853663837E+03  0.71853663838E+03  0.25500000920E-02 0. -1.
    10030    2    1    2    0    0  0.00000000000E+00  0.00000000000E+00  0.12458953250E+04  0.26829686018E+04  0.23761450623E+04 0.  0.
        5    1    3    3  502    0 -0.27923001262E+03  0.92536919008E+03  0.14029581851E+04  0.17036992977E+04  0.46999998093E+01 0.  1.
       -5    1    3    3    0  502  0.27923001262E+03 -0.92536919008E+03 -0.15706286006E+03  0.97926930407E+03  0.46999998093E+01 0. -1.
</event>
<event>
 5   0  0.2536619E-06  0.2060124E+04  0.7818609E-02  0.8579015E-01
       -2   -1    0    0    0  501  0.00000000000E+00  0.00000000000E+00  0.94728123024E+03  0.94728123024E+03  0.25500000920E-02 0. -1.
        2   -1    0    0  501    0  0.00000000000E+00  0.00000000000E+00 -0.11200771320E+04  0.11200771320E+04  0.25500000920E-02 0.  1.
    10030    2    1    2    0    0  0.00000000000E+00  0.00000000000E+00 -0.17279590171E+03  0.20673583622E+04  0.20601243104E+04 0.  0.
        1    1    3    3  502    0 -0.98499825308E+03  0.29455645646E+03 -0.22590253161E+02  0.10283459458E+04  0.50400001928E-02 0. -1.
       -1    1    3    3    0  502  0.98499825308E+03 -0.29455645646E+03 -0.15020564855E+03  0.10390124164E+04  0.50400001928E-02 0.  1.
</event>
<event>
 5   0  0.1566576E-06  0.3565930E+04  0.7818609E-02  0.8098341E-01
       -2   -1    0    0    0  501  0.00000000000E+00  0.00000000000E+00  0.29817901737E+04  0.29817901737E+04  0.25500000920E-02 0. -1.
        2   -1    0    0  501    0  0.00000000000E+00  0.00000000000E+00 -0.10661263296E+04  0.10661263296E+04  0.25500000920E-02 0.  1.
    10030    2    1    2    0    0  0.00000000000E+00  0.00000000000E+00  0.19156638441E+04  0.40479165033E+04  0.35659304611E+04 0.  0.
        4    1    3    3  502    0  0.13607710200E+04  0.89294947471E+03  0.13149254251E+03  0.16328957208E+04  0.12699999809E+01 0.  1.
       -4    1    3    3    0  502 -0.13607710200E+04 -0.89294947471E+03  0.17841713016E+04  0.24150207825E+04  0.12699999809E+01 0. -1.
</event>
<event>
 5   0  0.7754556E-07  0.3551059E+04  0.7818609E-02  0.8101795E-01
       -1   -1    0    0    0  501  0.00000000000E+00  0.00000000000E+00  0.10728766706E+04  0.10728766706E+04  0.50400001928E-02 0. -1.
        1   -1    0    0  501    0  0.00000000000E+00  0.00000000000E+00 -0.29383659683E+04  0.29383659683E+04  0.50400001928E-02 0.  1.
    10030    2    1    2    0    0  0.00000000000E+00  0.00000000000E+00 -0.18654892977E+04  0.40112426389E+04  0.35510586010E+04 0.  0.
        4    1    3    3  502    0 -0.42099046365E+03  0.11257918696E+04  0.54346326741E+03  0.13190884126E+04  0.12699999809E+01 0. -1.
       -4    1    3    3    0  502  0.42099046365E+03 -0.11257918696E+04 -0.24089525651E+04  0.26921542263E+04  0.12699999809E+01 0.  1.
</event>
<event>
 5   0  0.2382711E-06  0.3332039E+04  0.7818609E-02  0.8154790E-01
        2   -1    0    0  501    0  0.00000000000E+00  0.00000000000E+00  0.22088273912E+04  0.22088273912E+04  0.25500000920E-02 0. -1.
       -2   -1    0    0    0  501  0.00000000000E+00  0.00000000000E+00 -0.12566042079E+04  0.12566042079E+04  0.25500000920E-02 0.  1.
    10030    2    1    2    0    0  0.00000000000E+00  0.00000000000E+00  0.95222318328E+03  0.34654315991E+04  0.33320394921E+04 0.  0.
        5    1    3    3  502    0  0.12331018379E+04  0.11201693824E+04  0.45870489152E+03  0.17279328272E+04  0.46999998093E+01 0. -1.
       -5    1    3    3    0  502 -0.12331018379E+04 -0.11201693824E+04  0.49351829177E+03  0.17374987719E+04  0.46999998093E+01 0.  1.
</event>
<event>
 5   0  0.1908273E-06  0.2161759E+04  0.7818609E-02  0.8534516E-01
        1   -1    0    0  501    0  0.00000000000E+00  0.00000000000E+00  0.15048129964E+04  0.15048129965E+04  0.50400001928E-02 0. -1.
       -1   -1    0    0    0  501  0.00000000000E+00  0.00000000000E+00 -0.77637590520E+03  0.77637590521E+03  0.50400001928E-02 0.  1.
    10030    2    1    2    0    0  0.00000000000E+00  0.00000000000E+00  0.72843709125E+03  0.22811889017E+04  0.21617590544E+04 0.  0.
        3    1    3    3  502    0  0.54455601264E+03  0.90171200492E+03  0.10860751444E+03  0.10589718566E+04  0.10100000352E+00 0. -1.
       -3    1    3    3    0  502 -0.54455601264E+03 -0.90171200492E+03  0.61982957681E+03  0.12222170450E+04  0.10100000352E+00 0.  1.
</event>
<event>
 5   0  0.8452742E-07  0.3442886E+04  0.7818609E-02  0.8127460E-01
        1   -1    0    0  501    0  0.00000000000E+00  0.00000000000E+00  0.16967513217E+04  0.16967513217E+04  0.50400001928E-02 0.  1.
       -1   -1    0    0    0  501  0.00000000000E+00  0.00000000000E+00 -0.17464943293E+04  0.17464943293E+04  0.50400001928E-02 0. -1.
    10030    2    1    2    0    0  0.00000000000E+00  0.00000000000E+00 -0.49743007624E+02  0.34432456510E+04  0.34428863249E+04 0.  0.
        1    1    3    3  502    0  0.12971030085E+04  0.10906523982E+04  0.27743093712E+03  0.17172555993E+04  0.50400001928E-02 0.  1.
       -1    1    3    3    0  502 -0.12971030085E+04 -0.10906523982E+04 -0.32717394474E+03  0.17259900517E+04  0.50400001928E-02 0. -1.
</event>
<event>
 5   0  0.1566576E-06  0.3523144E+04  0.7818609E-02  0.8108327E-01
        2   -1    0    0  501    0  0.00000000000E+00  0.00000000000E+00  0.22495394114E+04  0.22495394114E+04  0.25500000920E-02 0. -1.
       -2   -1    0    0    0  501  0.00000000000E+00  0.00000000000E+00 -0.13794536337E+04  0.13794536337E+04  0.25500000920E-02 0.  1.
    10030    2    1    2    0    0  0.00000000000E+00  0.00000000000E+00  0.87008577770E+03  0.36289930451E+04  0.35231436617E+04 0.  0.
        4    1    3    3  502    0  0.49123109652E+03 -0.21851255158E+03 -0.12928779688E+04  0.14002109771E+04  0.12699999809E+01 0.  1.
       -4    1    3    3    0  502 -0.49123109652E+03  0.21851255158E+03  0.21629637464E+04  0.22287820680E+04  0.12699999809E+01 0. -1.
</event>
<event>
 5   0  0.7754556E-07  0.3492604E+04  0.7818609E-02  0.8115545E-01
        1   -1    0    0  501    0  0.00000000000E+00  0.00000000000E+00  0.17952609545E+04  0.17952609545E+04  0.50400001928E-02 0. -1.
       -1   -1    0    0    0  501  0.00000000000E+00  0.00000000000E+00 -0.16986781749E+04  0.16986781749E+04  0.50400001928E-02 0.  1.
    10030    2    1    2    0    0  0.00000000000E+00  0.00000000000E+00  0.96582779618E+02  0.34939391294E+04  0.34926039579E+04 0.  0.
        4    1    3    3  502    0 -0.11125211350E+04  0.89999124414E+03  0.10496143293E+04  0.17746490832E+04  0.12699999809E+01 0. -1.
       -4    1    3    3    0  502  0.11125211350E+04 -0.89999124414E+03 -0.95303154966E+03  0.17192900462E+04  0.12699999809E+01 0.  1.
</event>
<event>
 5   0  0.1513502E-06  0.3578682E+04  0.7818609E-02  0.8095392E-01
        2   -1    0    0  501    0  0.00000000000E+00  0.00000000000E+00  0.16661994531E+04  0.16661994531E+04  0.25500000920E-02 0. -1.
       -2   -1    0    0    0  501  0.00000000000E+00  0.00000000000E+00 -0.19215832872E+04  0.19215832872E+04  0.25500000920E-02 0.  1.
    10030    2    1    2    0    0  0.00000000000E+00  0.00000000000E+00 -0.25538383408E+03  0.35877827403E+04  0.35786818927E+04 0.  0.
        3    1    3    3  502    0 -0.12272328581E+04 -0.57761347779E+02  0.11765022401E+04  0.17010568458E+04  0.10100000352E+00 0. -1.
       -3    1    3    3    0  502  0.12272328581E+04  0.57761347779E+02 -0.14318860742E+04  0.18867258945E+04  0.10100000352E+00 0.  1.
</event>
<event>
 5   0  0.1513502E-06  0.3634006E+04  0.7818609E-02  0.8082746E-01
        2   -1    0    0  501    0  0.00000000000E+00  0.00000000000E+00  0.29411734750E+04  0.29411734750E+04  0.25500000920E-02 0. -1.
       -2   -1    0    0    0  501  0.00000000000E+00  0.00000000000E+00 -0.11225108015E+04  0.11225108015E+04  0.25500000920E-02 0.  1.
    10030    2    1    2    0    0  0.00000000000E+00  0.00000000000E+00  0.18186626736E+04  0.40636842765E+04  0.36340055006E+04 0.  0.
        3    1    3    3  502    0  0.47479441823E+03  0.68590922053E+02 -0.10504158986E+04  0.11547761793E+04  0.10100000352E+00 0.  1.
       -3    1    3    3    0  502 -0.47479441823E+03 -0.68590922053E+02  0.28690785721E+04  0.29089080971E+04  0.10100000352E+00 0. -1.
</event>
<event>
 5   0  0.1513502E-06  0.2580697E+04  0.7818609E-02  0.8374788E-01
        2   -1    0    0  501    0  0.00000000000E+00  0.00000000000E+00  0.15824753517E+04  0.15824753517E+04  0.25500000920E-02 0.  1.
       -2   -1    0    0    0  501  0.00000000000E+00  0.00000000000E+00 -0.10521482575E+04  0.10521482575E+04  0.25500000920E-02 0. -1.
    10030    2    1    2    0    0  0.00000000000E+00  0.00000000000E+00  0.53032709422E+03  0.26346236093E+04  0.25806965602E+04 0.  0.
        3    1    3    3  502    0 -0.45974243830E+03  0.67695542634E+03  0.12836921671E+04  0.15223328640E+04  0.10100000352E+00 0.  1.
       -3    1    3    3    0  502  0.45974243830E+03 -0.67695542634E+03 -0.75336507285E+03  0.11122907453E+04  0.10100000352E+00 0. -1.
</event>
<event>
 5   0  0.2422436E-06  0.3671537E+04  0.7818609E-02  0.8074299E-01
        2   -1    0    0  501    0  0.00000000000E+00  0.00000000000E+00  0.16177949722E+04  0.16177949722E+04  0.25500000920E-02 0.  1.
       -2   -1    0    0    0  501  0.00000000000E+00  0.00000000000E+00 -0.20831106929E+04  0.20831106929E+04  0.25500000920E-02 0. -1.
    10030    2    1    2    0    0  0.00000000000E+00  0.00000000000E+00 -0.46531572075E+03  0.37009056651E+04  0.36715370109E+04 0.  0.
        2    1    3    3  502    0 -0.23156148472E+03 -0.24194336796E+03  0.15867422881E+04  0.16216992333E+04  0.25500000920E-02 0.  1.
       -2    1    3    3    0  502  0.23156148472E+03  0.24194336796E+03 -0.20520580088E+04  0.20792064318E+04  0.25500000920E-02 0. -1.
</event>
<event>
 5   0  0.8423692E-07  0.2986889E+04  0.7818609E-02  0.8247485E-01
        1   -1    0    0  501    0  0.00000000000E+00  0.00000000000E+00  0.19397296729E+04  0.19397296729E+04  0.50400001928E-02 0. -1.
       -1   -1    0    0    0  501  0.00000000000E+00  0.00000000000E+00 -0.11498388094E+04  0.11498388094E+04  0.50400001928E-02 0.  1.
    10030    2    1    2    0    0  0.00000000000E+00  0.00000000000E+00  0.78989086350E+03  0.30895684824E+04  0.29868889887E+04 0.  0.
        2    1    3    3  502    0  0.13795798721E+03 -0.67229398744E+03 -0.97706274383E+03  0.11940113974E+04  0.25500000920E-02 0.  1.
       -2    1    3    3    0  502 -0.13795798721E+03  0.67229398744E+03  0.17669536073E+04  0.18955570849E+04  0.25500000920E-02 0. -1.
</event>
<event>
 5   0  0.1566576E-06  0.3384905E+04  0.7818609E-02  0.8141621E-01
       -2   -1    0    0    0  501  0.00000000000E+00  0.00000000000E+00  0.12055719066E+04  0.12055719066E+04  0.25500000920E-02 0.  1.
        2   -1    0    0  501    0  0.00000000000E+00  0.00000000000E+00 -0.23759646380E+04  0.23759646380E+04  0.25500000920E-02 0. -1.
    10030    2    1    2    0    0  0.00000000000E+00  0.00000000000E+00 -0.11703927314E+04  0.35815365446E+04  0.33849054455E+04 0.  0.
        4    1    3    3  502    0 -0.31712990922E+03  0.53820468062E+03  0.10791229124E+04  0.12468935522E+04  0.12699999809E+01 0.  1.
       -4    1    3    3    0  502  0.31712990922E+03 -0.53820468062E+03 -0.22495156438E+04  0.23346429924E+04  0.12699999809E+01 0. -1.
</event>
<event>
 5   0  0.1513502E-06  0.3589140E+04  0.7818609E-02  0.8092984E-01
        2   -1    0    0  501    0  0.00000000000E+00  0.00000000000E+00  0.25436075358E+04  0.25436075358E+04  0.25500000920E-02 0.  1.
       -2   -1    0    0    0  501  0.00000000000E+00  0.00000000000E+00 -0.12661077752E+04  0.12661077752E+04  0.25500000920E-02 0. -1.
    10030    2    1    2    0    0  0.00000000000E+00  0.00000000000E+00  0.12774997606E+04  0.38097153109E+04  0.35891398847E+04 0.  0.
        3    1    3    3  502    0  0.83620650089E+03  0.90916482559E+03  0.20205439828E+04  0.23682102924E+04  0.10100000352E+00 0.  1.
       -3    1    3    3    0  502 -0.83620650089E+03 -0.90916482559E+03 -0.74304422219E+03  0.14415050186E+04  0.10100000352E+00 0. -1.
</event>
<event>
 5   0  0.1566576E-06  0.3137957E+04  0.7818609E-02  0.8205397E-01
       -2   -1    0    0    0  501  0.00000000000E+00  0.00000000000E+00  0.11051896403E+04  0.11051896403E+04  0.25500000920E-02 0. -1.
        2   -1    0    0  501    0  0.00000000000E+00  0.00000000000E+00 -0.22273949153E+04  0.22273949153E+04  0.25500000920E-02 0.  1.
    10030    2    1    2    0    0  0.00000000000E+00  0.00000000000E+00 -0.11222052751E+04  0.33325845556E+04  0.31379571604E+04 0.  0.
        4    1    3    3  502    0 -0.66373311681E+03 -0.55893970556E+03 -0.19493657033E+04  0.21337721300E+04  0.12699999809E+01 0.  1.
       -4    1    3    3    0  502  0.66373311681E+03  0.55893970556E+03  0.82716042821E+03  0.11988124256E+04  0.12699999809E+01 0. -1.
</event>
<event>
 5   0  0.1513502E-06  0.3620281E+04  0.7818609E-02  0.8085862E-01
       -2   -1    0    0    0  501  0.00000000000E+00  0.00000000000E+00  0.16780688122E+04  0.16780688122E+04  0.25500000920E-02 0.  1.
        2   -1    0    0  501    0  0.00000000000E+00  0.00000000000E+00 -0.19526071815E+04  0.19526071815E+04  0.25500000920E-02 0. -1.
    10030    2    1    2    0    0  0.00000000000E+00  0.00000000000E+00 -0.27453836925E+03  0.36306759937E+04  0.36202813226E+04 0.  0.
        3    1    3    3  502    0 -0.73615186022E+03 -0.38333234267E+03 -0.17505352301E+04  0.19373272435E+04  0.10100000352E+00 0. -1.
       -3    1    3    3    0  502  0.73615186022E+03  0.38333234267E+03  0.14759968609E+04  0.16933487502E+04  0.10100000352E+00 0.  1.
</event>
<event>
 5   0  0.1513502E-06  0.3324915E+04  0.7818609E-02  0.8156585E-01
       -2   -1    0    0    0  501  0.00000000000E+00  0.00000000000E+00  0.14136195583E+04  0.14136195583E+04  0.25500000920E-02 0.  1.
        2   -1    0    0  501    0  0.00000000000E+00  0.00000000000E+00 -0.19550978751E+04  0.19550978751E+04  0.25500000920E-02 0. -1.
    10030    2    1    2    0    0  0.00000000000E+00  0.00000000000E+00 -0.54147831683E+03  0.33687174335E+04  0.33249147927E+04 0.  0.
        3    1    3    3  502    0  0.66696964993E+03  0.11393305558E+04 -0.12944170390E+04  0.18489018661E+04  0.10100000352E+00 0. -1.
       -3    1    3    3    0  502 -0.66696964993E+03 -0.11393305558E+04  0.75293872216E+03  0.15198155674E+04  0.10100000352E+00 0.  1.
</event>
<event>
 5   0  0.8423692E-07  0.2353943E+04  0.7818609E-02  0.8456951E-01
       -1   -1    0    0    0  501  0.00000000000E+00  0.00000000000E+00  0.21178847889E+04  0.21178847889E+04  0.50400001928E-02 0. -1.
        1   -1    0    0  501    0  0.00000000000E+00  0.00000000000E+00 -0.65407799135E+03  0.65407799137E+03  0.50400001928E-02 0.  1.
    10030    2    1    2    0    0  0.00000000000E+00  0.00000000000E+00  0.14638067976E+04  0.27719627803E+04  0.23539429294E+04 0.  0.
        2    1    3    3  502    0 -0.65759253338E+03  0.96439801937E+03  0.90959884913E+03  0.14798180787E+04  0.25500000920E-02 0.  1.
       -2    1    3    3    0  502  0.65759253338E+03 -0.96439801937E+03  0.55420794843E+03  0.12921447016E+04  0.25500000920E-02 0. -1.
</event>
<event>
 5   0  0.8452742E-07  0.3536981E+04  0.7818609E-02  0.8105081E-01
       -1   -1    0    0    0  501  0.00000000000E+00  0.00000000000E+00  0.17758385707E+04  0.17758385707E+04  0.50400001928E-02 0. -1.
        1   -1    0    0  501    0  0.00000000000E+00  0.00000000000E+00 -0.17611730027E+04  0.17611730027E+04  0.50400001928E-02 0.  1.
    10030    2    1    2    0    0  0.00000000000E+00  0.00000000000E+00  0.14665568036E+02  0.35370115734E+04  0.35369811693E+04 0.  0.
        1    1    3    3  502    0  0.73902626216E+03 -0.14438043194E+04 -0.69753370031E+03  0.17655831875E+04  0.50400001928E-02 0.  1.
       -1    1    3    3    0  502 -0.73902626216E+03  0.14438043194E+04  0.71219926834E+03  0.17714283860E+04  0.50400001928E-02 0. -1.
</event>
<event>
 5   0  0.1634374E-06  0.3624537E+04  0.7818609E-02  0.8084894E-01
       -1   -1    0    0    0  501  0.00000000000E+00  0.00000000000E+00  0.22436142918E+04  0.22436142918E+04  0.50400001928E-02 0. -1.
        1   -1    0    0  501    0  0.00000000000E+00  0.00000000000E+00 -0.14638512776E+04  0.14638512776E+04  0.50400001928E-02 0.  1.
    10030    2    1    2    0    0  0.00000000000E+00  0.00000000000E+00  0.77976301415E+03  0.37074655694E+04  0.36245372933E+04 0.  0.
        5    1    3    3  502    0  0.96823817256E+03  0.55527062066E+03  0.18503033073E+04  0.21608921861E+04  0.46999998093E+01 0. -1.
       -5    1    3    3    0  502 -0.96823817256E+03 -0.55527062066E+03 -0.10705402931E+04  0.15465733834E+04  0.46999998093E+01 0.  1.
</event>
<event>
 5   0  0.2536619E-06  0.3737032E+04  0.7818609E-02  0.8059804E-01
       -2   -1    0    0    0  501  0.00000000000E+00  0.00000000000E+00  0.27167078150E+04  0.27167078150E+04  0.25500000920E-02 0. -1.
        2   -1    0    0  501    0  0.00000000000E+00  0.00000000000E+00 -0.12851405948E+04  0.12851405948E+04  0.25500000920E-02 0.  1.
    10030    2    1    2    0    0  0.00000000000E+00  0.00000000000E+00  0.14315672202E+04  0.40018484099E+04  0.37370317084E+04 0.  0.
        1    1    3    3  502    0 -0.16711948342E+04 -0.28031448670E+03  0.15589023707E+04  0.23025301272E+04  0.50400001928E-02 0. -1.
       -1    1    3    3    0  502  0.16711948342E+04  0.28031448670E+03 -0.12733515048E+03  0.16993182827E+04  0.50400001928E-02 0.  1.
</event>
<event>
 5   0  0.1513502E-06  0.3109642E+04  0.7818609E-02  0.8213097E-01
        2   -1    0    0  501    0  0.00000000000E+00  0.00000000000E+00  0.21788331176E+04  0.21788331176E+04  0.25500000920E-02 0.  1.
       -2   -1    0    0    0  501  0.00000000000E+00  0.00000000000E+00 -0.11095240308E+04  0.11095240308E+04  0.25500000920E-02 0. -1.
    10030    2    1    2    0    0  0.00000000000E+00  0.00000000000E+00  0.10693090867E+04  0.32883571484E+04  0.31096415891E+04 0.  0.
        3    1    3    3  502    0 -0.95400587775E+03  0.11359710704E+04  0.10271572673E+04  0.18043307761E+04  0.10100000352E+00 0.  1.
       -3    1    3    3    0  502  0.95400587775E+03 -0.11359710704E+04  0.42151819372E+02  0.14840263723E+04  0.10100000352E+00 0. -1.
</event>
<event>
 5   0  0.1634374E-06  0.3012948E+04  0.7818609E-02  0.8240043E-01
       -1   -1    0    0    0  501  0.00000000000E+00  0.00000000000E+00  0.15239521556E+04  0.15239521557E+04  0.50400001928E-02 0. -1.
        1   -1    0    0  501    0  0.00000000000E+00  0.00000000000E+00 -0.14891959334E+04  0.14891959334E+04  0.50400001928E-02 0.  1.
    10030    2    1    2    0    0  0.00000000000E+00  0.00000000000E+00  0.34756222259E+02  0.30131480891E+04  0.30129476284E+04 0.  0.
        5    1    3    3  502    0  0.78910932418E+03  0.10025458028E+04 -0.78370555202E+03  0.14973336617E+04  0.46999998093E+01 0.  1.
       -5    1    3    3    0  502 -0.78910932418E+03 -0.10025458028E+04  0.81846177428E+03  0.15158144273E+04  0.46999998093E+01 0. -1.
</event>
<event>
 5   0  0.7754556E-07  0.3452867E+04  0.7818609E-02  0.8125052E-01
       -1   -1    0    0    0  501  0.00000000000E+00  0.00000000000E+00  0.16367337095E+04  0.16367337095E+04  0.50400001928E-02 0. -1.
        1   -1    0    0  501    0  0.00000000000E+00  0.00000000000E+00 -0.18210488456E+04  0.18210488456E+04  0.50400001928E-02 0.  1.
    10030    2    1    2    0    0  0.00000000000E+00  0.00000000000E+00 -0.18431513614E+03  0.34577825551E+04  0.34528666538E+04 0.  0.
        4    1    3    3  502    0  0.31983220392E+03 -0.16099063400E+04 -0.62815725850E+03  0.17574624368E+04  0.12699999809E+01 0. -1.
       -4    1    3    3    0  502 -0.31983220392E+03  0.16099063400E+04  0.44384212236E+03  0.17003201183E+04  0.12699999809E+01 0.  1.
</event>
<event>
 5   0  0.1566576E-06  0.3613493E+04  0.7818609E-02  0.8087408E-01
        2   -1    0    0  501    0  0.00000000000E+00  0.00000000000E+00  0.17555367081E+04  0.17555367082E+04  0.25500000920E-02 0. -1.
       -2   -1    0    0    0  501  0.00000000000E+00  0.00000000000E+00 -0.18594496911E+04  0.18594496911E+04  0.25500000920E-02 0.  1.
    10030    2    1    2    0    0  0.00000000000E+00  0.00000000000E+00 -0.10391298294E+03  0.36149863992E+04  0.36134925984E+04 0.  0.
        4    1    3    3  502    0 -0.10066087377E+04  0.77876971113E+03  0.12309882358E+04  0.17706148828E+04  0.12699999809E+01 0. -1.
       -4    1    3    3    0  502  0.10066087377E+04 -0.77876971113E+03 -0.13349012187E+04  0.18443715164E+04  0.12699999809E+01 0.  1.
</event>
<event>
 5   0  0.7754556E-07  0.3534465E+04  0.7818609E-02  0.8105670E-01
       -1   -1    0    0    0  501  0.00000000000E+00  0.00000000000E+00  0.13845052696E+04  0.13845052696E+04  0.50400001928E-02 0. -1.
        1   -1    0    0  501    0  0.00000000000E+00  0.00000000000E+00 -0.22557596338E+04  0.22557596339E+04  0.50400001928E-02 0.  1.
    10030    2    1    2    0    0  0.00000000000E+00  0.00000000000E+00 -0.87125436426E+03  0.36402649034E+04  0.35344652212E+04 0.  0.
        4    1    3    3  502    0  0.17258690416E+04  0.40402341219E+02 -0.82490015004E+03  0.19133003341E+04  0.12699999809E+01 0.  1.
       -4    1    3    3    0  502 -0.17258690416E+04 -0.40402341219E+02 -0.46354214218E+02  0.17269645694E+04  0.12699999809E+01 0. -1.
</event>
<event>
 5   0  0.1566576E-06  0.2104532E+04  0.7818609E-02  0.8559250E-01
        2   -1    0    0  501    0  0.00000000000E+00  0.00000000000E+00  0.83529240700E+03  0.83529240701E+03  0.25500000920E-02 0.  1.
       -2   -1    0    0    0  501  0.00000000000E+00  0.00000000000E+00 -0.13255996088E+04  0.13255996088E+04  0.25500000920E-02 0. -1.
    10030    2    1    2    0    0  0.00000000000E+00  0.00000000000E+00 -0.49030720178E+03  0.21608920158E+04  0.21045315754E+04 0.  0.
        4    1    3    3  502    0 -0.58971990688E+03 -0.55406043003E+02 -0.11381706987E+04  0.12830719194E+04  0.12699999809E+01 0. -1.
       -4    1    3    3    0  502  0.58971990688E+03  0.55406043003E+02  0.64786349687E+03  0.87782009640E+03  0.12699999809E+01 0.  1.
</event>
<event>
 5   0  0.2536619E-06  0.3520339E+04  0.7818609E-02  0.8108987E-01
       -2   -1    0    0    0  501  0.00000000000E+00  0.00000000000E+00  0.11429403681E+04  0.11429403681E+04  0.25500000920E-02 0. -1.
        2   -1    0    0  501    0  0.00000000000E+00  0.00000000000E+00 -0.27107247652E+04  0.27107247652E+04  0.25500000920E-02 0.  1.
    10030    2    1    2    0    0  0.00000000000E+00  0.00000000000E+00 -0.15677843970E+04  0.38536651333E+04  0.35203390525E+04 0.  0.
        1    1    3    3  502    0  0.14334205842E+04 -0.95262016693E+03 -0.11876176118E+04  0.20910799472E+04  0.50400001928E-02 0.  1.
       -1    1    3    3    0  502 -0.14334205842E+04  0.95262016693E+03 -0.38016678524E+03  0.17625851861E+04  0.50400001928E-02 0. -1.
</event>
<event>
 5   0  0.2382711E-06  0.3630578E+04  0.7818609E-02  0.8083523E-01
       -2   -1    0    0    0  501  0.00000000000E+00  0.00000000000E+00  0.18300472829E+04  0.18300472829E+04  0.25500000920E-02 0. -1.
        2   -1    0    0  501    0  0.00000000000E+00  0.00000000000E+00 -0.18006493697E+04  0.18006493697E+04  0.25500000920E-02 0.  1.
    10030    2    1    2    0    0  0.00000000000E+00  0.00000000000E+00  0.29397913125E+02  0.36306966526E+04  0.36305776325E+04 0.  0.
        5    1    3    3  502    0  0.47441149862E+03  0.66587443643E+03 -0.16060936246E+04  0.18022246963E+04  0.46999998093E+01 0.  1.
       -5    1    3    3    0  502 -0.47441149862E+03 -0.66587443643E+03  0.16354915377E+04  0.18284719563E+04  0.46999998093E+01 0. -1.
</event>
<event>
 5   0  0.7754556E-07  0.2560798E+04  0.7818609E-02  0.8381640E-01
       -1   -1    0    0    0  501  0.00000000000E+00  0.00000000000E+00  0.79879619369E+03  0.79879619370E+03  0.50400001928E-02 0.  1.
        1   -1    0    0  501    0  0.00000000000E+00  0.00000000000E+00 -0.20523657603E+04  0.20523657603E+04  0.50400001928E-02 0. -1.
    10030    2    1    2    0    0  0.00000000000E+00  0.00000000000E+00 -0.12535695666E+04  0.28511619540E+04  0.25607982798E+04 0.  0.
        4    1    3    3  502    0 -0.82696153700E+03 -0.94127713032E+03 -0.33315348648E+03  0.12964801881E+04  0.12699999809E+01 0. -1.
       -4    1    3    3    0  502  0.82696153700E+03  0.94127713032E+03 -0.92041608015E+03  0.15546817659E+04  0.12699999809E+01 0.  1.
</event>
<event>
 5   0  0.7707500E-07  0.3045399E+04  0.7818609E-02  0.8230884E-01
        3   -1    0    0  501    0  0.00000000000E+00  0.00000000000E+00  0.11846419106E+04  0.11846419149E+04  0.10100000352E+00 0.  1.
       -3   -1    0    0    0  501  0.00000000000E+00  0.00000000000E+00 -0.19572277240E+04  0.19572277266E+04  0.10100000352E+00 0. -1.
    10030    2    1    2    0    0  0.00000000000E+00  0.00000000000E+00 -0.77258581336E+03  0.31418696415E+04  0.30453991537E+04 0.  0.
        5    1    3    3  502    0 -0.99985929762E+03 -0.21242831879E+03  0.77806262943E+03  0.12846197690E+04  0.46999998093E+01 0.  1.
       -5    1    3    3    0  502  0.99985929762E+03  0.21242831879E+03 -0.15506484428E+04  0.18572498725E+04  0.46999998093E+01 0. -1.
</event>
<event>
 5   0  0.1566576E-06  0.3762591E+04  0.7818609E-02  0.8054231E-01
       -2   -1    0    0    0  501  0.00000000000E+00  0.00000000000E+00  0.17855870375E+04  0.17855870375E+04  0.25500000920E-02 0.  1.
        2   -1    0    0  501    0  0.00000000000E+00  0.00000000000E+00 -0.19821340861E+04  0.19821340861E+04  0.25500000920E-02 0. -1.
    10030    2    1    2    0    0  0.00000000000E+00  0.00000000000E+00 -0.19654704858E+03  0.37677211235E+04  0.37625910916E+04 0.  0.
        4    1    3    3  502    0  0.14417411413E+04  0.46181502274E+03 -0.12166582689E+04  0.19422022525E+04  0.12699999809E+01 0. -1.
       -4    1    3    3    0  502 -0.14417411413E+04 -0.46181502274E+03  0.10201112203E+04  0.18255188710E+04  0.12699999809E+01 0.  1.
</event>
<event>
 5   0  0.8423692E-07  0.2561369E+04  0.7818609E-02  0.8381443E-01
        1   -1    0    0  501    0  0.00000000000E+00  0.00000000000E+00  0.11891134932E+04  0.11891134932E+04  0.50400001928E-02 0. -1.
       -1   -1    0    0    0  501  0.00000000000E+00  0.00000000000E+00 -0.13793068947E+04  0.13793068947E+04  0.50400001928E-02 0.  1.
    10030    2    1    2    0    0  0.00000000000E+00  0.00000000000E+00 -0.19019340145E+03  0.25684203879E+04  0.25613687277E+04 0.  0.
        2    1    3    3  502    0  0.66516073734E+03 -0.48626176285E+03  0.88804280675E+03  0.12114079970E+04  0.25500000920E-02 0. -1.
       -2    1    3    3    0  502 -0.66516073734E+03  0.48626176285E+03 -0.10782362082E+04  0.13570123910E+04  0.25500000920E-02 0.  1.
</event>
<event>
 5   0  0.1566576E-06  0.3465823E+04  0.7818609E-02  0.8121937E-01
       -2   -1    0    0    0  501  0.00000000000E+00  0.00000000000E+00  0.19322935705E+04  0.19322935705E+04  0.25500000920E-02 0. -1.
        2   -1    0    0  501    0  0.00000000000E+00  0.00000000000E+00 -0.15541029229E+04  0.15541029229E+04  0.25500000920E-02 0.  1.
    10030    2    1    2    0    0  0.00000000000E+00  0.00000000000E+00  0.37819064762E+03  0.34863964934E+04  0.34658234726E+04 0.  0.
        4    1    3    3  502    0 -0.85990106371E+03 -0.36523129646E+03  0.16572648957E+04  0.19024595362E+04  0.12699999809E+01 0. -1.
       -4    1    3    3    0  502  0.85990106371E+03  0.36523129646E+03 -0.12790742481E+04  0.15839369572E+04  0.12699999809E+01 0.  1.
</event>
<event>
 5   0  0.2382711E-06  0.2778305E+04  0.7818609E-02  0.8310036E-01
       -2   -1    0    0    0  501  0.00000000000E+00  0.00000000000E+00  0.12662662800E+04  0.12662662800E+04  0.25500000920E-02 0.  1.
        2   -1    0    0  501    0  0.00000000000E+00  0.00000000000E+00 -0.15239646521E+04  0.15239646521E+04  0.25500000920E-02 0. -1.
    10030    2    1    2    0    0  0.00000000000E+00  0.00000000000E+00 -0.25769837202E+03  0.27902309321E+04  0.27783052754E+04 0.  0.
        5    1    3    3  502    0 -0.52801941851E+03 -0.12802668991E+04 -0.19592870907E+02  0.13850248409E+04  0.46999998093E+01 0.  1.
       -5    1    3    3    0  502  0.52801941851E+03  0.12802668991E+04 -0.23810550111E+03  0.14052060912E+04  0.46999998093E+01 0. -1.
</event>
<event>
 5   0  0.1566576E-06  0.3613991E+04  0.7818609E-02  0.8087294E-01
        2   -1    0    0  501    0  0.00000000000E+00  0.00000000000E+00  0.22402752323E+04  0.22402752323E+04  0.25500000920E-02 0. -1.
       -2   -1    0    0    0  501  0.00000000000E+00  0.00000000000E+00 -0.14575140922E+04  0.14575140922E+04  0.25500000920E-02 0.  1.
    10030    2    1    2    0    0  0.00000000000E+00  0.00000000000E+00  0.78276114009E+03  0.36977893246E+04  0.36139909915E+04 0.  0.
        4    1    3    3  502    0 -0.11417294687E+04  0.13886887259E+04  0.20486684105E+03  0.18094127756E+04  0.12699999809E+01 0. -1.
       -4    1    3    3    0  502  0.11417294687E+04 -0.13886887259E+04  0.57789429904E+03  0.18883765490E+04  0.12699999809E+01 0.  1.
</event>
<event>
 5   0  0.8452742E-07  0.3604445E+04  0.7818609E-02  0.8089474E-01
       -1   -1    0    0    0  501  0.00000000000E+00  0.00000000000E+00  0.11802626055E+04  0.11802626055E+04  0.50400001928E-02 0. -1.
        1   -1    0    0  501    0  0.00000000000E+00  0.00000000000E+00 -0.27519351244E+04  0.27519351244E+04  0.50400001928E-02 0.  1.
    10030    2    1    2    0    0  0.00000000000E+00  0.00000000000E+00 -0.15716725188E+04  0.39321977299E+04  0.36044451003E+04 0.  0.
        1    1    3    3  502    0 -0.10512744811E+04  0.14077026896E+04 -0.34782921088E+03  0.17910304456E+04  0.50400001928E-02 0. -1.
       -1    1    3    3    0  502  0.10512744811E+04 -0.14077026896E+04 -0.12238433079E+04  0.21411672843E+04  0.50400001928E-02 0.  1.
</event>
<event>
 5   0  0.7754556E-07  0.1915033E+04  0.7818609E-02  0.8647409E-01
       -1   -1    0    0    0  501  0.00000000000E+00  0.00000000000E+00  0.65088758300E+03  0.65088758302E+03  0.50400001928E-02 0. -1.
        1   -1    0    0  501    0  0.00000000000E+00  0.00000000000E+00 -0.14085965854E+04  0.14085965854E+04  0.50400001928E-02 0.  1.
    10030    2    1    2    0    0  0.00000000000E+00  0.00000000000E+00 -0.75770900242E+03  0.20594841684E+04  0.19150331871E+04 0.  0.
        4    1    3    3  502    0  0.25027509098E+03 -0.82845278482E+03  0.61763200760E+02  0.86763353077E+03  0.12699999809E+01 0. -1.
       -4    1    3    3    0  502 -0.25027509098E+03  0.82845278482E+03 -0.81947220318E+03  0.11918506377E+04  0.12699999809E+01 0.  1.
</event>
<event>
 5   0  0.8452742E-07  0.3456565E+04  0.7818609E-02  0.8124161E-01
       -1   -1    0    0    0  501  0.00000000000E+00  0.00000000000E+00  0.13044366097E+04  0.13044366097E+04  0.50400001928E-02 0. -1.
        1   -1    0    0  501    0  0.00000000000E+00  0.00000000000E+00 -0.22898465404E+04  0.22898465404E+04  0.50400001928E-02 0.  1.
    10030    2    1    2    0    0  0.00000000000E+00  0.00000000000E+00 -0.98540993076E+03  0.35942831501E+04  0.34565645707E+04 0.  0.
        1    1    3    3  502    0 -0.34086537014E+03 -0.16537915962E+03 -0.22461337601E+04  0.22778622292E+04  0.50400001928E-02 0.  1.
       -1    1    3    3    0  502  0.34086537014E+03  0.16537915962E+03  0.12607238294E+04  0.13164209209E+04  0.50400001928E-02 0. -1.
</event>
<event>
 5   0  0.2536619E-06  0.2543035E+04  0.7818609E-02  0.8387813E-01
       -2   -1    0    0    0  501  0.00000000000E+00  0.00000000000E+00  0.14869618272E+04  0.14869618272E+04  0.25500000920E-02 0. -1.
        2   -1    0    0  501    0  0.00000000000E+00  0.00000000000E+00 -0.10872887287E+04  0.10872887288E+04  0.25500000920E-02 0.  1.
    10030    2    1    2    0    0  0.00000000000E+00  0.00000000000E+00  0.39967309847E+03  0.25742505560E+04  0.25430350645E+04 0.  0.
        1    1    3    3  502    0 -0.93820530921E+03  0.83281546701E+03 -0.99414701417E+01  0.12545555536E+04  0.50400001928E-02 0. -1.
       -1    1    3    3    0  502  0.93820530921E+03 -0.83281546701E+03  0.40961456861E+03  0.13196950023E+04  0.50400001928E-02 0.  1.
</event>
<event>
 5   0  0.2422436E-06  0.2578316E+04  0.7818609E-02  0.8375604E-01
        2   -1    0    0  501    0  0.00000000000E+00  0.00000000000E+00  0.14600660680E+04  0.14600660680E+04  0.25500000920E-02 0.  1.
       -2   -1    0    0    0  501  0.00000000000E+00  0.00000000000E+00 -0.11382553697E+04  0.11382553697E+04  0.25500000920E-02 0. -1.
    10030    2    1    2    0    0  0.00000000000E+00  0.00000000000E+00  0.32181069827E+03  0.25983214377E+04  0.25783157619E+04 0.  0.
        2    1    3    3  502    0 -0.55087660155E+02 -0.12014013828E+04  0.62875760972E+03  0.13571057677E+04  0.25500000920E-02 0. -1.
       -2    1    3    3    0  502  0.55087660155E+02  0.12014013828E+04 -0.30694691145E+03  0.12412156700E+04  0.25500000920E-02 0.  1.
</event>
<event>
 5   0  0.8423692E-07  0.3582798E+04  0.7818609E-02  0.8094444E-01
        1   -1    0    0  501    0  0.00000000000E+00  0.00000000000E+00  0.24337194880E+04  0.24337194880E+04  0.50400001928E-02 0.  1.
       -1   -1    0    0    0  501  0.00000000000E+00  0.00000000000E+00 -0.13186029430E+04  0.13186029430E+04  0.50400001928E-02 0. -1.
    10030    2    1    2    0    0  0.00000000000E+00  0.00000000000E+00  0.11151165450E+04  0.37523224310E+04  0.35827976104E+04 0.  0.
        2    1    3    3  502    0  0.16274882006E+03  0.12278961161E+04  0.19129707801E+04  0.22789631976E+04  0.25500000920E-02 0.  1.
       -2    1    3    3    0  502 -0.16274882006E+03 -0.12278961161E+04 -0.79785423511E+03  0.14733592334E+04  0.25500000920E-02 0. -1.
</event>
<event>
 5   0  0.1566576E-06  0.3549379E+04  0.7818609E-02  0.8102186E-01
       -2   -1    0    0    0  501  0.00000000000E+00  0.00000000000E+00  0.21156103966E+04  0.21156103966E+04  0.25500000920E-02 0.  1.
        2   -1    0    0  501    0  0.00000000000E+00  0.00000000000E+00 -0.14887067945E+04  0.14887067945E+04  0.25500000920E-02 0. -1.
    10030    2    1    2    0    0  0.00000000000E+00  0.00000000000E+00  0.62690360205E+03  0.36043171911E+04  0.35493794229E+04 0.  0.
        4    1    3    3  502    0 -0.26090461570E+03  0.44114862358E+03  0.20388201637E+04  0.21022541710E+04  0.12699999809E+01 0.  1.
       -4    1    3    3    0  502  0.26090461570E+03 -0.44114862358E+03 -0.14119165616E+04  0.15020630202E+04  0.12699999809E+01 0. -1.
</event>
<event>
 5   0  0.1513502E-06  0.3259444E+04  0.7818609E-02  0.8173292E-01
       -2   -1    0    0    0  501  0.00000000000E+00  0.00000000000E+00  0.12414046234E+04  0.12414046234E+04  0.25500000920E-02 0.  1.
        2   -1    0    0  501    0  0.00000000000E+00  0.00000000000E+00 -0.21395064207E+04  0.21395064207E+04  0.25500000920E-02 0. -1.
    10030    2    1    2    0    0  0.00000000000E+00  0.00000000000E+00 -0.89810179727E+03  0.33809110441E+04  0.32594436105E+04 0.  0.
        3    1    3    3  502    0 -0.83118141378E+03  0.34180155101E+03 -0.18592381208E+04  0.20650562324E+04  0.10100000352E+00 0. -1.
       -3    1    3    3    0  502  0.83118141378E+03 -0.34180155101E+03  0.96113632355E+03  0.13158548117E+04  0.10100000352E+00 0.  1.
</event>
<event>
 5   0  0.8423692E-07  0.3423849E+04  0.7818609E-02  0.8132078E-01
       -1   -1    0    0    0  501  0.00000000000E+00  0.00000000000E+00  0.17955037248E+04  0.17955037248E+04  0.50400001928E-02 0.  1.
        1   -1    0    0  501    0  0.00000000000E+00  0.00000000000E+00 -0.16322359372E+04  0.16322359372E+04  0.50400001928E-02 0. -1.
    10030    2    1    2    0    0  0.00000000000E+00  0.00000000000E+00  0.16326778762E+03  0.34277396621E+04  0.34238491235E+04 0.  0.
        2    1    3    3  502    0 -0.96025333089E+03  0.77932022946E+03 -0.11034591624E+04  0.16574222765E+04  0.25500000920E-02 0. -1.
       -2    1    3    3    0  502  0.96025333089E+03 -0.77932022946E+03  0.12667269501E+04  0.17703173855E+04  0.25500000920E-02 0.  1.
</event>
<event>
 5   0  0.1566576E-06  0.3596550E+04  0.7818609E-02  0.8091282E-01
        2   -1    0    0  501    0  0.00000000000E+00  0.00000000000E+00  0.21114428796E+04  0.21114428796E+04  0.25500000920E-02 0. -1.
       -2   -1    0    0    0  501  0.00000000000E+00  0.00000000000E+00 -0.15315562500E+04  0.15315562500E+04  0.25500000920E-02 0.  1.
    10030    2    1    2    0    0  0.00000000000E+00  0.00000000000E+00  0.57988662969E+03  0.36429991296E+04  0.35965503131E+04 0.  0.
        4    1    3    3  502    0 -0.11971730482E+04  0.11296739244E+04 -0.44356750226E+03  0.17047405153E+04  0.12699999809E+01 0.  1.
       -4    1    3    3    0  502  0.11971730482E+04 -0.11296739244E+04  0.10234541320E+04  0.19382586143E+04  0.12699999809E+01 0. -1.
</event>
<event>
 5   0  0.7754556E-07  0.3106113E+04  0.7818609E-02  0.8214062E-01
       -1   -1    0    0    0  501  0.00000000000E+00  0.00000000000E+00  0.18869150328E+04  0.18869150328E+04  0.50400001928E-02 0.  1.
        1   -1    0    0  501    0  0.00000000000E+00  0.00000000000E+00 -0.12782688952E+04  0.12782688952E+04  0.50400001928E-02 0. -1.
    10030    2    1    2    0    0  0.00000000000E+00  0.00000000000E+00  0.60864613756E+03  0.31651839280E+04  0.31061131946E+04 0.  0.
        4    1    3    3  502    0 -0.10855212149E+04  0.38005268931E+03  0.13678117289E+04  0.17870945396E+04  0.12699999809E+01 0.  1.
       -4    1    3    3    0  502  0.10855212149E+04 -0.38005268931E+03 -0.75916559139E+03  0.13780893885E+04  0.12699999809E+01 0. -1.
</event>
<event>
 5   0  0.2536619E-06  0.3592130E+04  0.7818609E-02  0.8092297E-01
        2   -1    0    0  501    0  0.00000000000E+00  0.00000000000E+00  0.20785697331E+04  0.20785697331E+04  0.25500000920E-02 0. -1.
       -2   -1    0    0    0  501  0.00000000000E+00  0.00000000000E+00 -0.15519561723E+04  0.15519561723E+04  0.25500000920E-02 0.  1.
    10030    2    1    2    0    0  0.00000000000E+00  0.00000000000E+00  0.52661356082E+03  0.36305259055E+04  0.35921298011E+04 0.  0.
        1    1    3    3  502    0  0.16001250347E+04 -0.72048996388E+03 -0.12333057379E+03  0.17591805891E+04  0.50400001928E-02 0.  1.
       -1    1    3    3    0  502 -0.16001250347E+04  0.72048996388E+03  0.64994413461E+03  0.18713453163E+04  0.50400001928E-02 0. -1.
</event>
<event>
 5   0  0.8423692E-07  0.1849844E+04  0.7818609E-02  0.8680233E-01
        1   -1    0    0  501    0  0.00000000000E+00  0.00000000000E+00  0.13339455737E+04  0.13339455737E+04  0.50400001928E-02 0. -1.
       -1   -1    0    0    0  501  0.00000000000E+00  0.00000000000E+00 -0.64131577929E+03  0.64131577931E+03  0.50400001928E-02 0.  1.
    10030    2    1    2    0    0  0.00000000000E+00  0.00000000000E+00  0.69262979437E+03  0.19752613530E+04  0.18498436098E+04 0.  0.
        2    1    3    3  502    0  0.54184243688E+03 -0.18009473908E+03 -0.43065333320E+03  0.71518503540E+03  0.25500000920E-02 0.  1.
       -2    1    3    3    0  502 -0.54184243688E+03  0.18009473908E+03  0.11232831276E+04  0.12600763176E+04  0.25500000920E-02 0. -1.
</event>
<event>
 5   0  0.2422436E-06  0.3584906E+04  0.7818609E-02  0.8093958E-01
       -2   -1    0    0    0  501  0.00000000000E+00  0.00000000000E+00  0.14240991310E+04  0.14240991310E+04  0.25500000920E-02 0. -1.
        2   -1    0    0  501    0  0.00000000000E+00  0.00000000000E+00 -0.22560847715E+04  0.22560847715E+04  0.25500000920E-02 0.  1.
    10030    2    1    2    0    0  0.00000000000E+00  0.00000000000E+00 -0.83198564045E+03  0.36801839025E+04  0.35849063378E+04 0.  0.
        2    1    3    3  502    0 -0.25856739074E+03 -0.17476281140E+04 -0.10490896068E+03  0.17697646766E+04  0.25500000920E-02 0.  1.
       -2    1    3    3    0  502  0.25856739074E+03  0.17476281140E+04 -0.72707667978E+03  0.19104192259E+04  0.25500000920E-02 0. -1.
</event>
<event>
 5   0  0.2422436E-06  0.3666770E+04  0.7818609E-02  0.8075366E-01
       -2   -1    0    0    0  501  0.00000000000E+00  0.00000000000E+00  0.16512617407E+04  0.16512617407E+04  0.25500000920E-02 0. -1.
        2   -1    0    0  501    0  0.00000000000E+00  0.00000000000E+00 -0.20355952873E+04  0.20355952873E+04  0.25500000920E-02 0.  1.
    10030    2    1    2    0    0  0.00000000000E+00  0.00000000000E+00 -0.38433354654E+03  0.36868570280E+04  0.36667700323E+04 0.  0.
        2    1    3    3  502    0 -0.12434120755E+03  0.13044723792E+04  0.10971179837E+04  0.17090280262E+04  0.25500000920E-02 0. -1.
       -2    1    3    3    0  502  0.12434120755E+03 -0.13044723792E+04 -0.14814515303E+04  0.19778290018E+04  0.25500000920E-02 0.  1.
</event>
<event>
 5   0  0.8423692E-07  0.1793069E+04  0.7818609E-02  0.8709994E-01
        1   -1    0    0  501    0  0.00000000000E+00  0.00000000000E+00  0.21863278035E+04  0.21863278035E+04  0.50400001928E-02 0. -1.
       -1   -1    0    0    0  501  0.00000000000E+00  0.00000000000E+00 -0.36763642475E+03  0.36763642478E+03  0.50400001928E-02 0.  1.
    10030    2    1    2    0    0  0.00000000000E+00  0.00000000000E+00  0.18186913787E+04  0.25539642283E+04  0.17930685844E+04 0.  0.
        2    1    3    3  502    0  0.14015956378E+03 -0.41332632608E+03 -0.20610656478E+03  0.48266268884E+03  0.25500000920E-02 0.  1.
       -2    1    3    3    0  502 -0.14015956378E+03  0.41332632608E+03  0.20247979435E+04  0.20713015394E+04  0.25500000920E-02 0. -1.
</event>
<event>
 5   0  0.1634374E-06  0.2290850E+04  0.7818609E-02  0.8481538E-01
        1   -1    0    0  501    0  0.00000000000E+00  0.00000000000E+00  0.21507485869E+04  0.21507485869E+04  0.50400001928E-02 0. -1.
       -1   -1    0    0    0  501  0.00000000000E+00  0.00000000000E+00 -0.61001939518E+03  0.61001939520E+03  0.50400001928E-02 0.  1.
    10030    2    1    2    0    0  0.00000000000E+00  0.00000000000E+00  0.15407291917E+04  0.27607679821E+04  0.22908499315E+04 0.  0.
        5    1    3    3  502    0 -0.21956750294E+03 -0.11068565093E+04  0.53348701343E+03  0.12481873673E+04  0.46999998093E+01 0.  1.
       -5    1    3    3    0  502  0.21956750294E+03  0.11068565093E+04  0.10072421783E+04  0.15125806148E+04  0.46999998093E+01 0. -1.
</event>
<event>
 5   0  0.2382711E-06  0.3541583E+04  0.7818609E-02  0.8104005E-01
       -2   -1    0    0    0  501  0.00000000000E+00  0.00000000000E+00  0.13964506311E+04  0.13964506311E+04  0.25500000920E-02 0.  1.
        2   -1    0    0  501    0  0.00000000000E+00  0.00000000000E+00 -0.22454809196E+04  0.22454809196E+04  0.25500000920E-02 0. -1.
    10030    2    1    2    0    0  0.00000000000E+00  0.00000000000E+00 -0.84903028849E+03  0.36419315508E+04  0.35415834015E+04 0.  0.
        5    1    3    3  502    0 -0.15694654393E+04  0.62548248009E+01  0.41873165949E+03  0.16243827076E+04  0.46999998093E+01 0.  1.
       -5    1    3    3    0  502  0.15694654393E+04 -0.62548248009E+01 -0.12677619480E+04  0.20175488432E+04  0.46999998093E+01 0. -1.
</event>
<event>
 5   0  0.1513502E-06  0.3849868E+04  0.7818609E-02  0.8035537E-01
        2   -1    0    0  501    0  0.00000000000E+00  0.00000000000E+00  0.17931959605E+04  0.17931959605E+04  0.25500000920E-02 0. -1.
       -2   -1    0    0    0  501  0.00000000000E+00  0.00000000000E+00 -0.20663501809E+04  0.20663501809E+04  0.25500000920E-02 0.  1.
    10030    2    1    2    0    0  0.00000000000E+00  0.00000000000E+00 -0.27315422041E+03  0.38595461413E+04  0.38498679444E+04 0.  0.
        3    1    3    3  502    0  0.11669713465E+04  0.55313165218E+03  0.12944545268E+04  0.18284937189E+04  0.10100000352E+00 0. -1.
       -3    1    3    3    0  502 -0.11669713465E+04 -0.55313165218E+03 -0.15676087472E+04  0.20310524224E+04  0.10100000352E+00 0.  1.
</event>
<event>
 5   0  0.2382711E-06  0.3358325E+04  0.7818609E-02  0.8148211E-01
        2   -1    0    0  501    0  0.00000000000E+00  0.00000000000E+00  0.21778478523E+04  0.21778478523E+04  0.25500000920E-02 0.  1.
       -2   -1    0    0    0  501  0.00000000000E+00  0.00000000000E+00 -0.12946668043E+04  0.12946668043E+04  0.25500000920E-02 0. -1.
    10030    2    1    2    0    0  0.00000000000E+00  0.00000000000E+00  0.88318104796E+03  0.34725146566E+04  0.33583253679E+04 0.  0.
        5    1    3    3  502    0 -0.46900439314E+03 -0.62072683030E+03  0.19802388964E+04  0.21275890335E+04  0.46999998093E+01 0.  1.
       -5    1    3    3    0  502  0.46900439314E+03  0.62072683030E+03 -0.10970578485E+04  0.13449256231E+04  0.46999998093E+01 0. -1.
</event>
<event>
 5   0  0.7754556E-07  0.2104668E+04  0.7818609E-02  0.8559190E-01
        1   -1    0    0  501    0  0.00000000000E+00  0.00000000000E+00  0.11383155054E+04  0.11383155054E+04  0.50400001928E-02 0.  1.
       -1   -1    0    0    0  501  0.00000000000E+00  0.00000000000E+00 -0.97284693254E+03  0.97284693255E+03  0.50400001928E-02 0. -1.
    10030    2    1    2    0    0  0.00000000000E+00  0.00000000000E+00  0.16546857288E+03  0.21111624380E+04  0.21046679051E+04 0.  0.
        4    1    3    3  502    0  0.18754957827E+03 -0.44947627393E+03  0.10184586839E+04  0.11289213741E+04  0.12699999809E+01 0.  1.
       -4    1    3    3    0  502 -0.18754957827E+03  0.44947627393E+03 -0.85299011104E+03  0.98224106388E+03  0.12699999809E+01 0. -1.
</event>
<event>
 5   0  0.2536619E-06  0.3565406E+04  0.7818609E-02  0.8098462E-01
       -2   -1    0    0    0  501  0.00000000000E+00  0.00000000000E+00  0.14797653033E+04  0.14797653033E+04  0.25500000920E-02 0. -1.
        2   -1    0    0  501    0  0.00000000000E+00  0.00000000000E+00 -0.21476579201E+04  0.21476579201E+04  0.25500000920E-02 0.  1.
    10030    2    1    2    0    0  0.00000000000E+00  0.00000000000E+00 -0.66789261681E+03  0.36274232234E+04  0.35654058246E+04 0.  0.
        1    1    3    3  502    0 -0.51793571661E+02  0.13349614581E+03 -0.21417976622E+04  0.21465789109E+04  0.50400001928E-02 0.  1.
       -1    1    3    3    0  502  0.51793571661E+02 -0.13349614581E+03  0.14739050454E+04  0.14808443125E+04  0.50400001928E-02 0. -1.
</event>
<event>
 5   0  0.7707500E-07  0.3564882E+04  0.7818609E-02  0.8098584E-01
        3   -1    0    0  501    0  0.00000000000E+00  0.00000000000E+00  0.15406428259E+04  0.15406428292E+04  0.10100000352E+00 0. -1.
       -3   -1    0    0    0  501  0.00000000000E+00  0.00000000000E+00 -0.20621879441E+04  0.20621879466E+04  0.10100000352E+00 0.  1.
    10030    2    1    2    0    0  0.00000000000E+00  0.00000000000E+00 -0.52154511826E+03  0.36028307758E+04  0.35648815252E+04 0.  0.
        4    1    3    3  502    0  0.27755680342E+03  0.90183416261E+03 -0.17890710519E+04  0.20226515957E+04  0.12699999809E+01 0.  1.
       -4    1    3    3    0  502 -0.27755680342E+03 -0.90183416261E+03  0.12675259336E+04  0.15801791801E+04  0.12699999809E+01 0. -1.
</event>
<event>
 5   0  0.1634374E-06  0.3759254E+04  0.7818609E-02  0.8054956E-01
       -1   -1    0    0    0  501  0.00000000000E+00  0.00000000000E+00  0.14818669958E+04  0.14818669958E+04  0.50400001928E-02 0.  1.
        1   -1    0    0  501    0  0.00000000000E+00  0.00000000000E+00 -0.23841529126E+04  0.23841529126E+04  0.50400001928E-02 0. -1.
    10030    2    1    2    0    0  0.00000000000E+00  0.00000000000E+00 -0.90228591685E+03  0.38660199084E+04  0.37592539229E+04 0.  0.
        5    1    3    3  502    0  0.73266946821E+03 -0.68330163486E+03  0.11843926335E+04  0.15512941933E+04  0.46999998093E+01 0.  1.
       -5    1    3    3    0  502 -0.73266946821E+03  0.68330163486E+03 -0.20866785503E+04  0.23147257151E+04  0.46999998093E+01 0. -1.
</event>
<event>
 5   0  0.2422436E-06  0.3567291E+04  0.7818609E-02  0.8098025E-01
       -2   -1    0    0    0  501  0.00000000000E+00  0.00000000000E+00  0.12917507887E+04  0.12917507887E+04  0.25500000920E-02 0. -1.
        2   -1    0    0  501    0  0.00000000000E+00  0.00000000000E+00 -0.24628518652E+04  0.24628518653E+04  0.25500000920E-02 0.  1.
    10030    2    1    2    0    0  0.00000000000E+00  0.00000000000E+00 -0.11711010766E+04  0.37546026539E+04  0.35672907588E+04 0.  0.
        2    1    3    3  502    0  0.85219021727E+03 -0.68412804558E+03  0.89812445493E+03  0.14145270891E+04  0.25500000920E-02 0. -1.
       -2    1    3    3    0  502 -0.85219021727E+03  0.68412804558E+03 -0.20692255315E+04  0.23400755649E+04  0.25500000920E-02 0.  1.
</event>
<event>
 5   0  0.2422436E-06  0.3612240E+04  0.7818609E-02  0.8087694E-01
       -2   -1    0    0    0  501  0.00000000000E+00  0.00000000000E+00  0.20062664469E+04  0.20062664469E+04  0.25500000920E-02 0.  1.
        2   -1    0    0  501    0  0.00000000000E+00  0.00000000000E+00 -0.16259403196E+04  0.16259403196E+04  0.25500000920E-02 0. -1.
    10030    2    1    2    0    0  0.00000000000E+00  0.00000000000E+00  0.38032612736E+03  0.36322067665E+04  0.36122400296E+04 0.  0.
        2    1    3    3  502    0 -0.69471371789E+03  0.21654068868E+03 -0.14720175722E+04  0.16420574754E+04  0.25500000920E-02 0. -1.
       -2    1    3    3    0  502  0.69471371789E+03 -0.21654068868E+03  0.18523436996E+04  0.19901492911E+04  0.25500000920E-02 0.  1.
</event>
<event>
 5   0  0.8452742E-07  0.3559837E+04  0.7818609E-02  0.8099754E-01
        1   -1    0    0  501    0  0.00000000000E+00  0.00000000000E+00  0.21979165973E+04  0.21979165974E+04  0.50400001928E-02 0. -1.
       -1   -1    0    0    0  501  0.00000000000E+00  0.00000000000E+00 -0.14414150135E+04  0.14414150135E+04  0.50400001928E-02 0.  1.
    10030    2    1    2    0    0  0.00000000000E+00  0.00000000000E+00  0.75650158387E+03  0.36393316108E+04  0.35598370647E+04 0.  0.
        1    1    3    3  502    0  0.12491750386E+04 -0.53951367634E+03  0.15513044816E+04  0.20635064523E+04  0.50400001928E-02 0. -1.
       -1    1    3    3    0  502 -0.12491750386E+04  0.53951367634E+03 -0.79480289773E+03  0.15758251585E+04  0.50400001928E-02 0.  1.
</event>
<event>
 5   0  0.1513502E-06  0.3442154E+04  0.7818609E-02  0.8127637E-01
       -2   -1    0    0    0  501  0.00000000000E+00  0.00000000000E+00  0.13166316010E+04  0.13166316010E+04  0.25500000920E-02 0. -1.
        2   -1    0    0  501    0  0.00000000000E+00  0.00000000000E+00 -0.22497600777E+04  0.22497600777E+04  0.25500000920E-02 0.  1.
    10030    2    1    2    0    0  0.00000000000E+00  0.00000000000E+00 -0.93312847676E+03  0.35663916787E+04  0.34421535195E+04 0.  0.
        3    1    3    3  502    0 -0.37733227628E+03 -0.10568004666E+04 -0.18186155123E+04  0.21369532668E+04  0.10100000352E+00 0.  1.
       -3    1    3    3    0  502  0.37733227628E+03  0.10568004666E+04  0.88548703554E+03  0.14294384118E+04  0.10100000352E+00 0. -1.
</event>
<event>
 5   0  0.8423692E-07  0.2053499E+04  0.7818609E-02  0.8582009E-01
       -1   -1    0    0    0  501  0.00000000000E+00  0.00000000000E+00  0.59188344208E+03  0.59188344210E+03  0.50400001928E-02 0. -1.
        1   -1    0    0  501    0  0.00000000000E+00  0.00000000000E+00 -0.17811182675E+04  0.17811182675E+04  0.50400001928E-02 0.  1.
    10030    2    1    2    0    0  0.00000000000E+00  0.00000000000E+00 -0.11892348255E+04  0.23730017096E+04  0.20534988785E+04 0.  0.
        2    1    3    3  502    0  0.70245295333E+03 -0.71941991359E+03 -0.35440694362E+03  0.10661188702E+04  0.25500000920E-02 0. -1.
       -2    1    3    3    0  502 -0.70245295333E+03  0.71941991359E+03 -0.83482788183E+03  0.13068828394E+04  0.25500000920E-02 0.  1.
</event>
<event>
 5   0  0.2422436E-06  0.2724764E+04  0.7818609E-02  0.8327014E-01
        2   -1    0    0  501    0  0.00000000000E+00  0.00000000000E+00  0.20450556462E+04  0.20450556462E+04  0.25500000920E-02 0. -1.
       -2   -1    0    0    0  501  0.00000000000E+00  0.00000000000E+00 -0.90759628297E+03  0.90759628298E+03  0.25500000920E-02 0.  1.
    10030    2    1    2    0    0  0.00000000000E+00  0.00000000000E+00  0.11374593633E+04  0.29526519292E+04  0.27247641388E+04 0.  0.
        2    1    3    3  502    0  0.19831862896E+02  0.13248508959E+04  0.22526379550E+03  0.13440115241E+04  0.25500000920E-02 0. -1.
       -2    1    3    3    0  502 -0.19831862896E+02 -0.13248508959E+04  0.91219556777E+03  0.16086404052E+04  0.25500000920E-02 0.  1.
</event>
<event>
 5   0  0.1908273E-06  0.3060339E+04  0.7818609E-02  0.8226708E-01
        1   -1    0    0  501    0  0.00000000000E+00  0.00000000000E+00  0.11084495383E+04  0.11084495384E+04  0.50400001928E-02 0.  1.
       -1   -1    0    0    0  501  0.00000000000E+00  0.00000000000E+00 -0.21123364257E+04  0.21123364257E+04  0.50400001928E-02 0. -1.
    10030    2    1    2    0    0  0.00000000000E+00  0.00000000000E+00 -0.10038868873E+04  0.32207859640E+04  0.30603387629E+04 0.  0.
        3    1    3    3  502    0 -0.14966203436E+04 -0.12644992867E+03 -0.19410820729E+03  0.15144438067E+04  0.10100000352E+00 0. -1.
       -3    1    3    3    0  502  0.14966203436E+04  0.12644992867E+03 -0.80977868006E+03  0.17063421574E+04  0.10100000352E+00 0.  1.
</event>
<event>
 5   0  0.7707500E-07  0.3625145E+04  0.7818609E-02  0.8084756E-01
       -3   -1    0    0    0  501  0.00000000000E+00  0.00000000000E+00  0.18749688039E+04  0.18749688066E+04  0.10100000352E+00 0.  1.
        3   -1    0    0  501    0  0.00000000000E+00  0.00000000000E+00 -0.17522522075E+04  0.17522522104E+04  0.10100000352E+00 0. -1.
    10030    2    1    2    0    0  0.00000000000E+00  0.00000000000E+00  0.12271659647E+03  0.36272210170E+04  0.36251445410E+04 0.  0.
        1    1    3    3  502    0 -0.94748423080E+03 -0.14814773030E+04 -0.37811631658E+03  0.17987421482E+04  0.50400001928E-02 0. -1.
       -1    1    3    3    0  502  0.94748423080E+03  0.14814773030E+04  0.50083291305E+03  0.18284788688E+04  0.50400001928E-02 0.  1.
</event>
<event>
 5   0  0.2382711E-06  0.3526212E+04  0.7818609E-02  0.8107606E-01
        2   -1    0    0  501    0  0.00000000000E+00  0.00000000000E+00  0.16743346102E+04  0.16743346102E+04  0.25500000920E-02 0.  1.
       -2   -1    0    0    0  501  0.00000000000E+00  0.00000000000E+00 -0.18565842038E+04  0.18565842038E+04  0.25500000920E-02 0. -1.
    10030    2    1    2    0    0  0.00000000000E+00  0.00000000000E+00 -0.18224959361E+03  0.35309188140E+04  0.35262122393E+04 0.  0.
        5    1    3    3  502    0  0.10824056865E+04 -0.12298965596E+04  0.56110739094E+03  0.17317942175E+04  0.46999998093E+01 0.  1.
       -5    1    3    3    0  502 -0.10824056865E+04  0.12298965596E+04 -0.74335698455E+03  0.17991245966E+04  0.46999998093E+01 0. -1.
</event>
<event>
 5   0  0.1908273E-06  0.3528528E+04  0.7818609E-02  0.8107062E-01
        1   -1    0    0  501    0  0.00000000000E+00  0.00000000000E+00  0.15151707924E+04  0.15151707924E+04  0.50400001928E-02 0. -1.
       -1   -1    0    0    0  501  0.00000000000E+00  0.00000000000E+00 -0.20543075616E+04  0.20543075616E+04  0.50400001928E-02 0.  1.
    10030    2    1    2    0    0  0.00000000000E+00  0.00000000000E+00 -0.53913676913E+03  0.35694783540E+04  0.35285276340E+04 0.  0.
        3    1    3    3  502    0  0.51082673502E+03  0.11389259288E+04  0.99170974360E+03  0.15942347538E+04  0.10100000352E+00 0. -1.
       -3    1    3    3    0  502 -0.51082673502E+03 -0.11389259288E+04 -0.15308465127E+04  0.19752436002E+04  0.10100000352E+00 0.  1.
</event>
<event>
 5   0  0.2422436E-06  0.3228294E+04  0.7818609E-02  0.8181384E-01
        2   -1    0    0  501    0  0.00000000000E+00  0.00000000000E+00  0.19493957170E+04  0.19493957170E+04  0.25500000920E-02 0.  1.
       -2   -1    0    0    0  501  0.00000000000E+00  0.00000000000E+00 -0.13365532327E+04  0.13365532327E+04  0.25500000920E-02 0. -1.
    10030    2    1    2    0    0  0.00000000000E+00  0.00000000000E+00  0.61284248428E+03  0.32859489497E+04  0.32282943777E+04 0.  0.
        2    1    3    3  502    0 -0.44445214139E+03  0.13839480800E+04 -0.40798330546E+03  0.15097351992E+04  0.25500000920E-02 0. -1.
       -2    1    3    3    0  502  0.44445214139E+03 -0.13839480800E+04  0.10208257897E+04  0.17762137504E+04  0.25500000920E-02 0.  1.
</event>
<event>
 5   0  0.2422436E-06  0.2434650E+04  0.7818609E-02  0.8426644E-01
        2   -1    0    0  501    0  0.00000000000E+00  0.00000000000E+00  0.68971724778E+03  0.68971724778E+03  0.25500000920E-02 0. -1.
       -2   -1    0    0    0  501  0.00000000000E+00  0.00000000000E+00 -0.21485322118E+04  0.21485322118E+04  0.25500000920E-02 0.  1.
    10030    2    1    2    0    0  0.00000000000E+00  0.00000000000E+00 -0.14588149640E+04  0.28382494596E+04  0.24346496454E+04 0.  0.
        2    1    3    3  502    0  0.31896511983E+03  0.63000287962E+03  0.42655376183E+03  0.82497908321E+03  0.25500000920E-02 0. -1.
       -2    1    3    3    0  502 -0.31896511983E+03 -0.63000287962E+03 -0.18853687259E+04  0.20132703764E+04  0.25500000920E-02 0.  1.
</event>
<event>
 5   0  0.8423692E-07  0.3516168E+04  0.7818609E-02  0.8109969E-01
        1   -1    0    0  501    0  0.00000000000E+00  0.00000000000E+00  0.17697897149E+04  0.17697897149E+04  0.50400001928E-02 0.  1.
       -1   -1    0    0    0  501  0.00000000000E+00  0.00000000000E+00 -0.17464561329E+04  0.17464561329E+04  0.50400001928E-02 0. -1.
    10030    2    1    2    0    0  0.00000000000E+00  0.00000000000E+00  0.23333581955E+02  0.35162458478E+04  0.35161684269E+04 0.  0.
        2    1    3    3  502    0 -0.16867907893E+04  0.64359359420E+02  0.50305812254E+03  0.17613837653E+04  0.25500000920E-02 0.  1.
       -2    1    3    3    0  502  0.16867907893E+04 -0.64359359420E+02 -0.47972454058E+03  0.17548620826E+04  0.25500000920E-02 0. -1.
</event>
<event>
 5   0  0.1566576E-06  0.2013861E+04  0.7818609E-02  0.8600167E-01
        2   -1    0    0  501    0  0.00000000000E+00  0.00000000000E+00  0.12248643831E+04  0.12248643831E+04  0.25500000920E-02 0. -1.
       -2   -1    0    0    0  501  0.00000000000E+00  0.00000000000E+00 -0.82777253976E+03  0.82777253977E+03  0.25500000920E-02 0.  1.
    10030    2    1    2    0    0  0.00000000000E+00  0.00000000000E+00  0.39709184336E+03  0.20526369229E+04  0.20138610690E+04 0.  0.
        4    1    3    3  502    0  0.21673808022E+03  0.64318032343E+03 -0.55958428122E+03  0.87965476441E+03  0.12699999809E+01 0.  1.
       -4    1    3    3    0  502 -0.21673808022E+03 -0.64318032343E+03  0.95667612459E+03  0.11729821585E+04  0.12699999809E+01 0. -1.
</event>
<event>
 5   0  0.7707500E-07  0.3168281E+04  0.7818609E-02  0.8197245E-01
        3   -1    0    0  501    0  0.00000000000E+00  0.00000000000E+00  0.15072245455E+04  0.15072245489E+04  0.10100000352E+00 0.  1.
       -3   -1    0    0    0  501  0.00000000000E+00  0.00000000000E+00 -0.16649819838E+04  0.16649819868E+04  0.10100000352E+00 0. -1.
    10030    2    1    2    0    0  0.00000000000E+00  0.00000000000E+00 -0.15775743825E+03  0.31722065357E+04  0.31682813789E+04 0.  0.
        1    1    3    3  502    0 -0.33466097487E+03 -0.39891026380E+03  0.14190945779E+04  0.15116073524E+04  0.50400001928E-02 0.  1.
       -1    1    3    3    0  502  0.33466097487E+03  0.39891026380E+03 -0.15768520162E+04  0.16605991833E+04  0.50400001928E-02 0. -1.
</event>
<event>
 5   0  0.8452742E-07  0.3630749E+04  0.7818609E-02  0.8083484E-01
       -1   -1    0    0    0  501  0.00000000000E+00  0.00000000000E+00  0.24215831699E+04  0.24215831699E+04  0.50400001928E-02 0.  1.
        1   -1    0    0  501    0  0.00000000000E+00  0.00000000000E+00 -0.13609213898E+04  0.13609213898E+04  0.50400001928E-02 0. -1.
    10030    2    1    2    0    0  0.00000000000E+00  0.00000000000E+00  0.10606617802E+04  0.37825045597E+04  0.36307488666E+04 0.  0.
        1    1    3    3  502    0 -0.10724581325E+03 -0.10982423257E+04  0.20320905243E+04  0.23123645408E+04  0.50400001928E-02 0.  1.
       -1    1    3    3    0  502  0.10724581325E+03  0.10982423257E+04 -0.97142874415E+03  0.14701400190E+04  0.50400001928E-02 0. -1.
</event>
<event>
 5   0  0.2422436E-06  0.2864337E+04  0.7818609E-02  0.8283568E-01
        2   -1    0    0  501    0  0.00000000000E+00  0.00000000000E+00  0.27406590569E+04  0.27406590569E+04  0.25500000920E-02 0. -1.
       -2   -1    0    0    0  501  0.00000000000E+00  0.00000000000E+00 -0.74839910697E+03  0.74839910697E+03  0.25500000920E-02 0.  1.
    10030    2    1    2    0    0  0.00000000000E+00  0.00000000000E+00  0.19922599500E+04  0.34890581639E+04  0.28643371245E+04 0.  0.
        2    1    3    3  502    0  0.13375354253E+04 -0.16638634695E+03  0.40635998727E+03  0.14077691109E+04  0.25500000920E-02 0.  1.
       -2    1    3    3    0  502 -0.13375354253E+04  0.16638634695E+03  0.15858999627E+04  0.20812890530E+04  0.25500000920E-02 0. -1.
</event>
<event>
 5   0  0.7754556E-07  0.3557480E+04  0.7818609E-02  0.8100301E-01
        1   -1    0    0  501    0  0.00000000000E+00  0.00000000000E+00  0.22517455889E+04  0.22517455889E+04  0.50400001928E-02 0. -1.
       -1   -1    0    0    0  501  0.00000000000E+00  0.00000000000E+00 -0.14050948833E+04  0.14050948833E+04  0.50400001928E-02 0.  1.
    10030    2    1    2    0    0  0.00000000000E+00  0.00000000000E+00  0.84665070553E+03  0.36568404722E+04  0.35574801225E+04 0.  0.
        4    1    3    3  502    0 -0.55999508384E+03 -0.16108462880E+04 -0.96256734815E+02  0.17081238917E+04  0.12699999809E+01 0.  1.
       -4    1    3    3    0  502  0.55999508384E+03  0.16108462880E+04  0.94290744035E+03  0.19487165806E+04  0.12699999809E+01 0. -1.
</event>
<event>
 5   0  0.2422436E-06  0.3576301E+04  0.7818609E-02  0.8095942E-01
        2   -1    0    0  501    0  0.00000000000E+00  0.00000000000E+00  0.16629308373E+04  0.16629308373E+04  0.25500000920E-02 0.  1.
       -2   -1    0    0    0  501  0.00000000000E+00  0.00000000000E+00 -0.19227992242E+04  0.19227992242E+04  0.25500000920E-02 0. -1.
    10030    2    1    2    0    0  0.00000000000E+00  0.00000000000E+00 -0.25986838693E+03  0.35857300615E+04  0.35763009515E+04 0.  0.
        2    1    3    3  502    0  0.98872620080E+03  0.37622402589E+03  0.13155179710E+04  0.16881088679E+04  0.25500000920E-02 0.  1.
       -2    1    3    3    0  502 -0.98872620080E+03 -0.37622402589E+03 -0.15753863579E+04  0.18976211937E+04  0.25500000920E-02 0. -1.
</event>
<event>
 5   0  0.2422436E-06  0.3650218E+04  0.7818609E-02  0.8079085E-01
       -2   -1    0    0    0  501  0.00000000000E+00  0.00000000000E+00  0.16509010691E+04  0.16509010691E+04  0.25500000920E-02 0.  1.
        2   -1    0    0  501    0  0.00000000000E+00  0.00000000000E+00 -0.20176994874E+04  0.20176994874E+04  0.25500000920E-02 0. -1.
    10030    2    1    2    0    0  0.00000000000E+00  0.00000000000E+00 -0.36679841833E+03  0.36686005565E+04  0.36502176598E+04 0.  0.
        2    1    3    3  502    0 -0.94668903014E+03 -0.44233592089E+03 -0.16873110964E+04  0.19846661993E+04  0.25500000920E-02 0. -1.
       -2    1    3    3    0  502  0.94668903014E+03  0.44233592089E+03  0.13205126780E+04  0.16839343573E+04  0.25500000920E-02 0.  1.
</event>
<event>
 5   0  0.8452742E-07  0.3581181E+04  0.7818609E-02  0.8094816E-01
        1   -1    0    0  501    0  0.00000000000E+00  0.00000000000E+00  0.20597306907E+04  0.20597306907E+04  0.50400001928E-02 0.  1.
       -1   -1    0    0    0  501  0.00000000000E+00  0.00000000000E+00 -0.15566178894E+04  0.15566178894E+04  0.50400001928E-02 0. -1.
    10030    2    1    2    0    0  0.00000000000E+00  0.00000000000E+00  0.50311280133E+03  0.36163485801E+04  0.35811806101E+04 0.  0.
        1    1    3    3  502    0 -0.15823124654E+04 -0.74256274629E+03 -0.14097861700E+03  0.17535641251E+04  0.50400001928E-02 0.  1.
       -1    1    3    3    0  502  0.15823124654E+04  0.74256274629E+03  0.64409141833E+03  0.18627844550E+04  0.50400001928E-02 0. -1.
</event>
<event>
 5   0  0.7754556E-07  0.3638212E+04  0.7818609E-02  0.8081794E-01
        1   -1    0    0  501    0  0.00000000000E+00  0.00000000000E+00  0.24453137109E+04  0.24453137109E+04  0.50400001928E-02 0. -1.
       -1   -1    0    0    0  501  0.00000000000E+00  0.00000000000E+00 -0.13532605667E+04  0.13532605667E+04  0.50400001928E-02 0.  1.
    10030    2    1    2    0    0  0.00000000000E+00  0.00000000000E+00  0.10920531442E+04  0.37985742776E+04  0.36382119885E+04 0.  0.
        4    1    3    3  502    0 -0.14017508959E+04 -0.99120229623E+02 -0.66005870728E+03  0.15525493564E+04  0.12699999809E+01 0.  1.
       -4    1    3    3    0  502  0.14017508959E+04  0.99120229623E+02  0.17521118515E+04  0.22460249213E+04  0.12699999809E+01 0. -1.
</event>
<event>
 5   0  0.8452742E-07  0.3656136E+04  0.7818609E-02  0.8077753E-01
        1   -1    0    0  501    0  0.00000000000E+00  0.00000000000E+00  0.20687758557E+04  0.20687758557E+04  0.50400001928E-02 0. -1.
       -1   -1    0    0    0  501  0.00000000000E+00  0.00000000000E+00 -0.16153674763E+04  0.16153674763E+04  0.50400001928E-02 0.  1.
    10030    2    1    2    0    0  0.00000000000E+00  0.00000000000E+00  0.45340837942E+03  0.36841433320E+04  0.36561363393E+04 0.  0.
        1    1    3    3  502    0 -0.43895878033E+03 -0.10005284063E+04 -0.12501598190E+04  0.16603136679E+04  0.50400001928E-02 0.  1.
       -1    1    3    3    0  502  0.43895878033E+03  0.10005284063E+04  0.17035681984E+04  0.20238296641E+04  0.50400001928E-02 0. -1.
</event>
<event>
 5   0  0.7707500E-07  0.3482633E+04  0.7818609E-02  0.8117918E-01
        3   -1    0    0  501    0  0.00000000000E+00  0.00000000000E+00  0.13543874495E+04  0.13543874533E+04  0.10100000352E+00 0.  1.
       -3   -1    0    0    0  501  0.00000000000E+00  0.00000000000E+00 -0.22387853853E+04  0.22387853876E+04  0.10100000352E+00 0. -1.
    10030    2    1    2    0    0  0.00000000000E+00  0.00000000000E+00 -0.88439793579E+03  0.35931728409E+04  0.34826328195E+04 0.  0.
        5    1    3    3  502    0  0.85863734199E+03  0.13076086009E+04 -0.12313706957E+04  0.19908275210E+04  0.46999998093E+01 0. -1.
       -5    1    3    3    0  502 -0.85863734199E+03 -0.13076086009E+04  0.34697275991E+03  0.16023453199E+04  0.46999998093E+01 0.  1.
</event>
<event>
 5   0  0.9980811E-07  0.1800022E+04  0.7818609E-02  0.8706288E-01
        1   -1    0    0  501    0  0.00000000000E+00  0.00000000000E+00  0.10789172526E+04  0.10789172526E+04  0.50400001928E-02 0. -1.
       -1   -1    0    0    0  501  0.00000000000E+00  0.00000000000E+00 -0.75077066201E+03  0.75077066203E+03  0.50400001928E-02 0.  1.
    10030    2    1    2    0    0  0.00000000000E+00  0.00000000000E+00  0.32814659057E+03  0.18296879146E+04  0.18000215777E+04 0.  0.
        2    1    3    3  502    0 -0.13375358053E+03 -0.35296778359E+03 -0.66642544498E+03  0.76589761083E+03  0.25500000920E-02 0.  1.
       -2    1    3    3    0  502  0.13375358053E+03  0.35296778359E+03  0.99457203555E+03  0.10637903038E+04  0.25500000920E-02 0. -1.
</event>
<event>
 5   0  0.8423692E-07  0.2538145E+04  0.7818609E-02  0.8389521E-01
       -1   -1    0    0    0  501  0.00000000000E+00  0.00000000000E+00  0.13223354578E+04  0.13223354578E+04  0.50400001928E-02 0. -1.
        1   -1    0    0  501    0  0.00000000000E+00  0.00000000000E+00 -0.12179548752E+04  0.12179548752E+04  0.50400001928E-02 0.  1.
    10030    2    1    2    0    0  0.00000000000E+00  0.00000000000E+00  0.10438058259E+03  0.25402903331E+04  0.25381449270E+04 0.  0.
        2    1    3    3  502    0 -0.46811477824E+03 -0.78480524985E+03 -0.82917554799E+03  0.12339298259E+04  0.25500000920E-02 0.  1.
       -2    1    3    3    0  502  0.46811477824E+03  0.78480524985E+03  0.93355613058E+03  0.13063605072E+04  0.25500000920E-02 0. -1.
</event>
<event>
 5   0  0.1566576E-06  0.2387984E+04  0.7818609E-02  0.8444016E-01
        2   -1    0    0  501    0  0.00000000000E+00  0.00000000000E+00  0.13901318312E+04  0.13901318312E+04  0.25500000920E-02 0. -1.
       -2   -1    0    0    0  501  0.00000000000E+00  0.00000000000E+00 -0.10255265512E+04  0.10255265512E+04  0.25500000920E-02 0.  1.
    10030    2    1    2    0    0  0.00000000000E+00  0.00000000000E+00  0.36460528000E+03  0.24156583823E+04  0.23879841729E+04 0.  0.
        4    1    3    3  502    0 -0.13042436517E+03 -0.64177618208E+03 -0.82763014161E+03  0.10553958722E+04  0.12699999809E+01 0.  1.
       -4    1    3    3    0  502  0.13042436517E+03  0.64177618208E+03  0.11922354216E+04  0.13602625101E+04  0.12699999809E+01 0. -1.
</event>
<event>
 5   0  0.1513502E-06  0.3590173E+04  0.7818609E-02  0.8092746E-01
        2   -1    0    0  501    0  0.00000000000E+00  0.00000000000E+00  0.14171530404E+04  0.14171530404E+04  0.25500000920E-02 0.  1.
       -2   -1    0    0    0  501  0.00000000000E+00  0.00000000000E+00 -0.22738087665E+04  0.22738087665E+04  0.25500000920E-02 0. -1.
    10030    2    1    2    0    0  0.00000000000E+00  0.00000000000E+00 -0.85665572618E+03  0.36909618069E+04  0.35901727015E+04 0.  0.
        3    1    3    3  502    0  0.13912855579E+04  0.59261754682E+03 -0.14226743313E+04  0.20762642711E+04  0.10100000352E+00 0. -1.
       -3    1    3    3    0  502 -0.13912855579E+04 -0.59261754682E+03  0.56601860512E+03  0.16146975358E+04  0.10100000352E+00 0.  1.
</event>
<event>
 5   0  0.7707500E-07  0.1912066E+04  0.7818609E-02  0.8648874E-01
        3   -1    0    0  501    0  0.00000000000E+00  0.00000000000E+00  0.13100784513E+04  0.13100784552E+04  0.10100000352E+00 0.  1.
       -3   -1    0    0    0  501  0.00000000000E+00  0.00000000000E+00 -0.69766713846E+03  0.69766714577E+03  0.10100000352E+00 0. -1.
    10030    2    1    2    0    0  0.00000000000E+00  0.00000000000E+00  0.61241131281E+03  0.20077456009E+04  0.19120655799E+04 0.  0.
        1    1    3    3  502    0  0.36080348096E+03  0.86024421397E+03  0.86449951561E+02  0.93684195770E+03  0.50400001928E-02 0. -1.
       -1    1    3    3    0  502 -0.36080348096E+03 -0.86024421397E+03  0.52596136125E+03  0.10709036432E+04  0.50400001928E-02 0.  1.
</event>
<event>
 5   0  0.2422436E-06  0.3610509E+04  0.7818609E-02  0.8088089E-01
        2   -1    0    0  501    0  0.00000000000E+00  0.00000000000E+00  0.21310230941E+04  0.21310230941E+04  0.25500000920E-02 0. -1.
       -2   -1    0    0    0  501  0.00000000000E+00  0.00000000000E+00 -0.15292861627E+04  0.15292861627E+04  0.25500000920E-02 0.  1.
    10030    2    1    2    0    0  0.00000000000E+00  0.00000000000E+00  0.60173693142E+03  0.36603092568E+04  0.36105091775E+04 0.  0.
        2    1    3    3  502    0 -0.66173105910E+03  0.15997305734E+04  0.81970695842E+03  0.19154491379E+04  0.25500000920E-02 0. -1.
       -2    1    3    3    0  502  0.66173105910E+03 -0.15997305734E+04 -0.21797002700E+03  0.17448601189E+04  0.25500000920E-02 0.  1.
</event>
<event>
 5   0  0.1566576E-06  0.2910638E+04  0.7818609E-02  0.8269719E-01
       -2   -1    0    0    0  501  0.00000000000E+00  0.00000000000E+00  0.15254646484E+04  0.15254646484E+04  0.25500000920E-02 0.  1.
        2   -1    0    0  501    0  0.00000000000E+00  0.00000000000E+00 -0.13883989460E+04  0.13883989460E+04  0.25500000920E-02 0. -1.
    10030    2    1    2    0    0  0.00000000000E+00  0.00000000000E+00  0.13706570241E+03  0.29138635945E+04  0.29106380813E+04 0.  0.
        4    1    3    3  502    0  0.14307447010E+04 -0.26080178191E+03  0.12248067890E+03  0.14594694579E+04  0.12699999809E+01 0.  1.
       -4    1    3    3    0  502 -0.14307447010E+04  0.26080178191E+03  0.14585023511E+02  0.14543941366E+04  0.12699999809E+01 0. -1.
</event>
<event>
 5   0  0.8423692E-07  0.3639908E+04  0.7818609E-02  0.8081411E-01
       -1   -1    0    0    0  501  0.00000000000E+00  0.00000000000E+00  0.14460614466E+04  0.14460614467E+04  0.50400001928E-02 0.  1.
        1   -1    0    0  501    0  0.00000000000E+00  0.00000000000E+00 -0.22905199216E+04  0.22905199216E+04  0.50400001928E-02 0. -1.
    10030    2    1    2    0    0  0.00000000000E+00  0.00000000000E+00 -0.84445847491E+03  0.37365813682E+04  0.36399079941E+04 0.  0.
        2    1    3    3  502    0 -0.14539038028E+04  0.10243590757E+04 -0.25859331047E+02  0.17787120309E+04  0.25500000920E-02 0.  1.
       -2    1    3    3    0  502  0.14539038028E+04 -0.10243590757E+04 -0.81859914386E+03  0.19578693373E+04  0.25500000920E-02 0. -1.
</event>
<event>
 5   0  0.1588930E-06  0.1893134E+04  0.7818609E-02  0.8658282E-01
       -2   -1    0    0    0  501  0.00000000000E+00  0.00000000000E+00  0.14090934611E+04  0.14090934611E+04  0.25500000920E-02 0.  1.
        2   -1    0    0  501    0  0.00000000000E+00  0.00000000000E+00 -0.63586176590E+03  0.63586176591E+03  0.25500000920E-02 0. -1.
    10030    2    1    2    0    0  0.00000000000E+00  0.00000000000E+00  0.77323169519E+03  0.20449552270E+04  0.18931335468E+04 0.  0.
        3    1    3    3  502    0 -0.24343873026E+03 -0.12955019704E+03 -0.59150919418E+03  0.65263221338E+03  0.10100000352E+00 0. -1.
       -3    1    3    3    0  502  0.24343873026E+03  0.12955019704E+03  0.13647408894E+04  0.13923230136E+04  0.10100000352E+00 0.  1.
</event>
<event>
 5   0  0.2536619E-06  0.3082673E+04  0.7818609E-02  0.8220509E-01
       -2   -1    0    0    0  501  0.00000000000E+00  0.00000000000E+00  0.14332605240E+04  0.14332605240E+04  0.25500000920E-02 0. -1.
        2   -1    0    0  501    0  0.00000000000E+00  0.00000000000E+00 -0.16575619408E+04  0.16575619408E+04  0.25500000920E-02 0.  1.
    10030    2    1    2    0    0  0.00000000000E+00  0.00000000000E+00 -0.22430141687E+03  0.30908224648E+04  0.30826729284E+04 0.  0.
        1    1    3    3  502    0  0.11150200670E+04  0.55242102000E+03  0.79980281759E+03  0.14792306380E+04  0.50400001928E-02 0. -1.
       -1    1    3    3    0  502 -0.11150200670E+04 -0.55242102000E+03 -0.10241042345E+04  0.16115918268E+04  0.50400001928E-02 0.  1.
</event>
<event>
 5   0  0.8423692E-07  0.2355799E+04  0.7818609E-02  0.8456240E-01
        1   -1    0    0  501    0  0.00000000000E+00  0.00000000000E+00  0.88769653539E+03  0.88769653540E+03  0.50400001928E-02 0. -1.
       -1   -1    0    0    0  501  0.00000000000E+00  0.00000000000E+00 -0.15629750367E+04  0.15629750367E+04  0.50400001928E-02 0.  1.
    10030    2    1    2    0    0  0.00000000000E+00  0.00000000000E+00 -0.67527850130E+03  0.24506715721E+04  0.23557992487E+04 0.  0.
        2    1    3    3  502    0 -0.62582101073E+03  0.57973695502E+03  0.50728989292E+03  0.99251695701E+03  0.25500000920E-02 0. -1.
       -2    1    3    3    0  502  0.62582101073E+03 -0.57973695502E+03 -0.11825683942E+04  0.14581546151E+04  0.25500000920E-02 0.  1.
</event>
<event>
 5   0  0.8452742E-07  0.3670529E+04  0.7818609E-02  0.8074524E-01
       -1   -1    0    0    0  501  0.00000000000E+00  0.00000000000E+00  0.15171734194E+04  0.15171734194E+04  0.50400001928E-02 0. -1.
        1   -1    0    0  501    0  0.00000000000E+00  0.00000000000E+00 -0.22200469841E+04  0.22200469841E+04  0.50400001928E-02 0.  1.
    10030    2    1    2    0    0  0.00000000000E+00  0.00000000000E+00 -0.70287356473E+03  0.37372204035E+04  0.36705292665E+04 0.  0.
        1    1    3    3  502    0  0.10615236641E+04  0.13900220627E+03  0.11662989835E+04  0.15831637381E+04  0.50400001928E-02 0. -1.
       -1    1    3    3    0  502 -0.10615236641E+04 -0.13900220627E+03 -0.18691725482E+04  0.21540566654E+04  0.50400001928E-02 0.  1.
</event>
<event>
 5   0  0.2257238E-06  0.1822714E+04  0.7818609E-02  0.8694313E-01
       -2   -1    0    0    0  501  0.00000000000E+00  0.00000000000E+00  0.82267570045E+03  0.82267570045E+03  0.25500000920E-02 0.  1.
        2   -1    0    0  501    0  0.00000000000E+00  0.00000000000E+00 -0.10095976051E+04  0.10095976051E+04  0.25500000920E-02 0. -1.
    10030    2    1    2    0    0  0.00000000000E+00  0.00000000000E+00 -0.18692190463E+03  0.18322733055E+04  0.18227138195E+04 0.  0.
        4    1    3    3  502    0  0.35019636652E+03 -0.16479557463E+03  0.73595709425E+03  0.83152241944E+03  0.12699999809E+01 0.  1.
       -4    1    3    3    0  502 -0.35019636652E+03  0.16479557463E+03 -0.92287899888E+03  0.10007508861E+04  0.12699999809E+01 0. -1.
</event>
<event>
 5   0  0.1513502E-06  0.3540390E+04  0.7818609E-02  0.8104284E-01
       -2   -1    0    0    0  501  0.00000000000E+00  0.00000000000E+00  0.19750187154E+04  0.19750187154E+04  0.25500000920E-02 0.  1.
        2   -1    0    0  501    0  0.00000000000E+00  0.00000000000E+00 -0.15866130031E+04  0.15866130031E+04  0.25500000920E-02 0. -1.
    10030    2    1    2    0    0  0.00000000000E+00  0.00000000000E+00  0.38840571232E+03  0.35616317185E+04  0.35403900210E+04 0.  0.
        3    1    3    3  502    0  0.95592653445E+03 -0.12160016852E+04 -0.67185415935E+03  0.16863699652E+04  0.10100000352E+00 0. -1.
       -3    1    3    3    0  502 -0.95592653445E+03  0.12160016852E+04  0.10602598717E+04  0.18752617533E+04  0.10100000352E+00 0.  1.
</event>
<event>
 5   0  0.2422436E-06  0.3553898E+04  0.7818609E-02  0.8101134E-01
       -2   -1    0    0    0  501  0.00000000000E+00  0.00000000000E+00  0.12866290405E+04  0.12866290405E+04  0.25500000920E-02 0.  1.
        2   -1    0    0  501    0  0.00000000000E+00  0.00000000000E+00 -0.24541239447E+04  0.24541239447E+04  0.25500000920E-02 0. -1.
    10030    2    1    2    0    0  0.00000000000E+00  0.00000000000E+00 -0.11674949042E+04  0.37407529852E+04  0.35538976553E+04 0.  0.
        2    1    3    3  502    0 -0.63210641998E+03  0.12416842463E+04 -0.17445495722E+04  0.22326646643E+04  0.25500000920E-02 0. -1.
       -2    1    3    3    0  502  0.63210641998E+03 -0.12416842463E+04  0.57705466796E+03  0.15080883208E+04  0.25500000920E-02 0.  1.
</event>
<event>
 5   0  0.2422436E-06  0.3612335E+04  0.7818609E-02  0.8087672E-01
        2   -1    0    0  501    0  0.00000000000E+00  0.00000000000E+00  0.12780307403E+04  0.12780307403E+04  0.25500000920E-02 0. -1.
       -2   -1    0    0    0  501  0.00000000000E+00  0.00000000000E+00 -0.25525531241E+04  0.25525531241E+04  0.25500000920E-02 0.  1.
    10030    2    1    2    0    0  0.00000000000E+00  0.00000000000E+00 -0.12745223837E+04  0.38305838644E+04  0.36123351777E+04 0.  0.
        2    1    3    3  502    0  0.95874656547E+03 -0.15253314847E+04 -0.50141907097E+03  0.18700941687E+04  0.25500000920E-02 0.  1.
       -2    1    3    3    0  502 -0.95874656547E+03  0.15253314847E+04 -0.77310331278E+03  0.19604896958E+04  0.25500000920E-02 0. -1.
</event>
<event>
 5   0  0.1566576E-06  0.2230127E+04  0.7818609E-02  0.8505992E-01
       -2   -1    0    0    0  501  0.00000000000E+00  0.00000000000E+00  0.64854630802E+03  0.64854630802E+03  0.25500000920E-02 0.  1.
        2   -1    0    0  501    0  0.00000000000E+00  0.00000000000E+00 -0.19171595990E+04  0.19171595990E+04  0.25500000920E-02 0. -1.
    10030    2    1    2    0    0  0.00000000000E+00  0.00000000000E+00 -0.12686132909E+04  0.25657059070E+04  0.22301271531E+04 0.  0.
        4    1    3    3  502    0  0.99295995272E+03  0.22228186410E+03 -0.11589869872E+04  0.15422811495E+04  0.12699999809E+01 0.  1.
       -4    1    3    3    0  502 -0.99295995272E+03 -0.22228186410E+03 -0.10962630377E+03  0.10234247575E+04  0.12699999809E+01 0. -1.
</event>
<event>
 5   0  0.1513502E-06  0.3165319E+04  0.7818609E-02  0.8198037E-01
        2   -1    0    0  501    0  0.00000000000E+00  0.00000000000E+00  0.14023702587E+04  0.14023702587E+04  0.25500000920E-02 0. -1.
       -2   -1    0    0    0  501  0.00000000000E+00  0.00000000000E+00 -0.17861264325E+04  0.17861264325E+04  0.25500000920E-02 0.  1.
    10030    2    1    2    0    0  0.00000000000E+00  0.00000000000E+00 -0.38375617379E+03  0.31884966912E+04  0.31653186805E+04 0.  0.
        3    1    3    3  502    0 -0.28464486209E+03 -0.14324474800E+03  0.13697215739E+04  0.14062997389E+04  0.10100000352E+00 0. -1.
       -3    1    3    3    0  502  0.28464486209E+03  0.14324474800E+03 -0.17534777477E+04  0.17821969524E+04  0.10100000352E+00 0.  1.
</event>
<event>
 5   0  0.1513502E-06  0.3576781E+04  0.7818609E-02  0.8095831E-01
        2   -1    0    0  501    0  0.00000000000E+00  0.00000000000E+00  0.12972700040E+04  0.12972700040E+04  0.25500000920E-02 0. -1.
       -2   -1    0    0    0  501  0.00000000000E+00  0.00000000000E+00 -0.24654393826E+04  0.24654393826E+04  0.25500000920E-02 0.  1.
    10030    2    1    2    0    0  0.00000000000E+00  0.00000000000E+00 -0.11681693786E+04  0.37627093866E+04  0.35767809873E+04 0.  0.
        3    1    3    3  502    0 -0.17505788073E+04  0.23366185871E+03 -0.88016956007E+03  0.19732770939E+04  0.10100000352E+00 0. -1.
       -3    1    3    3    0  502  0.17505788073E+04 -0.23366185871E+03 -0.28799981854E+03  0.17894322927E+04  0.10100000352E+00 0.  1.
</event>
<event>
 5   0  0.1513502E-06  0.3649493E+04  0.7818609E-02  0.8079248E-01
        2   -1    0    0  501    0  0.00000000000E+00  0.00000000000E+00  0.28423084161E+04  0.28423084161E+04  0.25500000920E-02 0.  1.
       -2   -1    0    0    0  501  0.00000000000E+00  0.00000000000E+00 -0.11714773065E+04  0.11714773065E+04  0.25500000920E-02 0. -1.
    10030    2    1    2    0    0  0.00000000000E+00  0.00000000000E+00  0.16708311095E+04  0.40137857226E+04  0.36494930101E+04 0.  0.
        3    1    3    3  502    0 -0.14933252592E+04  0.27440589925E+03 -0.27773107929E+03  0.15435198379E+04  0.10100000352E+00 0. -1.
       -3    1    3    3    0  502  0.14933252592E+04 -0.27440589925E+03  0.19485621888E+04  0.24702658847E+04  0.10100000352E+00 0.  1.
</event>
<event>
 5   0  0.7754556E-07  0.3601395E+04  0.7818609E-02  0.8090172E-01
       -1   -1    0    0    0  501  0.00000000000E+00  0.00000000000E+00  0.13498617468E+04  0.13498617469E+04  0.50400001928E-02 0. -1.
        1   -1    0    0  501    0  0.00000000000E+00  0.00000000000E+00 -0.24021061412E+04  0.24021061413E+04  0.50400001928E-02 0.  1.
    10030    2    1    2    0    0  0.00000000000E+00  0.00000000000E+00 -0.10522443944E+04  0.37519678881E+04  0.36013948364E+04 0.  0.
        4    1    3    3  502    0 -0.57589845428E+03 -0.11793541064E+04 -0.18105405953E+04  0.22362007955E+04  0.12699999809E+01 0.  1.
       -4    1    3    3    0  502  0.57589845428E+03  0.11793541064E+04  0.75829620085E+03  0.15157670926E+04  0.12699999809E+01 0. -1.
</event>
<event>
 5   0  0.7754556E-07  0.1882555E+04  0.7818609E-02  0.8663589E-01
       -1   -1    0    0    0  501  0.00000000000E+00  0.00000000000E+00  0.86330779159E+03  0.86330779160E+03  0.50400001928E-02 0.  1.
        1   -1    0    0  501    0  0.00000000000E+00  0.00000000000E+00 -0.10262890405E+04  0.10262890405E+04  0.50400001928E-02 0. -1.
    10030    2    1    2    0    0  0.00000000000E+00  0.00000000000E+00 -0.16298124888E+03  0.18895968321E+04  0.18825549926E+04 0.  0.
        4    1    3    3  502    0 -0.81491198820E+03  0.46548081930E+03 -0.15420309459E+03  0.95107000212E+03  0.12699999809E+01 0.  1.
       -4    1    3    3    0  502  0.81491198820E+03 -0.46548081930E+03 -0.87781542954E+01  0.93852682996E+03  0.12699999809E+01 0. -1.
</event>
<event>
 5   0  0.2422436E-06  0.3501578E+04  0.7818609E-02  0.8113416E-01
        2   -1    0    0  501    0  0.00000000000E+00  0.00000000000E+00  0.19851826644E+04  0.19851826644E+04  0.25500000920E-02 0.  1.
       -2   -1    0    0    0  501  0.00000000000E+00  0.00000000000E+00 -0.15440705605E+04  0.15440705605E+04  0.25500000920E-02 0. -1.
    10030    2    1    2    0    0  0.00000000000E+00  0.00000000000E+00  0.44111210393E+03  0.35292532249E+04  0.35015779924E+04 0.  0.
        2    1    3    3  502    0  0.86508158029E+03 -0.77321502300E+03  0.15420382353E+04  0.19297952045E+04  0.25500000920E-02 0.  1.
       -2    1    3    3    0  502 -0.86508158029E+03  0.77321502300E+03 -0.11009261313E+04  0.15994580204E+04  0.25500000920E-02 0. -1.
</event>
<event>
 5   0  0.1566576E-06  0.3483535E+04  0.7818609E-02  0.8117703E-01
        2   -1    0    0  501    0  0.00000000000E+00  0.00000000000E+00  0.22607171306E+04  0.22607171306E+04  0.25500000920E-02 0.  1.
       -2   -1    0    0    0  501  0.00000000000E+00  0.00000000000E+00 -0.13419431284E+04  0.13419431284E+04  0.25500000920E-02 0. -1.
    10030    2    1    2    0    0  0.00000000000E+00  0.00000000000E+00  0.91877400222E+03  0.36026602590E+04  0.34835348821E+04 0.  0.
        4    1    3    3  502    0 -0.31663208731E+03 -0.15134329787E+04 -0.36991813378E+03  0.15898353054E+04  0.12699999809E+01 0.  1.
       -4    1    3    3    0  502  0.31663208731E+03  0.15134329787E+04  0.12886921360E+04  0.20128249536E+04  0.12699999809E+01 0. -1.
</event>
<event>
 5   0  0.1634374E-06  0.3532271E+04  0.7818609E-02  0.8106184E-01
        1   -1    0    0  501    0  0.00000000000E+00  0.00000000000E+00  0.23356607274E+04  0.23356607274E+04  0.50400001928E-02 0.  1.
       -1   -1    0    0    0  501  0.00000000000E+00  0.00000000000E+00 -0.13354826268E+04  0.13354826268E+04  0.50400001928E-02 0. -1.
    10030    2    1    2    0    0  0.00000000000E+00  0.00000000000E+00  0.10001781006E+04  0.36711433543E+04  0.35322708411E+04 0.  0.
        5    1    3    3  502    0 -0.42292649268E+03  0.16317256228E+03  0.22741611444E+04  0.23189055833E+04  0.46999998093E+01 0.  1.
       -5    1    3    3    0  502  0.42292649268E+03 -0.16317256228E+03 -0.12739830439E+04  0.13522377710E+04  0.46999998093E+01 0. -1.
</event>
<event>
 5   0  0.1566576E-06  0.3223566E+04  0.7818609E-02  0.8182621E-01
       -2   -1    0    0    0  501  0.00000000000E+00  0.00000000000E+00  0.14737292908E+04  0.14737292908E+04  0.25500000920E-02 0. -1.
        2   -1    0    0  501    0  0.00000000000E+00  0.00000000000E+00 -0.17627688215E+04  0.17627688215E+04  0.25500000920E-02 0.  1.
    10030    2    1    2    0    0  0.00000000000E+00  0.00000000000E+00 -0.28903953068E+03  0.32364981123E+04  0.32235657556E+04 0.  0.
        4    1    3    3  502    0 -0.45336528353E+03  0.42829728945E+03 -0.16367069019E+04  0.17515107034E+04  0.12699999809E+01 0.  1.
       -4    1    3    3    0  502  0.45336528353E+03 -0.42829728945E+03  0.13476673712E+04  0.14849874089E+04  0.12699999809E+01 0. -1.
</event>
<event>
 5   0  0.1634374E-06  0.3611577E+04  0.7818609E-02  0.8087845E-01
       -1   -1    0    0    0  501  0.00000000000E+00  0.00000000000E+00  0.27327399615E+04  0.27327399615E+04  0.50400001928E-02 0. -1.
        1   -1    0    0  501    0  0.00000000000E+00  0.00000000000E+00 -0.11932608835E+04  0.11932608835E+04  0.50400001928E-02 0.  1.
    10030    2    1    2    0    0  0.00000000000E+00  0.00000000000E+00  0.15394790780E+04  0.39260008450E+04  0.36115767752E+04 0.  0.
        5    1    3    3  502    0 -0.30185287275E+03 -0.49390333338E+03  0.26291505826E+04  0.26921200819E+04  0.46999998093E+01 0. -1.
       -5    1    3    3    0  502  0.30185287275E+03  0.49390333338E+03 -0.10896715046E+04  0.12338807630E+04  0.46999998093E+01 0.  1.
</event>
<event>
 5   0  0.8423692E-07  0.3586326E+04  0.7818609E-02  0.8093631E-01
       -1   -1    0    0    0  501  0.00000000000E+00  0.00000000000E+00  0.11266361296E+04  0.11266361296E+04  0.50400001928E-02 0. -1.
        1   -1    0    0  501    0  0.00000000000E+00  0.00000000000E+00 -0.28540124481E+04  0.28540124481E+04  0.50400001928E-02 0.  1.
    10030    2    1    2    0    0  0.00000000000E+00  0.00000000000E+00 -0.17273763185E+04  0.39806485777E+04  0.35863259965E+04 0.  0.
        2    1    3    3  502    0  0.14864635133E+04 -0.20441966480E+03 -0.19535184908E+04  0.24632490068E+04  0.25500000920E-02 0.  1.
       -2    1    3    3    0  502 -0.14864635133E+04  0.20441966480E+03  0.22614217226E+03  0.15173995709E+04  0.25500000920E-02 0. -1.
</event>
<event>
 5   0  0.7754556E-07  0.2022250E+04  0.7818609E-02  0.8596288E-01
       -1   -1    0    0    0  501  0.00000000000E+00  0.00000000000E+00  0.11615865004E+04  0.11615865005E+04  0.50400001928E-02 0. -1.
        1   -1    0    0  501    0  0.00000000000E+00  0.00000000000E+00 -0.88015325172E+03  0.88015325173E+03  0.50400001928E-02 0.  1.
    10030    2    1    2    0    0  0.00000000000E+00  0.00000000000E+00  0.28143324873E+03  0.20417397522E+04  0.20222503659E+04 0.  0.
        4    1    3    3  502    0  0.93308388003E+03  0.38669769281E+03  0.93447797427E+02  0.10143543447E+04  0.12699999809E+01 0. -1.
       -4    1    3    3    0  502 -0.93308388003E+03 -0.38669769281E+03  0.18798545130E+03  0.10273854075E+04  0.12699999809E+01 0.  1.
</event>
<event>
 5   0  0.7754556E-07  0.3506701E+04  0.7818609E-02  0.8112204E-01
       -1   -1    0    0    0  501  0.00000000000E+00  0.00000000000E+00  0.13208860905E+04  0.13208860905E+04  0.50400001928E-02 0.  1.
        1   -1    0    0  501    0  0.00000000000E+00  0.00000000000E+00 -0.23274063533E+04  0.23274063534E+04  0.50400001928E-02 0. -1.
    10030    2    1    2    0    0  0.00000000000E+00  0.00000000000E+00 -0.10065202629E+04  0.36482924438E+04  0.35067014011E+04 0.  0.
        4    1    3    3  502    0  0.10947088869E+04 -0.31747177329E+03 -0.18893695721E+04  0.22065572430E+04  0.12699999809E+01 0. -1.
       -4    1    3    3    0  502 -0.10947088869E+04  0.31747177329E+03  0.88284930918E+03  0.14417352009E+04  0.12699999809E+01 0.  1.
</event>
<event>
 5   0  0.7754556E-07  0.3539236E+04  0.7818609E-02  0.8104554E-01
        1   -1    0    0  501    0  0.00000000000E+00  0.00000000000E+00  0.22424546324E+04  0.22424546324E+04  0.50400001928E-02 0.  1.
       -1   -1    0    0    0  501  0.00000000000E+00  0.00000000000E+00 -0.13964820285E+04  0.13964820285E+04  0.50400001928E-02 0. -1.
    10030    2    1    2    0    0  0.00000000000E+00  0.00000000000E+00  0.84597260396E+03  0.36389366609E+04  0.35392358463E+04 0.  0.
        4    1    3    3  502    0  0.67958662231E+03  0.88181007008E+03  0.18372787301E+04  0.21482601616E+04  0.12699999809E+01 0.  1.
       -4    1    3    3    0  502 -0.67958662231E+03 -0.88181007008E+03 -0.99130612616E+03  0.14906764993E+04  0.12699999809E+01 0. -1.
</event>
<event>
 5   0  0.2382711E-06  0.3565825E+04  0.7818609E-02  0.8098365E-01
       -2   -1    0    0    0  501  0.00000000000E+00  0.00000000000E+00  0.23021856240E+04  0.23021856240E+04  0.25500000920E-02 0. -1.
        2   -1    0    0  501    0  0.00000000000E+00  0.00000000000E+00 -0.13807652049E+04  0.13807652049E+04  0.25500000920E-02 0.  1.
    10030    2    1    2    0    0  0.00000000000E+00  0.00000000000E+00  0.92142041911E+03  0.36829508289E+04  0.35658254611E+04 0.  0.
        5    1    3    3  502    0 -0.12001444269E+03 -0.16701655853E+04 -0.17169155946E+03  0.16832577433E+04  0.46999998093E+01 0.  1.
       -5    1    3    3    0  502  0.12001444269E+03  0.16701655853E+04  0.10931119786E+04  0.19996930856E+04  0.46999998093E+01 0. -1.
</event>
<event>
 5   0  0.1634374E-06  0.4096419E+04  0.7818609E-02  0.7985373E-01
       -1   -1    0    0    0  501  0.00000000000E+00  0.00000000000E+00  0.21056058754E+04  0.21056058754E+04  0.50400001928E-02 0.  1.
        1   -1    0    0  501    0  0.00000000000E+00  0.00000000000E+00 -0.19923780683E+04  0.19923780683E+04  0.50400001928E-02 0. -1.
    10030    2    1    2    0    0  0.00000000000E+00  0.00000000000E+00  0.11322780714E+03  0.40979839437E+04  0.40964193958E+04 0.  0.
        5    1    3    3  502    0  0.46040544108E+03 -0.58631312239E+03 -0.18518370808E+04  0.19962612333E+04  0.46999998093E+01 0. -1.
       -5    1    3    3    0  502 -0.46040544108E+03  0.58631312239E+03  0.19650648880E+04  0.21017227104E+04  0.46999998093E+01 0.  1.
</event>
<event>
 5   0  0.2536619E-06  0.3169975E+04  0.7818609E-02  0.8196792E-01
        2   -1    0    0  501    0  0.00000000000E+00  0.00000000000E+00  0.16213411336E+04  0.16213411336E+04  0.25500000920E-02 0.  1.
       -2   -1    0    0    0  501  0.00000000000E+00  0.00000000000E+00 -0.15494487818E+04  0.15494487818E+04  0.25500000920E-02 0. -1.
    10030    2    1    2    0    0  0.00000000000E+00  0.00000000000E+00  0.71892351831E+02  0.31707899154E+04  0.31699747913E+04 0.  0.
        1    1    3    3  502    0 -0.44269896840E+03 -0.45401233250E+03  0.14889295807E+04  0.16183389234E+04  0.50400001928E-02 0.  1.
       -1    1    3    3    0  502  0.44269896840E+03  0.45401233250E+03 -0.14170372288E+04  0.15524509920E+04  0.50400001928E-02 0. -1.
</event>
<event>
 5   0  0.8452742E-07  0.3682457E+04  0.7818609E-02  0.8071861E-01
        1   -1    0    0  501    0  0.00000000000E+00  0.00000000000E+00  0.15763288955E+04  0.15763288955E+04  0.50400001928E-02 0. -1.
       -1   -1    0    0    0  501  0.00000000000E+00  0.00000000000E+00 -0.21506438458E+04  0.21506438458E+04  0.50400001928E-02 0.  1.
    10030    2    1    2    0    0  0.00000000000E+00  0.00000000000E+00 -0.57431495032E+03  0.37269727414E+04  0.36824568093E+04 0.  0.
        1    1    3    3  502    0 -0.51640210471E+03 -0.81058401113E+02  0.14996535616E+04  0.15881443269E+04  0.50400001928E-02 0. -1.
       -1    1    3    3    0  502  0.51640210471E+03  0.81058401113E+02 -0.20739685119E+04  0.21388284145E+04  0.50400001928E-02 0.  1.
</event>
<event>
 5   0  0.2382711E-06  0.3607294E+04  0.7818609E-02  0.8088823E-01
       -2   -1    0    0    0  501  0.00000000000E+00  0.00000000000E+00  0.16066053927E+04  0.16066053927E+04  0.25500000920E-02 0. -1.
        2   -1    0    0  501    0  0.00000000000E+00  0.00000000000E+00 -0.20248552452E+04  0.20248552452E+04  0.25500000920E-02 0.  1.
    10030    2    1    2    0    0  0.00000000000E+00  0.00000000000E+00 -0.41824985247E+03  0.36314606379E+04  0.36072944745E+04 0.  0.
        5    1    3    3  502    0  0.76623891421E+03 -0.15637347072E+04  0.26384479237E+03  0.17612565040E+04  0.46999998093E+01 0.  1.
       -5    1    3    3    0  502 -0.76623891421E+03  0.15637347072E+04 -0.68209464485E+03  0.18702041340E+04  0.46999998093E+01 0. -1.
</event>
<event>
 5   0  0.1513502E-06  0.3561590E+04  0.7818609E-02  0.8099347E-01
       -2   -1    0    0    0  501  0.00000000000E+00  0.00000000000E+00  0.18760019039E+04  0.18760019039E+04  0.25500000920E-02 0. -1.
        2   -1    0    0  501    0  0.00000000000E+00  0.00000000000E+00 -0.16904194286E+04  0.16904194286E+04  0.25500000920E-02 0.  1.
    10030    2    1    2    0    0  0.00000000000E+00  0.00000000000E+00  0.18558247528E+03  0.35664213325E+04  0.35615895701E+04 0.  0.
        3    1    3    3  502    0 -0.82702134932E+02  0.17693617889E+04  0.27675021593E+03  0.17927831647E+04  0.10100000352E+00 0.  1.
       -3    1    3    3    0  502  0.82702134932E+02 -0.17693617889E+04 -0.91167740652E+02  0.17736381678E+04  0.10100000352E+00 0. -1.
</event>
<event>
 5   0  0.2536619E-06  0.3732796E+04  0.7818609E-02  0.8060733E-01
       -2   -1    0    0    0  501  0.00000000000E+00  0.00000000000E+00  0.15263259326E+04  0.15263259326E+04  0.25500000920E-02 0. -1.
        2   -1    0    0  501    0  0.00000000000E+00  0.00000000000E+00 -0.22822392912E+04  0.22822392912E+04  0.25500000920E-02 0.  1.
    10030    2    1    2    0    0  0.00000000000E+00  0.00000000000E+00 -0.75591335862E+03  0.38085652238E+04  0.37327957429E+04 0.  0.
        1    1    3    3  502    0  0.83580127438E+03 -0.46289823726E+03  0.12578976636E+04  0.15796028236E+04  0.50400001928E-02 0. -1.
       -1    1    3    3    0  502 -0.83580127438E+03  0.46289823726E+03 -0.20138110222E+04  0.22289624002E+04  0.50400001928E-02 0.  1.
</event>
<event>
 5   0  0.7754556E-07  0.2644101E+04  0.7818609E-02  0.8353373E-01
       -1   -1    0    0    0  501  0.00000000000E+00  0.00000000000E+00  0.96884784322E+03  0.96884784323E+03  0.50400001928E-02 0.  1.
        1   -1    0    0  501    0  0.00000000000E+00  0.00000000000E+00 -0.18040170864E+04  0.18040170864E+04  0.50400001928E-02 0. -1.
    10030    2    1    2    0    0  0.00000000000E+00  0.00000000000E+00 -0.83516924314E+03  0.27728649296E+04  0.26441014075E+04 0.  0.
        4    1    3    3  502    0 -0.38800127728E+03  0.11526401519E+04  0.12601367638E+03  0.12227041222E+04  0.12699999809E+01 0.  1.
       -4    1    3    3    0  502  0.38800127728E+03 -0.11526401519E+04 -0.96118291953E+03  0.15501608074E+04  0.12699999809E+01 0. -1.
</event>
<event>
 5   0  0.1566576E-06  0.3598215E+04  0.7818609E-02  0.8090901E-01
        2   -1    0    0  501    0  0.00000000000E+00  0.00000000000E+00  0.18373915223E+04  0.18373915223E+04  0.25500000920E-02 0. -1.
       -2   -1    0    0    0  501  0.00000000000E+00  0.00000000000E+00 -0.17616211753E+04  0.17616211753E+04  0.25500000920E-02 0.  1.
    10030    2    1    2    0    0  0.00000000000E+00  0.00000000000E+00  0.75770347062E+02  0.35990126976E+04  0.35982150091E+04 0.  0.
        4    1    3    3  502    0  0.41761142300E+03  0.12798696941E+04  0.12315987283E+04  0.18246377106E+04  0.12699999809E+01 0. -1.
       -4    1    3    3    0  502 -0.41761142300E+03 -0.12798696941E+04 -0.11558283813E+04  0.17743749870E+04  0.12699999809E+01 0.  1.
</event>
<event>
 5   0  0.2536619E-06  0.3533805E+04  0.7818609E-02  0.8105825E-01
       -2   -1    0    0    0  501  0.00000000000E+00  0.00000000000E+00  0.24017208715E+04  0.24017208715E+04  0.25500000920E-02 0. -1.
        2   -1    0    0  501    0  0.00000000000E+00  0.00000000000E+00 -0.12998784859E+04  0.12998784859E+04  0.25500000920E-02 0.  1.
    10030    2    1    2    0    0  0.00000000000E+00  0.00000000000E+00  0.11018423856E+04  0.37015993574E+04  0.35338054786E+04 0.  0.
        1    1    3    3  502    0  0.41705131327E+03 -0.14551874112E+04  0.15054778468E+04  0.21349392841E+04  0.50400001928E-02 0. -1.
       -1    1    3    3    0  502 -0.41705131327E+03  0.14551874112E+04 -0.40363546125E+03  0.15666600733E+04  0.50400001928E-02 0.  1.
</event>
<event>
 5   0  0.1513502E-06  0.3469755E+04  0.7818609E-02  0.8120995E-01
       -2   -1    0    0    0  501  0.00000000000E+00  0.00000000000E+00  0.12009052353E+04  0.12009052353E+04  0.25500000920E-02 0.  1.
        2   -1    0    0  501    0  0.00000000000E+00  0.00000000000E+00 -0.25062760775E+04  0.25062760775E+04  0.25500000920E-02 0. -1.
    10030    2    1    2    0    0  0.00000000000E+00  0.00000000000E+00 -0.13053708423E+04  0.37071813128E+04  0.34697550707E+04 0.  0.
        3    1    3    3  502    0  0.69940609048E+03  0.96991591483E+03 -0.19956328839E+04  0.23264686499E+04  0.10100000352E+00 0. -1.
       -3    1    3    3    0  502 -0.69940609048E+03 -0.96991591483E+03  0.69026204167E+03  0.13807126629E+04  0.10100000352E+00 0.  1.
</event>
<event>
 5   0  0.1634374E-06  0.3217141E+04  0.7818609E-02  0.8184305E-01
        1   -1    0    0  501    0  0.00000000000E+00  0.00000000000E+00  0.16864078926E+04  0.16864078926E+04  0.50400001928E-02 0. -1.
       -1   -1    0    0    0  501  0.00000000000E+00  0.00000000000E+00 -0.15343261773E+04  0.15343261774E+04  0.50400001928E-02 0.  1.
    10030    2    1    2    0    0  0.00000000000E+00  0.00000000000E+00  0.15208171525E+03  0.32207340699E+04  0.32171414487E+04 0.  0.
        5    1    3    3  502    0 -0.89684348340E+03  0.12815128454E+04 -0.29971050488E+03  0.15926242128E+04  0.46999998093E+01 0.  1.
       -5    1    3    3    0  502  0.89684348340E+03 -0.12815128454E+04  0.45179222013E+03  0.16281098571E+04  0.46999998093E+01 0. -1.
</event>
<event>
 5   0  0.2382711E-06  0.2468616E+04  0.7818609E-02  0.8414252E-01
       -2   -1    0    0    0  501  0.00000000000E+00  0.00000000000E+00  0.17528313262E+04  0.17528313262E+04  0.25500000920E-02 0. -1.
        2   -1    0    0  501    0  0.00000000000E+00  0.00000000000E+00 -0.86917466166E+03  0.86917466166E+03  0.25500000920E-02 0.  1.
    10030    2    1    2    0    0  0.00000000000E+00  0.00000000000E+00  0.88365666457E+03  0.26220059879E+04  0.24686162723E+04 0.  0.
        5    1    3    3  502    0 -0.15571432891E+03  0.12072780267E+04  0.22486305850E+03  0.12378823333E+04  0.46999998093E+01 0. -1.
       -5    1    3    3    0  502  0.15571432891E+03 -0.12072780267E+04  0.65879360608E+03  0.13841236546E+04  0.46999998093E+01 0.  1.
</event>
<event>
 5   0  0.8452742E-07  0.3150796E+04  0.7818609E-02  0.8201934E-01
       -1   -1    0    0    0  501  0.00000000000E+00  0.00000000000E+00  0.13214437115E+04  0.13214437115E+04  0.50400001928E-02 0.  1.
        1   -1    0    0  501    0  0.00000000000E+00  0.00000000000E+00 -0.18781573467E+04  0.18781573467E+04  0.50400001928E-02 0. -1.
    10030    2    1    2    0    0  0.00000000000E+00  0.00000000000E+00 -0.55671363527E+03  0.31996010582E+04  0.31507962264E+04 0.  0.
        1    1    3    3  502    0  0.19290136167E+03 -0.38310026106E+03  0.12610071300E+04  0.13319593565E+04  0.50400001928E-02 0.  1.
       -1    1    3    3    0  502 -0.19290136167E+03  0.38310026106E+03 -0.18177207653E+04  0.18676417017E+04  0.50400001928E-02 0. -1.
</event>
<event>
 5   0  0.2422436E-06  0.2173046E+04  0.7818609E-02  0.8529732E-01
        2   -1    0    0  501    0  0.00000000000E+00  0.00000000000E+00  0.12117609638E+04  0.12117609638E+04  0.25500000920E-02 0. -1.
       -2   -1    0    0    0  501  0.00000000000E+00  0.00000000000E+00 -0.97422837831E+03  0.97422837832E+03  0.25500000920E-02 0.  1.
    10030    2    1    2    0    0  0.00000000000E+00  0.00000000000E+00  0.23753258549E+03  0.21859893421E+04  0.21730457139E+04 0.  0.
        2    1    3    3  502    0  0.79687524067E+03 -0.68311833076E+03 -0.16374653340E+03  0.10622964418E+04  0.25500000920E-02 0.  1.
       -2    1    3    3    0  502 -0.79687524067E+03  0.68311833076E+03  0.40127911890E+03  0.11236929003E+04  0.25500000920E-02 0. -1.
</event>
<event>
 5   0  0.1566576E-06  0.1900590E+04  0.7818609E-02  0.8654563E-01
       -2   -1    0    0    0  501  0.00000000000E+00  0.00000000000E+00  0.52522138594E+03  0.52522138595E+03  0.25500000920E-02 0. -1.
        2   -1    0    0  501    0  0.00000000000E+00  0.00000000000E+00 -0.17193904351E+04  0.17193904351E+04  0.25500000920E-02 0.  1.
    10030    2    1    2    0    0  0.00000000000E+00  0.00000000000E+00 -0.11941690491E+04  0.22446118210E+04  0.19005900424E+04 0.  0.
        4    1    3    3  502    0  0.17761125701E+03 -0.89785971488E+03 -0.29515000674E+03  0.96167196361E+03  0.12699999809E+01 0. -1.
       -4    1    3    3    0  502 -0.17761125701E+03  0.89785971488E+03 -0.89901904238E+03  0.12829398574E+04  0.12699999809E+01 0.  1.
</event>
<event>
 5   0  0.2382711E-06  0.3612526E+04  0.7818609E-02  0.8087629E-01
       -2   -1    0    0    0  501  0.00000000000E+00  0.00000000000E+00  0.18973777191E+04  0.18973777191E+04  0.25500000920E-02 0. -1.
        2   -1    0    0  501    0  0.00000000000E+00  0.00000000000E+00 -0.17195236105E+04  0.17195236105E+04  0.25500000920E-02 0.  1.
    10030    2    1    2    0    0  0.00000000000E+00  0.00000000000E+00  0.17785410860E+03  0.36169013296E+04  0.36125258676E+04 0.  0.
        5    1    3    3  502    0  0.17512805798E+03 -0.60854479959E+03 -0.16047385260E+04  0.17251679444E+04  0.46999998093E+01 0.  1.
       -5    1    3    3    0  502 -0.17512805798E+03  0.60854479959E+03  0.17825926346E+04  0.18917333852E+04  0.46999998093E+01 0. -1.
</event>
<event>
 5   0  0.1908273E-06  0.3762759E+04  0.7818609E-02  0.8054194E-01
       -1   -1    0    0    0  501  0.00000000000E+00  0.00000000000E+00  0.13069321582E+04  0.13069321582E+04  0.50400001928E-02 0. -1.
        1   -1    0    0  501    0  0.00000000000E+00  0.00000000000E+00 -0.27083189779E+04  0.27083189779E+04  0.50400001928E-02 0.  1.
    10030    2    1    2    0    0  0.00000000000E+00  0.00000000000E+00 -0.14013868197E+04  0.40152511360E+04  0.37627591827E+04 0.  0.
        3    1    3    3  502    0  0.61641854703E+02  0.99837574642E+03  0.99966572702E+03  0.14141730535E+04  0.10100000352E+00 0. -1.
       -3    1    3    3    0  502 -0.61641854703E+02 -0.99837574642E+03 -0.24010525467E+04  0.26010780825E+04  0.10100000352E+00 0.  1.
</event>
<event>
 5   0  0.2382711E-06  0.3666215E+04  0.7818609E-02  0.8075491E-01
        2   -1    0    0  501    0  0.00000000000E+00  0.00000000000E+00  0.21893025986E+04  0.21893025986E+04  0.25500000920E-02 0. -1.
       -2   -1    0    0    0  501  0.00000000000E+00  0.00000000000E+00 -0.15348644874E+04  0.15348644874E+04  0.25500000920E-02 0.  1.
    10030    2    1    2    0    0  0.00000000000E+00  0.00000000000E+00  0.65443811122E+03  0.37241670860E+04  0.36662148386E+04 0.  0.
        5    1    3    3  502    0  0.80701644213E+03  0.31219177821E+03 -0.13143458070E+04  0.15736156565E+04  0.46999998093E+01 0.  1.
       -5    1    3    3    0  502 -0.80701644213E+03 -0.31219177821E+03  0.19687839182E+04  0.21505514294E+04  0.46999998093E+01 0. -1.
</event>
<event>
 5   0  0.2422436E-06  0.3506364E+04  0.7818609E-02  0.8112283E-01
        2   -1    0    0  501    0  0.00000000000E+00  0.00000000000E+00  0.20809278047E+04  0.20809278047E+04  0.25500000920E-02 0. -1.
       -2   -1    0    0    0  501  0.00000000000E+00  0.00000000000E+00 -0.14770563617E+04  0.14770563617E+04  0.25500000920E-02 0.  1.
    10030    2    1    2    0    0  0.00000000000E+00  0.00000000000E+00  0.60387144299E+03  0.35579841665E+04  0.35063643007E+04 0.  0.
        2    1    3    3  502    0  0.78646627723E+03 -0.95247384121E+03 -0.96053150493E+03  0.15647224659E+04  0.25500000920E-02 0.  1.
       -2    1    3    3    0  502 -0.78646627723E+03  0.95247384121E+03  0.15644029479E+04  0.19932617005E+04  0.25500000920E-02 0. -1.
</event>
<event>
 5   0  0.1513502E-06  0.2102100E+04  0.7818609E-02  0.8560319E-01
       -2   -1    0    0    0  501  0.00000000000E+00  0.00000000000E+00  0.11556610070E+04  0.11556610070E+04  0.25500000920E-02 0.  1.
        2   -1    0    0  501    0  0.00000000000E+00  0.00000000000E+00 -0.95590832953E+03  0.95590832954E+03  0.25500000920E-02 0. -1.
    10030    2    1    2    0    0  0.00000000000E+00  0.00000000000E+00  0.19975267747E+03  0.21115693365E+04  0.21020998860E+04 0.  0.
        3    1    3    3  502    0  0.60266542973E+03 -0.42802479050E+03  0.85043375089E+03  0.11267867661E+04  0.10100000352E+00 0.  1.
       -3    1    3    3    0  502 -0.60266542973E+03  0.42802479050E+03 -0.65068107342E+03  0.98478257041E+03  0.10100000352E+00 0. -1.
</event>
<event>
 5   0  0.2422436E-06  0.2648235E+04  0.7818609E-02  0.8351999E-01
       -2   -1    0    0    0  501  0.00000000000E+00  0.00000000000E+00  0.13457966047E+04  0.13457966047E+04  0.25500000920E-02 0.  1.
        2   -1    0    0  501    0  0.00000000000E+00  0.00000000000E+00 -0.13027871408E+04  0.13027871408E+04  0.25500000920E-02 0. -1.
    10030    2    1    2    0    0  0.00000000000E+00  0.00000000000E+00  0.43009463823E+02  0.26485837455E+04  0.26482345144E+04 0.  0.
        2    1    3    3  502    0 -0.12308579539E+04  0.48576462471E+03  0.69552064209E+02  0.13250720973E+04  0.25500000920E-02 0. -1.
       -2    1    3    3    0  502  0.12308579539E+04 -0.48576462471E+03 -0.26542600386E+02  0.13235116482E+04  0.25500000920E-02 0.  1.
</event>
<event>
 5   0  0.8452742E-07  0.3078325E+04  0.7818609E-02  0.8221712E-01
       -1   -1    0    0    0  501  0.00000000000E+00  0.00000000000E+00  0.17902821065E+04  0.17902821065E+04  0.50400001928E-02 0.  1.
        1   -1    0    0  501    0  0.00000000000E+00  0.00000000000E+00 -0.13232673792E+04  0.13232673792E+04  0.50400001928E-02 0. -1.
    10030    2    1    2    0    0  0.00000000000E+00  0.00000000000E+00  0.46701472738E+03  0.31135494857E+04  0.30783254611E+04 0.  0.
        1    1    3    3  502    0 -0.14217810650E+04  0.57573384437E+03  0.10520534322E+03  0.15375301690E+04  0.50400001928E-02 0.  1.
       -1    1    3    3    0  502  0.14217810650E+04 -0.57573384437E+03  0.36180938416E+03  0.15760193167E+04  0.50400001928E-02 0. -1.
</event>
<event>
 5   0  0.1908273E-06  0.3569379E+04  0.7818609E-02  0.8097542E-01
        1   -1    0    0  501    0  0.00000000000E+00  0.00000000000E+00  0.11654117082E+04  0.11654117082E+04  0.50400001928E-02 0. -1.
       -1   -1    0    0    0  501  0.00000000000E+00  0.00000000000E+00 -0.27330403975E+04  0.27330403975E+04  0.50400001928E-02 0.  1.
    10030    2    1    2    0    0  0.00000000000E+00  0.00000000000E+00 -0.15676286893E+04  0.38984521056E+04  0.35693793736E+04 0.  0.
        3    1    3    3  502    0  0.84229818251E+02 -0.15778669430E+04 -0.16899784148E+04  0.23136088271E+04  0.10100000352E+00 0.  1.
       -3    1    3    3    0  502 -0.84229818251E+02  0.15778669430E+04  0.12234972551E+03  0.15848432786E+04  0.10100000352E+00 0. -1.
</event>
<event>
 5   0  0.1513502E-06  0.3586151E+04  0.7818609E-02  0.8093671E-01
       -2   -1    0    0    0  501  0.00000000000E+00  0.00000000000E+00  0.17577998319E+04  0.17577998319E+04  0.25500000920E-02 0. -1.
        2   -1    0    0  501    0  0.00000000000E+00  0.00000000000E+00 -0.18290591506E+04  0.18290591506E+04  0.25500000920E-02 0.  1.
    10030    2    1    2    0    0  0.00000000000E+00  0.00000000000E+00 -0.71259318684E+02  0.35868589824E+04  0.35861510662E+04 0.  0.
        3    1    3    3  502    0 -0.77262415201E+03  0.86652554975E+03  0.13311338695E+04  0.17662763084E+04  0.10100000352E+00 0. -1.
       -3    1    3    3    0  502  0.77262415201E+03 -0.86652554975E+03 -0.14023931882E+04  0.18205826741E+04  0.10100000352E+00 0.  1.
</event>
<event>
 5   0  0.1908273E-06  0.3226717E+04  0.7818609E-02  0.8181797E-01
       -1   -1    0    0    0  501  0.00000000000E+00  0.00000000000E+00  0.18074002209E+04  0.18074002210E+04  0.50400001928E-02 0.  1.
        1   -1    0    0  501    0  0.00000000000E+00  0.00000000000E+00 -0.14401485865E+04  0.14401485865E+04  0.50400001928E-02 0. -1.
    10030    2    1    2    0    0  0.00000000000E+00  0.00000000000E+00  0.36725163449E+03  0.32475488074E+04  0.32267165189E+04 0.  0.
        3    1    3    3  502    0 -0.75898968774E+03 -0.10306824727E+04 -0.80483158476E+03  0.15119939139E+04  0.10100000352E+00 0. -1.
       -3    1    3    3    0  502  0.75898968774E+03  0.10306824727E+04  0.11720832192E+04  0.17355548936E+04  0.10100000352E+00 0.  1.
</event>
<event>
 5   0  0.2382711E-06  0.3583295E+04  0.7818609E-02  0.8094329E-01
       -2   -1    0    0    0  501  0.00000000000E+00  0.00000000000E+00  0.19423447888E+04  0.19423447888E+04  0.25500000920E-02 0.  1.
        2   -1    0    0  501    0  0.00000000000E+00  0.00000000000E+00 -0.16526418199E+04  0.16526418199E+04  0.25500000920E-02 0. -1.
    10030    2    1    2    0    0  0.00000000000E+00  0.00000000000E+00  0.28970296892E+03  0.35949866087E+04  0.35832946999E+04 0.  0.
        5    1    3    3  502    0 -0.46474066735E+02  0.76282767006E+03  0.17706055692E+04  0.19285051373E+04  0.46999998093E+01 0.  1.
       -5    1    3    3    0  502  0.46474066735E+02 -0.76282767006E+03 -0.14809026002E+04  0.16664814714E+04  0.46999998093E+01 0. -1.
</event>
<event>
 5   0  0.1513502E-06  0.3393590E+04  0.7818609E-02  0.8139481E-01
       -2   -1    0    0    0  501  0.00000000000E+00  0.00000000000E+00  0.16004493487E+04  0.16004493487E+04  0.25500000920E-02 0. -1.
        2   -1    0    0  501    0  0.00000000000E+00  0.00000000000E+00 -0.17989400819E+04  0.17989400819E+04  0.25500000920E-02 0.  1.
    10030    2    1    2    0    0  0.00000000000E+00  0.00000000000E+00 -0.19849073322E+03  0.33993894306E+04  0.33935895346E+04 0.  0.
        3    1    3    3  502    0  0.52828371997E+03  0.10431166260E+03  0.15125876006E+04  0.16055796061E+04  0.10100000352E+00 0. -1.
       -3    1    3    3    0  502 -0.52828371997E+03 -0.10431166260E+03 -0.17110783338E+04  0.17938098245E+04  0.10100000352E+00 0.  1.
</event>
<event>
 5   0  0.7754556E-07  0.3633678E+04  0.7818609E-02  0.8082821E-01
       -1   -1    0    0    0  501  0.00000000000E+00  0.00000000000E+00  0.19050989069E+04  0.19050989069E+04  0.50400001928E-02 0.  1.
        1   -1    0    0  501    0  0.00000000000E+00  0.00000000000E+00 -0.17326676601E+04  0.17326676601E+04  0.50400001928E-02 0. -1.
    10030    2    1    2    0    0  0.00000000000E+00  0.00000000000E+00  0.17243124684E+03  0.36377665670E+04  0.36336776220E+04 0.  0.
        4    1    3    3  502    0  0.10320898640E+04 -0.82981127814E+03  0.13314422110E+04  0.18779074042E+04  0.12699999809E+01 0.  1.
       -4    1    3    3    0  502 -0.10320898640E+04  0.82981127814E+03 -0.11590109642E+04  0.17598591627E+04  0.12699999809E+01 0. -1.
</event>
<event>
 5   0  0.1716345E-06  0.1828002E+04  0.7818609E-02  0.8691548E-01
       -2   -1    0    0    0  501  0.00000000000E+00  0.00000000000E+00  0.11366129338E+04  0.11366129338E+04  0.25500000920E-02 0.  1.
        2   -1    0    0  501    0  0.00000000000E+00  0.00000000000E+00 -0.73498918281E+03  0.73498918282E+03  0.25500000920E-02 0. -1.
    10030    2    1    2    0    0  0.00000000000E+00  0.00000000000E+00  0.40162375098E+03  0.18716021166E+04  0.18280024195E+04 0.  0.
        3    1    3    3  502    0  0.84473867474E+03 -0.28117549497E+03 -0.10892967877E+02  0.89037169459E+03  0.10100000352E+00 0.  1.
       -3    1    3    3    0  502 -0.84473867474E+03  0.28117549497E+03  0.41251671885E+03  0.98123042202E+03  0.10100000352E+00 0. -1.
</event>
<event>
 5   0  0.1566576E-06  0.2991262E+04  0.7818609E-02  0.8246230E-01
       -2   -1    0    0    0  501  0.00000000000E+00  0.00000000000E+00  0.16351240534E+04  0.16351240534E+04  0.25500000920E-02 0.  1.
        2   -1    0    0  501    0  0.00000000000E+00  0.00000000000E+00 -0.13680383700E+04  0.13680383700E+04  0.25500000920E-02 0. -1.
    10030    2    1    2    0    0  0.00000000000E+00  0.00000000000E+00  0.26708568343E+03  0.30031624233E+04  0.29912622384E+04 0.  0.
        4    1    3    3  502    0  0.11147832657E+03  0.66465206630E+03  0.14740404038E+04  0.16207981094E+04  0.12699999809E+01 0.  1.
       -4    1    3    3    0  502 -0.11147832657E+03 -0.66465206630E+03 -0.12069547204E+04  0.13823643139E+04  0.12699999809E+01 0. -1.
</event>
<event>
 5   0  0.1513502E-06  0.3678318E+04  0.7818609E-02  0.8072784E-01
        2   -1    0    0  501    0  0.00000000000E+00  0.00000000000E+00  0.22498618292E+04  0.22498618292E+04  0.25500000920E-02 0. -1.
       -2   -1    0    0    0  501  0.00000000000E+00  0.00000000000E+00 -0.15034280182E+04  0.15034280182E+04  0.25500000920E-02 0.  1.
    10030    2    1    2    0    0  0.00000000000E+00  0.00000000000E+00  0.74643381103E+03  0.37532898474E+04  0.36783177193E+04 0.  0.
        3    1    3    3  502    0 -0.10414811083E+04 -0.58129182309E+03 -0.10552897987E+04  0.15925513027E+04  0.10100000352E+00 0.  1.
       -3    1    3    3    0  502  0.10414811083E+04  0.58129182309E+03  0.18017236097E+04  0.21607385447E+04  0.10100000352E+00 0. -1.
</event>
<event>
 5   0  0.2382711E-06  0.3546142E+04  0.7818609E-02  0.8102941E-01
       -2   -1    0    0    0  501  0.00000000000E+00  0.00000000000E+00  0.12890902109E+04  0.12890902109E+04  0.25500000920E-02 0. -1.
        2   -1    0    0  501    0  0.00000000000E+00  0.00000000000E+00 -0.24387594785E+04  0.24387594785E+04  0.25500000920E-02 0.  1.
    10030    2    1    2    0    0  0.00000000000E+00  0.00000000000E+00 -0.11496692676E+04  0.37278496894E+04  0.35461421125E+04 0.  0.
        5    1    3    3  502    0  0.64661132093E+01  0.41065498684E+01  0.12890662684E+04  0.12890975948E+04  0.46999998093E+01 0. -1.
       -5    1    3    3    0  502 -0.64661132093E+01 -0.41065498684E+01 -0.24387355361E+04  0.24387520947E+04  0.46999998093E+01 0.  1.
</event>
<event>
 5   0  0.1566576E-06  0.2105377E+04  0.7818609E-02  0.8558878E-01
        2   -1    0    0  501    0  0.00000000000E+00  0.00000000000E+00  0.24591323499E+04  0.24591323499E+04  0.25500000920E-02 0.  1.
       -2   -1    0    0    0  501  0.00000000000E+00  0.00000000000E+00 -0.45062777284E+03  0.45062777285E+03  0.25500000920E-02 0. -1.
    10030    2    1    2    0    0  0.00000000000E+00  0.00000000000E+00  0.20085045771E+04  0.29097601228E+04  0.21053772431E+04 0.  0.
        4    1    3    3  502    0 -0.28128613519E+03  0.97864838467E+03  0.63527257559E+03  0.12001864059E+04  0.12699999809E+01 0. -1.
       -4    1    3    3    0  502  0.28128613519E+03 -0.97864838467E+03  0.13732320015E+04  0.17095737169E+04  0.12699999809E+01 0.  1.
</event>
<event>
 5   0  0.1908273E-06  0.2262144E+04  0.7818609E-02  0.8492999E-01
       -1   -1    0    0    0  501  0.00000000000E+00  0.00000000000E+00  0.29511593421E+04  0.29511593421E+04  0.50400001928E-02 0. -1.
        1   -1    0    0  501    0  0.00000000000E+00  0.00000000000E+00 -0.43349868265E+03  0.43349868268E+03  0.50400001928E-02 0.  1.
    10030    2    1    2    0    0  0.00000000000E+00  0.00000000000E+00  0.25176606594E+04  0.33846580248E+04  0.22621438391E+04 0.  0.
        3    1    3    3  502    0 -0.66797530069E+03 -0.14667663628E+03 -0.89109745381E+02  0.68967064232E+03  0.10100000352E+00 0.  1.
       -3    1    3    3    0  502  0.66797530069E+03  0.14667663628E+03  0.26067704048E+04  0.26949873824E+04  0.10100000352E+00 0. -1.
</event>
<event>
 5   0  0.2382711E-06  0.3364911E+04  0.7818609E-02  0.8146572E-01
        2   -1    0    0  501    0  0.00000000000E+00  0.00000000000E+00  0.17295494707E+04  0.17295494707E+04  0.25500000920E-02 0.  1.
       -2   -1    0    0    0  501  0.00000000000E+00  0.00000000000E+00 -0.16366441134E+04  0.16366441134E+04  0.25500000920E-02 0. -1.
    10030    2    1    2    0    0  0.00000000000E+00  0.00000000000E+00  0.92905357321E+02  0.33661935841E+04  0.33649112678E+04 0.  0.
        5    1    3    3  502    0  0.21012101413E+03  0.16225941550E+04  0.43861257494E+03  0.16939202205E+04  0.46999998093E+01 0.  1.
       -5    1    3    3    0  502 -0.21012101413E+03 -0.16225941550E+04 -0.34570721762E+03  0.16722733637E+04  0.46999998093E+01 0. -1.
</event>
<event>
 5   0  0.2382711E-06  0.3541721E+04  0.7818609E-02  0.8103973E-01
        2   -1    0    0  501    0  0.00000000000E+00  0.00000000000E+00  0.22353909175E+04  0.22353909175E+04  0.25500000920E-02 0. -1.
       -2   -1    0    0    0  501  0.00000000000E+00  0.00000000000E+00 -0.14028627315E+04  0.14028627315E+04  0.25500000920E-02 0.  1.
    10030    2    1    2    0    0  0.00000000000E+00  0.00000000000E+00  0.83252818598E+03  0.36382536490E+04  0.35417208295E+04 0.  0.
        5    1    3    3  502    0 -0.74063626164E+02  0.10265453931E+04 -0.10640696463E+04  0.14803875057E+04  0.46999998093E+01 0.  1.
       -5    1    3    3    0  502  0.74063626164E+02 -0.10265453931E+04  0.18965978323E+04  0.21578661433E+04  0.46999998093E+01 0. -1.
</event>
<event>
 5   0  0.8452742E-07  0.2487574E+04  0.7818609E-02  0.8407426E-01
        1   -1    0    0  501    0  0.00000000000E+00  0.00000000000E+00  0.25414088741E+04  0.25414088741E+04  0.50400001928E-02 0. -1.
       -1   -1    0    0    0  501  0.00000000000E+00  0.00000000000E+00 -0.60871983672E+03  0.60871983674E+03  0.50400001928E-02 0.  1.
    10030    2    1    2    0    0  0.00000000000E+00  0.00000000000E+00  0.19326890374E+04  0.31501287109E+04  0.24875739144E+04 0.  0.
        1    1    3    3  502    0  0.61493833477E+03  0.10675439747E+04  0.74992642852E+03  0.14422860125E+04  0.50400001928E-02 0.  1.
       -1    1    3    3    0  502 -0.61493833477E+03 -0.10675439747E+04  0.11827626089E+04  0.17078426984E+04  0.50400001928E-02 0. -1.
</event>
<event>
 5   0  0.1908273E-06  0.3601532E+04  0.7818609E-02  0.8090141E-01
        1   -1    0    0  501    0  0.00000000000E+00  0.00000000000E+00  0.27692408927E+04  0.27692408927E+04  0.50400001928E-02 0. -1.
       -1   -1    0    0    0  501  0.00000000000E+00  0.00000000000E+00 -0.11709917932E+04  0.11709917932E+04  0.50400001928E-02 0.  1.
    10030    2    1    2    0    0  0.00000000000E+00  0.00000000000E+00  0.15982490995E+04  0.39402326859E+04  0.36015320955E+04 0.  0.
        3    1    3    3  502    0  0.91212701016E+03  0.15496336969E+04  0.90529791191E+03  0.20131827033E+04  0.10100000352E+00 0.  1.
       -3    1    3    3    0  502 -0.91212701016E+03 -0.15496336969E+04  0.69295118754E+03  0.19270499827E+04  0.10100000352E+00 0. -1.
</event>
<event>
 5   0  0.1513502E-06  0.3620070E+04  0.7818609E-02  0.8085910E-01
        2   -1    0    0  501    0  0.00000000000E+00  0.00000000000E+00  0.24532558356E+04  0.24532558356E+04  0.25500000920E-02 0. -1.
       -2   -1    0    0    0  501  0.00000000000E+00  0.00000000000E+00 -0.13354607717E+04  0.13354607717E+04  0.25500000920E-02 0.  1.
    10030    2    1    2    0    0  0.00000000000E+00  0.00000000000E+00  0.11177950639E+04  0.37887166073E+04  0.36200701272E+04 0.  0.
        3    1    3    3  502    0  0.11445325931E+03  0.16265861739E+04 -0.26341902032E+03  0.16517480801E+04  0.10100000352E+00 0.  1.
       -3    1    3    3    0  502 -0.11445325931E+03 -0.16265861739E+04  0.13812140842E+04  0.21369685272E+04  0.10100000352E+00 0. -1.
</event>
<event>
 5   0  0.7754556E-07  0.2908835E+04  0.7818609E-02  0.8270254E-01
       -1   -1    0    0    0  501  0.00000000000E+00  0.00000000000E+00  0.13248354054E+04  0.13248354054E+04  0.50400001928E-02 0. -1.
        1   -1    0    0  501    0  0.00000000000E+00  0.00000000000E+00 -0.15966736076E+04  0.15966736076E+04  0.50400001928E-02 0.  1.
    10030    2    1    2    0    0  0.00000000000E+00  0.00000000000E+00 -0.27183820214E+03  0.29215090130E+04  0.29088346300E+04 0.  0.
        4    1    3    3  502    0  0.84661587970E+03  0.39307306911E+03  0.98431664142E+03  0.13565197193E+04  0.12699999809E+01 0. -1.
       -4    1    3    3    0  502 -0.84661587970E+03 -0.39307306911E+03 -0.12561548436E+04  0.15649892937E+04  0.12699999809E+01 0.  1.
</event>
<event>
 5   0  0.1634374E-06  0.2304266E+04  0.7818609E-02  0.8476241E-01
        1   -1    0    0  501    0  0.00000000000E+00  0.00000000000E+00  0.10414328004E+04  0.10414328004E+04  0.50400001928E-02 0. -1.
       -1   -1    0    0    0  501  0.00000000000E+00  0.00000000000E+00 -0.12746006486E+04  0.12746006486E+04  0.50400001928E-02 0.  1.
    10030    2    1    2    0    0  0.00000000000E+00  0.00000000000E+00 -0.23316784819E+03  0.23160334490E+04  0.23042664107E+04 0.  0.
        5    1    3    3  502    0 -0.27550058579E+03 -0.15725517362E+03  0.99666370035E+03  0.10459399524E+04  0.46999998093E+01 0. -1.
       -5    1    3    3    0  502  0.27550058579E+03  0.15725517362E+03 -0.12298315485E+04  0.12700934966E+04  0.46999998093E+01 0.  1.
</event>
<event>
 5   0  0.8423692E-07  0.3071473E+04  0.7818609E-02  0.8223611E-01
       -1   -1    0    0    0  501  0.00000000000E+00  0.00000000000E+00  0.11779145095E+04  0.11779145095E+04  0.50400001928E-02 0. -1.
        1   -1    0    0  501    0  0.00000000000E+00  0.00000000000E+00 -0.20022555862E+04  0.20022555862E+04  0.50400001928E-02 0.  1.
    10030    2    1    2    0    0  0.00000000000E+00  0.00000000000E+00 -0.82434107668E+03  0.31801700958E+04  0.30714725503E+04 0.  0.
        2    1    3    3  502    0 -0.45695764757E+03 -0.22195817538E+03  0.10883977654E+04  0.12011184034E+04  0.25500000920E-02 0. -1.
       -2    1    3    3    0  502  0.45695764757E+03  0.22195817538E+03 -0.19127388420E+04  0.19790516924E+04  0.25500000920E-02 0.  1.
</event>
<event>
 5   0  0.2382711E-06  0.3598939E+04  0.7818609E-02  0.8090735E-01
       -2   -1    0    0    0  501  0.00000000000E+00  0.00000000000E+00  0.14751563027E+04  0.14751563027E+04  0.25500000920E-02 0. -1.
        2   -1    0    0  501    0  0.00000000000E+00  0.00000000000E+00 -0.21950834497E+04  0.21950834497E+04  0.25500000920E-02 0.  1.
    10030    2    1    2    0    0  0.00000000000E+00  0.00000000000E+00 -0.71992714700E+03  0.36702397524E+04  0.35989393914E+04 0.  0.
        5    1    3    3  502    0 -0.74966946797E+03 -0.11456002136E+04 -0.15508593047E+04  0.20687171951E+04  0.46999998093E+01 0.  1.
       -5    1    3    3    0  502  0.74966946797E+03  0.11456002136E+04  0.83093215767E+03  0.16015225572E+04  0.46999998093E+01 0. -1.
</event>
<event>
 5   0  0.2422436E-06  0.3585542E+04  0.7818609E-02  0.8093812E-01
       -2   -1    0    0    0  501  0.00000000000E+00  0.00000000000E+00  0.11882654334E+04  0.11882654334E+04  0.25500000920E-02 0.  1.
        2   -1    0    0  501    0  0.00000000000E+00  0.00000000000E+00 -0.27048063576E+04  0.27048063576E+04  0.25500000920E-02 0. -1.
    10030    2    1    2    0    0  0.00000000000E+00  0.00000000000E+00 -0.15165409243E+04  0.38930717910E+04  0.35855420225E+04 0.  0.
        2    1    3    3  502    0 -0.13688885320E+04 -0.11576019281E+04 -0.77064355880E+03  0.19513558188E+04  0.25500000920E-02 0. -1.
       -2    1    3    3    0  502  0.13688885320E+04  0.11576019281E+04 -0.74589736547E+03  0.19417159722E+04  0.25500000920E-02 0.  1.
</event>
<event>
 5   0  0.1513502E-06  0.2100836E+04  0.7818609E-02  0.8560875E-01
        2   -1    0    0  501    0  0.00000000000E+00  0.00000000000E+00  0.10475629131E+04  0.10475629131E+04  0.25500000920E-02 0.  1.
       -2   -1    0    0    0  501  0.00000000000E+00  0.00000000000E+00 -0.10532804615E+04  0.10532804615E+04  0.25500000920E-02 0. -1.
    10030    2    1    2    0    0  0.00000000000E+00  0.00000000000E+00 -0.57175483889E+01  0.21008433746E+04  0.21008355943E+04 0.  0.
        3    1    3    3  502    0 -0.52862132137E+03  0.47781252308E+03  0.76891621994E+03  0.10483212638E+04  0.10100000352E+00 0.  1.
       -3    1    3    3    0  502  0.52862132137E+03 -0.47781252308E+03 -0.77463376833E+03  0.10525221109E+04  0.10100000352E+00 0. -1.
</event>
<event>
 5   0  0.1566576E-06  0.1923937E+04  0.7818609E-02  0.8643032E-01
        2   -1    0    0  501    0  0.00000000000E+00  0.00000000000E+00  0.68675278981E+03  0.68675278981E+03  0.25500000920E-02 0. -1.
       -2   -1    0    0    0  501  0.00000000000E+00  0.00000000000E+00 -0.13474769952E+04  0.13474769952E+04  0.25500000920E-02 0.  1.
    10030    2    1    2    0    0  0.00000000000E+00  0.00000000000E+00 -0.66072420541E+03  0.20342297850E+04  0.19239371982E+04 0.  0.
        4    1    3    3  502    0  0.80493609879E+03 -0.14959623528E+03  0.20364620832E+03  0.84366732057E+03  0.12699999809E+01 0. -1.
       -4    1    3    3    0  502 -0.80493609879E+03  0.14959623528E+03 -0.86437041373E+03  0.11905624645E+04  0.12699999809E+01 0.  1.
</event>
<event>
 5   0  0.1908273E-06  0.2057026E+04  0.7818609E-02  0.8580414E-01
        1   -1    0    0  501    0  0.00000000000E+00  0.00000000000E+00  0.94469663148E+03  0.94469663149E+03  0.50400001928E-02 0.  1.
       -1   -1    0    0    0  501  0.00000000000E+00  0.00000000000E+00 -0.11197658934E+04  0.11197658934E+04  0.50400001928E-02 0. -1.
    10030    2    1    2    0    0  0.00000000000E+00  0.00000000000E+00 -0.17506926194E+03  0.20644625249E+04  0.20570260743E+04 0.  0.
        3    1    3    3  502    0  0.34400481449E+03 -0.89984776451E+03 -0.44907818846E+03  0.10628906535E+04  0.10100000352E+00 0. -1.
       -3    1    3    3    0  502 -0.34400481449E+03  0.89984776451E+03  0.27400892652E+03  0.10015718715E+04  0.10100000352E+00 0.  1.
</event>
<event>
 5   0  0.1566576E-06  0.3562894E+04  0.7818609E-02  0.8099045E-01
        2   -1    0    0  501    0  0.00000000000E+00  0.00000000000E+00  0.22608825811E+04  0.22608825811E+04  0.25500000920E-02 0. -1.
       -2   -1    0    0    0  501  0.00000000000E+00  0.00000000000E+00 -0.14036787982E+04  0.14036787982E+04  0.25500000920E-02 0.  1.
    10030    2    1    2    0    0  0.00000000000E+00  0.00000000000E+00  0.85720378291E+03  0.36645613792E+04  0.35628937364E+04 0.  0.
        4    1    3    3  502    0 -0.71151704867E+03  0.11872700799E+04 -0.72486464173E+03  0.15624650764E+04  0.12699999809E+01 0.  1.
       -4    1    3    3    0  502  0.71151704867E+03 -0.11872700799E+04  0.15820684246E+04  0.21020963028E+04  0.12699999809E+01 0. -1.
</event>
<event>
 5   0  0.1513502E-06  0.2424271E+04  0.7818609E-02  0.8430472E-01
        2   -1    0    0  501    0  0.00000000000E+00  0.00000000000E+00  0.32463865885E+04  0.32463865885E+04  0.25500000920E-02 0. -1.
       -2   -1    0    0    0  501  0.00000000000E+00  0.00000000000E+00 -0.45258700621E+03  0.45258700621E+03  0.25500000920E-02 0.  1.
    10030    2    1    2    0    0  0.00000000000E+00  0.00000000000E+00  0.27937995823E+04  0.36989735947E+04  0.24242709313E+04 0.  0.
        3    1    3    3  502    0  0.40000899217E+02 -0.58709736526E+03 -0.22001757683E+03  0.62824448470E+03  0.10100000352E+00 0.  1.
       -3    1    3    3    0  502 -0.40000899217E+02  0.58709736526E+03  0.30138171591E+04  0.30707291100E+04  0.10100000352E+00 0. -1.
</event>
<event>
 5   0  0.8423692E-07  0.3588163E+04  0.7818609E-02  0.8093209E-01
       -1   -1    0    0    0  501  0.00000000000E+00  0.00000000000E+00  0.21125049245E+04  0.21125049245E+04  0.50400001928E-02 0. -1.
        1   -1    0    0  501    0  0.00000000000E+00  0.00000000000E+00 -0.15236546461E+04  0.15236546461E+04  0.50400001928E-02 0.  1.
    10030    2    1    2    0    0  0.00000000000E+00  0.00000000000E+00  0.58885027846E+03  0.36361595706E+04  0.35881627294E+04 0.  0.
        2    1    3    3  502    0  0.16503425910E+04 -0.26220227504E+03  0.95611203229E+03  0.19252352892E+04  0.25500000920E-02 0. -1.
       -2    1    3    3    0  502 -0.16503425910E+04  0.26220227504E+03 -0.36726175383E+03  0.17109242813E+04  0.25500000920E-02 0.  1.
</event>
<event>
 5   0  0.2382711E-06  0.3654459E+04  0.7818609E-02  0.8078130E-01
       -2   -1    0    0    0  501  0.00000000000E+00  0.00000000000E+00  0.17149338716E+04  0.17149338716E+04  0.25500000920E-02 0.  1.
        2   -1    0    0  501    0  0.00000000000E+00  0.00000000000E+00 -0.19468784946E+04  0.19468784946E+04  0.25500000920E-02 0. -1.
    10030    2    1    2    0    0  0.00000000000E+00  0.00000000000E+00 -0.23194462296E+03  0.36618123663E+04  0.36544591252E+04 0.  0.
        5    1    3    3  502    0 -0.13155082942E+03  0.17952024057E+04  0.19880702956E+03  0.18109675931E+04  0.46999998093E+01 0. -1.
       -5    1    3    3    0  502  0.13155082942E+03 -0.17952024057E+04 -0.43075165252E+03  0.18508447732E+04  0.46999998093E+01 0.  1.
</event>
<event>
 5   0  0.2382711E-06  0.3001753E+04  0.7818609E-02  0.8243230E-01
        2   -1    0    0  501    0  0.00000000000E+00  0.00000000000E+00  0.23198134383E+04  0.23198134383E+04  0.25500000920E-02 0. -1.
       -2   -1    0    0    0  501  0.00000000000E+00  0.00000000000E+00 -0.97103938949E+03  0.97103938950E+03  0.25500000920E-02 0.  1.
    10030    2    1    2    0    0  0.00000000000E+00  0.00000000000E+00  0.13487740488E+04  0.32908528278E+04  0.30017529711E+04 0.  0.
        5    1    3    3  502    0 -0.44901713196E+03 -0.42100557631E+03 -0.82629567891E+03  0.10303633917E+04  0.46999998093E+01 0.  1.
       -5    1    3    3    0  502  0.44901713196E+03  0.42100557631E+03  0.21750697277E+04  0.22604894361E+04  0.46999998093E+01 0. -1.
</event>
<event>
 5   0  0.1908273E-06  0.3506101E+04  0.7818609E-02  0.8112346E-01
       -1   -1    0    0    0  501  0.00000000000E+00  0.00000000000E+00  0.20109884528E+04  0.20109884528E+04  0.50400001928E-02 0.  1.
        1   -1    0    0  501    0  0.00000000000E+00  0.00000000000E+00 -0.15281967532E+04  0.15281967532E+04  0.50400001928E-02 0. -1.
    10030    2    1    2    0    0  0.00000000000E+00  0.00000000000E+00  0.48279169957E+03  0.35391852060E+04  0.35061009822E+04 0.  0.
        3    1    3    3  502    0  0.39641487440E+03 -0.78176299010E+03 -0.12911157571E+04  0.15605377386E+04  0.10100000352E+00 0. -1.
       -3    1    3    3    0  502 -0.39641487440E+03  0.78176299010E+03  0.17739074566E+04  0.19786474674E+04  0.10100000352E+00 0.  1.
</event>
<event>
 5   0  0.7707500E-07  0.3545150E+04  0.7818609E-02  0.8103173E-01
        4   -1    0    0  501    0  0.00000000000E+00  0.00000000000E+00  0.21821212876E+04  0.21821216572E+04  0.12699999809E+01 0.  1.
       -4   -1    0    0    0  501  0.00000000000E+00  0.00000000000E+00 -0.14398927730E+04  0.14398933331E+04  0.12699999809E+01 0. -1.
    10030    2    1    2    0    0  0.00000000000E+00  0.00000000000E+00  0.74222851459E+03  0.36220149902E+04  0.35451501268E+04 0.  0.
        5    1    3    3  502    0 -0.14747476990E+04 -0.99217865429E+02 -0.62850367886E+03  0.16061643518E+04  0.46999998093E+01 0. -1.
       -5    1    3    3    0  502  0.14747476990E+04  0.99217865429E+02  0.13707321935E+04  0.20158506385E+04  0.46999998093E+01 0.  1.
</event>
<event>
 5   0  0.2422436E-06  0.3613794E+04  0.7818609E-02  0.8087339E-01
        2   -1    0    0  501    0  0.00000000000E+00  0.00000000000E+00  0.26037603131E+04  0.26037603131E+04  0.25500000920E-02 0. -1.
       -2   -1    0    0    0  501  0.00000000000E+00  0.00000000000E+00 -0.12539086227E+04  0.12539086227E+04  0.25500000920E-02 0.  1.
    10030    2    1    2    0    0  0.00000000000E+00  0.00000000000E+00  0.13498516904E+04  0.38576689358E+04  0.36137944092E+04 0.  0.
        2    1    3    3  502    0 -0.11158311585E+04 -0.81497229701E+03  0.19178088625E+04  0.23637364177E+04  0.25500000920E-02 0. -1.
       -2    1    3    3    0  502  0.11158311585E+04  0.81497229701E+03 -0.56795717215E+03  0.14939325181E+04  0.25500000920E-02 0.  1.
</event>
<event>
 5   0  0.2422436E-06  0.2508117E+04  0.7818609E-02  0.8400100E-01
       -2   -1    0    0    0  501  0.00000000000E+00  0.00000000000E+00  0.11420386826E+04  0.11420386826E+04  0.25500000920E-02 0. -1.
        2   -1    0    0  501    0  0.00000000000E+00  0.00000000000E+00 -0.13770659245E+04  0.13770659245E+04  0.25500000920E-02 0.  1.
    10030    2    1    2    0    0  0.00000000000E+00  0.00000000000E+00 -0.23502724197E+03  0.25191046071E+04  0.25081168667E+04 0.  0.
        2    1    3    3  502    0 -0.78440862954E+03 -0.59809009955E+03 -0.89527927469E+03  0.13321162280E+04  0.25500000920E-02 0.  1.
       -2    1    3    3    0  502  0.78440862954E+03  0.59809009955E+03  0.66025203273E+03  0.11869883791E+04  0.25500000920E-02 0. -1.
</event>
<event>
 5   0  0.1513502E-06  0.2608487E+04  0.7818609E-02  0.8365324E-01
        2   -1    0    0  501    0  0.00000000000E+00  0.00000000000E+00  0.60025872181E+03  0.60025872182E+03  0.25500000920E-02 0. -1.
       -2   -1    0    0    0  501  0.00000000000E+00  0.00000000000E+00 -0.28338625468E+04  0.28338625468E+04  0.25500000920E-02 0.  1.
    10030    2    1    2    0    0  0.00000000000E+00  0.00000000000E+00 -0.22336038250E+04  0.34341212686E+04  0.26084866955E+04 0.  0.
        3    1    3    3  502    0 -0.40013645733E+03 -0.13882300211E+03 -0.27408062927E+04  0.27733373676E+04  0.10100000352E+00 0.  1.
       -3    1    3    3    0  502  0.40013645733E+03  0.13882300211E+03  0.50720246769E+03  0.66078390101E+03  0.10100000352E+00 0. -1.
</event>
<event>
 5   0  0.7754556E-07  0.3628320E+04  0.7818609E-02  0.8084035E-01
        1   -1    0    0  501    0  0.00000000000E+00  0.00000000000E+00  0.20523747139E+04  0.20523747139E+04  0.50400001928E-02 0. -1.
       -1   -1    0    0    0  501  0.00000000000E+00  0.00000000000E+00 -0.16035944194E+04  0.16035944194E+04  0.50400001928E-02 0.  1.
    10030    2    1    2    0    0  0.00000000000E+00  0.00000000000E+00  0.44878029455E+03  0.36559691333E+04  0.36283200728E+04 0.  0.
        4    1    3    3  502    0  0.56902083499E+03  0.68076359484E+03  0.18188363219E+04  0.20237072322E+04  0.12699999809E+01 0. -1.
       -4    1    3    3    0  502 -0.56902083499E+03 -0.68076359484E+03 -0.13700560274E+04  0.16322619011E+04  0.12699999809E+01 0.  1.
</event>
<event>
 5   0  0.2382711E-06  0.2890974E+04  0.7818609E-02  0.8275568E-01
        2   -1    0    0  501    0  0.00000000000E+00  0.00000000000E+00  0.21500114233E+04  0.21500114233E+04  0.25500000920E-02 0.  1.
       -2   -1    0    0    0  501  0.00000000000E+00  0.00000000000E+00 -0.97182382227E+03  0.97182382228E+03  0.25500000920E-02 0. -1.
    10030    2    1    2    0    0  0.00000000000E+00  0.00000000000E+00  0.11781876010E+04  0.31218352456E+04  0.28909737594E+04 0.  0.
        5    1    3    3  502    0 -0.88038644625E+02 -0.10932967770E+04  0.16057433961E+04  0.19446034530E+04  0.46999998093E+01 0.  1.
       -5    1    3    3    0  502  0.88038644625E+02  0.10932967770E+04 -0.42755579505E+03  0.11772317925E+04  0.46999998093E+01 0. -1.
</event>
<event>
 5   0  0.2382711E-06  0.3528235E+04  0.7818609E-02  0.8107131E-01
        2   -1    0    0  501    0  0.00000000000E+00  0.00000000000E+00  0.20501493300E+04  0.20501493300E+04  0.25500000920E-02 0. -1.
       -2   -1    0    0    0  501  0.00000000000E+00  0.00000000000E+00 -0.15179918070E+04  0.15179918070E+04  0.25500000920E-02 0.  1.
    10030    2    1    2    0    0  0.00000000000E+00  0.00000000000E+00  0.53215752299E+03  0.35681411369E+04  0.35282346214E+04 0.  0.
        5    1    3    3  502    0  0.56872215641E+03 -0.80371309746E+03  0.17464275489E+04  0.20048518419E+04  0.46999998093E+01 0. -1.
       -5    1    3    3    0  502 -0.56872215641E+03  0.80371309746E+03 -0.12142700259E+04  0.15632892951E+04  0.46999998093E+01 0.  1.
</event>
<event>
 5   0  0.2536619E-06  0.2534187E+04  0.7818609E-02  0.8390906E-01
        2   -1    0    0  501    0  0.00000000000E+00  0.00000000000E+00  0.11408884961E+04  0.11408884961E+04  0.25500000920E-02 0.  1.
       -2   -1    0    0    0  501  0.00000000000E+00  0.00000000000E+00 -0.14072595318E+04  0.14072595318E+04  0.25500000920E-02 0. -1.
    10030    2    1    2    0    0  0.00000000000E+00  0.00000000000E+00 -0.26637103573E+03  0.25481480279E+04  0.25341872155E+04 0.  0.
        1    1    3    3  502    0  0.58754418719E+03 -0.11111931325E+04  0.27594901638E+02  0.12572668087E+04  0.50400001928E-02 0.  1.
       -1    1    3    3    0  502 -0.58754418719E+03  0.11111931325E+04 -0.29396593737E+03  0.12908812192E+04  0.50400001928E-02 0. -1.
</event>
<event>
 5   0  0.2422436E-06  0.3611991E+04  0.7818609E-02  0.8087751E-01
       -2   -1    0    0    0  501  0.00000000000E+00  0.00000000000E+00  0.11997751539E+04  0.11997751539E+04  0.25500000920E-02 0.  1.
        2   -1    0    0  501    0  0.00000000000E+00  0.00000000000E+00 -0.27185255369E+04  0.27185255369E+04  0.25500000920E-02 0. -1.
    10030    2    1    2    0    0  0.00000000000E+00  0.00000000000E+00 -0.15187503830E+04  0.39183006908E+04  0.36119908053E+04 0.  0.
        2    1    3    3  502    0  0.58571555084E+03 -0.15502626153E+04  0.19301130440E+02  0.16573320176E+04  0.25500000920E-02 0.  1.
       -2    1    3    3    0  502 -0.58571555084E+03  0.15502626153E+04 -0.15380515135E+04  0.22609686732E+04  0.25500000920E-02 0. -1.
</event>
<event>
 5   0  0.2422436E-06  0.3270004E+04  0.7818609E-02  0.8170570E-01
        2   -1    0    0  501    0  0.00000000000E+00  0.00000000000E+00  0.13015880080E+04  0.13015880080E+04  0.25500000920E-02 0.  1.
       -2   -1    0    0    0  501  0.00000000000E+00  0.00000000000E+00 -0.20538235004E+04  0.20538235004E+04  0.25500000920E-02 0. -1.
    10030    2    1    2    0    0  0.00000000000E+00  0.00000000000E+00 -0.75223549236E+03  0.33554115084E+04  0.32700043050E+04 0.  0.
        2    1    3    3  502    0 -0.16157077533E+04 -0.24917314784E+03 -0.35029630020E+03  0.16719169536E+04  0.25500000920E-02 0. -1.
       -2    1    3    3    0  502  0.16157077533E+04  0.24917314784E+03 -0.40193919216E+03  0.16834945548E+04  0.25500000920E-02 0.  1.
</event>
<event>
 5   0  0.8423692E-07  0.3839308E+04  0.7818609E-02  0.8037772E-01
        1   -1    0    0  501    0  0.00000000000E+00  0.00000000000E+00  0.17163784961E+04  0.17163784961E+04  0.50400001928E-02 0. -1.
       -1   -1    0    0    0  501  0.00000000000E+00  0.00000000000E+00 -0.21470043034E+04  0.21470043034E+04  0.50400001928E-02 0.  1.
    10030    2    1    2    0    0  0.00000000000E+00  0.00000000000E+00 -0.43062580734E+03  0.38633827995E+04  0.38393082801E+04 0.  0.
        2    1    3    3  502    0 -0.26883320821E+02 -0.13976490022E+04 -0.15392095401E+04  0.20792574287E+04  0.25500000920E-02 0.  1.
       -2    1    3    3    0  502  0.26883320821E+02  0.13976490022E+04  0.11085837327E+04  0.17841253708E+04  0.25500000920E-02 0. -1.
</event>
<event>
 5   0  0.7707500E-07  0.3501440E+04  0.7818609E-02  0.8113449E-01
       -3   -1    0    0    0  501  0.00000000000E+00  0.00000000000E+00  0.18233731995E+04  0.18233732023E+04  0.10100000352E+00 0.  1.
        3   -1    0    0  501    0  0.00000000000E+00  0.00000000000E+00 -0.16809612572E+04  0.16809612603E+04  0.10100000352E+00 0. -1.
    10030    2    1    2    0    0  0.00000000000E+00  0.00000000000E+00  0.14241194228E+03  0.35043344626E+04  0.35014395417E+04 0.  0.
        5    1    3    3  502    0 -0.87856437601E+03  0.58749098369E+03 -0.13256472910E+04  0.16954007930E+04  0.46999998093E+01 0. -1.
       -5    1    3    3    0  502  0.87856437601E+03 -0.58749098369E+03  0.14680592332E+04  0.18089336696E+04  0.46999998093E+01 0.  1.
</event>
<event>
 5   0  0.1566576E-06  0.2453864E+04  0.7818609E-02  0.8419608E-01
       -2   -1    0    0    0  501  0.00000000000E+00  0.00000000000E+00  0.61308088017E+03  0.61308088017E+03  0.25500000920E-02 0. -1.
        2   -1    0    0  501    0  0.00000000000E+00  0.00000000000E+00 -0.24554058117E+04  0.24554058117E+04  0.25500000920E-02 0.  1.
    10030    2    1    2    0    0  0.00000000000E+00  0.00000000000E+00 -0.18423249315E+04  0.30684866919E+04  0.24538641822E+04 0.  0.
        4    1    3    3  502    0 -0.85787530925E+02 -0.85415964448E+03  0.17498995097E+03  0.87611146240E+03  0.12699999809E+01 0. -1.
       -4    1    3    3    0  502  0.85787530925E+02  0.85415964448E+03 -0.20173148825E+04  0.21923752295E+04  0.12699999809E+01 0.  1.
</event>
<event>
 5   0  0.1513502E-06  0.3625570E+04  0.7818609E-02  0.8084660E-01
        2   -1    0    0  501    0  0.00000000000E+00  0.00000000000E+00  0.22767326025E+04  0.22767326025E+04  0.25500000920E-02 0.  1.
       -2   -1    0    0    0  501  0.00000000000E+00  0.00000000000E+00 -0.14433798326E+04  0.14433798326E+04  0.25500000920E-02 0. -1.
    10030    2    1    2    0    0  0.00000000000E+00  0.00000000000E+00  0.83335276987E+03  0.37201124352E+04  0.36255702574E+04 0.  0.
        3    1    3    3  502    0 -0.17102753511E+04 -0.50141930871E+03  0.75656461268E+03  0.19361955281E+04  0.10100000352E+00 0.  1.
       -3    1    3    3    0  502  0.17102753511E+04  0.50141930871E+03  0.76788157189E+02  0.17839169070E+04  0.10100000352E+00 0. -1.
</event>
<event>
 5   0  0.2382711E-06  0.3518140E+04  0.7818609E-02  0.8109504E-01
        2   -1    0    0  501    0  0.00000000000E+00  0.00000000000E+00  0.17627673380E+04  0.17627673380E+04  0.25500000920E-02 0. -1.
       -2   -1    0    0    0  501  0.00000000000E+00  0.00000000000E+00 -0.17553803309E+04  0.17553803309E+04  0.25500000920E-02 0.  1.
    10030    2    1    2    0    0  0.00000000000E+00  0.00000000000E+00  0.73870070363E+01  0.35181476689E+04  0.35181399137E+04 0.  0.
        5    1    3    3  502    0 -0.15611157869E+04  0.36975247480E+03 -0.71776884838E+03  0.17575589897E+04  0.46999998093E+01 0. -1.
       -5    1    3    3    0  502  0.15611157869E+04 -0.36975247480E+03  0.72515585542E+03  0.17605886792E+04  0.46999998093E+01 0.  1.
</event>
<event>
 5   0  0.1513502E-06  0.3354751E+04  0.7818609E-02  0.8149102E-01
       -2   -1    0    0    0  501  0.00000000000E+00  0.00000000000E+00  0.10432482198E+04  0.10432482198E+04  0.25500000920E-02 0.  1.
        2   -1    0    0  501    0  0.00000000000E+00  0.00000000000E+00 -0.26969497197E+04  0.26969497197E+04  0.25500000920E-02 0. -1.
    10030    2    1    2    0    0  0.00000000000E+00  0.00000000000E+00 -0.16537014999E+04  0.37401979394E+04  0.33547506577E+04 0.  0.
        3    1    3    3  502    0  0.37144904167E+03 -0.59406219924E+03  0.87229739410E+03  0.11188328924E+04  0.10100000352E+00 0.  1.
       -3    1    3    3    0  502 -0.37144904167E+03  0.59406219924E+03 -0.25259988940E+04  0.26213650470E+04  0.10100000352E+00 0. -1.
</event>
<event>
 5   0  0.2422436E-06  0.3420718E+04  0.7818609E-02  0.8132840E-01
       -2   -1    0    0    0  501  0.00000000000E+00  0.00000000000E+00  0.11621437023E+04  0.11621437023E+04  0.25500000920E-02 0.  1.
        2   -1    0    0  501    0  0.00000000000E+00  0.00000000000E+00 -0.25171831875E+04  0.25171831875E+04  0.25500000920E-02 0. -1.
    10030    2    1    2    0    0  0.00000000000E+00  0.00000000000E+00 -0.13550394852E+04  0.36793268897E+04  0.34207183975E+04 0.  0.
        2    1    3    3  502    0  0.37869385310E+02  0.89406718263E+03  0.89025383456E+03  0.12622765574E+04  0.25500000920E-02 0.  1.
       -2    1    3    3    0  502 -0.37869385310E+02 -0.89406718263E+03 -0.22452933197E+04  0.24170503323E+04  0.25500000920E-02 0. -1.
</event>
<event>
 5   0  0.1513502E-06  0.3514517E+04  0.7818609E-02  0.8110358E-01
        2   -1    0    0  501    0  0.00000000000E+00  0.00000000000E+00  0.19487460613E+04  0.19487460613E+04  0.25500000920E-02 0.  1.
       -2   -1    0    0    0  501  0.00000000000E+00  0.00000000000E+00 -0.15845867518E+04  0.15845867518E+04  0.25500000920E-02 0. -1.
    10030    2    1    2    0    0  0.00000000000E+00  0.00000000000E+00  0.36415930949E+03  0.35333328131E+04  0.35145168609E+04 0.  0.
        3    1    3    3  502    0  0.10633295244E+04 -0.46976272635E+03 -0.11427807621E+04  0.16301210314E+04  0.10100000352E+00 0. -1.
       -3    1    3    3    0  502 -0.10633295244E+04  0.46976272635E+03  0.15069400716E+04  0.19032117817E+04  0.10100000352E+00 0.  1.
</event>
<event>
 5   0  0.1908273E-06  0.2961325E+04  0.7818609E-02  0.8254862E-01
       -1   -1    0    0    0  501  0.00000000000E+00  0.00000000000E+00  0.96159922215E+03  0.96159922217E+03  0.50400001928E-02 0. -1.
        1   -1    0    0  501    0  0.00000000000E+00  0.00000000000E+00 -0.22799118552E+04  0.22799118552E+04  0.50400001928E-02 0.  1.
    10030    2    1    2    0    0  0.00000000000E+00  0.00000000000E+00 -0.13183126331E+04  0.32415110774E+04  0.29613250187E+04 0.  0.
        3    1    3    3  502    0  0.72711585771E+03 -0.12101200145E+04 -0.17051942996E+03  0.14220284126E+04  0.10100000352E+00 0. -1.
       -3    1    3    3    0  502 -0.72711585771E+03  0.12101200145E+04 -0.11477932031E+04  0.18194826648E+04  0.10100000352E+00 0.  1.
</event>
<event>
 5   0  0.1634374E-06  0.3063720E+04  0.7818609E-02  0.8225766E-01
       -1   -1    0    0    0  501  0.00000000000E+00  0.00000000000E+00  0.18109595411E+04  0.18109595411E+04  0.50400001928E-02 0.  1.
        1   -1    0    0  501    0  0.00000000000E+00  0.00000000000E+00 -0.12957741826E+04  0.12957741826E+04  0.50400001928E-02 0. -1.
    10030    2    1    2    0    0  0.00000000000E+00  0.00000000000E+00  0.51518535858E+03  0.31067337237E+04  0.30637197124E+04 0.  0.
        5    1    3    3  502    0  0.10175047537E+04 -0.38471756631E+03  0.13512753849E+04  0.17347307530E+04  0.46999998093E+01 0.  1.
       -5    1    3    3    0  502 -0.10175047537E+04  0.38471756631E+03 -0.83609002630E+03  0.13720029707E+04  0.46999998093E+01 0. -1.
</event>
<event>
 5   0  0.1566576E-06  0.3600589E+04  0.7818609E-02  0.8090357E-01
       -2   -1    0    0    0  501  0.00000000000E+00  0.00000000000E+00  0.10510367706E+04  0.10510367706E+04  0.25500000920E-02 0.  1.
        2   -1    0    0  501    0  0.00000000000E+00  0.00000000000E+00 -0.30836784241E+04  0.30836784241E+04  0.25500000920E-02 0. -1.
    10030    2    1    2    0    0  0.00000000000E+00  0.00000000000E+00 -0.20326416536E+04  0.41347151947E+04  0.36005885143E+04 0.  0.
        4    1    3    3  502    0 -0.14666010448E+02  0.77607161406E+03  0.84900726119E+03  0.11503552427E+04  0.12699999809E+01 0.  1.
       -4    1    3    3    0  502  0.14666010448E+02 -0.77607161406E+03 -0.28816489148E+04  0.29843599520E+04  0.12699999809E+01 0. -1.
</event>
<event>
 5   0  0.8423692E-07  0.2336401E+04  0.7818609E-02  0.8463705E-01
       -1   -1    0    0    0  501  0.00000000000E+00  0.00000000000E+00  0.68490107770E+03  0.68490107772E+03  0.50400001928E-02 0. -1.
        1   -1    0    0  501    0  0.00000000000E+00  0.00000000000E+00 -0.19925399362E+04  0.19925399362E+04  0.50400001928E-02 0.  1.
    10030    2    1    2    0    0  0.00000000000E+00  0.00000000000E+00 -0.13076388585E+04  0.26774410139E+04  0.23364012923E+04 0.  0.
        2    1    3    3  502    0  0.15711145950E+03  0.10791919451E+04 -0.11336961409E+04  0.15730881110E+04  0.25500000920E-02 0.  1.
       -2    1    3    3    0  502 -0.15711145950E+03 -0.10791919451E+04 -0.17394271755E+03  0.11043529029E+04  0.25500000920E-02 0. -1.
</event>
<event>
 5   0  0.2422436E-06  0.3628790E+04  0.7818609E-02  0.8083929E-01
        2   -1    0    0  501    0  0.00000000000E+00  0.00000000000E+00  0.12833569281E+04  0.12833569281E+04  0.25500000920E-02 0.  1.
       -2   -1    0    0    0  501  0.00000000000E+00  0.00000000000E+00 -0.25651705700E+04  0.25651705700E+04  0.25500000920E-02 0. -1.
    10030    2    1    2    0    0  0.00000000000E+00  0.00000000000E+00 -0.12818136419E+04  0.38485274981E+04  0.36287901140E+04 0.  0.
        2    1    3    3  502    0 -0.48277716977E+03 -0.40401236844E+03  0.11638211505E+04  0.13231702309E+04  0.25500000920E-02 0.  1.
       -2    1    3    3    0  502  0.48277716977E+03  0.40401236844E+03 -0.24456347924E+04  0.25253572672E+04  0.25500000920E-02 0. -1.
</event>
<event>
 5   0  0.7754556E-07  0.2142909E+04  0.7818609E-02  0.8542574E-01
        1   -1    0    0  501    0  0.00000000000E+00  0.00000000000E+00  0.21204326255E+04  0.21204326255E+04  0.50400001928E-02 0. -1.
       -1   -1    0    0    0  501  0.00000000000E+00  0.00000000000E+00 -0.54140597077E+03  0.54140597080E+03  0.50400001928E-02 0.  1.
    10030    2    1    2    0    0  0.00000000000E+00  0.00000000000E+00  0.15790266548E+04  0.26618385963E+04  0.21429091293E+04 0.  0.
        4    1    3    3  502    0 -0.93238831769E+03 -0.18768078290E+03  0.14023927227E+04  0.16944848812E+04  0.12699999809E+01 0. -1.
       -4    1    3    3    0  502  0.93238831769E+03  0.18768078290E+03  0.17663393207E+03  0.96735371509E+03  0.12699999809E+01 0.  1.
</event>
<event>
 5   0  0.1566576E-06  0.2438659E+04  0.7818609E-02  0.8425170E-01
       -2   -1    0    0    0  501  0.00000000000E+00  0.00000000000E+00  0.97527275784E+03  0.97527275784E+03  0.25500000920E-02 0. -1.
        2   -1    0    0  501    0  0.00000000000E+00  0.00000000000E+00 -0.15244600244E+04  0.15244600244E+04  0.25500000920E-02 0.  1.
    10030    2    1    2    0    0  0.00000000000E+00  0.00000000000E+00 -0.54918726658E+03  0.24997327823E+04  0.24386589202E+04 0.  0.
        4    1    3    3  502    0 -0.16132906165E+03  0.73701711190E+02 -0.15111654429E+04  0.15215392263E+04  0.12699999809E+01 0.  1.
       -4    1    3    3    0  502  0.16132906165E+03 -0.73701711190E+02  0.96197817632E+03  0.97819355599E+03  0.12699999809E+01 0. -1.
</event>
<event>
 5   0  0.8423692E-07  0.3261412E+04  0.7818609E-02  0.8172784E-01
        1   -1    0    0  501    0  0.00000000000E+00  0.00000000000E+00  0.21995890228E+04  0.21995890228E+04  0.50400001928E-02 0.  1.
       -1   -1    0    0    0  501  0.00000000000E+00  0.00000000000E+00 -0.12089540313E+04  0.12089540313E+04  0.50400001928E-02 0. -1.
    10030    2    1    2    0    0  0.00000000000E+00  0.00000000000E+00  0.99063499150E+03  0.34085430541E+04  0.32614119742E+04 0.  0.
        2    1    3    3  502    0  0.66812531320E+03 -0.93522025738E+03 -0.71366318232E+03  0.13529018818E+04  0.25500000920E-02 0. -1.
       -2    1    3    3    0  502 -0.66812531320E+03  0.93522025738E+03  0.17042981738E+04  0.20556411723E+04  0.25500000920E-02 0.  1.
</event>
<event>
 5   0  0.1513502E-06  0.2579753E+04  0.7818609E-02  0.8375111E-01
       -2   -1    0    0    0  501  0.00000000000E+00  0.00000000000E+00  0.64141012068E+03  0.64141012069E+03  0.25500000920E-02 0. -1.
        2   -1    0    0  501    0  0.00000000000E+00  0.00000000000E+00 -0.25939440448E+04  0.25939440448E+04  0.25500000920E-02 0.  1.
    10030    2    1    2    0    0  0.00000000000E+00  0.00000000000E+00 -0.19525339241E+04  0.32353541655E+04  0.25797534478E+04 0.  0.
        3    1    3    3  502    0  0.11914001819E+03 -0.26840148366E+03  0.59893031726E+03  0.66704665166E+03  0.10100000352E+00 0. -1.
       -3    1    3    3    0  502 -0.11914001819E+03  0.26840148366E+03 -0.25514642414E+04  0.25683075138E+04  0.10100000352E+00 0.  1.
</event>
<event>
 5   0  0.8423692E-07  0.3658516E+04  0.7818609E-02  0.8077218E-01
        1   -1    0    0  501    0  0.00000000000E+00  0.00000000000E+00  0.12783217195E+04  0.12783217195E+04  0.50400001928E-02 0.  1.
       -1   -1    0    0    0  501  0.00000000000E+00  0.00000000000E+00 -0.26176395613E+04  0.26176395613E+04  0.50400001928E-02 0. -1.
    10030    2    1    2    0    0  0.00000000000E+00  0.00000000000E+00 -0.13393178419E+04  0.38959612808E+04  0.36585163687E+04 0.  0.
        2    1    3    3  502    0  0.64285131388E+03  0.16909353526E+04 -0.38063007455E+03  0.18486209541E+04  0.25500000920E-02 0.  1.
       -2    1    3    3    0  502 -0.64285131388E+03 -0.16909353526E+04 -0.95868776731E+03  0.20473403267E+04  0.25500000920E-02 0. -1.
</event>
<event>
 5   0  0.1908273E-06  0.3616481E+04  0.7818609E-02  0.8086727E-01
       -1   -1    0    0    0  501  0.00000000000E+00  0.00000000000E+00  0.30171281359E+04  0.30171281359E+04  0.50400001928E-02 0.  1.
        1   -1    0    0  501    0  0.00000000000E+00  0.00000000000E+00 -0.10837236739E+04  0.10837236739E+04  0.50400001928E-02 0. -1.
    10030    2    1    2    0    0  0.00000000000E+00  0.00000000000E+00  0.19334044620E+04  0.41008518098E+04  0.36164807136E+04 0.  0.
        3    1    3    3  502    0  0.12869723774E+04  0.30662021511E+03 -0.43103889816E+03  0.13914411229E+04  0.10100000352E+00 0. -1.
       -3    1    3    3    0  502 -0.12869723774E+04 -0.30662021511E+03  0.23644433602E+04  0.27094106869E+04  0.10100000352E+00 0.  1.
</event>
<event>
 5   0  0.1566576E-06  0.3405029E+04  0.7818609E-02  0.8136673E-01
        2   -1    0    0  501    0  0.00000000000E+00  0.00000000000E+00  0.12944261037E+04  0.12944261037E+04  0.25500000920E-02 0. -1.
       -2   -1    0    0    0  501  0.00000000000E+00  0.00000000000E+00 -0.22392589969E+04  0.22392589969E+04  0.25500000920E-02 0.  1.
    10030    2    1    2    0    0  0.00000000000E+00  0.00000000000E+00 -0.94483289321E+03  0.35336851005E+04  0.34050288095E+04 0.  0.
        4    1    3    3  502    0 -0.70637400963E+03 -0.13932273308E+04  0.23029991079E+03  0.15789510121E+04  0.12699999809E+01 0. -1.
       -4    1    3    3    0  502  0.70637400963E+03  0.13932273308E+04 -0.11751328040E+04  0.19547340885E+04  0.12699999809E+01 0.  1.
</event>
<event>
 5   0  0.1908273E-06  0.2797578E+04  0.7818609E-02  0.8304021E-01
        1   -1    0    0  501    0  0.00000000000E+00  0.00000000000E+00  0.12240627027E+04  0.12240627028E+04  0.50400001928E-02 0.  1.
       -1   -1    0    0    0  501  0.00000000000E+00  0.00000000000E+00 -0.15984559341E+04  0.15984559341E+04  0.50400001928E-02 0. -1.
    10030    2    1    2    0    0  0.00000000000E+00  0.00000000000E+00 -0.37439323133E+03  0.28225186368E+04  0.27975777315E+04 0.  0.
        3    1    3    3  502    0 -0.78273352316E+03  0.10290579420E+04 -0.72578939226E+03  0.14827010044E+04  0.10100000352E+00 0. -1.
       -3    1    3    3    0  502  0.78273352316E+03 -0.10290579420E+04  0.35139616093E+03  0.13398176325E+04  0.10100000352E+00 0.  1.
</event>
<event>
 5   0  0.2536619E-06  0.3395003E+04  0.7818609E-02  0.8139134E-01
        2   -1    0    0  501    0  0.00000000000E+00  0.00000000000E+00  0.19492254469E+04  0.19492254469E+04  0.25500000920E-02 0.  1.
       -2   -1    0    0    0  501  0.00000000000E+00  0.00000000000E+00 -0.14782850948E+04  0.14782850948E+04  0.25500000920E-02 0. -1.
    10030    2    1    2    0    0  0.00000000000E+00  0.00000000000E+00  0.47094035202E+03  0.34275105417E+04  0.33950027538E+04 0.  0.
        1    1    3    3  502    0 -0.81528780362E+03 -0.85554519556E+03  0.14656859651E+04  0.18827870651E+04  0.50400001928E-02 0.  1.
       -1    1    3    3    0  502  0.81528780362E+03  0.85554519556E+03 -0.99474561305E+03  0.15447234766E+04  0.50400001928E-02 0. -1.
</event>
<event>
 5   0  0.8452742E-07  0.2247182E+04  0.7818609E-02  0.8499043E-01
       -1   -1    0    0    0  501  0.00000000000E+00  0.00000000000E+00  0.84666793930E+03  0.84666793931E+03  0.50400001928E-02 0. -1.
        1   -1    0    0  501    0  0.00000000000E+00  0.00000000000E+00 -0.14910880393E+04  0.14910880393E+04  0.50400001928E-02 0.  1.
    10030    2    1    2    0    0  0.00000000000E+00  0.00000000000E+00 -0.64442010001E+03  0.23377559786E+04  0.22471817350E+04 0.  0.
        1    1    3    3  502    0  0.28394752293E+03  0.89945113697E+03  0.31298829002E+03  0.99378076722E+03  0.50400001928E-02 0. -1.
       -1    1    3    3    0  502 -0.28394752293E+03 -0.89945113697E+03 -0.95740839002E+03  0.13439752114E+04  0.50400001928E-02 0.  1.
</event>
<event>
 5   0  0.1908273E-06  0.3574053E+04  0.7818609E-02  0.8096461E-01
        1   -1    0    0  501    0  0.00000000000E+00  0.00000000000E+00  0.23012628637E+04  0.23012628637E+04  0.50400001928E-02 0.  1.
       -1   -1    0    0    0  501  0.00000000000E+00  0.00000000000E+00 -0.13877005717E+04  0.13877005717E+04  0.50400001928E-02 0. -1.
    10030    2    1    2    0    0  0.00000000000E+00  0.00000000000E+00  0.91356229199E+03  0.36889634354E+04  0.35740530447E+04 0.  0.
        3    1    3    3  502    0  0.24508785990E+03  0.65672442242E+03  0.21534409424E+04  0.22646551457E+04  0.10100000352E+00 0.  1.
       -3    1    3    3    0  502 -0.24508785990E+03 -0.65672442242E+03 -0.12398786504E+04  0.14243082897E+04  0.10100000352E+00 0. -1.
</event>
<event>
 5   0  0.1566576E-06  0.3576922E+04  0.7818609E-02  0.8095799E-01
        2   -1    0    0  501    0  0.00000000000E+00  0.00000000000E+00  0.20411708080E+04  0.20411708080E+04  0.25500000920E-02 0.  1.
       -2   -1    0    0    0  501  0.00000000000E+00  0.00000000000E+00 -0.15670381321E+04  0.15670381322E+04  0.25500000920E-02 0. -1.
    10030    2    1    2    0    0  0.00000000000E+00  0.00000000000E+00  0.47413267586E+03  0.36082089402E+04  0.35769218557E+04 0.  0.
        4    1    3    3  502    0  0.39226707854E+03 -0.25276116203E+03 -0.15045431129E+04  0.15752502205E+04  0.12699999809E+01 0. -1.
       -4    1    3    3    0  502 -0.39226707854E+03  0.25276116203E+03  0.19786757887E+04  0.20329587196E+04  0.12699999809E+01 0.  1.
</event>
<event>
 5   0  0.2422436E-06  0.3450842E+04  0.7818609E-02  0.8125540E-01
       -2   -1    0    0    0  501  0.00000000000E+00  0.00000000000E+00  0.14910545408E+04  0.14910545408E+04  0.25500000920E-02 0.  1.
        2   -1    0    0  501    0  0.00000000000E+00  0.00000000000E+00 -0.19966255999E+04  0.19966255999E+04  0.25500000920E-02 0. -1.
    10030    2    1    2    0    0  0.00000000000E+00  0.00000000000E+00 -0.50557105910E+03  0.34876801407E+04  0.34508420231E+04 0.  0.
        2    1    3    3  502    0  0.12195648376E+04  0.12202427295E+04 -0.22516329377E+03  0.17398359753E+04  0.25500000920E-02 0.  1.
       -2    1    3    3    0  502 -0.12195648376E+04 -0.12202427295E+04 -0.28040776533E+03  0.17478441655E+04  0.25500000920E-02 0. -1.
</event>
<event>
 5   0  0.8423692E-07  0.3576218E+04  0.7818609E-02  0.8095961E-01
       -1   -1    0    0    0  501  0.00000000000E+00  0.00000000000E+00  0.13574310285E+04  0.13574310285E+04  0.50400001928E-02 0.  1.
        1   -1    0    0  501    0  0.00000000000E+00  0.00000000000E+00 -0.23554303044E+04  0.23554303044E+04  0.50400001928E-02 0. -1.
    10030    2    1    2    0    0  0.00000000000E+00  0.00000000000E+00 -0.99799927594E+03  0.37128613329E+04  0.35762182152E+04 0.  0.
        2    1    3    3  502    0 -0.10953182596E+03  0.48027293444E+03 -0.22835942103E+04  0.23361211077E+04  0.25500000920E-02 0. -1.
       -2    1    3    3    0  502  0.10953182596E+03 -0.48027293444E+03  0.12855949344E+04  0.13767402252E+04  0.25500000920E-02 0.  1.
</event>
<event>
 5   0  0.1513502E-06  0.3569344E+04  0.7818609E-02  0.8097550E-01
       -2   -1    0    0    0  501  0.00000000000E+00  0.00000000000E+00  0.17343087865E+04  0.17343087865E+04  0.25500000920E-02 0. -1.
        2   -1    0    0  501    0  0.00000000000E+00  0.00000000000E+00 -0.18364976441E+04  0.18364976441E+04  0.25500000920E-02 0.  1.
    10030    2    1    2    0    0  0.00000000000E+00  0.00000000000E+00 -0.10218885755E+03  0.35708064306E+04  0.35693439176E+04 0.  0.
        3    1    3    3  502    0  0.52224835864E+03  0.15295679204E+04 -0.80819551939E+03  0.18070698324E+04  0.10100000352E+00 0.  1.
       -3    1    3    3    0  502 -0.52224835864E+03 -0.15295679204E+04  0.70600666185E+03  0.17637365983E+04  0.10100000352E+00 0. -1.
</event>
<event>
 5   0  0.7754556E-07  0.1887553E+04  0.7818609E-02  0.8661077E-01
       -1   -1    0    0    0  501  0.00000000000E+00  0.00000000000E+00  0.67544702687E+03  0.67544702689E+03  0.50400001928E-02 0.  1.
        1   -1    0    0  501    0  0.00000000000E+00  0.00000000000E+00 -0.13187032907E+04  0.13187032907E+04  0.50400001928E-02 0. -1.
    10030    2    1    2    0    0  0.00000000000E+00  0.00000000000E+00 -0.64325626379E+03  0.19941503176E+04  0.18875531431E+04 0.  0.
        4    1    3    3  502    0 -0.87740232142E+03  0.14803300649E+03  0.10723123323E+02  0.88986808175E+03  0.12699999809E+01 0.  1.
       -4    1    3    3    0  502  0.87740232142E+03 -0.14803300649E+03 -0.65397938711E+03  0.11042822358E+04  0.12699999809E+01 0. -1.
</event>
<event>
 5   0  0.1566576E-06  0.3416925E+04  0.7818609E-02  0.8133765E-01
        2   -1    0    0  501    0  0.00000000000E+00  0.00000000000E+00  0.35313042495E+04  0.35313042496E+04  0.25500000920E-02 0. -1.
       -2   -1    0    0    0  501  0.00000000000E+00  0.00000000000E+00 -0.82656255490E+03  0.82656255490E+03  0.25500000920E-02 0.  1.
    10030    2    1    2    0    0  0.00000000000E+00  0.00000000000E+00  0.27047416947E+04  0.43578668045E+04  0.34169248529E+04 0.  0.
        4    1    3    3  502    0 -0.12927892136E+04 -0.88806782816E+03  0.22163140067E+04  0.27151460012E+04  0.12699999809E+01 0. -1.
       -4    1    3    3    0  502  0.12927892136E+04  0.88806782816E+03  0.48842768793E+03  0.16427208033E+04  0.12699999809E+01 0.  1.
</event>
<event>
 5   0  0.7707500E-07  0.1903172E+04  0.7818609E-02  0.8653279E-01
       -4   -1    0    0    0  501  0.00000000000E+00  0.00000000000E+00  0.70985690581E+03  0.70985804188E+03  0.12699999809E+01 0.  1.
        4   -1    0    0  501    0  0.00000000000E+00  0.00000000000E+00 -0.12756290394E+04  0.12756296716E+04  0.12699999809E+01 0. -1.
    10030    2    1    2    0    0  0.00000000000E+00  0.00000000000E+00 -0.56577213362E+03  0.19854877135E+04  0.19031719190E+04 0.  0.
        3    1    3    3  502    0 -0.28546150306E+02 -0.89820426958E+03  0.43586834592E+02  0.89971418513E+03  0.10100000352E+00 0.  1.
       -3    1    3    3    0  502  0.28546150306E+02  0.89820426958E+03 -0.60935896821E+03  0.10857735284E+04  0.10100000352E+00 0. -1.
</event>
<event>
 5   0  0.2382711E-06  0.2381511E+04  0.7818609E-02  0.8446458E-01
        2   -1    0    0  501    0  0.00000000000E+00  0.00000000000E+00  0.15857252192E+04  0.15857252192E+04  0.25500000920E-02 0.  1.
       -2   -1    0    0    0  501  0.00000000000E+00  0.00000000000E+00 -0.89416403068E+03  0.89416403068E+03  0.25500000920E-02 0. -1.
    10030    2    1    2    0    0  0.00000000000E+00  0.00000000000E+00  0.69156118850E+03  0.24798892499E+04  0.23815108260E+04 0.  0.
        5    1    3    3  502    0  0.31159114303E+03  0.47835379487E+03  0.14339188502E+04  0.15433913154E+04  0.46999998093E+01 0.  1.
       -5    1    3    3    0  502 -0.31159114303E+03 -0.47835379487E+03 -0.74235766167E+03  0.93649793450E+03  0.46999998093E+01 0. -1.
</event>
<event>
 5   0  0.2422436E-06  0.2261680E+04  0.7818609E-02  0.8493185E-01
       -2   -1    0    0    0  501  0.00000000000E+00  0.00000000000E+00  0.51395455613E+03  0.51395455614E+03  0.25500000920E-02 0.  1.
        2   -1    0    0  501    0  0.00000000000E+00  0.00000000000E+00 -0.24881566888E+04  0.24881566888E+04  0.25500000920E-02 0. -1.
    10030    2    1    2    0    0  0.00000000000E+00  0.00000000000E+00 -0.19742021326E+04  0.30021112449E+04  0.22616803192E+04 0.  0.
        2    1    3    3  502    0 -0.37660793403E+03 -0.56619498655E+03 -0.21864462051E+04  0.22897504900E+04  0.25500000920E-02 0. -1.
       -2    1    3    3    0  502  0.37660793403E+03  0.56619498655E+03  0.21224407248E+03  0.71236075487E+03  0.25500000920E-02 0.  1.
</event>
<event>
 5   0  0.1634374E-06  0.3565198E+04  0.7818609E-02  0.8098510E-01
        1   -1    0    0  501    0  0.00000000000E+00  0.00000000000E+00  0.22102763134E+04  0.22102763134E+04  0.50400001928E-02 0. -1.
       -1   -1    0    0    0  501  0.00000000000E+00  0.00000000000E+00 -0.14376751928E+04  0.14376751928E+04  0.50400001928E-02 0.  1.
    10030    2    1    2    0    0  0.00000000000E+00  0.00000000000E+00  0.77260112059E+03  0.36479515062E+04  0.35651981291E+04 0.  0.
        5    1    3    3  502    0  0.13375394976E+04  0.58534589615E+03 -0.66017795670E+03  0.16023416460E+04  0.46999998093E+01 0.  1.
       -5    1    3    3    0  502 -0.13375394976E+04 -0.58534589615E+03  0.14327790773E+04  0.20456098602E+04  0.46999998093E+01 0. -1.
</event>
<event>
 5   0  0.7754556E-07  0.3727652E+04  0.7818609E-02  0.8061861E-01
        1   -1    0    0  501    0  0.00000000000E+00  0.00000000000E+00  0.16881246468E+04  0.16881246468E+04  0.50400001928E-02 0. -1.
       -1   -1    0    0    0  501  0.00000000000E+00  0.00000000000E+00 -0.20578140354E+04  0.20578140354E+04  0.50400001928E-02 0.  1.
    10030    2    1    2    0    0  0.00000000000E+00  0.00000000000E+00 -0.36968938858E+03  0.37459386823E+04  0.37276515888E+04 0.  0.
        4    1    3    3  502    0  0.31380429024E+03 -0.11590086062E+04  0.12476557937E+04  0.17315948354E+04  0.12699999809E+01 0. -1.
       -4    1    3    3    0  502 -0.31380429024E+03  0.11590086062E+04 -0.16173451822E+04  0.20143438468E+04  0.12699999809E+01 0.  1.
</event>
<event>
 5   0  0.1634374E-06  0.3730909E+04  0.7818609E-02  0.8061146E-01
       -1   -1    0    0    0  501  0.00000000000E+00  0.00000000000E+00  0.33454084543E+04  0.33454084543E+04  0.50400001928E-02 0.  1.
        1   -1    0    0  501    0  0.00000000000E+00  0.00000000000E+00 -0.10402078059E+04  0.10402078059E+04  0.50400001928E-02 0. -1.
    10030    2    1    2    0    0  0.00000000000E+00  0.00000000000E+00  0.23052006484E+04  0.43856162602E+04  0.37309087302E+04 0.  0.
        5    1    3    3  502    0 -0.15626493197E+04 -0.22933770071E+02 -0.44718625640E+02  0.15634643263E+04  0.46999998093E+01 0. -1.
       -5    1    3    3    0  502  0.15626493197E+04  0.22933770071E+02  0.23499192740E+04  0.28221519340E+04  0.46999998093E+01 0.  1.
</event>
<event>
 5   0  0.2422436E-06  0.1961440E+04  0.7818609E-02  0.8624864E-01
        2   -1    0    0  501    0  0.00000000000E+00  0.00000000000E+00  0.55899597614E+03  0.55899597615E+03  0.25500000920E-02 0. -1.
       -2   -1    0    0    0  501  0.00000000000E+00  0.00000000000E+00 -0.17206059234E+04  0.17206059234E+04  0.25500000920E-02 0.  1.
    10030    2    1    2    0    0  0.00000000000E+00  0.00000000000E+00 -0.11616099472E+04  0.22796018995E+04  0.19614400707E+04 0.  0.
        2    1    3    3  502    0 -0.30931461451E+03 -0.45319347057E+03  0.36391519849E+03  0.65840270672E+03  0.25500000920E-02 0. -1.
       -2    1    3    3    0  502  0.30931461451E+03  0.45319347057E+03 -0.15255251457E+04  0.16211991928E+04  0.25500000920E-02 0.  1.
</event>
<event>
 5   0  0.2422436E-06  0.3590929E+04  0.7818609E-02  0.8092573E-01
       -2   -1    0    0    0  501  0.00000000000E+00  0.00000000000E+00  0.16237050393E+04  0.16237050393E+04  0.25500000920E-02 0.  1.
        2   -1    0    0  501    0  0.00000000000E+00  0.00000000000E+00 -0.19853936196E+04  0.19853936196E+04  0.25500000920E-02 0. -1.
    10030    2    1    2    0    0  0.00000000000E+00  0.00000000000E+00 -0.36168858029E+03  0.36090986589E+04  0.35909294758E+04 0.  0.
        2    1    3    3  502    0 -0.32733882709E+03 -0.10556485025E+04  0.12412883116E+04  0.16620292239E+04  0.25500000920E-02 0.  1.
       -2    1    3    3    0  502  0.32733882709E+03  0.10556485025E+04 -0.16029768919E+04  0.19470694350E+04  0.25500000920E-02 0. -1.
</event>
<event>
 5   0  0.7754556E-07  0.1837187E+04  0.7818609E-02  0.8686770E-01
       -1   -1    0    0    0  501  0.00000000000E+00  0.00000000000E+00  0.67616166392E+03  0.67616166394E+03  0.50400001928E-02 0.  1.
        1   -1    0    0  501    0  0.00000000000E+00  0.00000000000E+00 -0.12479467587E+04  0.12479467587E+04  0.50400001928E-02 0. -1.
    10030    2    1    2    0    0  0.00000000000E+00  0.00000000000E+00 -0.57178509476E+03  0.19241084226E+04  0.18371867155E+04 0.  0.
        4    1    3    3  502    0 -0.68515393816E+03 -0.56085112560E+03 -0.54205034422E+03  0.10381763302E+04  0.12699999809E+01 0. -1.
       -4    1    3    3    0  502  0.68515393816E+03  0.56085112560E+03 -0.29734750540E+02  0.88593209240E+03  0.12699999809E+01 0.  1.
</event>
<event>
 5   0  0.1513502E-06  0.3729866E+04  0.7818609E-02  0.8061375E-01
        2   -1    0    0  501    0  0.00000000000E+00  0.00000000000E+00  0.25059676903E+04  0.25059676903E+04  0.25500000920E-02 0. -1.
       -2   -1    0    0    0  501  0.00000000000E+00  0.00000000000E+00 -0.13878768193E+04  0.13878768193E+04  0.25500000920E-02 0.  1.
    10030    2    1    2    0    0  0.00000000000E+00  0.00000000000E+00  0.11180908711E+04  0.38938445096E+04  0.37298656637E+04 0.  0.
        3    1    3    3  502    0  0.11772202688E+04 -0.11545252832E+03  0.20642361106E+04  0.23791274825E+04  0.10100000352E+00 0. -1.
       -3    1    3    3    0  502 -0.11772202688E+04  0.11545252832E+03 -0.94614523959E+03  0.15147170271E+04  0.10100000352E+00 0.  1.
</event>
<event>
 5   0  0.2536619E-06  0.3567810E+04  0.7818609E-02  0.8097905E-01
        2   -1    0    0  501    0  0.00000000000E+00  0.00000000000E+00  0.22212973734E+04  0.22212973734E+04  0.25500000920E-02 0.  1.
       -2   -1    0    0    0  501  0.00000000000E+00  0.00000000000E+00 -0.14326392698E+04  0.14326392698E+04  0.25500000920E-02 0. -1.
    10030    2    1    2    0    0  0.00000000000E+00  0.00000000000E+00  0.78865810361E+03  0.36539366432E+04  0.35678104473E+04 0.  0.
        1    1    3    3  502    0  0.15166072996E+04 -0.35617525315E+03  0.12844233934E+04  0.20190844374E+04  0.50400001928E-02 0.  1.
       -1    1    3    3    0  502 -0.15166072996E+04  0.35617525315E+03 -0.49576528976E+03  0.16348522057E+04  0.50400001928E-02 0. -1.
</event>
<event>
 5   0  0.1566576E-06  0.2685460E+04  0.7818609E-02  0.8339738E-01
       -2   -1    0    0    0  501  0.00000000000E+00  0.00000000000E+00  0.16628284152E+04  0.16628284152E+04  0.25500000920E-02 0.  1.
        2   -1    0    0  501    0  0.00000000000E+00  0.00000000000E+00 -0.10842512476E+04  0.10842512476E+04  0.25500000920E-02 0. -1.
    10030    2    1    2    0    0  0.00000000000E+00  0.00000000000E+00  0.57857716751E+03  0.27470796628E+04  0.26854599485E+04 0.  0.
        4    1    3    3  502    0  0.40228401144E+03 -0.12586980638E+04  0.53301798685E+03  0.14248729870E+04  0.12699999809E+01 0.  1.
       -4    1    3    3    0  502 -0.40228401144E+03  0.12586980638E+04  0.45559180660E+02  0.13222066758E+04  0.12699999809E+01 0. -1.
</event>
<event>
 5   0  0.8423692E-07  0.3547093E+04  0.7818609E-02  0.8102719E-01
       -1   -1    0    0    0  501  0.00000000000E+00  0.00000000000E+00  0.18521482166E+04  0.18521482166E+04  0.50400001928E-02 0.  1.
        1   -1    0    0  501    0  0.00000000000E+00  0.00000000000E+00 -0.16982805564E+04  0.16982805564E+04  0.50400001928E-02 0. -1.
    10030    2    1    2    0    0  0.00000000000E+00  0.00000000000E+00  0.15386766023E+03  0.35504287730E+04  0.35470930655E+04 0.  0.
        2    1    3    3  502    0  0.33558401815E+03 -0.15200665046E+04  0.92758507743E+03  0.18120797133E+04  0.25500000920E-02 0.  1.
       -2    1    3    3    0  502 -0.33558401815E+03  0.15200665046E+04 -0.77371741720E+03  0.17383490596E+04  0.25500000920E-02 0. -1.
</event>
<event>
 5   0  0.8423692E-07  0.3516487E+04  0.7818609E-02  0.8109894E-01
       -1   -1    0    0    0  501  0.00000000000E+00  0.00000000000E+00  0.15619244475E+04  0.15619244475E+04  0.50400001928E-02 0.  1.
        1   -1    0    0  501    0  0.00000000000E+00  0.00000000000E+00 -0.19792377240E+04  0.19792377240E+04  0.50400001928E-02 0. -1.
    10030    2    1    2    0    0  0.00000000000E+00  0.00000000000E+00 -0.41731327648E+03  0.35411621715E+04  0.35164867630E+04 0.  0.
        2    1    3    3  502    0  0.15293338581E+04  0.38742507288E+03 -0.99028584033E+03  0.18626932872E+04  0.25500000920E-02 0. -1.
       -2    1    3    3    0  502 -0.15293338581E+04 -0.38742507288E+03  0.57297256385E+03  0.16784688843E+04  0.25500000920E-02 0.  1.
</event>
<event>
 5   0  0.1513502E-06  0.3384742E+04  0.7818609E-02  0.8141661E-01
        2   -1    0    0  501    0  0.00000000000E+00  0.00000000000E+00  0.23834764653E+04  0.23834764653E+04  0.25500000920E-02 0. -1.
       -2   -1    0    0    0  501  0.00000000000E+00  0.00000000000E+00 -0.12016564657E+04  0.12016564657E+04  0.25500000920E-02 0.  1.
    10030    2    1    2    0    0  0.00000000000E+00  0.00000000000E+00  0.11818199996E+04  0.35851329310E+04  0.33847421794E+04 0.  0.
        3    1    3    3  502    0 -0.72351442720E+03  0.68649212942E+03  0.20391079309E+04  0.22699572098E+04  0.10100000352E+00 0. -1.
       -3    1    3    3    0  502  0.72351442720E+03 -0.68649212942E+03 -0.85728793133E+03  0.13151757212E+04  0.10100000352E+00 0.  1.
</event>
<event>
 5   0  0.8423692E-07  0.3493367E+04  0.7818609E-02  0.8115364E-01
       -1   -1    0    0    0  501  0.00000000000E+00  0.00000000000E+00  0.13100583407E+04  0.13100583407E+04  0.50400001928E-02 0. -1.
        1   -1    0    0  501    0  0.00000000000E+00  0.00000000000E+00 -0.23288300238E+04  0.23288300238E+04  0.50400001928E-02 0.  1.
    10030    2    1    2    0    0  0.00000000000E+00  0.00000000000E+00 -0.10187716831E+04  0.36388883645E+04  0.34933669699E+04 0.  0.
        2    1    3    3  502    0 -0.11233794203E+04 -0.11415881981E+04  0.21656597565E+03  0.16162010265E+04  0.25500000920E-02 0. -1.
       -2    1    3    3    0  502  0.11233794203E+04  0.11415881981E+04 -0.12353376588E+04  0.20226873380E+04  0.25500000920E-02 0.  1.
</event>
<event>
 5   0  0.2536619E-06  0.3623835E+04  0.7818609E-02  0.8085054E-01
       -2   -1    0    0    0  501  0.00000000000E+00  0.00000000000E+00  0.16458422962E+04  0.16458422962E+04  0.25500000920E-02 0. -1.
        2   -1    0    0  501    0  0.00000000000E+00  0.00000000000E+00 -0.19947504544E+04  0.19947504544E+04  0.25500000920E-02 0.  1.
    10030    2    1    2    0    0  0.00000000000E+00  0.00000000000E+00 -0.34890815821E+03  0.36405927506E+04  0.36238348021E+04 0.  0.
        1    1    3    3  502    0 -0.97400557810E+03  0.15877868721E+03  0.13521608713E+04  0.16739882197E+04  0.50400001928E-02 0. -1.
       -1    1    3    3    0  502  0.97400557810E+03 -0.15877868721E+03 -0.17010690296E+04  0.19666045309E+04  0.50400001928E-02 0.  1.
</event>
<event>
 5   0  0.1513502E-06  0.3586720E+04  0.7818609E-02  0.8093540E-01
        2   -1    0    0  501    0  0.00000000000E+00  0.00000000000E+00  0.25606880579E+04  0.25606880579E+04  0.25500000920E-02 0.  1.
       -2   -1    0    0    0  501  0.00000000000E+00  0.00000000000E+00 -0.12559674364E+04  0.12559674364E+04  0.25500000920E-02 0. -1.
    10030    2    1    2    0    0  0.00000000000E+00  0.00000000000E+00  0.13047206214E+04  0.38166554943E+04  0.35867204048E+04 0.  0.
        3    1    3    3  502    0 -0.46097041707E+03  0.90680557337E+03  0.22239826277E+04  0.24455855764E+04  0.10100000352E+00 0.  1.
       -3    1    3    3    0  502  0.46097041707E+03 -0.90680557337E+03 -0.91926200623E+03  0.13710699178E+04  0.10100000352E+00 0. -1.
</event>
<event>
 5   0  0.8423692E-07  0.3581064E+04  0.7818609E-02  0.8094843E-01
       -1   -1    0    0    0  501  0.00000000000E+00  0.00000000000E+00  0.18831492609E+04  0.18831492609E+04  0.50400001928E-02 0.  1.
        1   -1    0    0  501    0  0.00000000000E+00  0.00000000000E+00 -0.17024699783E+04  0.17024699783E+04  0.50400001928E-02 0. -1.
    10030    2    1    2    0    0  0.00000000000E+00  0.00000000000E+00  0.18067928261E+03  0.35856192391E+04  0.35810641330E+04 0.  0.
        2    1    3    3  502    0  0.75588982010E+03 -0.15504550044E+04  0.57128899116E+03  0.18170446478E+04  0.25500000920E-02 0.  1.
       -2    1    3    3    0  502 -0.75588982010E+03  0.15504550044E+04 -0.39060970854E+03  0.17685745913E+04  0.25500000920E-02 0. -1.
</event>
<event>
 5   0  0.8452742E-07  0.3001118E+04  0.7818609E-02  0.8243412E-01
       -1   -1    0    0    0  501  0.00000000000E+00  0.00000000000E+00  0.11899070853E+04  0.11899070853E+04  0.50400001928E-02 0.  1.
        1   -1    0    0  501    0  0.00000000000E+00  0.00000000000E+00 -0.18923135703E+04  0.18923135703E+04  0.50400001928E-02 0. -1.
    10030    2    1    2    0    0  0.00000000000E+00  0.00000000000E+00 -0.70240648498E+03  0.30822206556E+04  0.30011180083E+04 0.  0.
        1    1    3    3  502    0  0.65327301267E+02  0.13734459536E+04 -0.96832074713E+03  0.16817450797E+04  0.50400001928E-02 0. -1.
       -1    1    3    3    0  502 -0.65327301267E+02 -0.13734459536E+04  0.26591426215E+03  0.14004755759E+04  0.50400001928E-02 0.  1.
</event>
<event>
 5   0  0.8423692E-07  0.3643894E+04  0.7818609E-02  0.8080511E-01
       -1   -1    0    0    0  501  0.00000000000E+00  0.00000000000E+00  0.23446349764E+04  0.23446349764E+04  0.50400001928E-02 0. -1.
        1   -1    0    0  501    0  0.00000000000E+00  0.00000000000E+00 -0.14157812187E+04  0.14157812187E+04  0.50400001928E-02 0.  1.
    10030    2    1    2    0    0  0.00000000000E+00  0.00000000000E+00  0.92885375770E+03  0.37604161950E+04  0.36438936121E+04 0.  0.
        2    1    3    3  502    0 -0.63919913295E+03  0.20133945754E+03  0.22128224615E+04  0.23120762000E+04  0.25500000920E-02 0. -1.
       -2    1    3    3    0  502  0.63919913295E+03 -0.20133945754E+03 -0.12839687038E+04  0.14483399950E+04  0.25500000920E-02 0.  1.
</event>
<event>
 5   0  0.1513502E-06  0.3546233E+04  0.7818609E-02  0.8102920E-01
       -2   -1    0    0    0  501  0.00000000000E+00  0.00000000000E+00  0.15715098590E+04  0.15715098590E+04  0.25500000920E-02 0.  1.
        2   -1    0    0  501    0  0.00000000000E+00  0.00000000000E+00 -0.20005869143E+04  0.20005869143E+04  0.25500000920E-02 0. -1.
    10030    2    1    2    0    0  0.00000000000E+00  0.00000000000E+00 -0.42907705524E+03  0.35720967733E+04  0.35462329645E+04 0.  0.
        3    1    3    3  502    0  0.22952571681E+03  0.16197024281E+04  0.47442656860E+03  0.17032905183E+04  0.10100000352E+00 0.  1.
       -3    1    3    3    0  502 -0.22952571681E+03 -0.16197024281E+04 -0.90350362384E+03  0.18688062550E+04  0.10100000352E+00 0. -1.
</event>
<event>
 5   0  0.8423692E-07  0.2380265E+04  0.7818609E-02  0.8446929E-01
       -1   -1    0    0    0  501  0.00000000000E+00  0.00000000000E+00  0.11859480269E+04  0.11859480269E+04  0.50400001928E-02 0. -1.
        1   -1    0    0  501    0  0.00000000000E+00  0.00000000000E+00 -0.11943318204E+04  0.11943318204E+04  0.50400001928E-02 0.  1.
    10030    2    1    2    0    0  0.00000000000E+00  0.00000000000E+00 -0.83837934861E+01  0.23802798474E+04  0.23802650827E+04 0.  0.
        2    1    3    3  502    0  0.17082172242E+03 -0.69439125245E+03 -0.95554221168E+03  0.11934907585E+04  0.25500000920E-02 0.  1.
       -2    1    3    3    0  502 -0.17082172242E+03  0.69439125245E+03  0.94715841819E+03  0.11867890889E+04  0.25500000920E-02 0. -1.
</event>
<event>
 5   0  0.2382711E-06  0.2023281E+04  0.7818609E-02  0.8595813E-01
        2   -1    0    0  501    0  0.00000000000E+00  0.00000000000E+00  0.10946255791E+04  0.10946255791E+04  0.25500000920E-02 0.  1.
       -2   -1    0    0    0  501  0.00000000000E+00  0.00000000000E+00 -0.93494650839E+03  0.93494650839E+03  0.25500000920E-02 0. -1.
    10030    2    1    2    0    0  0.00000000000E+00  0.00000000000E+00  0.15967907071E+03  0.20295720875E+04  0.20232808635E+04 0.  0.
        5    1    3    3  502    0 -0.55474449150E+03 -0.24215377907E+03  0.89292414673E+03  0.10787564718E+04  0.46999998093E+01 0.  1.
       -5    1    3    3    0  502  0.55474449150E+03  0.24215377907E+03 -0.73324507603E+03  0.95081561571E+03  0.46999998093E+01 0. -1.
</event>
<event>
 5   0  0.1634374E-06  0.3003569E+04  0.7818609E-02  0.8242712E-01
        1   -1    0    0  501    0  0.00000000000E+00  0.00000000000E+00  0.17893983263E+04  0.17893983263E+04  0.50400001928E-02 0. -1.
       -1   -1    0    0    0  501  0.00000000000E+00  0.00000000000E+00 -0.12603997944E+04  0.12603997944E+04  0.50400001928E-02 0.  1.
    10030    2    1    2    0    0  0.00000000000E+00  0.00000000000E+00  0.52899853188E+03  0.30497981208E+04  0.30035693983E+04 0.  0.
        5    1    3    3  502    0 -0.19971519904E+03 -0.11795331133E+03 -0.12420950414E+04  0.12635748202E+04  0.46999998093E+01 0.  1.
       -5    1    3    3    0  502  0.19971519904E+03  0.11795331133E+03  0.17710935733E+04  0.17862233006E+04  0.46999998093E+01 0. -1.
</event>
<event>
 5   0  0.2422436E-06  0.3605793E+04  0.7818609E-02  0.8089166E-01
       -2   -1    0    0    0  501  0.00000000000E+00  0.00000000000E+00  0.16568530367E+04  0.16568530367E+04  0.25500000920E-02 0. -1.
        2   -1    0    0  501    0  0.00000000000E+00  0.00000000000E+00 -0.19618130689E+04  0.19618130690E+04  0.25500000920E-02 0.  1.
    10030    2    1    2    0    0  0.00000000000E+00  0.00000000000E+00 -0.30496003229E+03  0.36186661056E+04  0.36057930837E+04 0.  0.
        2    1    3    3  502    0 -0.12091478558E+04 -0.10723223076E+04 -0.95440867895E+03  0.18769149141E+04  0.25500000920E-02 0.  1.
       -2    1    3    3    0  502  0.12091478558E+04  0.10723223076E+04  0.64944864666E+03  0.17417511915E+04  0.25500000920E-02 0. -1.
</event>
<event>
 5   0  0.1566576E-06  0.3239338E+04  0.7818609E-02  0.8178505E-01
       -2   -1    0    0    0  501  0.00000000000E+00  0.00000000000E+00  0.12736753849E+04  0.12736753849E+04  0.25500000920E-02 0.  1.
        2   -1    0    0  501    0  0.00000000000E+00  0.00000000000E+00 -0.20596512947E+04  0.20596512947E+04  0.25500000920E-02 0. -1.
    10030    2    1    2    0    0  0.00000000000E+00  0.00000000000E+00 -0.78597590976E+03  0.33333266796E+04  0.32393376826E+04 0.  0.
        4    1    3    3  502    0 -0.40906407453E+03 -0.57480745602E+03 -0.18932297234E+04  0.20204102126E+04  0.12699999809E+01 0. -1.
       -4    1    3    3    0  502  0.40906407453E+03  0.57480745602E+03  0.11072538136E+04  0.13129164670E+04  0.12699999809E+01 0.  1.
</event>
<event>
 5   0  0.2536619E-06  0.3191644E+04  0.7818609E-02  0.8191027E-01
        2   -1    0    0  501    0  0.00000000000E+00  0.00000000000E+00  0.96841301443E+03  0.96841301443E+03  0.25500000920E-02 0.  1.
       -2   -1    0    0    0  501  0.00000000000E+00  0.00000000000E+00 -0.26297129400E+04  0.26297129400E+04  0.25500000920E-02 0. -1.
    10030    2    1    2    0    0  0.00000000000E+00  0.00000000000E+00 -0.16612999255E+04  0.35981259544E+04  0.31916442379E+04 0.  0.
        1    1    3    3  502    0 -0.56999837291E+03 -0.63471462420E+03  0.68977432142E+03  0.10970639971E+04  0.50400001928E-02 0.  1.
       -1    1    3    3    0  502  0.56999837291E+03  0.63471462420E+03 -0.23510742470E+04  0.25010619572E+04  0.50400001928E-02 0. -1.
</event>
<event>
 5   0  0.7754556E-07  0.3195854E+04  0.7818609E-02  0.8189913E-01
        1   -1    0    0  501    0  0.00000000000E+00  0.00000000000E+00  0.12817594140E+04  0.12817594140E+04  0.50400001928E-02 0. -1.
       -1   -1    0    0    0  501  0.00000000000E+00  0.00000000000E+00 -0.19920831239E+04  0.19920831240E+04  0.50400001928E-02 0.  1.
    10030    2    1    2    0    0  0.00000000000E+00  0.00000000000E+00 -0.71032370991E+03  0.32738425380E+04  0.31958543757E+04 0.  0.
        4    1    3    3  502    0 -0.87976475998E+03  0.36204433439E+03 -0.16703561906E+04  0.19222782185E+04  0.12699999809E+01 0.  1.
       -4    1    3    3    0  502  0.87976475998E+03 -0.36204433439E+03  0.96003248065E+03  0.13515643195E+04  0.12699999809E+01 0. -1.
</event>
<event>
 5   0  0.8452742E-07  0.2687721E+04  0.7818609E-02  0.8339000E-01
       -1   -1    0    0    0  501  0.00000000000E+00  0.00000000000E+00  0.13255501813E+04  0.13255501813E+04  0.50400001928E-02 0.  1.
        1   -1    0    0  501    0  0.00000000000E+00  0.00000000000E+00 -0.13624233228E+04  0.13624233228E+04  0.50400001928E-02 0. -1.
    10030    2    1    2    0    0  0.00000000000E+00  0.00000000000E+00 -0.36873141455E+02  0.26879735041E+04  0.26877205826E+04 0.  0.
        1    1    3    3  502    0  0.52582023203E+02 -0.48203251484E+03  0.12350130382E+04  0.13267921537E+04  0.50400001928E-02 0.  1.
       -1    1    3    3    0  502 -0.52582023203E+02  0.48203251484E+03 -0.12718861797E+04  0.13611813504E+04  0.50400001928E-02 0. -1.
</event>
<event>
 5   0  0.1634374E-06  0.1890407E+04  0.7818609E-02  0.8659646E-01
        1   -1    0    0  501    0  0.00000000000E+00  0.00000000000E+00  0.16196340155E+04  0.16196340155E+04  0.50400001928E-02 0.  1.
       -1   -1    0    0    0  501  0.00000000000E+00  0.00000000000E+00 -0.55161223015E+03  0.55161223017E+03  0.50400001928E-02 0. -1.
    10030    2    1    2    0    0  0.00000000000E+00  0.00000000000E+00  0.10680217854E+04  0.21712462457E+04  0.18904072909E+04 0.  0.
        5    1    3    3  502    0  0.36428084760E+03 -0.29957080226E+03  0.14748103122E+04  0.15483961858E+04  0.46999998093E+01 0.  1.
       -5    1    3    3    0  502 -0.36428084760E+03  0.29957080226E+03 -0.40678852680E+03  0.62285005983E+03  0.46999998093E+01 0. -1.
</event>
<event>
 5   0  0.1634374E-06  0.3517815E+04  0.7818609E-02  0.8109581E-01
        1   -1    0    0  501    0  0.00000000000E+00  0.00000000000E+00  0.11503407843E+04  0.11503407843E+04  0.50400001928E-02 0.  1.
       -1   -1    0    0    0  501  0.00000000000E+00  0.00000000000E+00 -0.26894255499E+04  0.26894255499E+04  0.50400001928E-02 0. -1.
    10030    2    1    2    0    0  0.00000000000E+00  0.00000000000E+00 -0.15390847656E+04  0.38397663342E+04  0.35178151721E+04 0.  0.
        5    1    3    3  502    0 -0.83049196514E+03  0.15503611052E+04 -0.74778452723E+03  0.19111620156E+04  0.46999998093E+01 0. -1.
       -5    1    3    3    0  502  0.83049196514E+03 -0.15503611052E+04 -0.79130023837E+03  0.19286043186E+04  0.46999998093E+01 0.  1.
</event>
<event>
 5   0  0.2422436E-06  0.3627272E+04  0.7818609E-02  0.8084273E-01
       -2   -1    0    0    0  501  0.00000000000E+00  0.00000000000E+00  0.31706572311E+04  0.31706572311E+04  0.25500000920E-02 0. -1.
        2   -1    0    0  501    0  0.00000000000E+00  0.00000000000E+00 -0.10374112040E+04  0.10374112040E+04  0.25500000920E-02 0.  1.
    10030    2    1    2    0    0  0.00000000000E+00  0.00000000000E+00  0.21332460271E+04  0.42080684351E+04  0.36272718870E+04 0.  0.
        2    1    3    3  502    0 -0.35709206785E+03 -0.18089769936E+03  0.31187678376E+04  0.31443523256E+04  0.25500000920E-02 0. -1.
       -2    1    3    3    0  502  0.35709206785E+03  0.18089769936E+03 -0.98552181054E+03  0.10637161095E+04  0.25500000920E-02 0.  1.
</event>
<event>
 5   0  0.2422436E-06  0.1941845E+04  0.7818609E-02  0.8634303E-01
        2   -1    0    0  501    0  0.00000000000E+00  0.00000000000E+00  0.15992897953E+04  0.15992897953E+04  0.25500000920E-02 0.  1.
       -2   -1    0    0    0  501  0.00000000000E+00  0.00000000000E+00 -0.58944301183E+03  0.58944301183E+03  0.25500000920E-02 0. -1.
    10030    2    1    2    0    0  0.00000000000E+00  0.00000000000E+00  0.10098467834E+04  0.21887328071E+04  0.19418446835E+04 0.  0.
        2    1    3    3  502    0 -0.50557796345E+03 -0.23268780867E+03  0.14016471391E+04  0.15081005921E+04  0.25500000920E-02 0.  1.
       -2    1    3    3    0  502  0.50557796345E+03  0.23268780867E+03 -0.39180035563E+03  0.68063221501E+03  0.25500000920E-02 0. -1.
</event>
<event>
 5   0  0.8452742E-07  0.3649423E+04  0.7818609E-02  0.8079264E-01
        1   -1    0    0  501    0  0.00000000000E+00  0.00000000000E+00  0.25273285445E+04  0.25273285445E+04  0.50400001928E-02 0.  1.
       -1   -1    0    0    0  501  0.00000000000E+00  0.00000000000E+00 -0.13174271641E+04  0.13174271641E+04  0.50400001928E-02 0. -1.
    10030    2    1    2    0    0  0.00000000000E+00  0.00000000000E+00  0.12099013804E+04  0.38447557086E+04  0.36494225719E+04 0.  0.
        1    1    3    3  502    0 -0.10146144308E+04  0.14066867742E+04  0.12021802367E+04  0.21103192757E+04  0.50400001928E-02 0.  1.
       -1    1    3    3    0  502  0.10146144308E+04 -0.14066867742E+04  0.77211436603E+01  0.17344364329E+04  0.50400001928E-02 0. -1.
</event>
<event>
 5   0  0.7754556E-07  0.3589261E+04  0.7818609E-02  0.8092956E-01
        1   -1    0    0  501    0  0.00000000000E+00  0.00000000000E+00  0.18621259362E+04  0.18621259362E+04  0.50400001928E-02 0. -1.
       -1   -1    0    0    0  501  0.00000000000E+00  0.00000000000E+00 -0.17295816855E+04  0.17295816855E+04  0.50400001928E-02 0.  1.
    10030    2    1    2    0    0  0.00000000000E+00  0.00000000000E+00  0.13254425078E+03  0.35917076217E+04  0.35892611582E+04 0.  0.
        4    1    3    3  502    0 -0.14008387888E+04 -0.70128047661E+03 -0.80985515722E+03  0.17635222164E+04  0.12699999809E+01 0.  1.
       -4    1    3    3    0  502  0.14008387888E+04  0.70128047661E+03  0.94239940800E+03  0.18281854053E+04  0.12699999809E+01 0. -1.
</event>
<event>
 5   0  0.2536619E-06  0.2979114E+04  0.7818609E-02  0.8249720E-01
        2   -1    0    0  501    0  0.00000000000E+00  0.00000000000E+00  0.16154922303E+04  0.16154922304E+04  0.25500000920E-02 0.  1.
       -2   -1    0    0    0  501  0.00000000000E+00  0.00000000000E+00 -0.13734392242E+04  0.13734392242E+04  0.25500000920E-02 0. -1.
    10030    2    1    2    0    0  0.00000000000E+00  0.00000000000E+00  0.24205300617E+03  0.29889314545E+04  0.29791142278E+04 0.  0.
        1    1    3    3  502    0  0.13435725489E+04  0.39621466480E+03  0.62925986339E+03  0.15356240524E+04  0.50400001928E-02 0.  1.
       -1    1    3    3    0  502 -0.13435725489E+04 -0.39621466480E+03 -0.38720685722E+03  0.14533074021E+04  0.50400001928E-02 0. -1.
</event>
<event>
 5   0  0.1629651E-06  0.1996321E+04  0.7818609E-02  0.8608343E-01
        2   -1    0    0  501    0  0.00000000000E+00  0.00000000000E+00  0.16516606553E+04  0.16516606553E+04  0.25500000920E-02 0. -1.
       -2   -1    0    0    0  501  0.00000000000E+00  0.00000000000E+00 -0.60322586042E+03  0.60322586043E+03  0.25500000920E-02 0.  1.
    10030    2    1    2    0    0  0.00000000000E+00  0.00000000000E+00  0.10484347949E+04  0.22548865157E+04  0.19963210362E+04 0.  0.
        3    1    3    3  502    0  0.47704393389E+01  0.46533736497E+03  0.15216316268E+04  0.15912021990E+04  0.10100000352E+00 0. -1.
       -3    1    3    3    0  502 -0.47704393389E+01 -0.46533736497E+03 -0.47319683190E+03  0.66368431672E+03  0.10100000352E+00 0.  1.
</event>
<event>
 5   0  0.2382711E-06  0.3490225E+04  0.7818609E-02  0.8116110E-01
       -2   -1    0    0    0  501  0.00000000000E+00  0.00000000000E+00  0.18745071525E+04  0.18745071525E+04  0.25500000920E-02 0. -1.
        2   -1    0    0  501    0  0.00000000000E+00  0.00000000000E+00 -0.16246498741E+04  0.16246498741E+04  0.25500000920E-02 0.  1.
    10030    2    1    2    0    0  0.00000000000E+00  0.00000000000E+00  0.24985727843E+03  0.34991570266E+04  0.34902250983E+04 0.  0.
        5    1    3    3  502    0 -0.11236134840E+04  0.43249516569E+02 -0.12130344777E+04  0.16540412680E+04  0.46999998093E+01 0.  1.
       -5    1    3    3    0  502  0.11236134840E+04 -0.43249516569E+02  0.14628917562E+04  0.18451157585E+04  0.46999998093E+01 0. -1.
</event>
<event>
 5   0  0.2382711E-06  0.3721142E+04  0.7818609E-02  0.8063293E-01
        2   -1    0    0  501    0  0.00000000000E+00  0.00000000000E+00  0.31341684306E+04  0.31341684306E+04  0.25500000920E-02 0.  1.
       -2   -1    0    0    0  501  0.00000000000E+00  0.00000000000E+00 -0.11045110202E+04  0.11045110202E+04  0.25500000920E-02 0. -1.
    10030    2    1    2    0    0  0.00000000000E+00  0.00000000000E+00  0.20296574104E+04  0.42386794508E+04  0.37211415295E+04 0.  0.
        5    1    3    3  502    0  0.95284570199E+03 -0.10685077742E+04 -0.33875052307E+03  0.14711892476E+04  0.46999998093E+01 0. -1.
       -5    1    3    3    0  502 -0.95284570199E+03  0.10685077742E+04  0.23684079335E+04  0.27674902032E+04  0.46999998093E+01 0.  1.
</event>
<event>
 5   0  0.8452742E-07  0.3618146E+04  0.7818609E-02  0.8086348E-01
       -1   -1    0    0    0  501  0.00000000000E+00  0.00000000000E+00  0.19927925965E+04  0.19927925965E+04  0.50400001928E-02 0. -1.
        1   -1    0    0  501    0  0.00000000000E+00  0.00000000000E+00 -0.16422905142E+04  0.16422905142E+04  0.50400001928E-02 0.  1.
    10030    2    1    2    0    0  0.00000000000E+00  0.00000000000E+00  0.35050208228E+03  0.36350831107E+04  0.36181455902E+04 0.  0.
        1    1    3    3  502    0  0.30016367407E+01  0.69902909973E+02  0.19914327330E+04  0.19926614757E+04  0.50400001928E-02 0. -1.
       -1    1    3    3    0  502 -0.30016367407E+01 -0.69902909973E+02 -0.16409306507E+04  0.16424216350E+04  0.50400001928E-02 0.  1.
</event>
<event>
 5   0  0.1513502E-06  0.2245080E+04  0.7818609E-02  0.8499896E-01
        2   -1    0    0  501    0  0.00000000000E+00  0.00000000000E+00  0.98160428018E+03  0.98160428018E+03  0.25500000920E-02 0. -1.
       -2   -1    0    0    0  501  0.00000000000E+00  0.00000000000E+00 -0.12837103564E+04  0.12837103564E+04  0.25500000920E-02 0.  1.
    10030    2    1    2    0    0  0.00000000000E+00  0.00000000000E+00 -0.30210607625E+03  0.22653146366E+04  0.22450795802E+04 0.  0.
        3    1    3    3  502    0 -0.76921675163E+02  0.11153757049E+04 -0.25253619418E+03  0.11461912785E+04  0.10100000352E+00 0.  1.
       -3    1    3    3    0  502  0.76921675163E+02 -0.11153757049E+04 -0.49569882064E+02  0.11191233581E+04  0.10100000352E+00 0. -1.
</event>
<event>
 5   0  0.1908273E-06  0.2615106E+04  0.7818609E-02  0.8363088E-01
        1   -1    0    0  501    0  0.00000000000E+00  0.00000000000E+00  0.10815386076E+04  0.10815386076E+04  0.50400001928E-02 0.  1.
       -1   -1    0    0    0  501  0.00000000000E+00  0.00000000000E+00 -0.15807992794E+04  0.15807992794E+04  0.50400001928E-02 0. -1.
    10030    2    1    2    0    0  0.00000000000E+00  0.00000000000E+00 -0.49926067185E+03  0.26623378870E+04  0.26151064618E+04 0.  0.
        3    1    3    3  502    0 -0.13049271768E+04 -0.72426600502E+02 -0.29054185122E+03  0.13388409639E+04  0.10100000352E+00 0. -1.
       -3    1    3    3    0  502  0.13049271768E+04  0.72426600502E+02 -0.20871882063E+03  0.13234969231E+04  0.10100000352E+00 0.  1.
</event>
<event>
 5   0  0.8423692E-07  0.2452240E+04  0.7818609E-02  0.8420200E-01
       -1   -1    0    0    0  501  0.00000000000E+00  0.00000000000E+00  0.74931597162E+03  0.74931597164E+03  0.50400001928E-02 0. -1.
        1   -1    0    0  501    0  0.00000000000E+00  0.00000000000E+00 -0.20063239741E+04  0.20063239741E+04  0.50400001928E-02 0.  1.
    10030    2    1    2    0    0  0.00000000000E+00  0.00000000000E+00 -0.12570080024E+04  0.27556399457E+04  0.24522402803E+04 0.  0.
        2    1    3    3  502    0 -0.40618975962E+02  0.24343144528E+03 -0.19781243400E+04  0.19934604773E+04  0.25500000920E-02 0.  1.
       -2    1    3    3    0  502  0.40618975962E+02 -0.24343144528E+03  0.72111633760E+03  0.76217946844E+03  0.25500000920E-02 0. -1.
</event>
<event>
 5   0  0.2536619E-06  0.3476236E+04  0.7818609E-02  0.8119445E-01
        2   -1    0    0  501    0  0.00000000000E+00  0.00000000000E+00  0.10353687984E+04  0.10353687984E+04  0.25500000920E-02 0. -1.
       -2   -1    0    0    0  501  0.00000000000E+00  0.00000000000E+00 -0.29178526019E+04  0.29178526019E+04  0.25500000920E-02 0.  1.
    10030    2    1    2    0    0  0.00000000000E+00  0.00000000000E+00 -0.18824838034E+04  0.39532214003E+04  0.34762356320E+04 0.  0.
        1    1    3    3  502    0  0.16884561044E+03 -0.96762680389E+03 -0.25719609971E+04  0.27531425394E+04  0.50400001928E-02 0.  1.
       -1    1    3    3    0  502 -0.16884561044E+03  0.96762680389E+03  0.68947719363E+03  0.12000788609E+04  0.50400001928E-02 0. -1.
</event>
<event>
 5   0  0.1513502E-06  0.2411575E+04  0.7818609E-02  0.8435183E-01
        2   -1    0    0  501    0  0.00000000000E+00  0.00000000000E+00  0.84978318734E+03  0.84978318735E+03  0.25500000920E-02 0. -1.
       -2   -1    0    0    0  501  0.00000000000E+00  0.00000000000E+00 -0.17109346328E+04  0.17109346328E+04  0.25500000920E-02 0.  1.
    10030    2    1    2    0    0  0.00000000000E+00  0.00000000000E+00 -0.86115144550E+03  0.25607178202E+04  0.24115749921E+04 0.  0.
        3    1    3    3  502    0  0.63280161517E+03 -0.84078897555E+03 -0.10556762281E+04  0.14905758264E+04  0.10100000352E+00 0.  1.
       -3    1    3    3    0  502 -0.63280161517E+03  0.84078897555E+03  0.19452478260E+03  0.10701419938E+04  0.10100000352E+00 0. -1.
</event>
<event>
 5   0  0.1513502E-06  0.2664146E+04  0.7818609E-02  0.8346733E-01
        2   -1    0    0  501    0  0.00000000000E+00  0.00000000000E+00  0.21077948590E+04  0.21077948590E+04  0.25500000920E-02 0. -1.
       -2   -1    0    0    0  501  0.00000000000E+00  0.00000000000E+00 -0.84183613811E+03  0.84183613811E+03  0.25500000920E-02 0.  1.
    10030    2    1    2    0    0  0.00000000000E+00  0.00000000000E+00  0.12659587208E+04  0.29496309971E+04  0.26641455546E+04 0.  0.
        3    1    3    3  502    0  0.11671311203E+04 -0.12919309849E+03  0.13292859952E+04  0.17736648996E+04  0.10100000352E+00 0. -1.
       -3    1    3    3    0  502 -0.11671311203E+04  0.12919309849E+03 -0.63327274397E+02  0.11759660975E+04  0.10100000352E+00 0.  1.
</event>
<event>
 5   0  0.1513502E-06  0.3566991E+04  0.7818609E-02  0.8098095E-01
       -2   -1    0    0    0  501  0.00000000000E+00  0.00000000000E+00  0.13567020020E+04  0.13567020020E+04  0.25500000920E-02 0. -1.
        2   -1    0    0  501    0  0.00000000000E+00  0.00000000000E+00 -0.23445497306E+04  0.23445497306E+04  0.25500000920E-02 0.  1.
    10030    2    1    2    0    0  0.00000000000E+00  0.00000000000E+00 -0.98784772857E+03  0.37012517326E+04  0.35669905037E+04 0.  0.
        3    1    3    3  502    0 -0.72326452809E+03 -0.10238039041E+04 -0.18103651967E+04  0.22019782395E+04  0.10100000352E+00 0.  1.
       -3    1    3    3    0  502  0.72326452809E+03  0.10238039041E+04  0.82251746812E+03  0.14992734931E+04  0.10100000352E+00 0. -1.
</event>
<event>
 5   0  0.2422436E-06  0.3616941E+04  0.7818609E-02  0.8086622E-01
        2   -1    0    0  501    0  0.00000000000E+00  0.00000000000E+00  0.22919582294E+04  0.22919582294E+04  0.25500000920E-02 0.  1.
       -2   -1    0    0    0  501  0.00000000000E+00  0.00000000000E+00 -0.14269741877E+04  0.14269741877E+04  0.25500000920E-02 0. -1.
    10030    2    1    2    0    0  0.00000000000E+00  0.00000000000E+00  0.86498404175E+03  0.37189324171E+04  0.36169408248E+04 0.  0.
        2    1    3    3  502    0 -0.73252327382E+03 -0.92522254969E+03 -0.97652915934E+03  0.15317429002E+04  0.25500000920E-02 0. -1.
       -2    1    3    3    0  502  0.73252327382E+03  0.92522254969E+03  0.18415132011E+04  0.21871895169E+04  0.25500000920E-02 0.  1.
</event>
<event>
 5   0  0.1566576E-06  0.3592752E+04  0.7818609E-02  0.8092154E-01
       -2   -1    0    0    0  501  0.00000000000E+00  0.00000000000E+00  0.13802499718E+04  0.13802499718E+04  0.25500000920E-02 0.  1.
        2   -1    0    0  501    0  0.00000000000E+00  0.00000000000E+00 -0.23379576750E+04  0.23379576750E+04  0.25500000920E-02 0. -1.
    10030    2    1    2    0    0  0.00000000000E+00  0.00000000000E+00 -0.95770770325E+03  0.37182076468E+04  0.35927516001E+04 0.  0.
        4    1    3    3  502    0 -0.28478399095E+02 -0.10967990100E+04  0.99320197367E+03  0.14799428573E+04  0.12699999809E+01 0.  1.
       -4    1    3    3    0  502  0.28478399095E+02  0.10967990100E+04 -0.19509096769E+04  0.22382647895E+04  0.12699999809E+01 0. -1.
</event>
<event>
 5   0  0.1513502E-06  0.3580189E+04  0.7818609E-02  0.8095045E-01
        2   -1    0    0  501    0  0.00000000000E+00  0.00000000000E+00  0.21099833886E+04  0.21099833886E+04  0.25500000920E-02 0.  1.
       -2   -1    0    0    0  501  0.00000000000E+00  0.00000000000E+00 -0.15187034887E+04  0.15187034887E+04  0.25500000920E-02 0. -1.
    10030    2    1    2    0    0  0.00000000000E+00  0.00000000000E+00  0.59127989986E+03  0.36286868773E+04  0.35801894550E+04 0.  0.
        3    1    3    3  502    0 -0.26455673945E+03 -0.46547528716E+03  0.20269301733E+04  0.20964502019E+04  0.10100000352E+00 0.  1.
       -3    1    3    3    0  502  0.26455673945E+03  0.46547528716E+03 -0.14356502735E+04  0.15322366754E+04  0.10100000352E+00 0. -1.
</event>
<event>
 5   0  0.1513502E-06  0.3548548E+04  0.7818609E-02  0.8102380E-01
        2   -1    0    0  501    0  0.00000000000E+00  0.00000000000E+00  0.26733993113E+04  0.26733993113E+04  0.25500000920E-02 0.  1.
       -2   -1    0    0    0  501  0.00000000000E+00  0.00000000000E+00 -0.11775450234E+04  0.11775450234E+04  0.25500000920E-02 0. -1.
    10030    2    1    2    0    0  0.00000000000E+00  0.00000000000E+00  0.14958542879E+04  0.38509443346E+04  0.35485479027E+04 0.  0.
        3    1    3    3  502    0  0.99567203523E+03 -0.99383598389E+03  0.19212545972E+04  0.23812374938E+04  0.10100000352E+00 0.  1.
       -3    1    3    3    0  502 -0.99567203523E+03  0.99383598389E+03 -0.42540030928E+03  0.14697068408E+04  0.10100000352E+00 0. -1.
</event>
<event>
 5   0  0.1566576E-06  0.2740737E+04  0.7818609E-02  0.8321907E-01
        2   -1    0    0  501    0  0.00000000000E+00  0.00000000000E+00  0.17062891950E+04  0.17062891950E+04  0.25500000920E-02 0. -1.
       -2   -1    0    0    0  501  0.00000000000E+00  0.00000000000E+00 -0.11005815530E+04  0.11005815530E+04  0.25500000920E-02 0.  1.
    10030    2    1    2    0    0  0.00000000000E+00  0.00000000000E+00  0.60570764203E+03  0.28068707480E+04  0.27407374278E+04 0.  0.
        4    1    3    3  502    0  0.77837043022E+03  0.97792073440E+03 -0.27259347835E+03  0.12792569354E+04  0.12699999809E+01 0.  1.
       -4    1    3    3    0  502 -0.77837043022E+03 -0.97792073440E+03  0.87830112038E+03  0.15276138126E+04  0.12699999809E+01 0. -1.
</event>
<event>
 5   0  0.2536619E-06  0.1865871E+04  0.7818609E-02  0.8672033E-01
       -2   -1    0    0    0  501  0.00000000000E+00  0.00000000000E+00  0.11763901722E+04  0.11763901722E+04  0.25500000920E-02 0.  1.
        2   -1    0    0  501    0  0.00000000000E+00  0.00000000000E+00 -0.73986419232E+03  0.73986419232E+03  0.25500000920E-02 0. -1.
    10030    2    1    2    0    0  0.00000000000E+00  0.00000000000E+00  0.43652597984E+03  0.19162543645E+04  0.18658713402E+04 0.  0.
        1    1    3    3  502    0  0.88720853205E+03  0.22711741761E+03  0.35561414891E+02  0.91650745495E+03  0.50400001928E-02 0. -1.
       -1    1    3    3    0  502 -0.88720853205E+03 -0.22711741761E+03  0.40096456495E+03  0.99974690952E+03  0.50400001928E-02 0.  1.
</event>
<event>
 5   0  0.2382711E-06  0.2058803E+04  0.7818609E-02  0.8579611E-01
        2   -1    0    0  501    0  0.00000000000E+00  0.00000000000E+00  0.15963245547E+04  0.15963245547E+04  0.25500000920E-02 0.  1.
       -2   -1    0    0    0  501  0.00000000000E+00  0.00000000000E+00 -0.66381694756E+03  0.66381694757E+03  0.25500000920E-02 0. -1.
    10030    2    1    2    0    0  0.00000000000E+00  0.00000000000E+00  0.93250760710E+03  0.22601415022E+04  0.20588028494E+04 0.  0.
        5    1    3    3  502    0 -0.36802795307E+03  0.28170348876E+03  0.14752954081E+04  0.15463893627E+04  0.46999998093E+01 0.  1.
       -5    1    3    3    0  502  0.36802795307E+03 -0.28170348876E+03 -0.54278780100E+03  0.71375213956E+03  0.46999998093E+01 0. -1.
</event>
<event>
 5   0  0.1513502E-06  0.3002664E+04  0.7818609E-02  0.8242971E-01
       -2   -1    0    0    0  501  0.00000000000E+00  0.00000000000E+00  0.11323308519E+04  0.11323308519E+04  0.25500000920E-02 0.  1.
        2   -1    0    0  501    0  0.00000000000E+00  0.00000000000E+00 -0.19905816886E+04  0.19905816886E+04  0.25500000920E-02 0. -1.
    10030    2    1    2    0    0  0.00000000000E+00  0.00000000000E+00 -0.85825083672E+03  0.31229125405E+04  0.30026635238E+04 0.  0.
        3    1    3    3  502    0 -0.10171434914E+04 -0.11034112379E+04 -0.47445773351E+03  0.15739146715E+04  0.10100000352E+00 0. -1.
       -3    1    3    3    0  502  0.10171434914E+04  0.11034112379E+04 -0.38379310321E+03  0.15489978691E+04  0.10100000352E+00 0.  1.
</event>
<event>
 5   0  0.8423692E-07  0.3150015E+04  0.7818609E-02  0.8202144E-01
       -1   -1    0    0    0  501  0.00000000000E+00  0.00000000000E+00  0.15217968933E+04  0.15217968933E+04  0.50400001928E-02 0. -1.
        1   -1    0    0  501    0  0.00000000000E+00  0.00000000000E+00 -0.16300782300E+04  0.16300782300E+04  0.50400001928E-02 0.  1.
    10030    2    1    2    0    0  0.00000000000E+00  0.00000000000E+00 -0.10828133673E+03  0.31518751233E+04  0.31500145945E+04 0.  0.
        2    1    3    3  502    0 -0.46578828691E+03  0.13639403897E+04 -0.68961882654E+03  0.15977691450E+04  0.25500000920E-02 0.  1.
       -2    1    3    3    0  502  0.46578828691E+03 -0.13639403897E+04  0.58133748981E+03  0.15541059783E+04  0.25500000920E-02 0. -1.
</event>
<event>
 5   0  0.7754556E-07  0.3630307E+04  0.7818609E-02  0.8083585E-01
       -1   -1    0    0    0  501  0.00000000000E+00  0.00000000000E+00  0.16709589025E+04  0.16709589025E+04  0.50400001928E-02 0.  1.
        1   -1    0    0  501    0  0.00000000000E+00  0.00000000000E+00 -0.19717911518E+04  0.19717911518E+04  0.50400001928E-02 0. -1.
    10030    2    1    2    0    0  0.00000000000E+00  0.00000000000E+00 -0.30083224931E+03  0.36427500543E+04  0.36303068625E+04 0.  0.
        4    1    3    3  502    0  0.89961444778E+01  0.15884758801E+04  0.73091313184E+03  0.17485914821E+04  0.12699999809E+01 0. -1.
       -4    1    3    3    0  502 -0.89961444778E+01 -0.15884758801E+04 -0.10317453812E+04  0.18941585722E+04  0.12699999809E+01 0.  1.
</event>
<event>
 5   0  0.1634374E-06  0.2584089E+04  0.7818609E-02  0.8373626E-01
        1   -1    0    0  501    0  0.00000000000E+00  0.00000000000E+00  0.12328091507E+04  0.12328091507E+04  0.50400001928E-02 0.  1.
       -1   -1    0    0    0  501  0.00000000000E+00  0.00000000000E+00 -0.13541257671E+04  0.13541257671E+04  0.50400001928E-02 0. -1.
    10030    2    1    2    0    0  0.00000000000E+00  0.00000000000E+00 -0.12131661641E+03  0.25869349178E+04  0.25840887267E+04 0.  0.
        5    1    3    3  502    0 -0.11753763695E+04  0.16053932883E+03 -0.57315386028E+03  0.13175013942E+04  0.46999998093E+01 0. -1.
       -5    1    3    3    0  502  0.11753763695E+04 -0.16053932883E+03  0.45183724388E+03  0.12694335237E+04  0.46999998093E+01 0.  1.
</event>
<event>
 5   0  0.1566576E-06  0.3576434E+04  0.7818609E-02  0.8095911E-01
        2   -1    0    0  501    0  0.00000000000E+00  0.00000000000E+00  0.31971160875E+04  0.31971160875E+04  0.25500000920E-02 0.  1.
       -2   -1    0    0    0  501  0.00000000000E+00  0.00000000000E+00 -0.10001889610E+04  0.10001889610E+04  0.25500000920E-02 0. -1.
    10030    2    1    2    0    0  0.00000000000E+00  0.00000000000E+00  0.21969271264E+04  0.41973050485E+04  0.35764340999E+04 0.  0.
        4    1    3    3  502    0  0.12079226543E+04 -0.12903474111E+04  0.14169507854E+04  0.22653531118E+04  0.12699999809E+01 0. -1.
       -4    1    3    3    0  502 -0.12079226543E+04  0.12903474111E+04  0.77997634108E+03  0.19319519367E+04  0.12699999809E+01 0.  1.
</event>
<event>
 5   0  0.7707500E-07  0.1879824E+04  0.7818609E-02  0.8664965E-01
        4   -1    0    0  501    0  0.00000000000E+00  0.00000000000E+00  0.85903748806E+03  0.85903842684E+03  0.12699999809E+01 0. -1.
       -4   -1    0    0    0  501  0.00000000000E+00  0.00000000000E+00 -0.10283985612E+04  0.10283993454E+04  0.12699999809E+01 0.  1.
    10030    2    1    2    0    0  0.00000000000E+00  0.00000000000E+00 -0.16936107316E+03  0.18874377722E+04  0.18798239734E+04 0.  0.
        5    1    3    3  502    0  0.39680247650E+03 -0.35657181643E+03 -0.86164730070E+03  0.10134366415E+04  0.46999998093E+01 0.  1.
       -5    1    3    3    0  502 -0.39680247650E+03  0.35657181643E+03  0.69228622754E+03  0.87400113070E+03  0.46999998093E+01 0. -1.
</event>
<event>
 5   0  0.2422436E-06  0.1976613E+04  0.7818609E-02  0.8617634E-01
       -2   -1    0    0    0  501  0.00000000000E+00  0.00000000000E+00  0.73423302657E+03  0.73423302657E+03  0.25500000920E-02 0. -1.
        2   -1    0    0  501    0  0.00000000000E+00  0.00000000000E+00 -0.13302994226E+04  0.13302994226E+04  0.25500000920E-02 0.  1.
    10030    2    1    2    0    0  0.00000000000E+00  0.00000000000E+00 -0.59606639601E+03  0.20645324491E+04  0.19766130337E+04 0.  0.
        2    1    3    3  502    0 -0.91011200458E+03 -0.31645953637E+03 -0.52757952711E+03  0.10985402389E+04  0.25500000920E-02 0.  1.
       -2    1    3    3    0  502  0.91011200458E+03  0.31645953637E+03 -0.68486868895E+02  0.96599221025E+03  0.25500000920E-02 0. -1.
</event>
<event>
 5   0  0.2536619E-06  0.3690584E+04  0.7818609E-02  0.8070052E-01
       -2   -1    0    0    0  501  0.00000000000E+00  0.00000000000E+00  0.22990216491E+04  0.22990216491E+04  0.25500000920E-02 0.  1.
        2   -1    0    0  501    0  0.00000000000E+00  0.00000000000E+00 -0.14811096546E+04  0.14811096546E+04  0.25500000920E-02 0. -1.
    10030    2    1    2    0    0  0.00000000000E+00  0.00000000000E+00  0.81791199449E+03  0.37801313036E+04  0.36905843226E+04 0.  0.
        1    1    3    3  502    0  0.11450249127E+03  0.18413472269E+04  0.44772582766E+03  0.18984543311E+04  0.50400001928E-02 0.  1.
       -1    1    3    3    0  502 -0.11450249127E+03 -0.18413472269E+04  0.37018616682E+03  0.18816769725E+04  0.50400001928E-02 0. -1.
</event>
<event>
 5   0  0.1513502E-06  0.3588658E+04  0.7818609E-02  0.8093095E-01
       -2   -1    0    0    0  501  0.00000000000E+00  0.00000000000E+00  0.11951560772E+04  0.11951560772E+04  0.25500000920E-02 0. -1.
        2   -1    0    0  501    0  0.00000000000E+00  0.00000000000E+00 -0.26938880614E+04  0.26938880614E+04  0.25500000920E-02 0.  1.
    10030    2    1    2    0    0  0.00000000000E+00  0.00000000000E+00 -0.14987319841E+04  0.38890441386E+04  0.35886580711E+04 0.  0.
        3    1    3    3  502    0  0.14997681089E+04 -0.95707272430E+03 -0.49678128528E+03  0.18471827835E+04  0.10100000352E+00 0.  1.
       -3    1    3    3    0  502 -0.14997681089E+04  0.95707272430E+03 -0.10019506989E+04  0.20418613550E+04  0.10100000352E+00 0. -1.
</event>
<event>
 5   0  0.2382711E-06  0.3403918E+04  0.7818609E-02  0.8136945E-01
        2   -1    0    0  501    0  0.00000000000E+00  0.00000000000E+00  0.13035944727E+04  0.13035944727E+04  0.25500000920E-02 0.  1.
       -2   -1    0    0    0  501  0.00000000000E+00  0.00000000000E+00 -0.22220590700E+04  0.22220590700E+04  0.25500000920E-02 0. -1.
    10030    2    1    2    0    0  0.00000000000E+00  0.00000000000E+00 -0.91846459737E+03  0.35256535427E+04  0.34039176968E+04 0.  0.
        5    1    3    3  502    0  0.56321260010E+03 -0.10516662054E+04  0.79802906840E+03  0.14352988276E+04  0.46999998093E+01 0.  1.
       -5    1    3    3    0  502 -0.56321260010E+03  0.10516662054E+04 -0.17164936658E+04  0.20903547151E+04  0.46999998093E+01 0. -1.
</event>
<event>
 5   0  0.8423692E-07  0.3222963E+04  0.7818609E-02  0.8182779E-01
       -1   -1    0    0    0  501  0.00000000000E+00  0.00000000000E+00  0.21374295910E+04  0.21374295910E+04  0.50400001928E-02 0.  1.
        1   -1    0    0  501    0  0.00000000000E+00  0.00000000000E+00 -0.12149515307E+04  0.12149515307E+04  0.50400001928E-02 0. -1.
    10030    2    1    2    0    0  0.00000000000E+00  0.00000000000E+00  0.92247806033E+03  0.33523811217E+04  0.32229634521E+04 0.  0.
        2    1    3    3  502    0 -0.10882275039E+04  0.56073150737E+03  0.15512768803E+04  0.19761373644E+04  0.25500000920E-02 0.  1.
       -2    1    3    3    0  502  0.10882275039E+04 -0.56073150737E+03 -0.62879882000E+03  0.13762437573E+04  0.25500000920E-02 0. -1.
</event>
<event>
 5   0  0.1566576E-06  0.3441103E+04  0.7818609E-02  0.8127891E-01
       -2   -1    0    0    0  501  0.00000000000E+00  0.00000000000E+00  0.15125607734E+04  0.15125607734E+04  0.25500000920E-02 0.  1.
        2   -1    0    0  501    0  0.00000000000E+00  0.00000000000E+00 -0.19571433310E+04  0.19571433310E+04  0.25500000920E-02 0. -1.
    10030    2    1    2    0    0  0.00000000000E+00  0.00000000000E+00 -0.44458255768E+03  0.34697041044E+04  0.34411034453E+04 0.  0.
        4    1    3    3  502    0  0.14582869728E+04 -0.67905865605E+03  0.39317123124E+03  0.16559911786E+04  0.12699999809E+01 0.  1.
       -4    1    3    3    0  502 -0.14582869728E+04  0.67905865605E+03 -0.83775378892E+03  0.18137129258E+04  0.12699999809E+01 0. -1.
</event>
<event>
 5   0  0.2536619E-06  0.2174765E+04  0.7818609E-02  0.8529005E-01
       -2   -1    0    0    0  501  0.00000000000E+00  0.00000000000E+00  0.90500225982E+03  0.90500225982E+03  0.25500000920E-02 0. -1.
        2   -1    0    0  501    0  0.00000000000E+00  0.00000000000E+00 -0.13065169796E+04  0.13065169796E+04  0.25500000920E-02 0.  1.
    10030    2    1    2    0    0  0.00000000000E+00  0.00000000000E+00 -0.40151471976E+03  0.22115192394E+04  0.21747651083E+04 0.  0.
        1    1    3    3  502    0 -0.87725527435E+03 -0.59461269169E+03 -0.44830470386E+03  0.11507033401E+04  0.50400001928E-02 0.  1.
       -1    1    3    3    0  502  0.87725527435E+03  0.59461269169E+03  0.46789984105E+02  0.10608158993E+04  0.50400001928E-02 0. -1.
</event>
<event>
 5   0  0.7754556E-07  0.2942557E+04  0.7818609E-02  0.8260327E-01
        1   -1    0    0  501    0  0.00000000000E+00  0.00000000000E+00  0.23954792811E+04  0.23954792811E+04  0.50400001928E-02 0.  1.
       -1   -1    0    0    0  501  0.00000000000E+00  0.00000000000E+00 -0.90364375916E+03  0.90364375918E+03  0.50400001928E-02 0. -1.
    10030    2    1    2    0    0  0.00000000000E+00  0.00000000000E+00  0.14918355220E+04  0.32991230403E+04  0.29425566453E+04 0.  0.
        4    1    3    3  502    0 -0.11183317096E+04 -0.44984718596E+03 -0.19988548642E+03  0.12218772950E+04  0.12699999809E+01 0. -1.
       -4    1    3    3    0  502  0.11183317096E+04  0.44984718596E+03  0.16917210084E+04  0.20772457453E+04  0.12699999809E+01 0.  1.
</event>
<event>
 5   0  0.8452742E-07  0.2747311E+04  0.7818609E-02  0.8319815E-01
        1   -1    0    0  501    0  0.00000000000E+00  0.00000000000E+00  0.18957398988E+04  0.18957398988E+04  0.50400001928E-02 0.  1.
       -1   -1    0    0    0  501  0.00000000000E+00  0.00000000000E+00 -0.99535254471E+03  0.99535254472E+03  0.50400001928E-02 0. -1.
    10030    2    1    2    0    0  0.00000000000E+00  0.00000000000E+00  0.90038735406E+03  0.28910924435E+04  0.27473110726E+04 0.  0.
        1    1    3    3  502    0  0.23216737280E+02  0.12087685031E+04 -0.23606226533E+03  0.12318221073E+04  0.50400001928E-02 0. -1.
       -1    1    3    3    0  502 -0.23216737280E+02 -0.12087685031E+04  0.11364496194E+04  0.16592703362E+04  0.50400001928E-02 0.  1.
</event>
<event>
 5   0  0.2382711E-06  0.3590517E+04  0.7818609E-02  0.8092667E-01
        2   -1    0    0  501    0  0.00000000000E+00  0.00000000000E+00  0.25881849149E+04  0.25881849149E+04  0.25500000920E-02 0. -1.
       -2   -1    0    0    0  501  0.00000000000E+00  0.00000000000E+00 -0.12452559343E+04  0.12452559343E+04  0.25500000920E-02 0.  1.
    10030    2    1    2    0    0  0.00000000000E+00  0.00000000000E+00  0.13429289807E+04  0.38334408492E+04  0.35905167452E+04 0.  0.
        5    1    3    3  502    0 -0.15588632300E+04 -0.88168688422E+03  0.80440475213E+03  0.19632919871E+04  0.46999998093E+01 0. -1.
       -5    1    3    3    0  502  0.15588632300E+04  0.88168688422E+03  0.53852422855E+03  0.18701488621E+04  0.46999998093E+01 0.  1.
</event>
<event>
 5   0  0.2382711E-06  0.3578248E+04  0.7818609E-02  0.8095493E-01
        2   -1    0    0  501    0  0.00000000000E+00  0.00000000000E+00  0.31606021015E+04  0.31606021015E+04  0.25500000920E-02 0. -1.
       -2   -1    0    0    0  501  0.00000000000E+00  0.00000000000E+00 -0.10127702897E+04  0.10127702897E+04  0.25500000920E-02 0.  1.
    10030    2    1    2    0    0  0.00000000000E+00  0.00000000000E+00  0.21478318119E+04  0.41733723912E+04  0.35782475632E+04 0.  0.
        5    1    3    3  502    0 -0.10118630903E+04  0.10130182934E+04 -0.17729254831E+03  0.14427500525E+04  0.46999998093E+01 0.  1.
       -5    1    3    3    0  502  0.10118630903E+04 -0.10130182934E+04  0.23251243602E+04  0.27306223387E+04  0.46999998093E+01 0. -1.
</event>
<event>
 5   0  0.1513502E-06  0.3640679E+04  0.7818609E-02  0.8081237E-01
       -2   -1    0    0    0  501  0.00000000000E+00  0.00000000000E+00  0.15701384938E+04  0.15701384938E+04  0.25500000920E-02 0. -1.
        2   -1    0    0  501    0  0.00000000000E+00  0.00000000000E+00 -0.21104097405E+04  0.21104097405E+04  0.25500000920E-02 0.  1.
    10030    2    1    2    0    0  0.00000000000E+00  0.00000000000E+00 -0.54027124674E+03  0.36805482343E+04  0.36406788220E+04 0.  0.
        3    1    3    3  502    0  0.76891816054E+03  0.39963082250E+02  0.13974138401E+04  0.15954929133E+04  0.10100000352E+00 0. -1.
       -3    1    3    3    0  502 -0.76891816054E+03 -0.39963082250E+02 -0.19376850869E+04  0.20850553210E+04  0.10100000352E+00 0.  1.
</event>
<event>
 5   0  0.1634374E-06  0.2122809E+04  0.7818609E-02  0.8551262E-01
        1   -1    0    0  501    0  0.00000000000E+00  0.00000000000E+00  0.16485634821E+04  0.16485634821E+04  0.50400001928E-02 0. -1.
       -1   -1    0    0    0  501  0.00000000000E+00  0.00000000000E+00 -0.68337057173E+03  0.68337057175E+03  0.50400001928E-02 0.  1.
    10030    2    1    2    0    0  0.00000000000E+00  0.00000000000E+00  0.96519291036E+03  0.23319340539E+04  0.21228092419E+04 0.  0.
        5    1    3    3  502    0  0.20115882194E+02 -0.93510858259E+03  0.10337447184E+04  0.13940885707E+04  0.46999998093E+01 0. -1.
       -5    1    3    3    0  502 -0.20115882194E+02  0.93510858259E+03 -0.68551808072E+02  0.93784548319E+03  0.46999998093E+01 0.  1.
</event>
<event>
 5   0  0.8452742E-07  0.3619704E+04  0.7818609E-02  0.8085993E-01
       -1   -1    0    0    0  501  0.00000000000E+00  0.00000000000E+00  0.18081851970E+04  0.18081851970E+04  0.50400001928E-02 0.  1.
        1   -1    0    0  501    0  0.00000000000E+00  0.00000000000E+00 -0.18115204651E+04  0.18115204651E+04  0.50400001928E-02 0. -1.
    10030    2    1    2    0    0  0.00000000000E+00  0.00000000000E+00 -0.33352681681E+01  0.36197056621E+04  0.36197041255E+04 0.  0.
        1    1    3    3  502    0  0.12821401175E+04 -0.22612216309E+02  0.12755055260E+04  0.18086760185E+04  0.50400001928E-02 0.  1.
       -1    1    3    3    0  502 -0.12821401175E+04  0.22612216309E+02 -0.12788407941E+04  0.18110296436E+04  0.50400001928E-02 0. -1.
</event>
<event>
 5   0  0.1908273E-06  0.3574543E+04  0.7818609E-02  0.8096348E-01
        1   -1    0    0  501    0  0.00000000000E+00  0.00000000000E+00  0.25207485976E+04  0.25207485976E+04  0.50400001928E-02 0. -1.
       -1   -1    0    0    0  501  0.00000000000E+00  0.00000000000E+00 -0.12672187541E+04  0.12672187541E+04  0.50400001928E-02 0.  1.
    10030    2    1    2    0    0  0.00000000000E+00  0.00000000000E+00  0.12535298435E+04  0.37879673517E+04  0.35745432700E+04 0.  0.
        3    1    3    3  502    0  0.14066542451E+04 -0.61353029474E+03 -0.34403530376E+03  0.15727224448E+04  0.10100000352E+00 0.  1.
       -3    1    3    3    0  502 -0.14066542451E+04  0.61353029474E+03  0.15975651472E+04  0.22152449069E+04  0.10100000352E+00 0. -1.
</event>
<event>
 5   0  0.7754556E-07  0.3599890E+04  0.7818609E-02  0.8090517E-01
       -1   -1    0    0    0  501  0.00000000000E+00  0.00000000000E+00  0.14463965424E+04  0.14463965425E+04  0.50400001928E-02 0. -1.
        1   -1    0    0  501    0  0.00000000000E+00  0.00000000000E+00 -0.22399121915E+04  0.22399121916E+04  0.50400001928E-02 0.  1.
    10030    2    1    2    0    0  0.00000000000E+00  0.00000000000E+00 -0.79351564911E+03  0.36863087340E+04  0.35998895812E+04 0.  0.
        4    1    3    3  502    0 -0.76096976463E+03 -0.59285603606E+02 -0.20659850281E+04  0.22024725911E+04  0.12699999809E+01 0.  1.
       -4    1    3    3    0  502  0.76096976463E+03  0.59285603606E+02  0.12724693790E+04  0.14838361429E+04  0.12699999809E+01 0. -1.
</event>
<event>
 5   0  0.2422436E-06  0.3478684E+04  0.7818609E-02  0.8118860E-01
        2   -1    0    0  501    0  0.00000000000E+00  0.00000000000E+00  0.23521963008E+04  0.23521963008E+04  0.25500000920E-02 0. -1.
       -2   -1    0    0    0  501  0.00000000000E+00  0.00000000000E+00 -0.12861643201E+04  0.12861643201E+04  0.25500000920E-02 0.  1.
    10030    2    1    2    0    0  0.00000000000E+00  0.00000000000E+00  0.10660319807E+04  0.36383606209E+04  0.34786842087E+04 0.  0.
        2    1    3    3  502    0 -0.33541450534E+03 -0.15023875836E+04  0.13798988241E+04  0.20673151928E+04  0.25500000920E-02 0.  1.
       -2    1    3    3    0  502  0.33541450534E+03  0.15023875836E+04 -0.31386684345E+03  0.15710454281E+04  0.25500000920E-02 0. -1.
</event>
<event>
 5   0  0.1566576E-06  0.3344476E+04  0.7818609E-02  0.8151670E-01
       -2   -1    0    0    0  501  0.00000000000E+00  0.00000000000E+00  0.92037933134E+03  0.92037933135E+03  0.25500000920E-02 0.  1.
        2   -1    0    0  501    0  0.00000000000E+00  0.00000000000E+00 -0.30382902661E+04  0.30382902661E+04  0.25500000920E-02 0. -1.
    10030    2    1    2    0    0  0.00000000000E+00  0.00000000000E+00 -0.21179109347E+04  0.39586695974E+04  0.33444757817E+04 0.  0.
        4    1    3    3  502    0 -0.10603465704E+04 -0.20143333351E+03  0.45290058227E+03  0.11704831428E+04  0.12699999809E+01 0.  1.
       -4    1    3    3    0  502  0.10603465704E+04  0.20143333351E+03 -0.25708115170E+04  0.27881864547E+04  0.12699999809E+01 0. -1.
</event>
<event>
 5   0  0.7707500E-07  0.3608824E+04  0.7818609E-02  0.8088473E-01
        3   -1    0    0  501    0  0.00000000000E+00  0.00000000000E+00  0.19062912658E+04  0.19062912685E+04  0.10100000352E+00 0. -1.
       -3   -1    0    0    0  501  0.00000000000E+00  0.00000000000E+00 -0.17079774868E+04  0.17079774898E+04  0.10100000352E+00 0.  1.
    10030    2    1    2    0    0  0.00000000000E+00  0.00000000000E+00  0.19831377900E+03  0.36142687582E+04  0.36088239500E+04 0.  0.
        4    1    3    3  502    0  0.53179910795E+03  0.13924722826E+04 -0.91929016186E+03  0.17512525128E+04  0.12699999809E+01 0.  1.
       -4    1    3    3    0  502 -0.53179910795E+03 -0.13924722826E+04  0.11176039409E+04  0.18630162454E+04  0.12699999809E+01 0. -1.
</event>
<event>
 5   0  0.2382711E-06  0.2046187E+04  0.7818609E-02  0.8585326E-01
        2   -1    0    0  501    0  0.00000000000E+00  0.00000000000E+00  0.26017792777E+04  0.26017792777E+04  0.25500000920E-02 0. -1.
       -2   -1    0    0    0  501  0.00000000000E+00  0.00000000000E+00 -0.40230960443E+03  0.40230960444E+03  0.25500000920E-02 0.  1.
    10030    2    1    2    0    0  0.00000000000E+00  0.00000000000E+00  0.21994696732E+04  0.30040888821E+04  0.20461874714E+04 0.  0.
        5    1    3    3  502    0 -0.56494067238E+03 -0.74939796589E+03  0.50167121728E+03  0.10641669863E+04  0.46999998093E+01 0.  1.
       -5    1    3    3    0  502  0.56494067238E+03  0.74939796589E+03  0.16977984560E+04  0.19399218958E+04  0.46999998093E+01 0. -1.
</event>
<event>
 5   0  0.8452742E-07  0.3706513E+04  0.7818609E-02  0.8066520E-01
       -1   -1    0    0    0  501  0.00000000000E+00  0.00000000000E+00  0.20594183549E+04  0.20594183549E+04  0.50400001928E-02 0.  1.
        1   -1    0    0  501    0  0.00000000000E+00  0.00000000000E+00 -0.16677327852E+04  0.16677327852E+04  0.50400001928E-02 0. -1.
    10030    2    1    2    0    0  0.00000000000E+00  0.00000000000E+00  0.39168556972E+03  0.37271511401E+04  0.37065129213E+04 0.  0.
        1    1    3    3  502    0  0.10557520560E+03 -0.75564549877E+03 -0.15024701194E+04  0.16851002058E+04  0.50400001928E-02 0. -1.
       -1    1    3    3    0  502 -0.10557520560E+03  0.75564549877E+03  0.18941556891E+04  0.20420509343E+04  0.50400001928E-02 0.  1.
</event>
<event>
 5   0  0.2422436E-06  0.2042751E+04  0.7818609E-02  0.8586890E-01
        2   -1    0    0  501    0  0.00000000000E+00  0.00000000000E+00  0.12823133464E+04  0.12823133464E+04  0.25500000920E-02 0.  1.
       -2   -1    0    0    0  501  0.00000000000E+00  0.00000000000E+00 -0.81353598389E+03  0.81353598389E+03  0.25500000920E-02 0. -1.
    10030    2    1    2    0    0  0.00000000000E+00  0.00000000000E+00  0.46877736247E+03  0.20958493303E+04  0.20427511350E+04 0.  0.
        2    1    3    3  502    0 -0.75950249949E+03 -0.48349186309E+02 -0.46451273985E+03  0.89160180352E+03  0.25500000920E-02 0. -1.
       -2    1    3    3    0  502  0.75950249949E+03  0.48349186309E+02  0.93329010232E+03  0.12042475267E+04  0.25500000920E-02 0.  1.
</event>
<event>
 5   0  0.2536619E-06  0.3550403E+04  0.7818609E-02  0.8101948E-01
       -2   -1    0    0    0  501  0.00000000000E+00  0.00000000000E+00  0.23186870818E+04  0.23186870818E+04  0.25500000920E-02 0. -1.
        2   -1    0    0  501    0  0.00000000000E+00  0.00000000000E+00 -0.13591055122E+04  0.13591055122E+04  0.25500000920E-02 0.  1.
    10030    2    1    2    0    0  0.00000000000E+00  0.00000000000E+00  0.95958156958E+03  0.36777925941E+04  0.35504030160E+04 0.  0.
        1    1    3    3  502    0  0.10044332717E+04 -0.61418024998E+03  0.18560843158E+04  0.21979882993E+04  0.50400001928E-02 0. -1.
       -1    1    3    3    0  502 -0.10044332717E+04  0.61418024998E+03 -0.89650274620E+03  0.14798042947E+04  0.50400001928E-02 0.  1.
</event>
<event>
 5   0  0.7754556E-07  0.3457692E+04  0.7818609E-02  0.8123890E-01
       -1   -1    0    0    0  501  0.00000000000E+00  0.00000000000E+00  0.15441379035E+04  0.15441379036E+04  0.50400001928E-02 0. -1.
        1   -1    0    0  501    0  0.00000000000E+00  0.00000000000E+00 -0.19356481657E+04  0.19356481657E+04  0.50400001928E-02 0.  1.
    10030    2    1    2    0    0  0.00000000000E+00  0.00000000000E+00 -0.39151026211E+03  0.34797860692E+04  0.34576915424E+04 0.  0.
        4    1    3    3  502    0  0.40852427999E+03  0.12551385119E+04  0.92791039149E+03  0.16134695780E+04  0.12699999809E+01 0.  1.
       -4    1    3    3    0  502 -0.40852427999E+03 -0.12551385119E+04 -0.13194206536E+04  0.18663164913E+04  0.12699999809E+01 0. -1.
</event>
<event>
 5   0  0.2422436E-06  0.3335762E+04  0.7818609E-02  0.8153855E-01
        2   -1    0    0  501    0  0.00000000000E+00  0.00000000000E+00  0.88971232774E+03  0.88971232774E+03  0.25500000920E-02 0.  1.
       -2   -1    0    0    0  501  0.00000000000E+00  0.00000000000E+00 -0.31266592297E+04  0.31266592297E+04  0.25500000920E-02 0. -1.
    10030    2    1    2    0    0  0.00000000000E+00  0.00000000000E+00 -0.22369469020E+04  0.40163715575E+04  0.33357621386E+04 0.  0.
        2    1    3    3  502    0  0.51050185956E+03 -0.80457481030E+03  0.52972331253E+03  0.10902107878E+04  0.25500000920E-02 0.  1.
       -2    1    3    3    0  502 -0.51050185956E+03  0.80457481030E+03 -0.27666702145E+04  0.29261607696E+04  0.25500000920E-02 0. -1.
</event>
<event>
 5   0  0.8423692E-07  0.3406080E+04  0.7818609E-02  0.8136416E-01
        1   -1    0    0  501    0  0.00000000000E+00  0.00000000000E+00  0.21224455447E+04  0.21224455447E+04  0.50400001928E-02 0. -1.
       -1   -1    0    0    0  501  0.00000000000E+00  0.00000000000E+00 -0.13665110762E+04  0.13665110762E+04  0.50400001928E-02 0.  1.
    10030    2    1    2    0    0  0.00000000000E+00  0.00000000000E+00  0.75593446850E+03  0.34889566210E+04  0.34060800611E+04 0.  0.
        2    1    3    3  502    0  0.67288539126E+03  0.87997889460E+03  0.17029665389E+04  0.20315591641E+04  0.25500000920E-02 0. -1.
       -2    1    3    3    0  502 -0.67288539126E+03 -0.87997889460E+03 -0.94703207043E+03  0.14573974568E+04  0.25500000920E-02 0.  1.
</event>
<event>
 5   0  0.8452742E-07  0.3611857E+04  0.7818609E-02  0.8087781E-01
       -1   -1    0    0    0  501  0.00000000000E+00  0.00000000000E+00  0.30449769361E+04  0.30449769361E+04  0.50400001928E-02 0. -1.
        1   -1    0    0  501    0  0.00000000000E+00  0.00000000000E+00 -0.10710680057E+04  0.10710680058E+04  0.50400001928E-02 0.  1.
    10030    2    1    2    0    0  0.00000000000E+00  0.00000000000E+00  0.19739089303E+04  0.41160449418E+04  0.36118567937E+04 0.  0.
        1    1    3    3  502    0  0.29852359985E+03 -0.11321253227E+04  0.25538644463E+04  0.28094568329E+04  0.50400001928E-02 0. -1.
       -1    1    3    3    0  502 -0.29852359985E+03  0.11321253227E+04 -0.57995551595E+03  0.13065881089E+04  0.50400001928E-02 0.  1.
</event>
<event>
 5   0  0.1513502E-06  0.3610973E+04  0.7818609E-02  0.8087983E-01
        2   -1    0    0  501    0  0.00000000000E+00  0.00000000000E+00  0.24111237685E+04  0.24111237685E+04  0.25500000920E-02 0.  1.
       -2   -1    0    0    0  501  0.00000000000E+00  0.00000000000E+00 -0.13519759251E+04  0.13519759251E+04  0.25500000920E-02 0. -1.
    10030    2    1    2    0    0  0.00000000000E+00  0.00000000000E+00  0.10591478433E+04  0.37630996936E+04  0.36109728814E+04 0.  0.
        3    1    3    3  502    0  0.18025259326E+04 -0.92984701575E+02  0.48255802182E+03  0.18683169290E+04  0.10100000352E+00 0. -1.
       -3    1    3    3    0  502 -0.18025259326E+04  0.92984701575E+02  0.57658982153E+03  0.18947827646E+04  0.10100000352E+00 0.  1.
</event>
<event>
 5   0  0.2422436E-06  0.3576882E+04  0.7818609E-02  0.8095808E-01
        2   -1    0    0  501    0  0.00000000000E+00  0.00000000000E+00  0.10004160999E+04  0.10004160999E+04  0.25500000920E-02 0.  1.
       -2   -1    0    0    0  501  0.00000000000E+00  0.00000000000E+00 -0.31971907130E+04  0.31971907130E+04  0.25500000920E-02 0. -1.
    10030    2    1    2    0    0  0.00000000000E+00  0.00000000000E+00 -0.21967746131E+04  0.41976068129E+04  0.35768819179E+04 0.  0.
        2    1    3    3  502    0 -0.11807682138E+04  0.42989840922E+03  0.39504980091E+03  0.13172283637E+04  0.25500000920E-02 0.  1.
       -2    1    3    3    0  502  0.11807682138E+04 -0.42989840922E+03 -0.25918244140E+04  0.28803784491E+04  0.25500000920E-02 0. -1.
</event>
<event>
 5   0  0.1634374E-06  0.3578389E+04  0.7818609E-02  0.8095460E-01
       -1   -1    0    0    0  501  0.00000000000E+00  0.00000000000E+00  0.10644347359E+04  0.10644347359E+04  0.50400001928E-02 0. -1.
        1   -1    0    0  501    0  0.00000000000E+00  0.00000000000E+00 -0.30074342255E+04  0.30074342255E+04  0.50400001928E-02 0.  1.
    10030    2    1    2    0    0  0.00000000000E+00  0.00000000000E+00 -0.19429994896E+04  0.40718689614E+04  0.35783892776E+04 0.  0.
        5    1    3    3  502    0  0.11161457702E+04  0.11985202384E+02  0.61964473234E+03  0.12766779977E+04  0.46999998093E+01 0. -1.
       -5    1    3    3    0  502 -0.11161457702E+04 -0.11985202384E+02 -0.25626442220E+04  0.27951909637E+04  0.46999998093E+01 0.  1.
</event>
<event>
 5   0  0.2382711E-06  0.3990862E+04  0.7818609E-02  0.8006392E-01
        2   -1    0    0  501    0  0.00000000000E+00  0.00000000000E+00  0.23129783905E+04  0.23129783905E+04  0.25500000920E-02 0. -1.
       -2   -1    0    0    0  501  0.00000000000E+00  0.00000000000E+00 -0.17214797997E+04  0.17214797997E+04  0.25500000920E-02 0.  1.
    10030    2    1    2    0    0  0.00000000000E+00  0.00000000000E+00  0.59149859083E+03  0.40344581903E+04  0.39908623512E+04 0.  0.
        5    1    3    3  502    0 -0.17681885402E+04  0.12908812268E+03  0.12214868448E+04  0.21529530090E+04  0.46999998093E+01 0. -1.
       -5    1    3    3    0  502  0.17681885402E+04 -0.12908812268E+03 -0.62998825395E+03  0.18815051813E+04  0.46999998093E+01 0.  1.
</event>
<event>
 5   0  0.7754556E-07  0.3037524E+04  0.7818609E-02  0.8233096E-01
       -1   -1    0    0    0  501  0.00000000000E+00  0.00000000000E+00  0.18989312604E+04  0.18989312604E+04  0.50400001928E-02 0. -1.
        1   -1    0    0  501    0  0.00000000000E+00  0.00000000000E+00 -0.12147031053E+04  0.12147031053E+04  0.50400001928E-02 0.  1.
    10030    2    1    2    0    0  0.00000000000E+00  0.00000000000E+00  0.68422815506E+03  0.31136343657E+04  0.30375237934E+04 0.  0.
        4    1    3    3  502    0  0.13179717366E+04  0.66396118167E+03 -0.25683004991E+02  0.14759929467E+04  0.12699999809E+01 0. -1.
       -4    1    3    3    0  502 -0.13179717366E+04 -0.66396118167E+03  0.70991116005E+03  0.16376414190E+04  0.12699999809E+01 0.  1.
</event>
<event>
 5   0  0.2422436E-06  0.3502574E+04  0.7818609E-02  0.8113180E-01
       -2   -1    0    0    0  501  0.00000000000E+00  0.00000000000E+00  0.13890124459E+04  0.13890124459E+04  0.25500000920E-02 0. -1.
        2   -1    0    0  501    0  0.00000000000E+00  0.00000000000E+00 -0.22080485652E+04  0.22080485652E+04  0.25500000920E-02 0.  1.
    10030    2    1    2    0    0  0.00000000000E+00  0.00000000000E+00 -0.81903611933E+03  0.35970610111E+04  0.35025744464E+04 0.  0.
        2    1    3    3  502    0  0.31003131606E+03  0.75032883424E+03 -0.20031173442E+04  0.21613865621E+04  0.25500000920E-02 0.  1.
       -2    1    3    3    0  502 -0.31003131606E+03 -0.75032883424E+03  0.11840812248E+04  0.14356744490E+04  0.25500000920E-02 0. -1.
</event>
<event>
 5   0  0.7754556E-07  0.3607885E+04  0.7818609E-02  0.8088688E-01
       -1   -1    0    0    0  501  0.00000000000E+00  0.00000000000E+00  0.10424521361E+04  0.10424521361E+04  0.50400001928E-02 0.  1.
        1   -1    0    0  501    0  0.00000000000E+00  0.00000000000E+00 -0.31216861239E+04  0.31216861239E+04  0.50400001928E-02 0. -1.
    10030    2    1    2    0    0  0.00000000000E+00  0.00000000000E+00 -0.20792339879E+04  0.41641382600E+04  0.36078849028E+04 0.  0.
        4    1    3    3  502    0  0.11944345624E+04 -0.23830255588E+03  0.49623881435E+03  0.13151869091E+04  0.12699999809E+01 0.  1.
       -4    1    3    3    0  502 -0.11944345624E+04  0.23830255588E+03 -0.25754728022E+04  0.28489513509E+04  0.12699999809E+01 0. -1.
</event>
<event>
 5   0  0.1513502E-06  0.3693831E+04  0.7818609E-02  0.8069330E-01
        2   -1    0    0  501    0  0.00000000000E+00  0.00000000000E+00  0.24800064340E+04  0.24800064340E+04  0.25500000920E-02 0.  1.
       -2   -1    0    0    0  501  0.00000000000E+00  0.00000000000E+00 -0.13754388595E+04  0.13754388595E+04  0.25500000920E-02 0. -1.
    10030    2    1    2    0    0  0.00000000000E+00  0.00000000000E+00  0.11045675745E+04  0.38554452935E+04  0.36938311933E+04 0.  0.
        3    1    3    3  502    0  0.80415445559E+03  0.34483727225E+03  0.22499528392E+04  0.24140971234E+04  0.10100000352E+00 0.  1.
       -3    1    3    3    0  502 -0.80415445559E+03 -0.34483727225E+03 -0.11453852646E+04  0.14413481701E+04  0.10100000352E+00 0. -1.
</event>
<event>
 5   0  0.8452742E-07  0.3653946E+04  0.7818609E-02  0.8078245E-01
       -1   -1    0    0    0  501  0.00000000000E+00  0.00000000000E+00  0.19039508466E+04  0.19039508466E+04  0.50400001928E-02 0.  1.
        1   -1    0    0  501    0  0.00000000000E+00  0.00000000000E+00 -0.17531071196E+04  0.17531071196E+04  0.50400001928E-02 0. -1.
    10030    2    1    2    0    0  0.00000000000E+00  0.00000000000E+00  0.15084372698E+03  0.36570579663E+04  0.36539456946E+04 0.  0.
        1    1    3    3  502    0  0.15784742618E+04  0.88106145208E+03  0.34018358466E+03  0.18394496864E+04  0.50400001928E-02 0.  1.
       -1    1    3    3    0  502 -0.15784742618E+04 -0.88106145208E+03 -0.18933985768E+03  0.18176082799E+04  0.50400001928E-02 0. -1.
</event>
<event>
 5   0  0.7707500E-07  0.3905427E+04  0.7818609E-02  0.8023902E-01
        3   -1    0    0  501    0  0.00000000000E+00  0.00000000000E+00  0.18685886759E+04  0.18685886786E+04  0.10100000352E+00 0. -1.
       -3   -1    0    0    0  501  0.00000000000E+00  0.00000000000E+00 -0.20406252377E+04  0.20406252402E+04  0.10100000352E+00 0.  1.
    10030    2    1    2    0    0  0.00000000000E+00  0.00000000000E+00 -0.17203656184E+03  0.39092139188E+04  0.39054265945E+04 0.  0.
        5    1    3    3  502    0 -0.10359537141E+04 -0.26030969986E+03 -0.17222612355E+04  0.20266146873E+04  0.46999998093E+01 0.  1.
       -5    1    3    3    0  502  0.10359537141E+04  0.26030969986E+03  0.15502246737E+04  0.18825992315E+04  0.46999998093E+01 0. -1.
</event>
<event>
 5   0  0.1908273E-06  0.3625376E+04  0.7818609E-02  0.8084704E-01
        1   -1    0    0  501    0  0.00000000000E+00  0.00000000000E+00  0.26140838013E+04  0.26140838013E+04  0.50400001928E-02 0.  1.
       -1   -1    0    0    0  501  0.00000000000E+00  0.00000000000E+00 -0.12569751968E+04  0.12569751969E+04  0.50400001928E-02 0. -1.
    10030    2    1    2    0    0  0.00000000000E+00  0.00000000000E+00  0.13571086045E+04  0.38710589982E+04  0.36253763947E+04 0.  0.
        3    1    3    3  502    0 -0.53210652199E+03  0.16325246621E+04  0.58178305079E+02  0.17180392454E+04  0.10100000352E+00 0. -1.
       -3    1    3    3    0  502  0.53210652199E+03 -0.16325246621E+04  0.12989302994E+04  0.21530197528E+04  0.10100000352E+00 0.  1.
</event>
<event>
 5   0  0.2422436E-06  0.3710778E+04  0.7818609E-02  0.8065578E-01
       -2   -1    0    0    0  501  0.00000000000E+00  0.00000000000E+00  0.23496667692E+04  0.23496667692E+04  0.25500000920E-02 0.  1.
        2   -1    0    0  501    0  0.00000000000E+00  0.00000000000E+00 -0.14650875429E+04  0.14650875429E+04  0.25500000920E-02 0. -1.
    10030    2    1    2    0    0  0.00000000000E+00  0.00000000000E+00  0.88457922631E+03  0.38147543121E+04  0.37107775538E+04 0.  0.
        2    1    3    3  502    0  0.16665801588E+04 -0.19994272579E+03 -0.37043236770E+03  0.17189202012E+04  0.25500000920E-02 0. -1.
       -2    1    3    3    0  502 -0.16665801588E+04  0.19994272579E+03  0.12550115940E+04  0.20958341109E+04  0.25500000920E-02 0.  1.
</event>
<event>
 5   0  0.7754556E-07  0.2147325E+04  0.7818609E-02  0.8540678E-01
        1   -1    0    0  501    0  0.00000000000E+00  0.00000000000E+00  0.13799544708E+04  0.13799544708E+04  0.50400001928E-02 0.  1.
       -1   -1    0    0    0  501  0.00000000000E+00  0.00000000000E+00 -0.83535485357E+03  0.83535485359E+03  0.50400001928E-02 0. -1.
    10030    2    1    2    0    0  0.00000000000E+00  0.00000000000E+00  0.54459961723E+03  0.22153093244E+04  0.21473254666E+04 0.  0.
        4    1    3    3  502    0 -0.10633763806E+03 -0.90383142823E+03 -0.31541233858E+03  0.96317469867E+03  0.12699999809E+01 0.  1.
       -4    1    3    3    0  502  0.10633763806E+03  0.90383142823E+03  0.86001195580E+03  0.12521346257E+04  0.12699999809E+01 0. -1.
</event>
<event>
 5   0  0.2422436E-06  0.2414139E+04  0.7818609E-02  0.8434229E-01
       -2   -1    0    0    0  501  0.00000000000E+00  0.00000000000E+00  0.73942796486E+03  0.73942796486E+03  0.25500000920E-02 0.  1.
        2   -1    0    0  501    0  0.00000000000E+00  0.00000000000E+00 -0.19704640853E+04  0.19704640853E+04  0.25500000920E-02 0. -1.
    10030    2    1    2    0    0  0.00000000000E+00  0.00000000000E+00 -0.12310361204E+04  0.27098920502E+04  0.24141385614E+04 0.  0.
        2    1    3    3  502    0 -0.24128914104E+03 -0.11622931475E+03 -0.19366908050E+04  0.19551217295E+04  0.25500000920E-02 0. -1.
       -2    1    3    3    0  502  0.24128914104E+03  0.11622931475E+03  0.70565468450E+03  0.75477032067E+03  0.25500000920E-02 0.  1.
</event>
<event>
 5   0  0.2382711E-06  0.3639369E+04  0.7818609E-02  0.8081533E-01
        2   -1    0    0  501    0  0.00000000000E+00  0.00000000000E+00  0.28758150608E+04  0.28758150608E+04  0.25500000920E-02 0.  1.
       -2   -1    0    0    0  501  0.00000000000E+00  0.00000000000E+00 -0.11514135474E+04  0.11514135474E+04  0.25500000920E-02 0. -1.
    10030    2    1    2    0    0  0.00000000000E+00  0.00000000000E+00  0.17244015133E+04  0.40272286082E+04  0.36393694074E+04 0.  0.
        5    1    3    3  502    0 -0.11054155926E+03 -0.17062292020E+03 -0.11388001870E+04  0.11568144074E+04  0.46999998093E+01 0. -1.
       -5    1    3    3    0  502  0.11054155926E+03  0.17062292020E+03  0.28632017003E+04  0.28704142008E+04  0.46999998093E+01 0.  1.
</event>
<event>
 5   0  0.2382711E-06  0.3539289E+04  0.7818609E-02  0.8104542E-01
       -2   -1    0    0    0  501  0.00000000000E+00  0.00000000000E+00  0.14671505360E+04  0.14671505360E+04  0.25500000920E-02 0. -1.
        2   -1    0    0  501    0  0.00000000000E+00  0.00000000000E+00 -0.21345059159E+04  0.21345059159E+04  0.25500000920E-02 0.  1.
    10030    2    1    2    0    0  0.00000000000E+00  0.00000000000E+00 -0.66735537989E+03  0.36016564518E+04  0.35392889108E+04 0.  0.
        5    1    3    3  502    0 -0.14466463179E+04 -0.73512548886E+03  0.38475468878E+03  0.16677090016E+04  0.46999998093E+01 0. -1.
       -5    1    3    3    0  502  0.14466463179E+04  0.73512548886E+03 -0.10521100687E+04  0.19339474502E+04  0.46999998093E+01 0.  1.
</event>
<event>
 5   0  0.8423692E-07  0.3470336E+04  0.7818609E-02  0.8120856E-01
        1   -1    0    0  501    0  0.00000000000E+00  0.00000000000E+00  0.19290982582E+04  0.19290982582E+04  0.50400001928E-02 0. -1.
       -1   -1    0    0    0  501  0.00000000000E+00  0.00000000000E+00 -0.15607337136E+04  0.15607337136E+04  0.50400001928E-02 0.  1.
    10030    2    1    2    0    0  0.00000000000E+00  0.00000000000E+00  0.36836454458E+03  0.34898319718E+04  0.34703364036E+04 0.  0.
        2    1    3    3  502    0  0.17092458389E+04 -0.23166189240E+03 -0.56109153404E+01  0.17248826199E+04  0.25500000920E-02 0.  1.
       -2    1    3    3    0  502 -0.17092458389E+04  0.23166189240E+03  0.37397545992E+03  0.17649493519E+04  0.25500000920E-02 0. -1.
</event>
<event>
 5   0  0.8423692E-07  0.3642692E+04  0.7818609E-02  0.8080782E-01
        1   -1    0    0  501    0  0.00000000000E+00  0.00000000000E+00  0.19480266889E+04  0.19480266889E+04  0.50400001928E-02 0.  1.
       -1   -1    0    0    0  501  0.00000000000E+00  0.00000000000E+00 -0.17029033021E+04  0.17029033021E+04  0.50400001928E-02 0. -1.
    10030    2    1    2    0    0  0.00000000000E+00  0.00000000000E+00  0.24512338681E+03  0.36509299911E+04  0.36426919064E+04 0.  0.
        2    1    3    3  502    0 -0.90587379229E+03  0.34388835817E+03  0.16682668897E+04  0.19292436201E+04  0.25500000920E-02 0.  1.
       -2    1    3    3    0  502  0.90587379229E+03 -0.34388835817E+03 -0.14231435028E+04  0.17216863710E+04  0.25500000920E-02 0. -1.
</event>
<event>
 5   0  0.1634374E-06  0.3474229E+04  0.7818609E-02  0.8119925E-01
        1   -1    0    0  501    0  0.00000000000E+00  0.00000000000E+00  0.20318382412E+04  0.20318382412E+04  0.50400001928E-02 0. -1.
       -1   -1    0    0    0  501  0.00000000000E+00  0.00000000000E+00 -0.14851411846E+04  0.14851411846E+04  0.50400001928E-02 0.  1.
    10030    2    1    2    0    0  0.00000000000E+00  0.00000000000E+00  0.54669705668E+03  0.35169794258E+04  0.34742289231E+04 0.  0.
        5    1    3    3  502    0 -0.54962747602E+03  0.71566074482E+03  0.17759597454E+04  0.19920631947E+04  0.46999998093E+01 0. -1.
       -5    1    3    3    0  502  0.54962747602E+03 -0.71566074482E+03 -0.12292626888E+04  0.15249162312E+04  0.46999998093E+01 0.  1.
</event>
<event>
 5   0  0.8452742E-07  0.2726692E+04  0.7818609E-02  0.8326396E-01
       -1   -1    0    0    0  501  0.00000000000E+00  0.00000000000E+00  0.97750083120E+03  0.97750083121E+03  0.50400001928E-02 0.  1.
        1   -1    0    0  501    0  0.00000000000E+00  0.00000000000E+00 -0.19014946106E+04  0.19014946106E+04  0.50400001928E-02 0. -1.
    10030    2    1    2    0    0  0.00000000000E+00  0.00000000000E+00 -0.92399377936E+03  0.28789954418E+04  0.27266921809E+04 0.  0.
        1    1    3    3  502    0 -0.70504333351E+03  0.17083912928E+03 -0.16807865721E+04  0.18306598841E+04  0.50400001928E-02 0. -1.
       -1    1    3    3    0  502  0.70504333351E+03 -0.17083912928E+03  0.75679279278E+03  0.10483355577E+04  0.50400001928E-02 0.  1.
</event>
<event>
 5   0  0.1513502E-06  0.3576651E+04  0.7818609E-02  0.8095861E-01
        2   -1    0    0  501    0  0.00000000000E+00  0.00000000000E+00  0.20015343086E+04  0.20015343086E+04  0.25500000920E-02 0. -1.
       -2   -1    0    0    0  501  0.00000000000E+00  0.00000000000E+00 -0.15978286706E+04  0.15978286706E+04  0.25500000920E-02 0.  1.
    10030    2    1    2    0    0  0.00000000000E+00  0.00000000000E+00  0.40370563799E+03  0.35993629791E+04  0.35766514526E+04 0.  0.
        3    1    3    3  502    0  0.12475570524E+04  0.47908587698E+03  0.13977535539E+04  0.19338140769E+04  0.10100000352E+00 0. -1.
       -3    1    3    3    0  502 -0.12475570524E+04 -0.47908587698E+03 -0.99404791591E+03  0.16655489022E+04  0.10100000352E+00 0.  1.
</event>
<event>
 5   0  0.1634374E-06  0.3520075E+04  0.7818609E-02  0.8109049E-01
       -1   -1    0    0    0  501  0.00000000000E+00  0.00000000000E+00  0.16852795632E+04  0.16852795632E+04  0.50400001928E-02 0. -1.
        1   -1    0    0  501    0  0.00000000000E+00  0.00000000000E+00 -0.18381112795E+04  0.18381112795E+04  0.50400001928E-02 0.  1.
    10030    2    1    2    0    0  0.00000000000E+00  0.00000000000E+00 -0.15283171624E+03  0.35233908427E+04  0.35200746437E+04 0.  0.
        5    1    3    3  502    0  0.12767460850E+04  0.99244908606E+03 -0.77181746493E+03  0.17918593815E+04  0.46999998093E+01 0.  1.
       -5    1    3    3    0  502 -0.12767460850E+04 -0.99244908606E+03  0.61898574869E+03  0.17315314612E+04  0.46999998093E+01 0. -1.
</event>
<event>
 5   0  0.1566576E-06  0.2057902E+04  0.7818609E-02  0.8580018E-01
       -2   -1    0    0    0  501  0.00000000000E+00  0.00000000000E+00  0.53972537532E+03  0.53972537533E+03  0.25500000920E-02 0. -1.
        2   -1    0    0  501    0  0.00000000000E+00  0.00000000000E+00 -0.19616277872E+04  0.19616277872E+04  0.25500000920E-02 0.  1.
    10030    2    1    2    0    0  0.00000000000E+00  0.00000000000E+00 -0.14219024119E+04  0.25013531625E+04  0.20579021295E+04 0.  0.
        4    1    3    3  502    0  0.36175979975E+03 -0.39583244827E+03  0.35645479566E+03  0.64390613762E+03  0.12699999809E+01 0. -1.
       -4    1    3    3    0  502 -0.36175979975E+03  0.39583244827E+03 -0.17783572075E+04  0.18574470249E+04  0.12699999809E+01 0.  1.
</event>
<event>
 5   0  0.8452742E-07  0.1820799E+04  0.7818609E-02  0.8695316E-01
        1   -1    0    0  501    0  0.00000000000E+00  0.00000000000E+00  0.66961003910E+03  0.66961003912E+03  0.50400001928E-02 0. -1.
       -1   -1    0    0    0  501  0.00000000000E+00  0.00000000000E+00 -0.12377766282E+04  0.12377766282E+04  0.50400001928E-02 0.  1.
    10030    2    1    2    0    0  0.00000000000E+00  0.00000000000E+00 -0.56816658913E+03  0.19073866673E+04  0.18207994469E+04 0.  0.
        1    1    3    3  502    0 -0.56487297502E+03  0.20924476495E+03 -0.99915938352E+03  0.11666980429E+04  0.50400001928E-02 0.  1.
       -1    1    3    3    0  502  0.56487297502E+03 -0.20924476495E+03  0.43099279439E+03  0.74068862447E+03  0.50400001928E-02 0. -1.
</event>
<event>
 5   0  0.8423692E-07  0.3387541E+04  0.7818609E-02  0.8140971E-01
        1   -1    0    0  501    0  0.00000000000E+00  0.00000000000E+00  0.13239587424E+04  0.13239587424E+04  0.50400001928E-02 0. -1.
       -1   -1    0    0    0  501  0.00000000000E+00  0.00000000000E+00 -0.21668786628E+04  0.21668786628E+04  0.50400001928E-02 0.  1.
    10030    2    1    2    0    0  0.00000000000E+00  0.00000000000E+00 -0.84291992036E+03  0.34908374052E+04  0.33875406709E+04 0.  0.
        2    1    3    3  502    0 -0.83493089148E+03 -0.62445564796E+03  0.95408568596E+03  0.14132706556E+04  0.25500000920E-02 0. -1.
       -2    1    3    3    0  502  0.83493089148E+03  0.62445564796E+03 -0.17970056063E+04  0.20775667496E+04  0.25500000920E-02 0.  1.
</event>
<event>
 5   0  0.1566576E-06  0.3584513E+04  0.7818609E-02  0.8094048E-01
       -2   -1    0    0    0  501  0.00000000000E+00  0.00000000000E+00  0.13835495350E+04  0.13835495350E+04  0.25500000920E-02 0. -1.
        2   -1    0    0  501    0  0.00000000000E+00  0.00000000000E+00 -0.23216974685E+04  0.23216974685E+04  0.25500000920E-02 0.  1.
    10030    2    1    2    0    0  0.00000000000E+00  0.00000000000E+00 -0.93814793350E+03  0.37052470036E+04  0.35845130509E+04 0.  0.
        4    1    3    3  502    0 -0.82371100429E+03  0.14815867569E+04 -0.10705514624E+04  0.20049142584E+04  0.12699999809E+01 0.  1.
       -4    1    3    3    0  502  0.82371100429E+03 -0.14815867569E+04  0.13240352890E+03  0.17003327452E+04  0.12699999809E+01 0. -1.
</event>
<event>
 5   0  0.1513502E-06  0.3565743E+04  0.7818609E-02  0.8098384E-01
       -2   -1    0    0    0  501  0.00000000000E+00  0.00000000000E+00  0.25211108229E+04  0.25211108229E+04  0.25500000920E-02 0. -1.
        2   -1    0    0  501    0  0.00000000000E+00  0.00000000000E+00 -0.12608058179E+04  0.12608058179E+04  0.25500000920E-02 0.  1.
    10030    2    1    2    0    0  0.00000000000E+00  0.00000000000E+00  0.12603050049E+04  0.37819166408E+04  0.35657432286E+04 0.  0.
        3    1    3    3  502    0 -0.14009328726E+04  0.15754553105E+02 -0.53931352054E+03  0.15012395556E+04  0.10100000352E+00 0.  1.
       -3    1    3    3    0  502  0.14009328726E+04 -0.15754553105E+02  0.17996185255E+04  0.22806770852E+04  0.10100000352E+00 0. -1.
</event>
<event>
 5   0  0.2536619E-06  0.2654916E+04  0.7818609E-02  0.8349783E-01
       -2   -1    0    0    0  501  0.00000000000E+00  0.00000000000E+00  0.11726523239E+04  0.11726523239E+04  0.25500000920E-02 0. -1.
        2   -1    0    0  501    0  0.00000000000E+00  0.00000000000E+00 -0.15027004475E+04  0.15027004475E+04  0.25500000920E-02 0.  1.
    10030    2    1    2    0    0  0.00000000000E+00  0.00000000000E+00 -0.33004812368E+03  0.26753527714E+04  0.26549163240E+04 0.  0.
        1    1    3    3  502    0 -0.13123534283E+04  0.18905408176E+03 -0.22980111040E+03  0.13456676845E+04  0.50400001928E-02 0. -1.
       -1    1    3    3    0  502  0.13123534283E+04 -0.18905408176E+03 -0.10024701328E+03  0.13296850869E+04  0.50400001928E-02 0.  1.
</event>
<event>
 5   0  0.2536619E-06  0.1904936E+04  0.7818609E-02  0.8652403E-01
        2   -1    0    0  501    0  0.00000000000E+00  0.00000000000E+00  0.12726390328E+04  0.12726390328E+04  0.25500000920E-02 0. -1.
       -2   -1    0    0    0  501  0.00000000000E+00  0.00000000000E+00 -0.71284603006E+03  0.71284603007E+03  0.25500000920E-02 0.  1.
    10030    2    1    2    0    0  0.00000000000E+00  0.00000000000E+00  0.55979300275E+03  0.19854850629E+04  0.19049364108E+04 0.  0.
        1    1    3    3  502    0 -0.12087564270E+03 -0.35770587885E+03 -0.63151009457E+03  0.73577810264E+03  0.50400001928E-02 0.  1.
       -1    1    3    3    0  502  0.12087564270E+03  0.35770587885E+03  0.11913030973E+04  0.12497069602E+04  0.50400001928E-02 0. -1.
</event>
<event>
 5   0  0.2422436E-06  0.3202943E+04  0.7818609E-02  0.8188040E-01
       -2   -1    0    0    0  501  0.00000000000E+00  0.00000000000E+00  0.14013999261E+04  0.14013999261E+04  0.25500000920E-02 0. -1.
        2   -1    0    0  501    0  0.00000000000E+00  0.00000000000E+00 -0.18301064172E+04  0.18301064172E+04  0.25500000920E-02 0.  1.
    10030    2    1    2    0    0  0.00000000000E+00  0.00000000000E+00 -0.42870649111E+03  0.32315063434E+04  0.32029430204E+04 0.  0.
        2    1    3    3  502    0 -0.56867627574E+03  0.76171942487E+03 -0.15146842736E+04  0.17882610652E+04  0.25500000920E-02 0.  1.
       -2    1    3    3    0  502  0.56867627574E+03 -0.76171942487E+03  0.10859777825E+04  0.14432452781E+04  0.25500000920E-02 0. -1.
</event>
<event>
 5   0  0.1566576E-06  0.2403123E+04  0.7818609E-02  0.8438335E-01
       -2   -1    0    0    0  501  0.00000000000E+00  0.00000000000E+00  0.92435442289E+03  0.92435442289E+03  0.25500000920E-02 0.  1.
        2   -1    0    0  501    0  0.00000000000E+00  0.00000000000E+00 -0.15619013903E+04  0.15619013903E+04  0.25500000920E-02 0. -1.
    10030    2    1    2    0    0  0.00000000000E+00  0.00000000000E+00 -0.63754696740E+03  0.24862558132E+04  0.24031233495E+04 0.  0.
        4    1    3    3  502    0 -0.31031417328E+03  0.11330440515E+04 -0.57725354093E+02  0.11761877138E+04  0.12699999809E+01 0.  1.
       -4    1    3    3    0  502  0.31031417328E+03 -0.11330440515E+04 -0.57982161331E+03  0.13100680994E+04  0.12699999809E+01 0. -1.
</event>
<event>
 5   0  0.1634374E-06  0.2099736E+04  0.7818609E-02  0.8561360E-01
        1   -1    0    0  501    0  0.00000000000E+00  0.00000000000E+00  0.15754592716E+04  0.15754592716E+04  0.50400001928E-02 0. -1.
       -1   -1    0    0    0  501  0.00000000000E+00  0.00000000000E+00 -0.69962021776E+03  0.69962021778E+03  0.50400001928E-02 0.  1.
    10030    2    1    2    0    0  0.00000000000E+00  0.00000000000E+00  0.87583905383E+03  0.22750794894E+04  0.20997363251E+04 0.  0.
        5    1    3    3  502    0  0.36807242717E+03  0.94880073647E+03  0.15850715064E+03  0.10299741531E+04  0.46999998093E+01 0. -1.
       -5    1    3    3    0  502 -0.36807242717E+03 -0.94880073647E+03  0.71733190320E+03  0.12451053363E+04  0.46999998093E+01 0.  1.
</event>
<event>
 5   0  0.1908273E-06  0.3136386E+04  0.7818609E-02  0.8205822E-01
       -1   -1    0    0    0  501  0.00000000000E+00  0.00000000000E+00  0.13518178468E+04  0.13518178468E+04  0.50400001928E-02 0. -1.
        1   -1    0    0  501    0  0.00000000000E+00  0.00000000000E+00 -0.18192021552E+04  0.18192021552E+04  0.50400001928E-02 0.  1.
    10030    2    1    2    0    0  0.00000000000E+00  0.00000000000E+00 -0.46738430837E+03  0.31710200020E+04  0.31363864177E+04 0.  0.
        3    1    3    3  502    0 -0.67320885545E+03  0.10257653441E+04 -0.12211164730E+04  0.17310488598E+04  0.10100000352E+00 0.  1.
       -3    1    3    3    0  502  0.67320885545E+03 -0.10257653441E+04  0.75373216459E+03  0.14399711422E+04  0.10100000352E+00 0. -1.
</event>
<event>
 5   0  0.2422436E-06  0.3653164E+04  0.7818609E-02  0.8078421E-01
        2   -1    0    0  501    0  0.00000000000E+00  0.00000000000E+00  0.26550003868E+04  0.26550003868E+04  0.25500000920E-02 0.  1.
       -2   -1    0    0    0  501  0.00000000000E+00  0.00000000000E+00 -0.12566483536E+04  0.12566483536E+04  0.25500000920E-02 0. -1.
    10030    2    1    2    0    0  0.00000000000E+00  0.00000000000E+00  0.13983520332E+04  0.39116487404E+04  0.36531640340E+04 0.  0.
        2    1    3    3  502    0  0.12064849226E+04 -0.13038707856E+04  0.11543633256E+04  0.21185465728E+04  0.25500000920E-02 0.  1.
       -2    1    3    3    0  502 -0.12064849226E+04  0.13038707856E+04  0.24398870767E+03  0.17931021676E+04  0.25500000920E-02 0. -1.
</event>
<event>
 5   0  0.8452742E-07  0.1787485E+04  0.7818609E-02  0.8712983E-01
        1   -1    0    0  501    0  0.00000000000E+00  0.00000000000E+00  0.14223744256E+04  0.14223744257E+04  0.50400001928E-02 0. -1.
       -1   -1    0    0    0  501  0.00000000000E+00  0.00000000000E+00 -0.56157903823E+03  0.56157903825E+03  0.50400001928E-02 0.  1.
    10030    2    1    2    0    0  0.00000000000E+00  0.00000000000E+00  0.86079538742E+03  0.19839534639E+04  0.17874850064E+04 0.  0.
        1    1    3    3  502    0 -0.55424945481E+03  0.60938999730E+03  0.81524649824E+03  0.11589544771E+04  0.50400001928E-02 0. -1.
       -1    1    3    3    0  502  0.55424945481E+03 -0.60938999730E+03  0.45548889184E+02  0.82499898685E+03  0.50400001928E-02 0.  1.
</event>
<event>
 5   0  0.1908273E-06  0.2191339E+04  0.7818609E-02  0.8522042E-01
        1   -1    0    0  501    0  0.00000000000E+00  0.00000000000E+00  0.13931685141E+04  0.13931685141E+04  0.50400001928E-02 0.  1.
       -1   -1    0    0    0  501  0.00000000000E+00  0.00000000000E+00 -0.86169843809E+03  0.86169843810E+03  0.50400001928E-02 0. -1.
    10030    2    1    2    0    0  0.00000000000E+00  0.00000000000E+00  0.53147007603E+03  0.22548669522E+04  0.21913385249E+04 0.  0.
        3    1    3    3  502    0  0.10806281816E+04 -0.16417867681E+03  0.34396010974E+03  0.11458710539E+04  0.10100000352E+00 0. -1.
       -3    1    3    3    0  502 -0.10806281816E+04  0.16417867681E+03  0.18750996629E+03  0.11089958983E+04  0.10100000352E+00 0.  1.
</event>
<event>
 5   0  0.2382711E-06  0.3127766E+04  0.7818609E-02  0.8208159E-01
        2   -1    0    0  501    0  0.00000000000E+00  0.00000000000E+00  0.29587773548E+04  0.29587773548E+04  0.25500000920E-02 0.  1.
       -2   -1    0    0    0  501  0.00000000000E+00  0.00000000000E+00 -0.82660170779E+03  0.82660170779E+03  0.25500000920E-02 0. -1.
    10030    2    1    2    0    0  0.00000000000E+00  0.00000000000E+00  0.21321756470E+04  0.37853790626E+04  0.31277662409E+04 0.  0.
        5    1    3    3  502    0  0.80985405941E+03 -0.58714362430E+03 -0.38878524260E+03  0.10732088743E+04  0.46999998093E+01 0. -1.
       -5    1    3    3    0  502 -0.80985405941E+03  0.58714362430E+03  0.25209608896E+04  0.27121701882E+04  0.46999998093E+01 0.  1.
</event>
<event>
 5   0  0.2536619E-06  0.2150121E+04  0.7818609E-02  0.8539480E-01
       -2   -1    0    0    0  501  0.00000000000E+00  0.00000000000E+00  0.46640192720E+03  0.46640192721E+03  0.25500000920E-02 0.  1.
        2   -1    0    0  501    0  0.00000000000E+00  0.00000000000E+00 -0.24780237127E+04  0.24780237127E+04  0.25500000920E-02 0. -1.
    10030    2    1    2    0    0  0.00000000000E+00  0.00000000000E+00 -0.20116217855E+04  0.29444256399E+04  0.21501209596E+04 0.  0.
        1    1    3    3  502    0  0.55692867740E+03 -0.87153858845E+03 -0.14074185671E+04  0.17465898448E+04  0.50400001928E-02 0. -1.
       -1    1    3    3    0  502 -0.55692867740E+03  0.87153858845E+03 -0.60420321834E+03  0.11978357951E+04  0.50400001928E-02 0.  1.
</event>
<event>
 5   0  0.7707500E-07  0.2006743E+04  0.7818609E-02  0.8603474E-01
        3   -1    0    0  501    0  0.00000000000E+00  0.00000000000E+00  0.90010613194E+03  0.90010613760E+03  0.10100000352E+00 0.  1.
       -3   -1    0    0    0  501  0.00000000000E+00  0.00000000000E+00 -0.11184842441E+04  0.11184842486E+04  0.10100000352E+00 0. -1.
    10030    2    1    2    0    0  0.00000000000E+00  0.00000000000E+00 -0.21837811215E+03  0.20185903862E+04  0.20067431693E+04 0.  0.
        2    1    3    3  502    0 -0.58778123662E+02 -0.50616676372E+03  0.76026029201E+03  0.91523514581E+03  0.25500000920E-02 0.  1.
       -2    1    3    3    0  502  0.58778123662E+02  0.50616676372E+03 -0.97863840416E+03  0.11033552404E+04  0.25500000920E-02 0. -1.
</event>
<event>
 5   0  0.2422436E-06  0.3575914E+04  0.7818609E-02  0.8096031E-01
       -2   -1    0    0    0  501  0.00000000000E+00  0.00000000000E+00  0.11205439178E+04  0.11205439178E+04  0.25500000920E-02 0.  1.
        2   -1    0    0  501    0  0.00000000000E+00  0.00000000000E+00 -0.28528912784E+04  0.28528912784E+04  0.25500000920E-02 0. -1.
    10030    2    1    2    0    0  0.00000000000E+00  0.00000000000E+00 -0.17323473606E+04  0.39734351962E+04  0.35759138525E+04 0.  0.
        2    1    3    3  502    0 -0.46645340342E+03  0.17093577305E+04 -0.60017209870E+03  0.18707456205E+04  0.25500000920E-02 0. -1.
       -2    1    3    3    0  502  0.46645340342E+03 -0.17093577305E+04 -0.11321752619E+04  0.21026895758E+04  0.25500000920E-02 0.  1.
</event>
<event>
 5   0  0.7754556E-07  0.3040504E+04  0.7818609E-02  0.8232258E-01
       -1   -1    0    0    0  501  0.00000000000E+00  0.00000000000E+00  0.85707959129E+03  0.85707959130E+03  0.50400001928E-02 0.  1.
        1   -1    0    0  501    0  0.00000000000E+00  0.00000000000E+00 -0.26965595565E+04  0.26965595565E+04  0.50400001928E-02 0. -1.
    10030    2    1    2    0    0  0.00000000000E+00  0.00000000000E+00 -0.18394799652E+04  0.35536391478E+04  0.30405040126E+04 0.  0.
        4    1    3    3  502    0 -0.92127589651E+03 -0.40457495917E+02 -0.23323423290E+04  0.25080287955E+04  0.12699999809E+01 0. -1.
       -4    1    3    3    0  502  0.92127589651E+03  0.40457495917E+02  0.49286236374E+03  0.10456103524E+04  0.12699999809E+01 0.  1.
</event>
<event>
 5   0  0.2536619E-06  0.3684703E+04  0.7818609E-02  0.8071360E-01
        2   -1    0    0  501    0  0.00000000000E+00  0.00000000000E+00  0.14947578366E+04  0.14947578366E+04  0.25500000920E-02 0.  1.
       -2   -1    0    0    0  501  0.00000000000E+00  0.00000000000E+00 -0.22707750444E+04  0.22707750444E+04  0.25500000920E-02 0. -1.
    10030    2    1    2    0    0  0.00000000000E+00  0.00000000000E+00 -0.77601720782E+03  0.37655328809E+04  0.36847028605E+04 0.  0.
        1    1    3    3  502    0 -0.34596949515E+03  0.54495240310E+03  0.13754143039E+04  0.15193526649E+04  0.50400001928E-02 0.  1.
       -1    1    3    3    0  502  0.34596949515E+03 -0.54495240310E+03 -0.21514315117E+04  0.22461802160E+04  0.50400001928E-02 0. -1.
</event>
<event>
 5   0  0.2382711E-06  0.3662928E+04  0.7818609E-02  0.8076228E-01
        2   -1    0    0  501    0  0.00000000000E+00  0.00000000000E+00  0.18583746035E+04  0.18583746035E+04  0.25500000920E-02 0.  1.
       -2   -1    0    0    0  501  0.00000000000E+00  0.00000000000E+00 -0.18049428068E+04  0.18049428068E+04  0.25500000920E-02 0. -1.
    10030    2    1    2    0    0  0.00000000000E+00  0.00000000000E+00  0.53431796673E+02  0.36633174104E+04  0.36629277214E+04 0.  0.
        5    1    3    3  502    0  0.15157804137E+03 -0.29388090455E+03  0.18282669974E+04  0.18579354651E+04  0.46999998093E+01 0.  1.
       -5    1    3    3    0  502 -0.15157804137E+03  0.29388090455E+03 -0.17748352007E+04  0.18053819453E+04  0.46999998093E+01 0. -1.
</event>
<event>
 5   0  0.8452742E-07  0.3344425E+04  0.7818609E-02  0.8151682E-01
        1   -1    0    0  501    0  0.00000000000E+00  0.00000000000E+00  0.16289747372E+04  0.16289747372E+04  0.50400001928E-02 0.  1.
       -1   -1    0    0    0  501  0.00000000000E+00  0.00000000000E+00 -0.17165982816E+04  0.17165982816E+04  0.50400001928E-02 0. -1.
    10030    2    1    2    0    0  0.00000000000E+00  0.00000000000E+00 -0.87623544422E+02  0.33455730189E+04  0.33444253526E+04 0.  0.
        1    1    3    3  502    0 -0.31163415193E+03  0.63050286605E+03  0.14738263444E+04  0.16330382121E+04  0.50400001928E-02 0.  1.
       -1    1    3    3    0  502  0.31163415193E+03 -0.63050286605E+03 -0.15614498889E+04  0.17125348067E+04  0.50400001928E-02 0. -1.
</event>
<event>
 5   0  0.1634374E-06  0.2374664E+04  0.7818609E-02  0.8449050E-01
       -1   -1    0    0    0  501  0.00000000000E+00  0.00000000000E+00  0.81888845097E+03  0.81888845098E+03  0.50400001928E-02 0. -1.
        1   -1    0    0  501    0  0.00000000000E+00  0.00000000000E+00 -0.17215500378E+04  0.17215500378E+04  0.50400001928E-02 0.  1.
    10030    2    1    2    0    0  0.00000000000E+00  0.00000000000E+00 -0.90266158685E+03  0.25404384888E+04  0.23746641394E+04 0.  0.
        5    1    3    3  502    0  0.22550156666E+03  0.11354431124E+04 -0.16898751737E+03  0.11698978114E+04  0.46999998093E+01 0. -1.
       -5    1    3    3    0  502 -0.22550156666E+03 -0.11354431124E+04 -0.73367406948E+03  0.13705406774E+04  0.46999998093E+01 0.  1.
</event>
<event>
 5   0  0.2382711E-06  0.3543180E+04  0.7818609E-02  0.8103632E-01
        2   -1    0    0  501    0  0.00000000000E+00  0.00000000000E+00  0.14039747984E+04  0.14039747984E+04  0.25500000920E-02 0.  1.
       -2   -1    0    0    0  501  0.00000000000E+00  0.00000000000E+00 -0.22354617659E+04  0.22354617659E+04  0.25500000920E-02 0. -1.
    10030    2    1    2    0    0  0.00000000000E+00  0.00000000000E+00 -0.83148696749E+03  0.36394365644E+04  0.35431804821E+04 0.  0.
        5    1    3    3  502    0 -0.11345314702E+04 -0.11228349046E+04 -0.12051195021E+04  0.20000637450E+04  0.46999998093E+01 0. -1.
       -5    1    3    3    0  502  0.11345314702E+04  0.11228349046E+04  0.37363253460E+03  0.16393728193E+04  0.46999998093E+01 0.  1.
</event>
<event>
 5   0  0.1566576E-06  0.3589475E+04  0.7818609E-02  0.8092907E-01
        2   -1    0    0  501    0  0.00000000000E+00  0.00000000000E+00  0.20036563850E+04  0.20036563850E+04  0.25500000920E-02 0. -1.
       -2   -1    0    0    0  501  0.00000000000E+00  0.00000000000E+00 -0.16076022866E+04  0.16076022866E+04  0.25500000920E-02 0.  1.
    10030    2    1    2    0    0  0.00000000000E+00  0.00000000000E+00  0.39605409839E+03  0.36112586717E+04  0.35894749400E+04 0.  0.
        4    1    3    3  502    0 -0.11896322509E+04 -0.50669912771E+03 -0.10541596652E+04  0.16682994669E+04  0.12699999809E+01 0.  1.
       -4    1    3    3    0  502  0.11896322509E+04  0.50669912771E+03  0.14502137636E+04  0.19429592048E+04  0.12699999809E+01 0. -1.
</event>
<event>
 5   0  0.8423692E-07  0.3431899E+04  0.7818609E-02  0.8130121E-01
        1   -1    0    0  501    0  0.00000000000E+00  0.00000000000E+00  0.20986350484E+04  0.20986350484E+04  0.50400001928E-02 0. -1.
       -1   -1    0    0    0  501  0.00000000000E+00  0.00000000000E+00 -0.14030462074E+04  0.14030462074E+04  0.50400001928E-02 0.  1.
    10030    2    1    2    0    0  0.00000000000E+00  0.00000000000E+00  0.69558884104E+03  0.35016812558E+04  0.34318985681E+04 0.  0.
        2    1    3    3  502    0  0.11033390376E+03 -0.13710866178E+04  0.13945342481E+04  0.19587694742E+04  0.25500000920E-02 0. -1.
       -2    1    3    3    0  502 -0.11033390376E+03  0.13710866178E+04 -0.69894540706E+03  0.15429117816E+04  0.25500000920E-02 0.  1.
</event>
<event>
 5   0  0.1908273E-06  0.2355991E+04  0.7818609E-02  0.8456166E-01
       -1   -1    0    0    0  501  0.00000000000E+00  0.00000000000E+00  0.80941501003E+03  0.80941501005E+03  0.50400001928E-02 0. -1.
        1   -1    0    0  501    0  0.00000000000E+00  0.00000000000E+00 -0.17144146326E+04  0.17144146326E+04  0.50400001928E-02 0.  1.
    10030    2    1    2    0    0  0.00000000000E+00  0.00000000000E+00 -0.90499962261E+03  0.25238296427E+04  0.23559906087E+04 0.  0.
        3    1    3    3  502    0 -0.15028947023E+03  0.35287858422E+03 -0.16456520012E+04  0.16897575978E+04  0.10100000352E+00 0.  1.
       -3    1    3    3    0  502  0.15028947023E+03 -0.35287858422E+03  0.74065237856E+03  0.83407204493E+03  0.10100000352E+00 0. -1.
</event>
<event>
 5   0  0.2382711E-06  0.1929952E+04  0.7818609E-02  0.8640089E-01
       -2   -1    0    0    0  501  0.00000000000E+00  0.00000000000E+00  0.71131888898E+03  0.71131888898E+03  0.25500000920E-02 0. -1.
        2   -1    0    0  501    0  0.00000000000E+00  0.00000000000E+00 -0.13090874865E+04  0.13090874865E+04  0.25500000920E-02 0.  1.
    10030    2    1    2    0    0  0.00000000000E+00  0.00000000000E+00 -0.59776859750E+03  0.20204063755E+04  0.19299519750E+04 0.  0.
        5    1    3    3  502    0  0.44149389318E+03 -0.43422568752E+03  0.47586063712E+03  0.78098286881E+03  0.46999998093E+01 0. -1.
       -5    1    3    3    0  502 -0.44149389318E+03  0.43422568752E+03 -0.10736292346E+04  0.12394235067E+04  0.46999998093E+01 0.  1.
</event>
<event>
 5   0  0.1566576E-06  0.2425867E+04  0.7818609E-02  0.8429882E-01
       -2   -1    0    0    0  501  0.00000000000E+00  0.00000000000E+00  0.11951034321E+04  0.11951034321E+04  0.25500000920E-02 0.  1.
        2   -1    0    0  501    0  0.00000000000E+00  0.00000000000E+00 -0.12310299531E+04  0.12310299531E+04  0.25500000920E-02 0. -1.
    10030    2    1    2    0    0  0.00000000000E+00  0.00000000000E+00 -0.35926521054E+02  0.24261333852E+04  0.24258673682E+04 0.  0.
        4    1    3    3  502    0 -0.69325134816E+03 -0.63254225434E+03 -0.78648709720E+03  0.12244471006E+04  0.12699999809E+01 0. -1.
       -4    1    3    3    0  502  0.69325134816E+03  0.63254225434E+03  0.75056057615E+03  0.12016862846E+04  0.12699999809E+01 0.  1.
</event>
<event>
 5   0  0.1513502E-06  0.3741392E+04  0.7818609E-02  0.8058850E-01
       -2   -1    0    0    0  501  0.00000000000E+00  0.00000000000E+00  0.15158049832E+04  0.15158049832E+04  0.25500000920E-02 0.  1.
        2   -1    0    0  501    0  0.00000000000E+00  0.00000000000E+00 -0.23086766684E+04  0.23086766684E+04  0.25500000920E-02 0. -1.
    10030    2    1    2    0    0  0.00000000000E+00  0.00000000000E+00 -0.79287168522E+03  0.38244816516E+04  0.37413920396E+04 0.  0.
        3    1    3    3  502    0  0.88322994487E+03 -0.66310921610E+02  0.12878864072E+04  0.15630558793E+04  0.10100000352E+00 0.  1.
       -3    1    3    3    0  502 -0.88322994487E+03  0.66310921610E+02 -0.20807580924E+04  0.22614257722E+04  0.10100000352E+00 0. -1.
</event>
<event>
 5   0  0.1513502E-06  0.3545148E+04  0.7818609E-02  0.8103173E-01
       -2   -1    0    0    0  501  0.00000000000E+00  0.00000000000E+00  0.16751532093E+04  0.16751532094E+04  0.25500000920E-02 0. -1.
        2   -1    0    0  501    0  0.00000000000E+00  0.00000000000E+00 -0.18756607993E+04  0.18756607993E+04  0.25500000920E-02 0.  1.
    10030    2    1    2    0    0  0.00000000000E+00  0.00000000000E+00 -0.20050758992E+03  0.35508140086E+04  0.35451483509E+04 0.  0.
        3    1    3    3  502    0 -0.65719404223E+02 -0.65628169579E+03  0.15476702752E+04  0.16823519237E+04  0.10100000352E+00 0. -1.
       -3    1    3    3    0  502  0.65719404223E+02  0.65628169579E+03 -0.17481778651E+04  0.18684620849E+04  0.10100000352E+00 0.  1.
</event>
<event>
 5   0  0.8423692E-07  0.2842972E+04  0.7818609E-02  0.8290050E-01
       -1   -1    0    0    0  501  0.00000000000E+00  0.00000000000E+00  0.15120259185E+04  0.15120259185E+04  0.50400001928E-02 0.  1.
        1   -1    0    0  501    0  0.00000000000E+00  0.00000000000E+00 -0.13363679640E+04  0.13363679640E+04  0.50400001928E-02 0. -1.
    10030    2    1    2    0    0  0.00000000000E+00  0.00000000000E+00  0.17565795454E+03  0.28483938825E+04  0.28429723869E+04 0.  0.
        2    1    3    3  502    0  0.10519329333E+04  0.54787580482E+03 -0.69717790115E+03  0.13757862550E+04  0.25500000920E-02 0. -1.
       -2    1    3    3    0  502 -0.10519329333E+04 -0.54787580482E+03  0.87283585569E+03  0.14726076275E+04  0.25500000920E-02 0.  1.
</event>
<event>
 5   0  0.1566576E-06  0.3936971E+04  0.7818609E-02  0.8017384E-01
        2   -1    0    0  501    0  0.00000000000E+00  0.00000000000E+00  0.25231152253E+04  0.25231152253E+04  0.25500000920E-02 0.  1.
       -2   -1    0    0    0  501  0.00000000000E+00  0.00000000000E+00 -0.15357738605E+04  0.15357738605E+04  0.25500000920E-02 0. -1.
    10030    2    1    2    0    0  0.00000000000E+00  0.00000000000E+00  0.98734136488E+03  0.40588890858E+04  0.39369706171E+04 0.  0.
        4    1    3    3  502    0 -0.76199727471E+03  0.10371966433E+04 -0.10419229413E+04  0.16559051156E+04  0.12699999809E+01 0. -1.
       -4    1    3    3    0  502  0.76199727471E+03 -0.10371966433E+04  0.20292643062E+04  0.24029839701E+04  0.12699999809E+01 0.  1.
</event>
<event>
 5   0  0.2382711E-06  0.3586088E+04  0.7818609E-02  0.8093686E-01
        2   -1    0    0  501    0  0.00000000000E+00  0.00000000000E+00  0.26141607272E+04  0.26141607272E+04  0.25500000920E-02 0.  1.
       -2   -1    0    0    0  501  0.00000000000E+00  0.00000000000E+00 -0.12298426985E+04  0.12298426985E+04  0.25500000920E-02 0. -1.
    10030    2    1    2    0    0  0.00000000000E+00  0.00000000000E+00  0.13843180288E+04  0.38440034257E+04  0.35860878311E+04 0.  0.
        5    1    3    3  502    0 -0.43170646054E+02  0.38534756913E+03  0.25686726397E+04  0.25977793736E+04  0.46999998093E+01 0.  1.
       -5    1    3    3    0  502  0.43170646054E+02 -0.38534756913E+03 -0.11843546109E+04  0.12462240521E+04  0.46999998093E+01 0. -1.
</event>
<event>
 5   0  0.7754556E-07  0.2071258E+04  0.7818609E-02  0.8574011E-01
        1   -1    0    0  501    0  0.00000000000E+00  0.00000000000E+00  0.16265125792E+04  0.16265125792E+04  0.50400001928E-02 0. -1.
       -1   -1    0    0    0  501  0.00000000000E+00  0.00000000000E+00 -0.65940285628E+03  0.65940285629E+03  0.50400001928E-02 0.  1.
    10030    2    1    2    0    0  0.00000000000E+00  0.00000000000E+00  0.96710972288E+03  0.22859154355E+04  0.20712576281E+04 0.  0.
        4    1    3    3  502    0  0.76796369455E+03  0.51862583711E+03 -0.26731637471E+02  0.92706913896E+03  0.12699999809E+01 0.  1.
       -4    1    3    3    0  502 -0.76796369455E+03 -0.51862583711E+03  0.99384136035E+03  0.13588462965E+04  0.12699999809E+01 0. -1.
</event>
<event>
 5   0  0.1634374E-06  0.3654311E+04  0.7818609E-02  0.8078163E-01
       -1   -1    0    0    0  501  0.00000000000E+00  0.00000000000E+00  0.15477880220E+04  0.15477880220E+04  0.50400001928E-02 0.  1.
        1   -1    0    0  501    0  0.00000000000E+00  0.00000000000E+00 -0.21569475634E+04  0.21569475634E+04  0.50400001928E-02 0. -1.
    10030    2    1    2    0    0  0.00000000000E+00  0.00000000000E+00 -0.60915954144E+03  0.37047355854E+04  0.36543112088E+04 0.  0.
        5    1    3    3  502    0  0.70917129083E+03 -0.15182056981E+04  0.43389652315E+03  0.17309421551E+04  0.46999998093E+01 0.  1.
       -5    1    3    3    0  502 -0.70917129083E+03  0.15182056981E+04 -0.10430560646E+04  0.19737934303E+04  0.46999998093E+01 0. -1.
</event>
<event>
 5   0  0.2422436E-06  0.3582830E+04  0.7818609E-02  0.8094436E-01
        2   -1    0    0  501    0  0.00000000000E+00  0.00000000000E+00  0.19563945231E+04  0.19563945231E+04  0.25500000920E-02 0. -1.
       -2   -1    0    0    0  501  0.00000000000E+00  0.00000000000E+00 -0.16403476652E+04  0.16403476652E+04  0.25500000920E-02 0.  1.
    10030    2    1    2    0    0  0.00000000000E+00  0.00000000000E+00  0.31604685787E+03  0.35967421883E+04  0.35828297130E+04 0.  0.
        2    1    3    3  502    0 -0.24534725418E+03  0.62292385518E+03 -0.15100357405E+04  0.16517982147E+04  0.25500000920E-02 0.  1.
       -2    1    3    3    0  502  0.24534725418E+03 -0.62292385518E+03  0.18260825983E+04  0.19449439736E+04  0.25500000920E-02 0. -1.
</event>
<event>
 5   0  0.1566576E-06  0.2688610E+04  0.7818609E-02  0.8338710E-01
       -2   -1    0    0    0  501  0.00000000000E+00  0.00000000000E+00  0.14348374606E+04  0.14348374606E+04  0.25500000920E-02 0.  1.
        2   -1    0    0  501    0  0.00000000000E+00  0.00000000000E+00 -0.12594844957E+04  0.12594844957E+04  0.25500000920E-02 0. -1.
    10030    2    1    2    0    0  0.00000000000E+00  0.00000000000E+00  0.17535296494E+03  0.26943219563E+04  0.26886097043E+04 0.  0.
        4    1    3    3  502    0 -0.52201135677E+02  0.99656025610E+02  0.14301111970E+04  0.14345298640E+04  0.12699999809E+01 0.  1.
       -4    1    3    3    0  502  0.52201135677E+02 -0.99656025610E+02 -0.12547582321E+04  0.12597920923E+04  0.12699999809E+01 0. -1.
</event>
<event>
 5   0  0.1513502E-06  0.3561471E+04  0.7818609E-02  0.8099375E-01
       -2   -1    0    0    0  501  0.00000000000E+00  0.00000000000E+00  0.16477715877E+04  0.16477715877E+04  0.25500000920E-02 0. -1.
        2   -1    0    0  501    0  0.00000000000E+00  0.00000000000E+00 -0.19244286629E+04  0.19244286629E+04  0.25500000920E-02 0.  1.
    10030    2    1    2    0    0  0.00000000000E+00  0.00000000000E+00 -0.27665707523E+03  0.35722002506E+04  0.35614709732E+04 0.  0.
        3    1    3    3  502    0 -0.76005273957E+03  0.24278234370E+03  0.14584459162E+04  0.16624343397E+04  0.10100000352E+00 0. -1.
       -3    1    3    3    0  502  0.76005273957E+03 -0.24278234370E+03 -0.17351029914E+04  0.19097659109E+04  0.10100000352E+00 0.  1.
</event>
<event>
 5   0  0.2382711E-06  0.3909999E+04  0.7818609E-02  0.8022953E-01
        2   -1    0    0  501    0  0.00000000000E+00  0.00000000000E+00  0.20469708983E+04  0.20469708983E+04  0.25500000920E-02 0. -1.
       -2   -1    0    0    0  501  0.00000000000E+00  0.00000000000E+00 -0.18671604244E+04  0.18671604244E+04  0.25500000920E-02 0.  1.
    10030    2    1    2    0    0  0.00000000000E+00  0.00000000000E+00  0.17981047383E+03  0.39141313227E+04  0.39099990032E+04 0.  0.
        5    1    3    3  502    0  0.16759558239E+03  0.19477640803E+04  0.78589768848E+02  0.19565458424E+04  0.46999998093E+01 0.  1.
       -5    1    3    3    0  502 -0.16759558239E+03 -0.19477640803E+04  0.10122070498E+03  0.19575854803E+04  0.46999998093E+01 0. -1.
</event>
<event>
 5   0  0.2014956E-06  0.1819258E+04  0.7818609E-02  0.8696125E-01
       -2   -1    0    0    0  501  0.00000000000E+00  0.00000000000E+00  0.72389495501E+03  0.72389495502E+03  0.25500000920E-02 0.  1.
        2   -1    0    0  501    0  0.00000000000E+00  0.00000000000E+00 -0.11430174543E+04  0.11430174543E+04  0.25500000920E-02 0. -1.
    10030    2    1    2    0    0  0.00000000000E+00  0.00000000000E+00 -0.41912249931E+03  0.18669124093E+04  0.18192576164E+04 0.  0.
        4    1    3    3  502    0 -0.67083566622E+03  0.25983296935E+03 -0.78082021124E+03  0.10617040445E+04  0.12699999809E+01 0. -1.
       -4    1    3    3    0  502  0.67083566622E+03 -0.25983296935E+03  0.36169771193E+03  0.80520836480E+03  0.12699999809E+01 0.  1.
</event>
<event>
 5   0  0.1566576E-06  0.3524700E+04  0.7818609E-02  0.8107961E-01
       -2   -1    0    0    0  501  0.00000000000E+00  0.00000000000E+00  0.16837716734E+04  0.16837716734E+04  0.25500000920E-02 0. -1.
        2   -1    0    0  501    0  0.00000000000E+00  0.00000000000E+00 -0.18445956823E+04  0.18445956823E+04  0.25500000920E-02 0.  1.
    10030    2    1    2    0    0  0.00000000000E+00  0.00000000000E+00 -0.16082400884E+03  0.35283673557E+04  0.35247002475E+04 0.  0.
        4    1    3    3  502    0  0.14799000753E+04  0.10009970044E+03 -0.10331122918E+04  0.18076080336E+04  0.12699999809E+01 0.  1.
       -4    1    3    3    0  502 -0.14799000753E+04 -0.10009970044E+03  0.87228828292E+03  0.17207593220E+04  0.12699999809E+01 0. -1.
</event>
<event>
 5   0  0.7754556E-07  0.3600853E+04  0.7818609E-02  0.8090296E-01
        1   -1    0    0  501    0  0.00000000000E+00  0.00000000000E+00  0.27071024753E+04  0.27071024753E+04  0.50400001928E-02 0.  1.
       -1   -1    0    0    0  501  0.00000000000E+00  0.00000000000E+00 -0.11974189145E+04  0.11974189145E+04  0.50400001928E-02 0. -1.
    10030    2    1    2    0    0  0.00000000000E+00  0.00000000000E+00  0.15096835609E+04  0.39045213898E+04  0.36008530697E+04 0.  0.
        4    1    3    3  502    0 -0.59045547679E+02 -0.16876923479E+04  0.77900258767E+02  0.16905211922E+04  0.12699999809E+01 0. -1.
       -4    1    3    3    0  502  0.59045547679E+02  0.16876923479E+04  0.14317833021E+04  0.22140001976E+04  0.12699999809E+01 0.  1.
</event>
<event>
 5   0  0.1908273E-06  0.3480180E+04  0.7818609E-02  0.8118503E-01
       -1   -1    0    0    0  501  0.00000000000E+00  0.00000000000E+00  0.15437190325E+04  0.15437190325E+04  0.50400001928E-02 0. -1.
        1   -1    0    0  501    0  0.00000000000E+00  0.00000000000E+00 -0.19614400805E+04  0.19614400805E+04  0.50400001928E-02 0.  1.
    10030    2    1    2    0    0  0.00000000000E+00  0.00000000000E+00 -0.41772104800E+03  0.35051591130E+04  0.34801795261E+04 0.  0.
        3    1    3    3  502    0  0.11024437437E+04 -0.67816678721E+03  0.96250918043E+03  0.16129836738E+04  0.10100000352E+00 0. -1.
       -3    1    3    3    0  502 -0.11024437437E+04  0.67816678721E+03 -0.13802302284E+04  0.18921754393E+04  0.10100000352E+00 0.  1.
</event>
<event>
 5   0  0.1513502E-06  0.3614500E+04  0.7818609E-02  0.8087178E-01
       -2   -1    0    0    0  501  0.00000000000E+00  0.00000000000E+00  0.17910249829E+04  0.17910249829E+04  0.25500000920E-02 0. -1.
        2   -1    0    0  501    0  0.00000000000E+00  0.00000000000E+00 -0.18236215756E+04  0.18236215756E+04  0.25500000920E-02 0.  1.
    10030    2    1    2    0    0  0.00000000000E+00  0.00000000000E+00 -0.32596592663E+02  0.36146465585E+04  0.36144995788E+04 0.  0.
        3    1    3    3  502    0  0.92421899202E+03 -0.80877543105E+02 -0.15673061949E+04  0.18213101441E+04  0.10100000352E+00 0.  1.
       -3    1    3    3    0  502 -0.92421899202E+03  0.80877543105E+02  0.15347096022E+04  0.17933364145E+04  0.10100000352E+00 0. -1.
</event>
<event>
 5   0  0.1513502E-06  0.3591437E+04  0.7818609E-02  0.8092456E-01
       -2   -1    0    0    0  501  0.00000000000E+00  0.00000000000E+00  0.10001209138E+04  0.10001209138E+04  0.25500000920E-02 0.  1.
        2   -1    0    0  501    0  0.00000000000E+00  0.00000000000E+00 -0.32242154265E+04  0.32242154265E+04  0.25500000920E-02 0. -1.
    10030    2    1    2    0    0  0.00000000000E+00  0.00000000000E+00 -0.22240945127E+04  0.42243363404E+04  0.35914371935E+04 0.  0.
        3    1    3    3  502    0 -0.16876932783E+04  0.40852361227E+03 -0.16502970435E+04  0.23955543169E+04  0.10100000352E+00 0.  1.
       -3    1    3    3    0  502  0.16876932783E+04 -0.40852361227E+03 -0.57379746914E+03  0.18287820234E+04  0.10100000352E+00 0. -1.
</event>
<event>
 5   0  0.1513502E-06  0.2700495E+04  0.7818609E-02  0.8334845E-01
       -2   -1    0    0    0  501  0.00000000000E+00  0.00000000000E+00  0.12751426947E+04  0.12751426947E+04  0.25500000920E-02 0.  1.
        2   -1    0    0  501    0  0.00000000000E+00  0.00000000000E+00 -0.14297754815E+04  0.14297754815E+04  0.25500000920E-02 0. -1.
    10030    2    1    2    0    0  0.00000000000E+00  0.00000000000E+00 -0.15463278679E+03  0.27049181762E+04  0.27004945920E+04 0.  0.
        3    1    3    3  502    0  0.10888676449E+03 -0.10587739861E+04  0.75489299307E+03  0.13048839497E+04  0.10100000352E+00 0.  1.
       -3    1    3    3    0  502 -0.10888676449E+03  0.10587739861E+04 -0.90952577985E+03  0.14000342265E+04  0.10100000352E+00 0. -1.
</event>
<event>
 5   0  0.1566576E-06  0.3607367E+04  0.7818609E-02  0.8088806E-01
        2   -1    0    0  501    0  0.00000000000E+00  0.00000000000E+00  0.11624588901E+04  0.11624588901E+04  0.25500000920E-02 0.  1.
       -2   -1    0    0    0  501  0.00000000000E+00  0.00000000000E+00 -0.27986142041E+04  0.27986142041E+04  0.25500000920E-02 0. -1.
    10030    2    1    2    0    0  0.00000000000E+00  0.00000000000E+00 -0.16361553140E+04  0.39610730942E+04  0.36073668855E+04 0.  0.
        4    1    3    3  502    0 -0.29428895090E+03 -0.61024066748E+03 -0.26535884197E+04  0.27387100564E+04  0.12699999809E+01 0. -1.
       -4    1    3    3    0  502  0.29428895090E+03  0.61024066748E+03  0.10174331057E+04  0.12223630378E+04  0.12699999809E+01 0.  1.
</event>
<event>
 5   0  0.1566576E-06  0.2649729E+04  0.7818609E-02  0.8351503E-01
        2   -1    0    0  501    0  0.00000000000E+00  0.00000000000E+00  0.16874914150E+04  0.16874914150E+04  0.25500000920E-02 0.  1.
       -2   -1    0    0    0  501  0.00000000000E+00  0.00000000000E+00 -0.10401628400E+04  0.10401628400E+04  0.25500000920E-02 0. -1.
    10030    2    1    2    0    0  0.00000000000E+00  0.00000000000E+00  0.64732857499E+03  0.27276542549E+04  0.26497289391E+04 0.  0.
        4    1    3    3  502    0  0.11242925435E+04  0.53877314851E+03 -0.13779800733E+03  0.12543126136E+04  0.12699999809E+01 0.  1.
       -4    1    3    3    0  502 -0.11242925435E+04 -0.53877314851E+03  0.78512658232E+03  0.14733416413E+04  0.12699999809E+01 0. -1.
</event>
<event>
 5   0  0.1634374E-06  0.3616941E+04  0.7818609E-02  0.8086622E-01
       -1   -1    0    0    0  501  0.00000000000E+00  0.00000000000E+00  0.30513218930E+04  0.30513218930E+04  0.50400001928E-02 0.  1.
        1   -1    0    0  501    0  0.00000000000E+00  0.00000000000E+00 -0.10718517914E+04  0.10718517914E+04  0.50400001928E-02 0. -1.
    10030    2    1    2    0    0  0.00000000000E+00  0.00000000000E+00  0.19794701016E+04  0.41231736844E+04  0.36169406061E+04 0.  0.
        5    1    3    3  502    0 -0.69368725114E+03 -0.16324060571E+04  0.58735730509E+03  0.18684116868E+04  0.46999998093E+01 0. -1.
       -5    1    3    3    0  502  0.69368725114E+03  0.16324060571E+04  0.13921127965E+04  0.22547619976E+04  0.46999998093E+01 0.  1.
</event>
<event>
 5   0  0.2536619E-06  0.3731162E+04  0.7818609E-02  0.8061091E-01
        2   -1    0    0  501    0  0.00000000000E+00  0.00000000000E+00  0.22618107071E+04  0.22618107071E+04  0.25500000920E-02 0.  1.
       -2   -1    0    0    0  501  0.00000000000E+00  0.00000000000E+00 -0.15387637315E+04  0.15387637315E+04  0.25500000920E-02 0. -1.
    10030    2    1    2    0    0  0.00000000000E+00  0.00000000000E+00  0.72304697558E+03  0.38005744385E+04  0.37311619013E+04 0.  0.
        1    1    3    3  502    0 -0.14764566278E+04 -0.10870375529E+04  0.10411792288E+02  0.18334893566E+04  0.50400001928E-02 0. -1.
       -1    1    3    3    0  502  0.14764566278E+04  0.10870375529E+04  0.71263518329E+03  0.19670850820E+04  0.50400001928E-02 0.  1.
</event>
<event>
 5   0  0.2422436E-06  0.3535021E+04  0.7818609E-02  0.8105540E-01
        2   -1    0    0  501    0  0.00000000000E+00  0.00000000000E+00  0.19735395786E+04  0.19735395786E+04  0.25500000920E-02 0.  1.
       -2   -1    0    0    0  501  0.00000000000E+00  0.00000000000E+00 -0.15829901119E+04  0.15829901119E+04  0.25500000920E-02 0. -1.
    10030    2    1    2    0    0  0.00000000000E+00  0.00000000000E+00  0.39054946674E+03  0.35565296905E+04  0.35350211532E+04 0.  0.
        2    1    3    3  502    0  0.14112927754E+02 -0.15759793420E+04  0.10002576912E+04  0.18666615950E+04  0.25500000920E-02 0.  1.
       -2    1    3    3    0  502 -0.14112927754E+02  0.15759793420E+04 -0.60970822447E+03  0.16898680955E+04  0.25500000920E-02 0. -1.
</event>
<event>
 5   0  0.8452742E-07  0.3722545E+04  0.7818609E-02  0.8062984E-01
       -1   -1    0    0    0  501  0.00000000000E+00  0.00000000000E+00  0.18872240081E+04  0.18872240081E+04  0.50400001928E-02 0.  1.
        1   -1    0    0  501    0  0.00000000000E+00  0.00000000000E+00 -0.18356782994E+04  0.18356782994E+04  0.50400001928E-02 0. -1.
    10030    2    1    2    0    0  0.00000000000E+00  0.00000000000E+00  0.51545708764E+02  0.37229023075E+04  0.37225454505E+04 0.  0.
        1    1    3    3  502    0  0.14780563713E+04 -0.52499220068E+03  0.10279012029E+04  0.18753261931E+04  0.50400001928E-02 0.  1.
       -1    1    3    3    0  502 -0.14780563713E+04  0.52499220068E+03 -0.97635549415E+03  0.18475761144E+04  0.50400001928E-02 0. -1.
</event>
<event>
 5   0  0.1513502E-06  0.3582423E+04  0.7818609E-02  0.8094530E-01
        2   -1    0    0  501    0  0.00000000000E+00  0.00000000000E+00  0.14486909047E+04  0.14486909047E+04  0.25500000920E-02 0. -1.
       -2   -1    0    0    0  501  0.00000000000E+00  0.00000000000E+00 -0.22147157629E+04  0.22147157629E+04  0.25500000920E-02 0.  1.
    10030    2    1    2    0    0  0.00000000000E+00  0.00000000000E+00 -0.76602485820E+03  0.36634066676E+04  0.35824229690E+04 0.  0.
        3    1    3    3  502    0 -0.32551547681E+02  0.71730452785E+03 -0.20610999536E+04  0.21825944236E+04  0.10100000352E+00 0.  1.
       -3    1    3    3    0  502  0.32551547681E+02 -0.71730452785E+03  0.12950750954E+04  0.14808122440E+04  0.10100000352E+00 0. -1.
</event>
<event>
 5   0  0.2422436E-06  0.3807594E+04  0.7818609E-02  0.8044527E-01
        2   -1    0    0  501    0  0.00000000000E+00  0.00000000000E+00  0.26692210639E+04  0.26692210639E+04  0.25500000920E-02 0.  1.
       -2   -1    0    0    0  501  0.00000000000E+00  0.00000000000E+00 -0.13578653182E+04  0.13578653182E+04  0.25500000920E-02 0. -1.
    10030    2    1    2    0    0  0.00000000000E+00  0.00000000000E+00  0.13113557457E+04  0.40270863822E+04  0.38075938383E+04 0.  0.
        2    1    3    3  502    0  0.50417007823E+03  0.30567793693E+03  0.25702263785E+04  0.26369850409E+04  0.25500000920E-02 0.  1.
       -2    1    3    3    0  502 -0.50417007823E+03 -0.30567793693E+03 -0.12588706328E+04  0.13901013413E+04  0.25500000920E-02 0. -1.
</event>
<event>
 5   0  0.7754556E-07  0.3492071E+04  0.7818609E-02  0.8115672E-01
       -1   -1    0    0    0  501  0.00000000000E+00  0.00000000000E+00  0.25227729669E+04  0.25227729669E+04  0.50400001928E-02 0.  1.
        1   -1    0    0  501    0  0.00000000000E+00  0.00000000000E+00 -0.12084478775E+04  0.12084478775E+04  0.50400001928E-02 0. -1.
    10030    2    1    2    0    0  0.00000000000E+00  0.00000000000E+00  0.13143250894E+04  0.37312208445E+04  0.34920708111E+04 0.  0.
        4    1    3    3  502    0 -0.29196812624E+03  0.71845553708E+03 -0.10143279543E+04  0.12768267530E+04  0.12699999809E+01 0. -1.
       -4    1    3    3    0  502  0.29196812624E+03 -0.71845553708E+03  0.23286530437E+04  0.24543940914E+04  0.12699999809E+01 0.  1.
</event>
<event>
 5   0  0.1513502E-06  0.3390683E+04  0.7818609E-02  0.8140197E-01
       -2   -1    0    0    0  501  0.00000000000E+00  0.00000000000E+00  0.18018404206E+04  0.18018404206E+04  0.25500000920E-02 0. -1.
        2   -1    0    0  501    0  0.00000000000E+00  0.00000000000E+00 -0.15951370163E+04  0.15951370163E+04  0.25500000920E-02 0.  1.
    10030    2    1    2    0    0  0.00000000000E+00  0.00000000000E+00  0.20670340423E+03  0.33969774369E+04  0.33906827350E+04 0.  0.
        3    1    3    3  502    0 -0.14094584632E+04 -0.82271553352E+03  0.56327730054E+03  0.17264748292E+04  0.10100000352E+00 0. -1.
       -3    1    3    3    0  502  0.14094584632E+04  0.82271553352E+03 -0.35657389631E+03  0.16705026077E+04  0.10100000352E+00 0.  1.
</event>
<event>
 5   0  0.2382711E-06  0.3606470E+04  0.7818609E-02  0.8089011E-01
       -2   -1    0    0    0  501  0.00000000000E+00  0.00000000000E+00  0.15287230000E+04  0.15287230000E+04  0.25500000920E-02 0.  1.
        2   -1    0    0  501    0  0.00000000000E+00  0.00000000000E+00 -0.21270404399E+04  0.21270404399E+04  0.25500000920E-02 0. -1.
    10030    2    1    2    0    0  0.00000000000E+00  0.00000000000E+00 -0.59831743996E+03  0.36557634399E+04  0.36064695437E+04 0.  0.
        5    1    3    3  502    0 -0.21455959180E+03  0.37886922946E+03  0.14746319636E+04  0.15375757638E+04  0.46999998093E+01 0.  1.
       -5    1    3    3    0  502  0.21455959180E+03 -0.37886922946E+03 -0.20729494036E+04  0.21181876761E+04  0.46999998093E+01 0. -1.
</event>
<event>
 5   0  0.2536619E-06  0.3695144E+04  0.7818609E-02  0.8069039E-01
       -2   -1    0    0    0  501  0.00000000000E+00  0.00000000000E+00  0.22638909564E+04  0.22638909564E+04  0.25500000920E-02 0. -1.
        2   -1    0    0  501    0  0.00000000000E+00  0.00000000000E+00 -0.15078123322E+04  0.15078123322E+04  0.25500000920E-02 0.  1.
    10030    2    1    2    0    0  0.00000000000E+00  0.00000000000E+00  0.75607862418E+03  0.37717032886E+04  0.36951442207E+04 0.  0.
        1    1    3    3  502    0  0.14825351640E+04 -0.10477543829E+04  0.27674033191E+02  0.18156171434E+04  0.50400001928E-02 0.  1.
       -1    1    3    3    0  502 -0.14825351640E+04  0.10477543829E+04  0.72840459099E+03  0.19560861452E+04  0.50400001928E-02 0. -1.
</event>
<event>
 5   0  0.2382711E-06  0.2376265E+04  0.7818609E-02  0.8448443E-01
       -2   -1    0    0    0  501  0.00000000000E+00  0.00000000000E+00  0.86538094069E+03  0.86538094069E+03  0.25500000920E-02 0.  1.
        2   -1    0    0  501    0  0.00000000000E+00  0.00000000000E+00 -0.16312574930E+04  0.16312574930E+04  0.25500000920E-02 0. -1.
    10030    2    1    2    0    0  0.00000000000E+00  0.00000000000E+00 -0.76587655228E+03  0.24966384337E+04  0.23762652577E+04 0.  0.
        5    1    3    3  502    0  0.88451347207E+03 -0.79140561338E+03 -0.32587179922E+03  0.12308133273E+04  0.46999998093E+01 0.  1.
       -5    1    3    3    0  502 -0.88451347207E+03  0.79140561338E+03 -0.44000475306E+03  0.12658251064E+04  0.46999998093E+01 0. -1.
</event>
<event>
 5   0  0.1634374E-06  0.3605300E+04  0.7818609E-02  0.8089279E-01
       -1   -1    0    0    0  501  0.00000000000E+00  0.00000000000E+00  0.12179612950E+04  0.12179612950E+04  0.50400001928E-02 0.  1.
        1   -1    0    0  501    0  0.00000000000E+00  0.00000000000E+00 -0.26680213681E+04  0.26680213681E+04  0.50400001928E-02 0. -1.
    10030    2    1    2    0    0  0.00000000000E+00  0.00000000000E+00 -0.14500600731E+04  0.38859826632E+04  0.36052998548E+04 0.  0.
        5    1    3    3  502    0  0.10345151524E+04 -0.50377980480E+01  0.86613693048E+03  0.13492450675E+04  0.46999998093E+01 0.  1.
       -5    1    3    3    0  502 -0.10345151524E+04  0.50377980480E+01 -0.23161970036E+04  0.25367375956E+04  0.46999998093E+01 0. -1.
</event>
<event>
 5   0  0.2422436E-06  0.2089482E+04  0.7818609E-02  0.8565891E-01
       -2   -1    0    0    0  501  0.00000000000E+00  0.00000000000E+00  0.10006490033E+04  0.10006490033E+04  0.25500000920E-02 0. -1.
        2   -1    0    0  501    0  0.00000000000E+00  0.00000000000E+00 -0.10907760789E+04  0.10907760789E+04  0.25500000920E-02 0.  1.
    10030    2    1    2    0    0  0.00000000000E+00  0.00000000000E+00 -0.90127075592E+02  0.20914250821E+04  0.20894822288E+04 0.  0.
        2    1    3    3  502    0 -0.27359684728E+03 -0.10082768591E+04 -0.47622587078E+02  0.10458228198E+04  0.25500000920E-02 0. -1.
       -2    1    3    3    0  502  0.27359684728E+03  0.10082768591E+04 -0.42504488514E+02  0.10456022624E+04  0.25500000920E-02 0.  1.
</event>
<event>
 5   0  0.2536619E-06  0.3592156E+04  0.7818609E-02  0.8092291E-01
       -2   -1    0    0    0  501  0.00000000000E+00  0.00000000000E+00  0.17618284097E+04  0.17618284097E+04  0.25500000920E-02 0.  1.
        2   -1    0    0  501    0  0.00000000000E+00  0.00000000000E+00 -0.18309930741E+04  0.18309930741E+04  0.25500000920E-02 0. -1.
    10030    2    1    2    0    0  0.00000000000E+00  0.00000000000E+00 -0.69164664389E+02  0.35928214838E+04  0.35921556848E+04 0.  0.
        1    1    3    3  502    0  0.71922720663E+03  0.33000609276E+03 -0.16472408854E+04  0.18274556987E+04  0.50400001928E-02 0. -1.
       -1    1    3    3    0  502 -0.71922720663E+03 -0.33000609276E+03  0.15780762210E+04  0.17653657852E+04  0.50400001928E-02 0.  1.
</event>
<event>
 5   0  0.8423692E-07  0.3563926E+04  0.7818609E-02  0.8098805E-01
       -1   -1    0    0    0  501  0.00000000000E+00  0.00000000000E+00  0.24773792334E+04  0.24773792334E+04  0.50400001928E-02 0. -1.
        1   -1    0    0  501    0  0.00000000000E+00  0.00000000000E+00 -0.12817545890E+04  0.12817545890E+04  0.50400001928E-02 0.  1.
    10030    2    1    2    0    0  0.00000000000E+00  0.00000000000E+00  0.11956246444E+04  0.37591338224E+04  0.35639260380E+04 0.  0.
        2    1    3    3  502    0 -0.55970508046E+03 -0.10224302620E+04 -0.82388694074E+03  0.14273833083E+04  0.25500000920E-02 0.  1.
       -2    1    3    3    0  502  0.55970508046E+03  0.10224302620E+04  0.20195115851E+04  0.23317505141E+04  0.25500000920E-02 0. -1.
</event>
<event>
 5   0  0.8452742E-07  0.2375514E+04  0.7818609E-02  0.8448728E-01
        1   -1    0    0  501    0  0.00000000000E+00  0.00000000000E+00  0.22891174694E+04  0.22891174694E+04  0.50400001928E-02 0. -1.
       -1   -1    0    0    0  501  0.00000000000E+00  0.00000000000E+00 -0.61629272616E+03  0.61629272618E+03  0.50400001928E-02 0.  1.
    10030    2    1    2    0    0  0.00000000000E+00  0.00000000000E+00  0.16728247433E+04  0.29054101956E+04  0.23755137935E+04 0.  0.
        1    1    3    3  502    0 -0.11132746781E+04 -0.33729509546E+03  0.54283077947E+03  0.12836719774E+04  0.50400001928E-02 0. -1.
       -1    1    3    3    0  502  0.11132746781E+04  0.33729509546E+03  0.11299939638E+04  0.16217382183E+04  0.50400001928E-02 0.  1.
</event>
<event>
 5   0  0.2422436E-06  0.1773829E+04  0.7818609E-02  0.8720342E-01
       -2   -1    0    0    0  501  0.00000000000E+00  0.00000000000E+00  0.11373227074E+04  0.11373227074E+04  0.25500000920E-02 0. -1.
        2   -1    0    0  501    0  0.00000000000E+00  0.00000000000E+00 -0.69163948888E+03  0.69163948889E+03  0.25500000920E-02 0.  1.
    10030    2    1    2    0    0  0.00000000000E+00  0.00000000000E+00  0.44568321850E+03  0.18289621963E+04  0.17738289614E+04 0.  0.
        2    1    3    3  502    0  0.39709329823E+03 -0.43759574679E+03  0.90479438976E+03  0.10806599895E+04  0.25500000920E-02 0. -1.
       -2    1    3    3    0  502 -0.39709329823E+03  0.43759574679E+03 -0.45911117126E+03  0.74830220679E+03  0.25500000920E-02 0.  1.
</event>
<event>
 5   0  0.7754556E-07  0.3209450E+04  0.7818609E-02  0.8186326E-01
        1   -1    0    0  501    0  0.00000000000E+00  0.00000000000E+00  0.11157501584E+04  0.11157501584E+04  0.50400001928E-02 0.  1.
       -1   -1    0    0    0  501  0.00000000000E+00  0.00000000000E+00 -0.23079919070E+04  0.23079919070E+04  0.50400001928E-02 0. -1.
    10030    2    1    2    0    0  0.00000000000E+00  0.00000000000E+00 -0.11922417486E+04  0.34237420653E+04  0.32094500063E+04 0.  0.
        4    1    3    3  502    0 -0.15750097829E+03  0.10052002297E+04 -0.19199063834E+04  0.21728497863E+04  0.12699999809E+01 0. -1.
       -4    1    3    3    0  502  0.15750097829E+03 -0.10052002297E+04  0.72766463479E+03  0.12508922790E+04  0.12699999809E+01 0.  1.
</event>
<event>
 5   0  0.7754556E-07  0.2147271E+04  0.7818609E-02  0.8540701E-01
       -1   -1    0    0    0  501  0.00000000000E+00  0.00000000000E+00  0.11107664833E+04  0.11107664834E+04  0.50400001928E-02 0. -1.
        1   -1    0    0  501    0  0.00000000000E+00  0.00000000000E+00 -0.10377457354E+04  0.10377457354E+04  0.50400001928E-02 0.  1.
    10030    2    1    2    0    0  0.00000000000E+00  0.00000000000E+00  0.73020747923E+02  0.21485122188E+04  0.21472709947E+04 0.  0.
        4    1    3    3  502    0  0.91367598420E+03 -0.54640710062E+03  0.17561247641E+03  0.10789837248E+04  0.12699999809E+01 0. -1.
       -4    1    3    3    0  502 -0.91367598420E+03  0.54640710062E+03 -0.10259172849E+03  0.10695284940E+04  0.12699999809E+01 0.  1.
</event>
<event>
 5   0  0.2382711E-06  0.3617546E+04  0.7818609E-02  0.8086484E-01
       -2   -1    0    0    0  501  0.00000000000E+00  0.00000000000E+00  0.15225490105E+04  0.15225490105E+04  0.25500000920E-02 0. -1.
        2   -1    0    0  501    0  0.00000000000E+00  0.00000000000E+00 -0.21488039902E+04  0.21488039902E+04  0.25500000920E-02 0.  1.
    10030    2    1    2    0    0  0.00000000000E+00  0.00000000000E+00 -0.62625497963E+03  0.36713530007E+04  0.36175457919E+04 0.  0.
        5    1    3    3  502    0  0.12383437371E+04 -0.12563305487E+04 -0.71879235032E+03  0.19048743244E+04  0.46999998093E+01 0. -1.
       -5    1    3    3    0  502 -0.12383437371E+04  0.12563305487E+04  0.92537370683E+02  0.17664786763E+04  0.46999998093E+01 0.  1.
</event>
<event>
 5   0  0.1566576E-06  0.3596578E+04  0.7818609E-02  0.8091276E-01
       -2   -1    0    0    0  501  0.00000000000E+00  0.00000000000E+00  0.11109349933E+04  0.11109349933E+04  0.25500000920E-02 0.  1.
        2   -1    0    0  501    0  0.00000000000E+00  0.00000000000E+00 -0.29109210666E+04  0.29109210666E+04  0.25500000920E-02 0. -1.
    10030    2    1    2    0    0  0.00000000000E+00  0.00000000000E+00 -0.17999860733E+04  0.40218560599E+04  0.35965784160E+04 0.  0.
        4    1    3    3  502    0 -0.25717045956E+03  0.60078951423E+03 -0.27734316063E+04  0.28493875084E+04  0.12699999809E+01 0. -1.
       -4    1    3    3    0  502  0.25717045956E+03 -0.60078951423E+03  0.97344553298E+03  0.11724685515E+04  0.12699999809E+01 0.  1.
</event>
<event>
 5   0  0.2382711E-06  0.3746900E+04  0.7818609E-02  0.8057647E-01
       -2   -1    0    0    0  501  0.00000000000E+00  0.00000000000E+00  0.12407834761E+04  0.12407834762E+04  0.25500000920E-02 0. -1.
        2   -1    0    0  501    0  0.00000000000E+00  0.00000000000E+00 -0.28287082356E+04  0.28287082356E+04  0.25500000920E-02 0.  1.
    10030    2    1    2    0    0  0.00000000000E+00  0.00000000000E+00 -0.15879247594E+04  0.40694917117E+04  0.37468997518E+04 0.  0.
        5    1    3    3  502    0  0.16185428054E+04 -0.30451974562E+03 -0.17638034291E+04  0.24131800005E+04  0.46999998093E+01 0.  1.
       -5    1    3    3    0  502 -0.16185428054E+04  0.30451974562E+03  0.17587866968E+03  0.16563117112E+04  0.46999998093E+01 0. -1.
</event>
<event>
 5   0  0.1566576E-06  0.2212057E+04  0.7818609E-02  0.8513427E-01
       -2   -1    0    0    0  501  0.00000000000E+00  0.00000000000E+00  0.57022964794E+03  0.57022964794E+03  0.25500000920E-02 0.  1.
        2   -1    0    0  501    0  0.00000000000E+00  0.00000000000E+00 -0.21452738555E+04  0.21452738555E+04  0.25500000920E-02 0. -1.
    10030    2    1    2    0    0  0.00000000000E+00  0.00000000000E+00 -0.15750442076E+04  0.27155035034E+04  0.22120567401E+04 0.  0.
        4    1    3    3  502    0  0.64027721802E+03 -0.89697881209E+03 -0.67255210346E+03  0.12910669425E+04  0.12699999809E+01 0.  1.
       -4    1    3    3    0  502 -0.64027721802E+03  0.89697881209E+03 -0.90249210409E+03  0.14244365609E+04  0.12699999809E+01 0. -1.
</event>
<event>
 5   0  0.1566576E-06  0.3076698E+04  0.7818609E-02  0.8222162E-01
       -2   -1    0    0    0  501  0.00000000000E+00  0.00000000000E+00  0.79155608592E+03  0.79155608592E+03  0.25500000920E-02 0. -1.
        2   -1    0    0  501    0  0.00000000000E+00  0.00000000000E+00 -0.29897025995E+04  0.29897025995E+04  0.25500000920E-02 0.  1.
    10030    2    1    2    0    0  0.00000000000E+00  0.00000000000E+00 -0.21981465136E+04  0.37812586855E+04  0.30766977673E+04 0.  0.
        4    1    3    3  502    0 -0.23485804432E+03 -0.13168293129E+04 -0.16526205822E+03  0.13477799898E+04  0.12699999809E+01 0. -1.
       -4    1    3    3    0  502  0.23485804432E+03  0.13168293129E+04 -0.20328844554E+04  0.24334786956E+04  0.12699999809E+01 0.  1.
</event>
<event>
 5   0  0.1513502E-06  0.3363836E+04  0.7818609E-02  0.8146840E-01
        2   -1    0    0  501    0  0.00000000000E+00  0.00000000000E+00  0.14025496571E+04  0.14025496571E+04  0.25500000920E-02 0. -1.
       -2   -1    0    0    0  501  0.00000000000E+00  0.00000000000E+00 -0.20169322389E+04  0.20169322389E+04  0.25500000920E-02 0.  1.
    10030    2    1    2    0    0  0.00000000000E+00  0.00000000000E+00 -0.61438258184E+03  0.34194818961E+04  0.33638356798E+04 0.  0.
        3    1    3    3  502    0  0.22785858922E+03  0.66803266743E+03  0.12447133692E+04  0.14309083000E+04  0.10100000352E+00 0. -1.
       -3    1    3    3    0  502 -0.22785858922E+03 -0.66803266743E+03 -0.18590959510E+04  0.19885735960E+04  0.10100000352E+00 0.  1.
</event>
<event>
 5   0  0.2536619E-06  0.3673462E+04  0.7818609E-02  0.8073869E-01
        2   -1    0    0  501    0  0.00000000000E+00  0.00000000000E+00  0.19400644316E+04  0.19400644316E+04  0.25500000920E-02 0.  1.
       -2   -1    0    0    0  501  0.00000000000E+00  0.00000000000E+00 -0.17389011273E+04  0.17389011273E+04  0.25500000920E-02 0. -1.
    10030    2    1    2    0    0  0.00000000000E+00  0.00000000000E+00  0.20116330424E+03  0.36789655589E+04  0.36734617065E+04 0.  0.
        1    1    3    3  502    0  0.48460283298E+03  0.13066616934E+04 -0.10976119631E+04  0.17739663774E+04  0.50400001928E-02 0. -1.
       -1    1    3    3    0  502 -0.48460283298E+03 -0.13066616934E+04  0.12987752673E+04  0.19049991815E+04  0.50400001928E-02 0.  1.
</event>
<event>
 5   0  0.1566576E-06  0.2703454E+04  0.7818609E-02  0.8333885E-01
        2   -1    0    0  501    0  0.00000000000E+00  0.00000000000E+00  0.15233635765E+04  0.15233635765E+04  0.25500000920E-02 0.  1.
       -2   -1    0    0    0  501  0.00000000000E+00  0.00000000000E+00 -0.11994287560E+04  0.11994287560E+04  0.25500000920E-02 0. -1.
    10030    2    1    2    0    0  0.00000000000E+00  0.00000000000E+00  0.32393482055E+03  0.27227923325E+04  0.27034541458E+04 0.  0.
        4    1    3    3  502    0 -0.96282250712E+03  0.41720005577E+03 -0.69623191147E+03  0.12592948639E+04  0.12699999809E+01 0. -1.
       -4    1    3    3    0  502  0.96282250712E+03 -0.41720005577E+03  0.10201667320E+04  0.14634974687E+04  0.12699999809E+01 0.  1.
</event>
<event>
 5   0  0.8452742E-07  0.3520628E+04  0.7818609E-02  0.8108919E-01
        1   -1    0    0  501    0  0.00000000000E+00  0.00000000000E+00  0.27987878916E+04  0.27987878916E+04  0.50400001928E-02 0. -1.
       -1   -1    0    0    0  501  0.00000000000E+00  0.00000000000E+00 -0.11071599183E+04  0.11071599184E+04  0.50400001928E-02 0.  1.
    10030    2    1    2    0    0  0.00000000000E+00  0.00000000000E+00  0.16916279732E+04  0.39059478099E+04  0.35206282244E+04 0.  0.
        1    1    3    3  502    0  0.17496949319E+04 -0.13219387049E+03  0.10019198149E+04  0.20205818196E+04  0.50400001928E-02 0. -1.
       -1    1    3    3    0  502 -0.17496949319E+04  0.13219387049E+03  0.68970815831E+03  0.18853659904E+04  0.50400001928E-02 0.  1.
</event>
<event>
 5   0  0.2382711E-06  0.1867069E+04  0.7818609E-02  0.8671424E-01
       -2   -1    0    0    0  501  0.00000000000E+00  0.00000000000E+00  0.69980452951E+03  0.69980452951E+03  0.25500000920E-02 0.  1.
        2   -1    0    0  501    0  0.00000000000E+00  0.00000000000E+00 -0.12453282442E+04  0.12453282442E+04  0.25500000920E-02 0. -1.
    10030    2    1    2    0    0  0.00000000000E+00  0.00000000000E+00 -0.54552371472E+03  0.19451327737E+04  0.18670686608E+04 0.  0.
        5    1    3    3  502    0  0.89951663742E+03 -0.17901086361E+03 -0.45407645119E+03  0.10234171114E+04  0.46999998093E+01 0. -1.
       -5    1    3    3    0  502 -0.89951663742E+03  0.17901086361E+03 -0.91447263521E+02  0.92171566238E+03  0.46999998093E+01 0.  1.
</event>
<event>
 5   0  0.1908273E-06  0.3580745E+04  0.7818609E-02  0.8094917E-01
       -1   -1    0    0    0  501  0.00000000000E+00  0.00000000000E+00  0.14678137099E+04  0.14678137100E+04  0.50400001928E-02 0.  1.
        1   -1    0    0  501    0  0.00000000000E+00  0.00000000000E+00 -0.21838145444E+04  0.21838145444E+04  0.50400001928E-02 0. -1.
    10030    2    1    2    0    0  0.00000000000E+00  0.00000000000E+00 -0.71600083445E+03  0.36516282544E+04  0.35807445752E+04 0.  0.
        3    1    3    3  502    0  0.15005471194E+04 -0.86260172894E+03  0.10900539640E+03  0.17342449616E+04  0.10100000352E+00 0. -1.
       -3    1    3    3    0  502 -0.15005471194E+04  0.86260172894E+03 -0.82500623085E+03  0.19173832928E+04  0.10100000352E+00 0.  1.
</event>
<event>
 5   0  0.1566576E-06  0.4127397E+04  0.7818609E-02  0.7979328E-01
        2   -1    0    0  501    0  0.00000000000E+00  0.00000000000E+00  0.27201167715E+04  0.27201167715E+04  0.25500000920E-02 0. -1.
       -2   -1    0    0    0  501  0.00000000000E+00  0.00000000000E+00 -0.15656870157E+04  0.15656870157E+04  0.25500000920E-02 0.  1.
    10030    2    1    2    0    0  0.00000000000E+00  0.00000000000E+00  0.11544297558E+04  0.42858037873E+04  0.41273970056E+04 0.  0.
        4    1    3    3  502    0 -0.19218487815E+04  0.14329783904E+03  0.13436576374E+04  0.23493519253E+04  0.12699999809E+01 0. -1.
       -4    1    3    3    0  502  0.19218487815E+04 -0.14329783904E+03 -0.18922788154E+03  0.19364518619E+04  0.12699999809E+01 0.  1.
</event>
<event>
 5   0  0.9286491E-07  0.2011081E+04  0.7818609E-02  0.8601457E-01
        1   -1    0    0  501    0  0.00000000000E+00  0.00000000000E+00  0.16938070868E+04  0.16938070868E+04  0.50400001928E-02 0. -1.
       -1   -1    0    0    0  501  0.00000000000E+00  0.00000000000E+00 -0.59694610181E+03  0.59694610183E+03  0.50400001928E-02 0.  1.
    10030    2    1    2    0    0  0.00000000000E+00  0.00000000000E+00  0.10968609850E+04  0.22907531887E+04  0.20110808415E+04 0.  0.
        4    1    3    3  502    0  0.20462828381E+02 -0.74553069092E+03 -0.21980593151E+03  0.77752877688E+03  0.12699999809E+01 0.  1.
       -4    1    3    3    0  502 -0.20462828381E+02  0.74553069092E+03  0.13166669165E+04  0.15132244118E+04  0.12699999809E+01 0. -1.
</event>
<event>
 5   0  0.1634374E-06  0.1917936E+04  0.7818609E-02  0.8645980E-01
        1   -1    0    0  501    0  0.00000000000E+00  0.00000000000E+00  0.49816107291E+03  0.49816107294E+03  0.50400001928E-02 0. -1.
       -1   -1    0    0    0  501  0.00000000000E+00  0.00000000000E+00 -0.18460278293E+04  0.18460278293E+04  0.50400001928E-02 0.  1.
    10030    2    1    2    0    0  0.00000000000E+00  0.00000000000E+00 -0.13478667564E+04  0.23441889022E+04  0.19179355611E+04 0.  0.
        5    1    3    3  502    0 -0.33985629767E+03  0.85936809403E+02  0.41702615023E+03  0.54481220457E+03  0.46999998093E+01 0. -1.
       -5    1    3    3    0  502  0.33985629767E+03 -0.85936809403E+02 -0.17648929066E+04  0.17993766976E+04  0.46999998093E+01 0.  1.
</event>
<event>
 5   0  0.7754556E-07  0.2157199E+04  0.7818609E-02  0.8536457E-01
       -1   -1    0    0    0  501  0.00000000000E+00  0.00000000000E+00  0.82365757089E+03  0.82365757091E+03  0.50400001928E-02 0.  1.
        1   -1    0    0  501    0  0.00000000000E+00  0.00000000000E+00 -0.14124520598E+04  0.14124520598E+04  0.50400001928E-02 0. -1.
    10030    2    1    2    0    0  0.00000000000E+00  0.00000000000E+00 -0.58879448893E+03  0.22361096307E+04  0.21571989548E+04 0.  0.
        4    1    3    3  502    0 -0.60062518726E+03  0.68088632212E+03  0.30915454094E+03  0.95913239040E+03  0.12699999809E+01 0.  1.
       -4    1    3    3    0  502  0.60062518726E+03 -0.68088632212E+03 -0.89794902987E+03  0.12769772404E+04  0.12699999809E+01 0. -1.
</event>
<event>
 5   0  0.2382711E-06  0.3165605E+04  0.7818609E-02  0.8197960E-01
       -2   -1    0    0    0  501  0.00000000000E+00  0.00000000000E+00  0.20425214533E+04  0.20425214533E+04  0.25500000920E-02 0. -1.
        2   -1    0    0  501    0  0.00000000000E+00  0.00000000000E+00 -0.12265542579E+04  0.12265542579E+04  0.25500000920E-02 0.  1.
    10030    2    1    2    0    0  0.00000000000E+00  0.00000000000E+00  0.81596719539E+03  0.32690757112E+04  0.31656047671E+04 0.  0.
        5    1    3    3  502    0  0.44400392507E+03 -0.80595699508E+03  0.17379192401E+04  0.19664921914E+04  0.46999998093E+01 0. -1.
       -5    1    3    3    0  502 -0.44400392507E+03  0.80595699508E+03 -0.92195204475E+03  0.13025835199E+04  0.46999998093E+01 0.  1.
</event>
<event>
 5   0  0.1513502E-06  0.3826713E+04  0.7818609E-02  0.8040447E-01
       -2   -1    0    0    0  501  0.00000000000E+00  0.00000000000E+00  0.18791328103E+04  0.18791328103E+04  0.25500000920E-02 0.  1.
        2   -1    0    0  501    0  0.00000000000E+00  0.00000000000E+00 -0.19482030923E+04  0.19482030923E+04  0.25500000920E-02 0. -1.
    10030    2    1    2    0    0  0.00000000000E+00  0.00000000000E+00 -0.69070282038E+02  0.38273359026E+04  0.38267126111E+04 0.  0.
        3    1    3    3  502    0 -0.10213124366E+04 -0.16107886011E+04  0.11784889277E+03  0.19109179423E+04  0.10100000352E+00 0.  1.
       -3    1    3    3    0  502  0.10213124366E+04  0.16107886011E+04 -0.18691917481E+03  0.19164179603E+04  0.10100000352E+00 0. -1.
</event>
<event>
 5   0  0.1566576E-06  0.2986564E+04  0.7818609E-02  0.8247578E-01
       -2   -1    0    0    0  501  0.00000000000E+00  0.00000000000E+00  0.14345893613E+04  0.14345893613E+04  0.25500000920E-02 0. -1.
        2   -1    0    0  501    0  0.00000000000E+00  0.00000000000E+00 -0.15543762041E+04  0.15543762041E+04  0.25500000920E-02 0.  1.
    10030    2    1    2    0    0  0.00000000000E+00  0.00000000000E+00 -0.11978684276E+03  0.29889655654E+04  0.29865642908E+04 0.  0.
        4    1    3    3  502    0 -0.63497357982E+03  0.61144070672E+03  0.11464133168E+04  0.14461384065E+04  0.12699999809E+01 0. -1.
       -4    1    3    3    0  502  0.63497357982E+03 -0.61144070672E+03 -0.12662001596E+04  0.15428271588E+04  0.12699999809E+01 0.  1.
</event>
<event>
 5   0  0.8452742E-07  0.3005012E+04  0.7818609E-02  0.8242301E-01
        1   -1    0    0  501    0  0.00000000000E+00  0.00000000000E+00  0.18427237741E+04  0.18427237741E+04  0.50400001928E-02 0.  1.
       -1   -1    0    0    0  501  0.00000000000E+00  0.00000000000E+00 -0.12251022327E+04  0.12251022327E+04  0.50400001928E-02 0. -1.
    10030    2    1    2    0    0  0.00000000000E+00  0.00000000000E+00  0.61762154137E+03  0.30678260068E+04  0.30050124858E+04 0.  0.
        1    1    3    3  502    0 -0.46295200787E+03  0.13755004340E+04 -0.88160346556E+02  0.14539938969E+04  0.50400001928E-02 0. -1.
       -1    1    3    3    0  502  0.46295200787E+03 -0.13755004340E+04  0.70578188792E+03  0.16138321099E+04  0.50400001928E-02 0.  1.
</event>
<event>
 5   0  0.2382711E-06  0.1842065E+04  0.7818609E-02  0.8684244E-01
        2   -1    0    0  501    0  0.00000000000E+00  0.00000000000E+00  0.14581736652E+04  0.14581736652E+04  0.25500000920E-02 0.  1.
       -2   -1    0    0    0  501  0.00000000000E+00  0.00000000000E+00 -0.58175598192E+03  0.58175598192E+03  0.25500000920E-02 0. -1.
    10030    2    1    2    0    0  0.00000000000E+00  0.00000000000E+00  0.87641768327E+03  0.20399296471E+04  0.18420654195E+04 0.  0.
        5    1    3    3  502    0 -0.36276475978E+03 -0.25799060992E+03  0.13311184235E+04  0.14035867530E+04  0.46999998093E+01 0.  1.
       -5    1    3    3    0  502  0.36276475978E+03  0.25799060992E+03 -0.45470074023E+03  0.63634289413E+03  0.46999998093E+01 0. -1.
</event>
<event>
 5   0  0.1566576E-06  0.3745974E+04  0.7818609E-02  0.8057849E-01
        2   -1    0    0  501    0  0.00000000000E+00  0.00000000000E+00  0.18588410219E+04  0.18588410219E+04  0.25500000920E-02 0. -1.
       -2   -1    0    0    0  501  0.00000000000E+00  0.00000000000E+00 -0.18872405756E+04  0.18872405756E+04  0.25500000920E-02 0.  1.
    10030    2    1    2    0    0  0.00000000000E+00  0.00000000000E+00 -0.28399553770E+02  0.37460815975E+04  0.37459739455E+04 0.  0.
        4    1    3    3  502    0  0.14333040186E+04  0.13645833483E+03 -0.12121896706E+04  0.18821229230E+04  0.12699999809E+01 0.  1.
       -4    1    3    3    0  502 -0.14333040186E+04 -0.13645833483E+03  0.11837901168E+04  0.18639586745E+04  0.12699999809E+01 0. -1.
</event>
<event>
 5   0  0.7754556E-07  0.3306710E+04  0.7818609E-02  0.8161190E-01
       -1   -1    0    0    0  501  0.00000000000E+00  0.00000000000E+00  0.14918777910E+04  0.14918777910E+04  0.50400001928E-02 0.  1.
        1   -1    0    0  501    0  0.00000000000E+00  0.00000000000E+00 -0.18323096543E+04  0.18323096543E+04  0.50400001928E-02 0. -1.
    10030    2    1    2    0    0  0.00000000000E+00  0.00000000000E+00 -0.34043186327E+03  0.33241874453E+04  0.33067095908E+04 0.  0.
        4    1    3    3  502    0  0.50296329207E+03  0.14938861327E+04 -0.67176439528E+03  0.17134575764E+04  0.12699999809E+01 0. -1.
       -4    1    3    3    0  502 -0.50296329207E+03 -0.14938861327E+04  0.33133253201E+03  0.16107298688E+04  0.12699999809E+01 0.  1.
</event>
<event>
 5   0  0.1566576E-06  0.2025104E+04  0.7818609E-02  0.8594973E-01
        2   -1    0    0  501    0  0.00000000000E+00  0.00000000000E+00  0.20845804296E+04  0.20845804296E+04  0.25500000920E-02 0.  1.
       -2   -1    0    0    0  501  0.00000000000E+00  0.00000000000E+00 -0.49183090788E+03  0.49183090788E+03  0.25500000920E-02 0. -1.
    10030    2    1    2    0    0  0.00000000000E+00  0.00000000000E+00  0.15927495217E+04  0.25764113375E+04  0.20251035383E+04 0.  0.
        4    1    3    3  502    0  0.99826478999E+03 -0.65353726019E+02  0.99533150098E+03  0.14112016547E+04  0.12699999809E+01 0.  1.
       -4    1    3    3    0  502 -0.99826478999E+03  0.65353726019E+02  0.59741802071E+03  0.11652096828E+04  0.12699999809E+01 0. -1.
</event>
<event>
 5   0  0.7754556E-07  0.3586127E+04  0.7818609E-02  0.8093677E-01
       -1   -1    0    0    0  501  0.00000000000E+00  0.00000000000E+00  0.11759155011E+04  0.11759155011E+04  0.50400001928E-02 0. -1.
        1   -1    0    0  501    0  0.00000000000E+00  0.00000000000E+00 -0.27341050646E+04  0.27341050646E+04  0.50400001928E-02 0.  1.
    10030    2    1    2    0    0  0.00000000000E+00  0.00000000000E+00 -0.15581895635E+04  0.39100205657E+04  0.35861268952E+04 0.  0.
        4    1    3    3  502    0  0.10686403623E+04 -0.31526981294E+03 -0.23108613934E+04  0.25654374425E+04  0.12699999809E+01 0.  1.
       -4    1    3    3    0  502 -0.10686403623E+04  0.31526981294E+03  0.75267182985E+03  0.13445831232E+04  0.12699999809E+01 0. -1.
</event>
<event>
 5   0  0.7754556E-07  0.3350216E+04  0.7818609E-02  0.8150234E-01
       -1   -1    0    0    0  501  0.00000000000E+00  0.00000000000E+00  0.17951501725E+04  0.17951501725E+04  0.50400001928E-02 0. -1.
        1   -1    0    0  501    0  0.00000000000E+00  0.00000000000E+00 -0.15630926553E+04  0.15630926553E+04  0.50400001928E-02 0.  1.
    10030    2    1    2    0    0  0.00000000000E+00  0.00000000000E+00  0.23205751726E+03  0.33582428278E+04  0.33502155452E+04 0.  0.
        4    1    3    3  502    0  0.61806272711E+03  0.12940298980E+04 -0.75176462710E+03  0.16191561318E+04  0.12699999809E+01 0.  1.
       -4    1    3    3    0  502 -0.61806272711E+03 -0.12940298980E+04  0.98382214436E+03  0.17390866960E+04  0.12699999809E+01 0. -1.
</event>
<event>
 5   0  0.1513502E-06  0.1848243E+04  0.7818609E-02  0.8681057E-01
       -2   -1    0    0    0  501  0.00000000000E+00  0.00000000000E+00  0.26399822941E+03  0.26399822943E+03  0.25500000920E-02 0.  1.
        2   -1    0    0  501    0  0.00000000000E+00  0.00000000000E+00 -0.32348716345E+04  0.32348716345E+04  0.25500000920E-02 0. -1.
    10030    2    1    2    0    0  0.00000000000E+00  0.00000000000E+00 -0.29708734051E+04  0.34988698639E+04  0.18482428238E+04 0.  0.
        3    1    3    3  502    0 -0.55139145226E+03  0.58906279872E+03 -0.23383163404E+04  0.24736108894E+04  0.10100000352E+00 0. -1.
       -3    1    3    3    0  502  0.55139145226E+03 -0.58906279872E+03 -0.63255706471E+03  0.10252589745E+04  0.10100000352E+00 0.  1.
</event>
<event>
 5   0  0.7707500E-07  0.2732449E+04  0.7818609E-02  0.8324553E-01
        3   -1    0    0  501    0  0.00000000000E+00  0.00000000000E+00  0.13649397396E+04  0.13649397433E+04  0.10100000352E+00 0. -1.
       -3   -1    0    0    0  501  0.00000000000E+00  0.00000000000E+00 -0.13675104569E+04  0.13675104606E+04  0.10100000352E+00 0.  1.
    10030    2    1    2    0    0  0.00000000000E+00  0.00000000000E+00 -0.25707172909E+01  0.27324502040E+04  0.27324489947E+04 0.  0.
        2    1    3    3  502    0 -0.31140346049E+03  0.17271753815E+02  0.13288652022E+04  0.13649736826E+04  0.25500000920E-02 0. -1.
       -2    1    3    3    0  502  0.31140346049E+03 -0.17271753815E+02 -0.13314359195E+04  0.13674765213E+04  0.25500000920E-02 0.  1.
</event>
<event>
 5   0  0.2536619E-06  0.2752623E+04  0.7818609E-02  0.8318130E-01
       -2   -1    0    0    0  501  0.00000000000E+00  0.00000000000E+00  0.67090204658E+03  0.67090204659E+03  0.25500000920E-02 0. -1.
        2   -1    0    0  501    0  0.00000000000E+00  0.00000000000E+00 -0.28234123446E+04  0.28234123446E+04  0.25500000920E-02 0.  1.
    10030    2    1    2    0    0  0.00000000000E+00  0.00000000000E+00 -0.21525102980E+04  0.34943143912E+04  0.27526228367E+04 0.  0.
        1    1    3    3  502    0 -0.13496972949E+04 -0.87571827658E+02 -0.75290301323E+03  0.15479711109E+04  0.50400001928E-02 0. -1.
       -1    1    3    3    0  502  0.13496972949E+04  0.87571827658E+02 -0.13996072848E+04  0.19463432802E+04  0.50400001928E-02 0.  1.
</event>
<event>
 5   0  0.1566576E-06  0.3699140E+04  0.7818609E-02  0.8068152E-01
        2   -1    0    0  501    0  0.00000000000E+00  0.00000000000E+00  0.10971510749E+04  0.10971510749E+04  0.25500000920E-02 0. -1.
       -2   -1    0    0    0  501  0.00000000000E+00  0.00000000000E+00 -0.31179934196E+04  0.31179934196E+04  0.25500000920E-02 0.  1.
    10030    2    1    2    0    0  0.00000000000E+00  0.00000000000E+00 -0.20208423448E+04  0.42151444945E+04  0.36991403497E+04 0.  0.
        4    1    3    3  502    0  0.48895685757E+03  0.80005399173E+03  0.80625482155E+03  0.12366137830E+04  0.12699999809E+01 0. -1.
       -4    1    3    3    0  502 -0.48895685757E+03 -0.80005399173E+03 -0.28270971663E+04  0.29785307114E+04  0.12699999809E+01 0.  1.
</event>
<event>
 5   0  0.2536619E-06  0.1850431E+04  0.7818609E-02  0.8679931E-01
       -2   -1    0    0    0  501  0.00000000000E+00  0.00000000000E+00  0.66960197602E+03  0.66960197602E+03  0.25500000920E-02 0.  1.
        2   -1    0    0  501    0  0.00000000000E+00  0.00000000000E+00 -0.12784065830E+04  0.12784065830E+04  0.25500000920E-02 0. -1.
    10030    2    1    2    0    0  0.00000000000E+00  0.00000000000E+00 -0.60880460700E+03  0.19480085590E+04  0.18504308408E+04 0.  0.
        1    1    3    3  502    0  0.26316065545E+03  0.88279520526E+03 -0.39522248358E+03  0.10023880070E+04  0.50400001928E-02 0. -1.
       -1    1    3    3    0  502 -0.26316065545E+03 -0.88279520526E+03 -0.21358212342E+03  0.94562055206E+03  0.50400001928E-02 0.  1.
</event>
<event>
 5   0  0.2536619E-06  0.3720844E+04  0.7818609E-02  0.8063358E-01
        2   -1    0    0  501    0  0.00000000000E+00  0.00000000000E+00  0.25453396580E+04  0.25453396580E+04  0.25500000920E-02 0. -1.
       -2   -1    0    0    0  501  0.00000000000E+00  0.00000000000E+00 -0.13598070406E+04  0.13598070406E+04  0.25500000920E-02 0.  1.
    10030    2    1    2    0    0  0.00000000000E+00  0.00000000000E+00  0.11855326173E+04  0.39051466986E+04  0.37208444137E+04 0.  0.
        1    1    3    3  502    0 -0.12211728060E+04 -0.12609906136E+04 -0.54047511068E+02  0.17562122546E+04  0.50400001928E-02 0.  1.
       -1    1    3    3    0  502  0.12211728060E+04  0.12609906136E+04  0.12395801284E+04  0.21489344440E+04  0.50400001928E-02 0. -1.
</event>
<event>
 5   0  0.2382711E-06  0.3645089E+04  0.7818609E-02  0.8080241E-01
       -2   -1    0    0    0  501  0.00000000000E+00  0.00000000000E+00  0.29481827359E+04  0.29481827359E+04  0.25500000920E-02 0.  1.
        2   -1    0    0  501    0  0.00000000000E+00  0.00000000000E+00 -0.11266833497E+04  0.11266833497E+04  0.25500000920E-02 0. -1.
    10030    2    1    2    0    0  0.00000000000E+00  0.00000000000E+00  0.18214993862E+04  0.40748660857E+04  0.36450889704E+04 0.  0.
        5    1    3    3  502    0  0.15899279033E+04  0.88982221946E+03  0.96064375306E+03  0.20597361070E+04  0.46999998093E+01 0.  1.
       -5    1    3    3    0  502 -0.15899279033E+04 -0.88982221946E+03  0.86085563310E+03  0.20151299787E+04  0.46999998093E+01 0. -1.
</event>
<event>
 5   0  0.8423692E-07  0.2216034E+04  0.7818609E-02  0.8511784E-01
       -1   -1    0    0    0  501  0.00000000000E+00  0.00000000000E+00  0.61190452763E+03  0.61190452765E+03  0.50400001928E-02 0. -1.
        1   -1    0    0  501    0  0.00000000000E+00  0.00000000000E+00 -0.20063614140E+04  0.20063614141E+04  0.50400001928E-02 0.  1.
    10030    2    1    2    0    0  0.00000000000E+00  0.00000000000E+00 -0.13944568864E+04  0.26182659417E+04  0.22160339649E+04 0.  0.
        2    1    3    3  502    0 -0.12722639874E+03  0.59440042191E+03  0.39731351035E+03  0.72619311730E+03  0.25500000920E-02 0. -1.
       -2    1    3    3    0  502  0.12722639874E+03 -0.59440042191E+03 -0.17917703968E+04  0.18920728244E+04  0.25500000920E-02 0.  1.
</event>
<event>
 5   0  0.1513502E-06  0.3212698E+04  0.7818609E-02  0.8185472E-01
        2   -1    0    0  501    0  0.00000000000E+00  0.00000000000E+00  0.22478962111E+04  0.22478962111E+04  0.25500000920E-02 0. -1.
       -2   -1    0    0    0  501  0.00000000000E+00  0.00000000000E+00 -0.11478983647E+04  0.11478983647E+04  0.25500000920E-02 0.  1.
    10030    2    1    2    0    0  0.00000000000E+00  0.00000000000E+00  0.10999978464E+04  0.33957945757E+04  0.32126975486E+04 0.  0.
        3    1    3    3  502    0  0.53400371116E+00  0.12435441256E+04  0.16247854103E+04  0.20460522763E+04  0.10100000352E+00 0. -1.
       -3    1    3    3    0  502 -0.53400371116E+00 -0.12435441256E+04 -0.52478756395E+03  0.13497422995E+04  0.10100000352E+00 0.  1.
</event>
<event>
 5   0  0.7754556E-07  0.3619743E+04  0.7818609E-02  0.8085984E-01
       -1   -1    0    0    0  501  0.00000000000E+00  0.00000000000E+00  0.25556154667E+04  0.25556154667E+04  0.50400001928E-02 0. -1.
        1   -1    0    0  501    0  0.00000000000E+00  0.00000000000E+00 -0.12817399084E+04  0.12817399084E+04  0.50400001928E-02 0.  1.
    10030    2    1    2    0    0  0.00000000000E+00  0.00000000000E+00  0.12738755583E+04  0.38373553751E+04  0.36197427169E+04 0.  0.
        4    1    3    3  502    0  0.12842834100E+04 -0.45882741263E+03  0.18983120267E+04  0.23374123803E+04  0.12699999809E+01 0. -1.
       -4    1    3    3    0  502 -0.12842834100E+04  0.45882741263E+03 -0.62443646840E+03  0.14999429948E+04  0.12699999809E+01 0.  1.
</event>
<event>
 5   0  0.8423692E-07  0.3506466E+04  0.7818609E-02  0.8112259E-01
       -1   -1    0    0    0  501  0.00000000000E+00  0.00000000000E+00  0.26190744337E+04  0.26190744338E+04  0.50400001928E-02 0. -1.
        1   -1    0    0  501    0  0.00000000000E+00  0.00000000000E+00 -0.11736302871E+04  0.11736302871E+04  0.50400001928E-02 0.  1.
    10030    2    1    2    0    0  0.00000000000E+00  0.00000000000E+00  0.14454441467E+04  0.37927047208E+04  0.35064655022E+04 0.  0.
        2    1    3    3  502    0 -0.17224282726E+03 -0.17224278280E+04  0.10236410417E+04  0.20110361002E+04  0.25500000920E-02 0.  1.
       -2    1    3    3    0  502  0.17224282726E+03  0.17224278280E+04  0.42180310504E+03  0.17816686206E+04  0.25500000920E-02 0. -1.
</event>
<event>
 5   0  0.1634374E-06  0.1887336E+04  0.7818609E-02  0.8661186E-01
       -1   -1    0    0    0  501  0.00000000000E+00  0.00000000000E+00  0.76634065708E+03  0.76634065710E+03  0.50400001928E-02 0.  1.
        1   -1    0    0  501    0  0.00000000000E+00  0.00000000000E+00 -0.11620278915E+04  0.11620278916E+04  0.50400001928E-02 0. -1.
    10030    2    1    2    0    0  0.00000000000E+00  0.00000000000E+00 -0.39568723446E+03  0.19283685486E+04  0.18873359192E+04 0.  0.
        5    1    3    3  502    0  0.54664174076E+03  0.68890593937E+03 -0.54745010779E+03  0.10359209895E+04  0.46999998093E+01 0. -1.
       -5    1    3    3    0  502 -0.54664174076E+03 -0.68890593937E+03  0.15176287333E+03  0.89244755911E+03  0.46999998093E+01 0.  1.
</event>
<event>
 5   0  0.1566576E-06  0.2041614E+04  0.7818609E-02  0.8587408E-01
        2   -1    0    0  501    0  0.00000000000E+00  0.00000000000E+00  0.11152591894E+04  0.11152591894E+04  0.25500000920E-02 0.  1.
       -2   -1    0    0    0  501  0.00000000000E+00  0.00000000000E+00 -0.93435414614E+03  0.93435414614E+03  0.25500000920E-02 0. -1.
    10030    2    1    2    0    0  0.00000000000E+00  0.00000000000E+00  0.18090504325E+03  0.20496133355E+04  0.20416141140E+04 0.  0.
        4    1    3    3  502    0 -0.23002019368E+03  0.30969607024E+03  0.10392610713E+04  0.11085513667E+04  0.12699999809E+01 0.  1.
       -4    1    3    3    0  502  0.23002019368E+03 -0.30969607024E+03 -0.85835602803E+03  0.94106196883E+03  0.12699999809E+01 0. -1.
</event>
<event>
 5   0  0.7754556E-07  0.3557128E+04  0.7818609E-02  0.8100383E-01
        1   -1    0    0  501    0  0.00000000000E+00  0.00000000000E+00  0.13149090080E+04  0.13149090080E+04  0.50400001928E-02 0.  1.
       -1   -1    0    0    0  501  0.00000000000E+00  0.00000000000E+00 -0.24057104256E+04  0.24057104256E+04  0.50400001928E-02 0. -1.
    10030    2    1    2    0    0  0.00000000000E+00  0.00000000000E+00 -0.10908014176E+04  0.37206194336E+04  0.35571282290E+04 0.  0.
        4    1    3    3  502    0 -0.10124722657E+04  0.53350659417E+02 -0.20738445355E+04  0.23084148570E+04  0.12699999809E+01 0. -1.
       -4    1    3    3    0  502  0.10124722657E+04 -0.53350659417E+02  0.98304311795E+03  0.14122045766E+04  0.12699999809E+01 0.  1.
</event>
<event>
 5   0  0.2422436E-06  0.2368537E+04  0.7818609E-02  0.8451378E-01
       -2   -1    0    0    0  501  0.00000000000E+00  0.00000000000E+00  0.10133176935E+04  0.10133176935E+04  0.25500000920E-02 0.  1.
        2   -1    0    0  501    0  0.00000000000E+00  0.00000000000E+00 -0.13840590505E+04  0.13840590505E+04  0.25500000920E-02 0. -1.
    10030    2    1    2    0    0  0.00000000000E+00  0.00000000000E+00 -0.37074135699E+03  0.23973767440E+04  0.23685366999E+04 0.  0.
        2    1    3    3  502    0 -0.11606381566E+04 -0.44896260085E+02 -0.41925770859E+03  0.12348577372E+04  0.25500000920E-02 0. -1.
       -2    1    3    3    0  502  0.11606381566E+04  0.44896260085E+02  0.48516351604E+02  0.11625190068E+04  0.25500000920E-02 0.  1.
</event>
<event>
 5   0  0.1513502E-06  0.3604994E+04  0.7818609E-02  0.8089349E-01
       -2   -1    0    0    0  501  0.00000000000E+00  0.00000000000E+00  0.13595352325E+04  0.13595352325E+04  0.25500000920E-02 0. -1.
        2   -1    0    0  501    0  0.00000000000E+00  0.00000000000E+00 -0.23897844182E+04  0.23897844182E+04  0.25500000920E-02 0.  1.
    10030    2    1    2    0    0  0.00000000000E+00  0.00000000000E+00 -0.10302491857E+04  0.37493196508E+04  0.36049943771E+04 0.  0.
        3    1    3    3  502    0 -0.35523573736E+02  0.11474957107E+04  0.93010763806E+03  0.14775346219E+04  0.10100000352E+00 0. -1.
       -3    1    3    3    0  502  0.35523573736E+02 -0.11474957107E+04 -0.19603568238E+04  0.22717850288E+04  0.10100000352E+00 0.  1.
</event>
<event>
 5   0  0.8452742E-07  0.2092915E+04  0.7818609E-02  0.8564371E-01
       -1   -1    0    0    0  501  0.00000000000E+00  0.00000000000E+00  0.49277139269E+03  0.49277139271E+03  0.50400001928E-02 0. -1.
        1   -1    0    0  501    0  0.00000000000E+00  0.00000000000E+00 -0.22222746420E+04  0.22222746420E+04  0.50400001928E-02 0.  1.
    10030    2    1    2    0    0  0.00000000000E+00  0.00000000000E+00 -0.17295032493E+04  0.27150460347E+04  0.20929150679E+04 0.  0.
        1    1    3    3  502    0 -0.38429966506E+03  0.47883623560E+03  0.23455529743E+03  0.65725684528E+03  0.50400001928E-02 0. -1.
       -1    1    3    3    0  502  0.38429966506E+03 -0.47883623560E+03 -0.19640585467E+04  0.20577891894E+04  0.50400001928E-02 0.  1.
</event>
<event>
 5   0  0.1908273E-06  0.3555621E+04  0.7818609E-02  0.8100734E-01
        1   -1    0    0  501    0  0.00000000000E+00  0.00000000000E+00  0.19425736490E+04  0.19425736490E+04  0.50400001928E-02 0. -1.
       -1   -1    0    0    0  501  0.00000000000E+00  0.00000000000E+00 -0.16270217433E+04  0.16270217433E+04  0.50400001928E-02 0.  1.
    10030    2    1    2    0    0  0.00000000000E+00  0.00000000000E+00  0.31555190572E+03  0.35695953924E+04  0.35556206575E+04 0.  0.
        3    1    3    3  502    0 -0.27052432894E+03  0.59136847670E+03  0.18188815841E+04  0.19316392818E+04  0.10100000352E+00 0. -1.
       -3    1    3    3    0  502  0.27052432894E+03 -0.59136847670E+03 -0.15033296784E+04  0.16379561105E+04  0.10100000352E+00 0.  1.
</event>
<event>
 5   0  0.2422436E-06  0.3484125E+04  0.7818609E-02  0.8117562E-01
       -2   -1    0    0    0  501  0.00000000000E+00  0.00000000000E+00  0.19743273990E+04  0.19743273990E+04  0.25500000920E-02 0. -1.
        2   -1    0    0  501    0  0.00000000000E+00  0.00000000000E+00 -0.15371221950E+04  0.15371221950E+04  0.25500000920E-02 0.  1.
    10030    2    1    2    0    0  0.00000000000E+00  0.00000000000E+00  0.43720520400E+03  0.35114495941E+04  0.34841254084E+04 0.  0.
        2    1    3    3  502    0 -0.16426740726E+04  0.68177438778E+02 -0.36189733853E+03  0.16834476397E+04  0.25500000920E-02 0.  1.
       -2    1    3    3    0  502  0.16426740726E+04 -0.68177438778E+02  0.79910254253E+03  0.18280019544E+04  0.25500000920E-02 0. -1.
</event>
<event>
 5   0  0.8423692E-07  0.3582148E+04  0.7818609E-02  0.8094593E-01
        1   -1    0    0  501    0  0.00000000000E+00  0.00000000000E+00  0.13886613089E+04  0.13886613089E+04  0.50400001928E-02 0.  1.
       -1   -1    0    0    0  501  0.00000000000E+00  0.00000000000E+00 -0.23100995061E+04  0.23100995061E+04  0.50400001928E-02 0. -1.
    10030    2    1    2    0    0  0.00000000000E+00  0.00000000000E+00 -0.92143819719E+03  0.36987608151E+04  0.35821478495E+04 0.  0.
        2    1    3    3  502    0  0.13611910491E+04  0.66938676478E+03 -0.14441019509E+04  0.20943615155E+04  0.25500000920E-02 0. -1.
       -2    1    3    3    0  502 -0.13611910491E+04 -0.66938676478E+03  0.52266375367E+03  0.16043992996E+04  0.25500000920E-02 0.  1.
</event>
<event>
 5   0  0.1513502E-06  0.3514704E+04  0.7818609E-02  0.8110314E-01
        2   -1    0    0  501    0  0.00000000000E+00  0.00000000000E+00  0.24674542793E+04  0.24674542793E+04  0.25500000920E-02 0.  1.
       -2   -1    0    0    0  501  0.00000000000E+00  0.00000000000E+00 -0.12516085152E+04  0.12516085152E+04  0.25500000920E-02 0. -1.
    10030    2    1    2    0    0  0.00000000000E+00  0.00000000000E+00  0.12158457641E+04  0.37190627945E+04  0.35147044182E+04 0.  0.
        3    1    3    3  502    0  0.10959289463E+04  0.68195411591E+03 -0.65396192966E+03  0.14469927046E+04  0.10100000352E+00 0. -1.
       -3    1    3    3    0  502 -0.10959289463E+04 -0.68195411591E+03  0.18698076937E+04  0.22720700899E+04  0.10100000352E+00 0.  1.
</event>
<event>
 5   0  0.1513502E-06  0.3669126E+04  0.7818609E-02  0.8074839E-01
        2   -1    0    0  501    0  0.00000000000E+00  0.00000000000E+00  0.13112124690E+04  0.13112124690E+04  0.25500000920E-02 0.  1.
       -2   -1    0    0    0  501  0.00000000000E+00  0.00000000000E+00 -0.25668003645E+04  0.25668003645E+04  0.25500000920E-02 0. -1.
    10030    2    1    2    0    0  0.00000000000E+00  0.00000000000E+00 -0.12555878954E+04  0.38780128335E+04  0.36691255870E+04 0.  0.
        3    1    3    3  502    0  0.16768730678E+04 -0.63028114617E+03 -0.20972055843E+03  0.18036463987E+04  0.10100000352E+00 0.  1.
       -3    1    3    3    0  502 -0.16768730678E+04  0.63028114617E+03 -0.10458673370E+04  0.20743664348E+04  0.10100000352E+00 0. -1.
</event>
<event>
 5   0  0.1566576E-06  0.3692401E+04  0.7818609E-02  0.8069648E-01
        2   -1    0    0  501    0  0.00000000000E+00  0.00000000000E+00  0.14674970134E+04  0.14674970134E+04  0.25500000920E-02 0.  1.
       -2   -1    0    0    0  501  0.00000000000E+00  0.00000000000E+00 -0.23226330005E+04  0.23226330005E+04  0.25500000920E-02 0. -1.
    10030    2    1    2    0    0  0.00000000000E+00  0.00000000000E+00 -0.85513598702E+03  0.37901300139E+04  0.36924013820E+04 0.  0.
        4    1    3    3  502    0  0.13385072369E+04 -0.11571269348E+03 -0.17273629708E+04  0.21883271000E+04  0.12699999809E+01 0. -1.
       -4    1    3    3    0  502 -0.13385072369E+04  0.11571269348E+03  0.87222698382E+03  0.16018029139E+04  0.12699999809E+01 0.  1.
</event>
<event>
 5   0  0.7754556E-07  0.3491582E+04  0.7818609E-02  0.8115788E-01
       -1   -1    0    0    0  501  0.00000000000E+00  0.00000000000E+00  0.19897548620E+04  0.19897548620E+04  0.50400001928E-02 0. -1.
        1   -1    0    0  501    0  0.00000000000E+00  0.00000000000E+00 -0.15317392596E+04  0.15317392596E+04  0.50400001928E-02 0.  1.
    10030    2    1    2    0    0  0.00000000000E+00  0.00000000000E+00  0.45801560234E+03  0.35214941216E+04  0.34915816698E+04 0.  0.
        4    1    3    3  502    0  0.13805169586E+04 -0.73833000084E+03 -0.55015559866E+03  0.16594068394E+04  0.12699999809E+01 0. -1.
       -4    1    3    3    0  502 -0.13805169586E+04  0.73833000084E+03  0.10081712010E+04  0.18620872822E+04  0.12699999809E+01 0.  1.
</event>
<event>
 5   0  0.2536619E-06  0.3427213E+04  0.7818609E-02  0.8131259E-01
        2   -1    0    0  501    0  0.00000000000E+00  0.00000000000E+00  0.14847439380E+04  0.14847439380E+04  0.25500000920E-02 0.  1.
       -2   -1    0    0    0  501  0.00000000000E+00  0.00000000000E+00 -0.19777468998E+04  0.19777468998E+04  0.25500000920E-02 0. -1.
    10030    2    1    2    0    0  0.00000000000E+00  0.00000000000E+00 -0.49300296180E+03  0.34624908379E+04  0.34272132822E+04 0.  0.
        1    1    3    3  502    0 -0.48207384177E+02  0.96211250398E+03  0.11852889337E+04  0.15273815105E+04  0.50400001928E-02 0.  1.
       -1    1    3    3    0  502  0.48207384177E+02 -0.96211250398E+03 -0.16782918955E+04  0.19351093273E+04  0.50400001928E-02 0. -1.
</event>
<event>
 5   0  0.7754556E-07  0.3700323E+04  0.7818609E-02  0.8067890E-01
       -1   -1    0    0    0  501  0.00000000000E+00  0.00000000000E+00  0.27381613073E+04  0.27381613073E+04  0.50400001928E-02 0.  1.
        1   -1    0    0  501    0  0.00000000000E+00  0.00000000000E+00 -0.12501448607E+04  0.12501448607E+04  0.50400001928E-02 0. -1.
    10030    2    1    2    0    0  0.00000000000E+00  0.00000000000E+00  0.14880164466E+04  0.39883061680E+04  0.37003233837E+04 0.  0.
        4    1    3    3  502    0 -0.14043828690E+04 -0.12044928729E+04  0.74235614556E+03  0.19935367023E+04  0.12699999809E+01 0. -1.
       -4    1    3    3    0  502  0.14043828690E+04  0.12044928729E+04  0.74566030101E+03  0.19947694657E+04  0.12699999809E+01 0.  1.
</event>
<event>
 5   0  0.1566576E-06  0.2127622E+04  0.7818609E-02  0.8549172E-01
       -2   -1    0    0    0  501  0.00000000000E+00  0.00000000000E+00  0.70888388069E+03  0.70888388069E+03  0.25500000920E-02 0. -1.
        2   -1    0    0  501    0  0.00000000000E+00  0.00000000000E+00 -0.15964453453E+04  0.15964453453E+04  0.25500000920E-02 0.  1.
    10030    2    1    2    0    0  0.00000000000E+00  0.00000000000E+00 -0.88756146465E+03  0.23053292260E+04  0.21276224963E+04 0.  0.
        4    1    3    3  502    0 -0.26657054880E+03 -0.45902338034E+03  0.55513780751E+03  0.76807676662E+03  0.12699999809E+01 0. -1.
       -4    1    3    3    0  502  0.26657054880E+03  0.45902338034E+03 -0.14426992722E+04  0.15372524594E+04  0.12699999809E+01 0.  1.
</event>
<event>
 5   0  0.7754556E-07  0.3362246E+04  0.7818609E-02  0.8147235E-01
       -1   -1    0    0    0  501  0.00000000000E+00  0.00000000000E+00  0.18981714178E+04  0.18981714178E+04  0.50400001928E-02 0.  1.
        1   -1    0    0  501    0  0.00000000000E+00  0.00000000000E+00 -0.14888935291E+04  0.14888935291E+04  0.50400001928E-02 0. -1.
    10030    2    1    2    0    0  0.00000000000E+00  0.00000000000E+00  0.40927788862E+03  0.33870649469E+04  0.33622463569E+04 0.  0.
        4    1    3    3  502    0 -0.75083781978E+02  0.14111319152E+04 -0.71271052432E+03  0.15826840370E+04  0.12699999809E+01 0. -1.
       -4    1    3    3    0  502  0.75083781978E+02 -0.14111319152E+04  0.11219884129E+04  0.18043809099E+04  0.12699999809E+01 0.  1.
</event>
<event>
 5   0  0.1513502E-06  0.3758749E+04  0.7818609E-02  0.8055066E-01
        2   -1    0    0  501    0  0.00000000000E+00  0.00000000000E+00  0.15733374222E+04  0.15733374222E+04  0.25500000920E-02 0. -1.
       -2   -1    0    0    0  501  0.00000000000E+00  0.00000000000E+00 -0.22449398940E+04  0.22449398940E+04  0.25500000920E-02 0.  1.
    10030    2    1    2    0    0  0.00000000000E+00  0.00000000000E+00 -0.67160247185E+03  0.38182773162E+04  0.37587486991E+04 0.  0.
        3    1    3    3  502    0  0.12627225063E+04  0.17356919881E+03  0.10671777334E+04  0.16623666021E+04  0.10100000352E+00 0. -1.
       -3    1    3    3    0  502 -0.12627225063E+04 -0.17356919881E+03 -0.17387802052E+04  0.21559107141E+04  0.10100000352E+00 0.  1.
</event>
<event>
 5   0  0.1513502E-06  0.3589856E+04  0.7818609E-02  0.8092819E-01
       -2   -1    0    0    0  501  0.00000000000E+00  0.00000000000E+00  0.12845519303E+04  0.12845519303E+04  0.25500000920E-02 0. -1.
        2   -1    0    0  501    0  0.00000000000E+00  0.00000000000E+00 -0.25080859718E+04  0.25080859718E+04  0.25500000920E-02 0.  1.
    10030    2    1    2    0    0  0.00000000000E+00  0.00000000000E+00 -0.12235340415E+04  0.37926379021E+04  0.35898560842E+04 0.  0.
        3    1    3    3  502    0  0.79217222636E+03 -0.10447552480E+04 -0.19068656435E+04  0.23141276881E+04  0.10100000352E+00 0.  1.
       -3    1    3    3    0  502 -0.79217222636E+03  0.10447552480E+04  0.68333160194E+03  0.14785102140E+04  0.10100000352E+00 0. -1.
</event>
<event>
 5   0  0.2422436E-06  0.3549642E+04  0.7818609E-02  0.8102125E-01
        2   -1    0    0  501    0  0.00000000000E+00  0.00000000000E+00  0.25161724598E+04  0.25161724598E+04  0.25500000920E-02 0.  1.
       -2   -1    0    0    0  501  0.00000000000E+00  0.00000000000E+00 -0.12518975199E+04  0.12518975199E+04  0.25500000920E-02 0. -1.
    10030    2    1    2    0    0  0.00000000000E+00  0.00000000000E+00  0.12642749399E+04  0.37680699797E+04  0.35496422704E+04 0.  0.
        2    1    3    3  502    0 -0.13736630109E+04  0.87389234413E+03  0.13822697265E+04  0.21357217734E+04  0.25500000920E-02 0.  1.
       -2    1    3    3    0  502  0.13736630109E+04 -0.87389234413E+03 -0.11799478657E+03  0.16323482062E+04  0.25500000920E-02 0. -1.
</event>
<event>
 5   0  0.2422436E-06  0.3729735E+04  0.7818609E-02  0.8061404E-01
       -2   -1    0    0    0  501  0.00000000000E+00  0.00000000000E+00  0.15157801250E+04  0.15157801250E+04  0.25500000920E-02 0. -1.
        2   -1    0    0  501    0  0.00000000000E+00  0.00000000000E+00 -0.22943510132E+04  0.22943510132E+04  0.25500000920E-02 0.  1.
    10030    2    1    2    0    0  0.00000000000E+00  0.00000000000E+00 -0.77857088820E+03  0.38101311383E+04  0.37297354682E+04 0.  0.
        2    1    3    3  502    0  0.12296557428E+04 -0.60752187115E+03 -0.16800866325E+04  0.21688308285E+04  0.25500000920E-02 0.  1.
       -2    1    3    3    0  502 -0.12296557428E+04  0.60752187115E+03  0.90151574429E+03  0.16413003098E+04  0.25500000920E-02 0. -1.
</event>
<event>
 5   0  0.2536619E-06  0.3631179E+04  0.7818609E-02  0.8083387E-01
        2   -1    0    0  501    0  0.00000000000E+00  0.00000000000E+00  0.20072991952E+04  0.20072991952E+04  0.25500000920E-02 0. -1.
       -2   -1    0    0    0  501  0.00000000000E+00  0.00000000000E+00 -0.16421890802E+04  0.16421890802E+04  0.25500000920E-02 0.  1.
    10030    2    1    2    0    0  0.00000000000E+00  0.00000000000E+00  0.36511011498E+03  0.36494882754E+04  0.36311787723E+04 0.  0.
        1    1    3    3  502    0  0.32146463096E+03  0.10085718770E+03  0.19756060552E+04  0.20041284805E+04  0.50400001928E-02 0. -1.
       -1    1    3    3    0  502 -0.32146463096E+03 -0.10085718770E+03 -0.16104959402E+04  0.16453597949E+04  0.50400001928E-02 0.  1.
</event>
<event>
 5   0  0.1908273E-06  0.3601266E+04  0.7818609E-02  0.8090202E-01
       -1   -1    0    0    0  501  0.00000000000E+00  0.00000000000E+00  0.14663069076E+04  0.14663069076E+04  0.50400001928E-02 0. -1.
        1   -1    0    0  501    0  0.00000000000E+00  0.00000000000E+00 -0.22111867435E+04  0.22111867435E+04  0.50400001928E-02 0.  1.
    10030    2    1    2    0    0  0.00000000000E+00  0.00000000000E+00 -0.74487983584E+03  0.36774936511E+04  0.36012655531E+04 0.  0.
        3    1    3    3  502    0  0.83717705754E+03  0.11485058810E+04 -0.15014402665E+04  0.20674269197E+04  0.10100000352E+00 0. -1.
       -3    1    3    3    0  502 -0.83717705754E+03 -0.11485058810E+04  0.75656043064E+03  0.16100667314E+04  0.10100000352E+00 0.  1.
</event>
<event>
 5   0  0.8452742E-07  0.2442400E+04  0.7818609E-02  0.8423798E-01
       -1   -1    0    0    0  501  0.00000000000E+00  0.00000000000E+00  0.14862314766E+04  0.14862314766E+04  0.50400001928E-02 0.  1.
        1   -1    0    0  501    0  0.00000000000E+00  0.00000000000E+00 -0.10034299146E+04  0.10034299147E+04  0.50400001928E-02 0. -1.
    10030    2    1    2    0    0  0.00000000000E+00  0.00000000000E+00  0.48280156197E+03  0.24896613913E+04  0.24423997410E+04 0.  0.
        1    1    3    3  502    0 -0.33636584084E+03  0.43246943248E+03  0.13539214900E+04  0.14605735826E+04  0.50400001928E-02 0.  1.
       -1    1    3    3    0  502  0.33636584084E+03 -0.43246943248E+03 -0.87111992807E+03  0.10290878087E+04  0.50400001928E-02 0. -1.
</event>
<event>
 5   0  0.1513502E-06  0.3578494E+04  0.7818609E-02  0.8095436E-01
        2   -1    0    0  501    0  0.00000000000E+00  0.00000000000E+00  0.25447465794E+04  0.25447465794E+04  0.25500000920E-02 0. -1.
       -2   -1    0    0    0  501  0.00000000000E+00  0.00000000000E+00 -0.12580445765E+04  0.12580445765E+04  0.25500000920E-02 0.  1.
    10030    2    1    2    0    0  0.00000000000E+00  0.00000000000E+00  0.12867020029E+04  0.38027911559E+04  0.35784938915E+04 0.  0.
        3    1    3    3  502    0  0.25932661586E+03  0.10590500560E+03  0.25213004952E+04  0.25368134266E+04  0.10100000352E+00 0. -1.
       -3    1    3    3    0  502 -0.25932661586E+03 -0.10590500560E+03 -0.12345984923E+04  0.12659777294E+04  0.10100000352E+00 0.  1.
</event>
<event>
 5   0  0.7754556E-07  0.3846812E+04  0.7818609E-02  0.8036183E-01
        1   -1    0    0  501    0  0.00000000000E+00  0.00000000000E+00  0.14688931364E+04  0.14688931364E+04  0.50400001928E-02 0.  1.
       -1   -1    0    0    0  501  0.00000000000E+00  0.00000000000E+00 -0.25185572676E+04  0.25185572676E+04  0.50400001928E-02 0. -1.
    10030    2    1    2    0    0  0.00000000000E+00  0.00000000000E+00 -0.10496641312E+04  0.39874504040E+04  0.38468124383E+04 0.  0.
        4    1    3    3  502    0  0.14338595241E+04  0.73239243544E+03 -0.16155065983E+04  0.22808364685E+04  0.12699999809E+01 0. -1.
       -4    1    3    3    0  502 -0.14338595241E+04 -0.73239243544E+03  0.56584246702E+03  0.17066139354E+04  0.12699999809E+01 0.  1.
</event>
<event>
 5   0  0.2422436E-06  0.2992671E+04  0.7818609E-02  0.8245827E-01
       -2   -1    0    0    0  501  0.00000000000E+00  0.00000000000E+00  0.74823674457E+03  0.74823674458E+03  0.25500000920E-02 0. -1.
        2   -1    0    0  501    0  0.00000000000E+00  0.00000000000E+00 -0.29923953476E+04  0.29923953476E+04  0.25500000920E-02 0.  1.
    10030    2    1    2    0    0  0.00000000000E+00  0.00000000000E+00 -0.22441586030E+04  0.37406320922E+04  0.29926711502E+04 0.  0.
        2    1    3    3  502    0 -0.10223753913E+04 -0.10945654919E+03  0.23672146148E+03  0.10551157412E+04  0.25500000920E-02 0. -1.
       -2    1    3    3    0  502  0.10223753913E+04  0.10945654919E+03 -0.24808800645E+04  0.26855163510E+04  0.25500000920E-02 0.  1.
</event>
<event>
 5   0  0.8423692E-07  0.1848778E+04  0.7818609E-02  0.8680782E-01
       -1   -1    0    0    0  501  0.00000000000E+00  0.00000000000E+00  0.10676789487E+04  0.10676789487E+04  0.50400001928E-02 0.  1.
        1   -1    0    0  501    0  0.00000000000E+00  0.00000000000E+00 -0.80032927409E+03  0.80032927410E+03  0.50400001928E-02 0. -1.
    10030    2    1    2    0    0  0.00000000000E+00  0.00000000000E+00  0.26734967462E+03  0.18680082228E+04  0.18487776697E+04 0.  0.
        2    1    3    3  502    0  0.36199644270E+03  0.77154247632E+03  0.49541489876E+03  0.98577641442E+03  0.25500000920E-02 0.  1.
       -2    1    3    3    0  502 -0.36199644270E+03 -0.77154247632E+03 -0.22806522414E+03  0.88223180841E+03  0.25500000920E-02 0. -1.
</event>
<event>
 5   0  0.7754556E-07  0.3560587E+04  0.7818609E-02  0.8099580E-01
       -1   -1    0    0    0  501  0.00000000000E+00  0.00000000000E+00  0.20406627946E+04  0.20406627946E+04  0.50400001928E-02 0. -1.
        1   -1    0    0  501    0  0.00000000000E+00  0.00000000000E+00 -0.15531447030E+04  0.15531447030E+04  0.50400001928E-02 0.  1.
    10030    2    1    2    0    0  0.00000000000E+00  0.00000000000E+00  0.48751809154E+03  0.35938074976E+04  0.35605868112E+04 0.  0.
        4    1    3    3  502    0  0.21092714284E+03 -0.85480216243E+03  0.18055375131E+04  0.20087668656E+04  0.12699999809E+01 0. -1.
       -4    1    3    3    0  502 -0.21092714284E+03  0.85480216243E+03 -0.13180194215E+04  0.15850406319E+04  0.12699999809E+01 0.  1.
</event>
<event>
 5   0  0.2382711E-06  0.3435107E+04  0.7818609E-02  0.8129343E-01
        2   -1    0    0  501    0  0.00000000000E+00  0.00000000000E+00  0.23847044061E+04  0.23847044061E+04  0.25500000920E-02 0.  1.
       -2   -1    0    0    0  501  0.00000000000E+00  0.00000000000E+00 -0.12370466207E+04  0.12370466207E+04  0.25500000920E-02 0. -1.
    10030    2    1    2    0    0  0.00000000000E+00  0.00000000000E+00  0.11476577854E+04  0.36217510269E+04  0.34351072921E+04 0.  0.
        5    1    3    3  502    0  0.12390338681E+04  0.10080738607E+04  0.12394391720E+04  0.20217936062E+04  0.46999998093E+01 0.  1.
       -5    1    3    3    0  502 -0.12390338681E+04 -0.10080738607E+04 -0.91781386628E+02  0.15999574207E+04  0.46999998093E+01 0. -1.
</event>
<event>
 5   0  0.8452742E-07  0.3594244E+04  0.7818609E-02  0.8091811E-01
       -1   -1    0    0    0  501  0.00000000000E+00  0.00000000000E+00  0.18526471497E+04  0.18526471497E+04  0.50400001928E-02 0.  1.
        1   -1    0    0  501    0  0.00000000000E+00  0.00000000000E+00 -0.17432613209E+04  0.17432613209E+04  0.50400001928E-02 0. -1.
    10030    2    1    2    0    0  0.00000000000E+00  0.00000000000E+00  0.10938582884E+03  0.35959084706E+04  0.35942443530E+04 0.  0.
        1    1    3    3  502    0 -0.17338479834E+04 -0.47052768294E+03  0.99691369650E+02  0.17993230669E+04  0.50400001928E-02 0. -1.
       -1    1    3    3    0  502  0.17338479834E+04  0.47052768294E+03  0.96944591883E+01  0.17965854036E+04  0.50400001928E-02 0.  1.
</event>
<event>
 5   0  0.1566576E-06  0.3511616E+04  0.7818609E-02  0.8111043E-01
        2   -1    0    0  501    0  0.00000000000E+00  0.00000000000E+00  0.12397826218E+04  0.12397826218E+04  0.25500000920E-02 0.  1.
       -2   -1    0    0    0  501  0.00000000000E+00  0.00000000000E+00 -0.24866152345E+04  0.24866152345E+04  0.25500000920E-02 0. -1.
    10030    2    1    2    0    0  0.00000000000E+00  0.00000000000E+00 -0.12468326128E+04  0.37263978563E+04  0.35116163542E+04 0.  0.
        4    1    3    3  502    0 -0.14947907577E+04 -0.64275897383E+03  0.76728034875E+02  0.16289344100E+04  0.12699999809E+01 0.  1.
       -4    1    3    3    0  502  0.14947907577E+04  0.64275897383E+03 -0.13235606477E+04  0.20974634463E+04  0.12699999809E+01 0. -1.
</event>
<event>
 5   0  0.1566576E-06  0.3666269E+04  0.7818609E-02  0.8075478E-01
        2   -1    0    0  501    0  0.00000000000E+00  0.00000000000E+00  0.27232611328E+04  0.27232611328E+04  0.25500000920E-02 0.  1.
       -2   -1    0    0    0  501  0.00000000000E+00  0.00000000000E+00 -0.12339553232E+04  0.12339553232E+04  0.25500000920E-02 0. -1.
    10030    2    1    2    0    0  0.00000000000E+00  0.00000000000E+00  0.14893058097E+04  0.39572164560E+04  0.36662692597E+04 0.  0.
        4    1    3    3  502    0 -0.18098756102E+04 -0.14194187476E+03  0.47035212787E+03  0.18753746179E+04  0.12699999809E+01 0.  1.
       -4    1    3    3    0  502  0.18098756102E+04  0.14194187476E+03  0.10189536818E+04  0.20818418381E+04  0.12699999809E+01 0. -1.
</event>
<event>
 5   0  0.2382711E-06  0.3560469E+04  0.7818609E-02  0.8099607E-01
        2   -1    0    0  501    0  0.00000000000E+00  0.00000000000E+00  0.21653013623E+04  0.21653013623E+04  0.25500000920E-02 0.  1.
       -2   -1    0    0    0  501  0.00000000000E+00  0.00000000000E+00 -0.14636462120E+04  0.14636462120E+04  0.25500000920E-02 0. -1.
    10030    2    1    2    0    0  0.00000000000E+00  0.00000000000E+00  0.70165515036E+03  0.36289475743E+04  0.35604691471E+04 0.  0.
        5    1    3    3  502    0 -0.11088345254E+04 -0.58010210597E+03  0.16413474292E+04  0.20639951384E+04  0.46999998093E+01 0.  1.
       -5    1    3    3    0  502  0.11088345254E+04  0.58010210597E+03 -0.93969227880E+03  0.15649524360E+04  0.46999998093E+01 0. -1.
</event>
<event>
 5   0  0.1566576E-06  0.2964561E+04  0.7818609E-02  0.8253924E-01
        2   -1    0    0  501    0  0.00000000000E+00  0.00000000000E+00  0.16160404864E+04  0.16160404864E+04  0.25500000920E-02 0.  1.
       -2   -1    0    0    0  501  0.00000000000E+00  0.00000000000E+00 -0.13595914745E+04  0.13595914745E+04  0.25500000920E-02 0. -1.
    10030    2    1    2    0    0  0.00000000000E+00  0.00000000000E+00  0.25644901193E+03  0.29756319609E+04  0.29645605865E+04 0.  0.
        4    1    3    3  502    0  0.38397490015E+02 -0.10406678713E+04  0.11870047624E+04  0.15790648829E+04  0.12699999809E+01 0.  1.
       -4    1    3    3    0  502 -0.38397490015E+02  0.10406678713E+04 -0.93055575048E+03  0.13965670780E+04  0.12699999809E+01 0. -1.
</event>
<event>
 5   0  0.1566576E-06  0.1976084E+04  0.7818609E-02  0.8617884E-01
       -2   -1    0    0    0  501  0.00000000000E+00  0.00000000000E+00  0.14387198426E+04  0.14387198426E+04  0.25500000920E-02 0.  1.
        2   -1    0    0  501    0  0.00000000000E+00  0.00000000000E+00 -0.67853868254E+03  0.67853868255E+03  0.25500000920E-02 0. -1.
    10030    2    1    2    0    0  0.00000000000E+00  0.00000000000E+00  0.76018116001E+03  0.21172585251E+04  0.19760840736E+04 0.  0.
        4    1    3    3  502    0 -0.32369400020E+03  0.12535786357E+03  0.13712365650E+04  0.14144906256E+04  0.12699999809E+01 0.  1.
       -4    1    3    3    0  502  0.32369400020E+03 -0.12535786357E+03 -0.61105540500E+03  0.70276789952E+03  0.12699999809E+01 0. -1.
</event>
<event>
 5   0  0.1566576E-06  0.4049684E+04  0.7818609E-02  0.7994598E-01
       -2   -1    0    0    0  501  0.00000000000E+00  0.00000000000E+00  0.15366911634E+04  0.15366911634E+04  0.25500000920E-02 0. -1.
        2   -1    0    0  501    0  0.00000000000E+00  0.00000000000E+00 -0.26680606774E+04  0.26680606774E+04  0.25500000920E-02 0.  1.
    10030    2    1    2    0    0  0.00000000000E+00  0.00000000000E+00 -0.11313695140E+04  0.42047518409E+04  0.40496840699E+04 0.  0.
        4    1    3    3  502    0  0.17063284926E+04 -0.78552747901E+03  0.21915175692E+03  0.18912005315E+04  0.12699999809E+01 0. -1.
       -4    1    3    3    0  502 -0.17063284926E+04  0.78552747901E+03 -0.13505212709E+04  0.23135513094E+04  0.12699999809E+01 0.  1.
</event>
<event>
 5   0  0.1908273E-06  0.3823109E+04  0.7818609E-02  0.8041214E-01
       -1   -1    0    0    0  501  0.00000000000E+00  0.00000000000E+00  0.14924590787E+04  0.14924590787E+04  0.50400001928E-02 0.  1.
        1   -1    0    0  501    0  0.00000000000E+00  0.00000000000E+00 -0.24483353855E+04  0.24483353855E+04  0.50400001928E-02 0. -1.
    10030    2    1    2    0    0  0.00000000000E+00  0.00000000000E+00 -0.95587630684E+03  0.39407944642E+04  0.38231088783E+04 0.  0.
        3    1    3    3  502    0  0.15134771874E+04  0.10192419416E+04 -0.10651885703E+04  0.21128402762E+04  0.10100000352E+00 0. -1.
       -3    1    3    3    0  502 -0.15134771874E+04 -0.10192419416E+04  0.10931226343E+03  0.18279541880E+04  0.10100000352E+00 0.  1.
</event>
<event>
 5   0  0.1513502E-06  0.2308556E+04  0.7818609E-02  0.8474555E-01
        2   -1    0    0  501    0  0.00000000000E+00  0.00000000000E+00  0.15801680266E+04  0.15801680266E+04  0.25500000920E-02 0. -1.
       -2   -1    0    0    0  501  0.00000000000E+00  0.00000000000E+00 -0.84317503541E+03  0.84317503541E+03  0.25500000920E-02 0.  1.
    10030    2    1    2    0    0  0.00000000000E+00  0.00000000000E+00  0.73699299117E+03  0.24233430620E+04  0.23085564596E+04 0.  0.
        3    1    3    3  502    0  0.88036903810E+03  0.66560870867E+03  0.13644377448E+02  0.11037530410E+04  0.10100000352E+00 0.  1.
       -3    1    3    3    0  502 -0.88036903810E+03 -0.66560870867E+03  0.72334861372E+03  0.13195900210E+04  0.10100000352E+00 0. -1.
</event>
<event>
 5   0  0.1908273E-06  0.3696404E+04  0.7818609E-02  0.8068759E-01
       -1   -1    0    0    0  501  0.00000000000E+00  0.00000000000E+00  0.17022371909E+04  0.17022371909E+04  0.50400001928E-02 0. -1.
        1   -1    0    0  501    0  0.00000000000E+00  0.00000000000E+00 -0.20066827330E+04  0.20066827331E+04  0.50400001928E-02 0.  1.
    10030    2    1    2    0    0  0.00000000000E+00  0.00000000000E+00 -0.30444554218E+03  0.37089199239E+04  0.36964036460E+04 0.  0.
        3    1    3    3  502    0 -0.95681109087E+03  0.14474460678E+04  0.48653502725E+03  0.18020277261E+04  0.10100000352E+00 0. -1.
       -3    1    3    3    0  502  0.95681109087E+03 -0.14474460678E+04 -0.79098056943E+03  0.19068921978E+04  0.10100000352E+00 0.  1.
</event>
<event>
 5   0  0.8452742E-07  0.3579426E+04  0.7818609E-02  0.8095221E-01
        1   -1    0    0  501    0  0.00000000000E+00  0.00000000000E+00  0.17989820000E+04  0.17989820000E+04  0.50400001928E-02 0. -1.
       -1   -1    0    0    0  501  0.00000000000E+00  0.00000000000E+00 -0.17804921384E+04  0.17804921384E+04  0.50400001928E-02 0.  1.
    10030    2    1    2    0    0  0.00000000000E+00  0.00000000000E+00  0.18489861624E+02  0.35794741385E+04  0.35794263832E+04 0.  0.
        1    1    3    3  502    0  0.16765284814E+03 -0.57092028048E+03 -0.16786803890E+04  0.17810180495E+04  0.50400001928E-02 0.  1.
       -1    1    3    3    0  502 -0.16765284814E+03  0.57092028048E+03  0.16971702506E+04  0.17984560889E+04  0.50400001928E-02 0. -1.
</event>
<event>
 5   0  0.1513502E-06  0.2776918E+04  0.7818609E-02  0.8310470E-01
       -2   -1    0    0    0  501  0.00000000000E+00  0.00000000000E+00  0.85531938908E+03  0.85531938908E+03  0.25500000920E-02 0.  1.
        2   -1    0    0  501    0  0.00000000000E+00  0.00000000000E+00 -0.22539164007E+04  0.22539164007E+04  0.25500000920E-02 0. -1.
    10030    2    1    2    0    0  0.00000000000E+00  0.00000000000E+00 -0.13985970116E+04  0.31092357898E+04  0.27769180030E+04 0.  0.
        3    1    3    3  502    0  0.19723885440E+03  0.81556560582E+03  0.53932735243E+03  0.99745898480E+03  0.10100000352E+00 0.  1.
       -3    1    3    3    0  502 -0.19723885440E+03 -0.81556560582E+03 -0.19379243641E+04  0.21117768050E+04  0.10100000352E+00 0. -1.
</event>
<event>
 5   0  0.7754556E-07  0.2881363E+04  0.7818609E-02  0.8278444E-01
       -1   -1    0    0    0  501  0.00000000000E+00  0.00000000000E+00  0.16948490964E+04  0.16948490964E+04  0.50400001928E-02 0.  1.
        1   -1    0    0  501    0  0.00000000000E+00  0.00000000000E+00 -0.12246301883E+04  0.12246301883E+04  0.50400001928E-02 0. -1.
    10030    2    1    2    0    0  0.00000000000E+00  0.00000000000E+00  0.47021890807E+03  0.29194792847E+04  0.28813631275E+04 0.  0.
        4    1    3    3  502    0  0.49840184103E+03  0.99275495333E+03 -0.69441103567E+03  0.13100286607E+04  0.12699999809E+01 0. -1.
       -4    1    3    3    0  502 -0.49840184103E+03 -0.99275495333E+03  0.11646299437E+04  0.16094506240E+04  0.12699999809E+01 0.  1.
</event>
<event>
 5   0  0.8423692E-07  0.2251076E+04  0.7818609E-02  0.8497465E-01
        1   -1    0    0  501    0  0.00000000000E+00  0.00000000000E+00  0.13433776864E+04  0.13433776864E+04  0.50400001928E-02 0.  1.
       -1   -1    0    0    0  501  0.00000000000E+00  0.00000000000E+00 -0.94302273636E+03  0.94302273637E+03  0.50400001928E-02 0. -1.
    10030    2    1    2    0    0  0.00000000000E+00  0.00000000000E+00  0.40035495000E+03  0.22864004227E+04  0.22510759221E+04 0.  0.
        2    1    3    3  502    0 -0.99952797735E+03  0.38643170707E+01  0.72575734378E+03  0.12352306799E+04  0.25500000920E-02 0.  1.
       -2    1    3    3    0  502  0.99952797735E+03 -0.38643170707E+01 -0.32540239378E+03  0.10511697429E+04  0.25500000920E-02 0. -1.
</event>
<event>
 5   0  0.1634374E-06  0.2010298E+04  0.7818609E-02  0.8601821E-01
        1   -1    0    0  501    0  0.00000000000E+00  0.00000000000E+00  0.10267499782E+04  0.10267499782E+04  0.50400001928E-02 0.  1.
       -1   -1    0    0    0  501  0.00000000000E+00  0.00000000000E+00 -0.98400294963E+03  0.98400294964E+03  0.50400001928E-02 0. -1.
    10030    2    1    2    0    0  0.00000000000E+00  0.00000000000E+00  0.42747028580E+02  0.20107529279E+04  0.20102984924E+04 0.  0.
        5    1    3    3  502    0  0.48468483619E+03  0.52574862813E+02  0.90055993194E+03  0.10240672769E+04  0.46999998093E+01 0.  1.
       -5    1    3    3    0  502 -0.48468483619E+03 -0.52574862813E+02 -0.85781290336E+03  0.98668565096E+03  0.46999998093E+01 0. -1.
</event>
<event>
 5   0  0.7754556E-07  0.1921326E+04  0.7818609E-02  0.8644313E-01
        1   -1    0    0  501    0  0.00000000000E+00  0.00000000000E+00  0.21526819320E+04  0.21526819320E+04  0.50400001928E-02 0. -1.
       -1   -1    0    0    0  501  0.00000000000E+00  0.00000000000E+00 -0.42870871940E+03  0.42870871943E+03  0.50400001928E-02 0.  1.
    10030    2    1    2    0    0  0.00000000000E+00  0.00000000000E+00  0.17239732126E+04  0.25813906514E+04  0.19213261195E+04 0.  0.
        4    1    3    3  502    0  0.54332807208E+03  0.17096125377E+03 -0.17736502564E+03  0.59656777438E+03  0.12699999809E+01 0.  1.
       -4    1    3    3    0  502 -0.54332807208E+03 -0.17096125377E+03  0.19013382382E+04  0.19848228770E+04  0.12699999809E+01 0. -1.
</event>
<event>
 5   0  0.7754556E-07  0.3612732E+04  0.7818609E-02  0.8087582E-01
       -1   -1    0    0    0  501  0.00000000000E+00  0.00000000000E+00  0.13677632981E+04  0.13677632981E+04  0.50400001928E-02 0. -1.
        1   -1    0    0  501    0  0.00000000000E+00  0.00000000000E+00 -0.23856159257E+04  0.23856159257E+04  0.50400001928E-02 0.  1.
    10030    2    1    2    0    0  0.00000000000E+00  0.00000000000E+00 -0.10178526276E+04  0.37533792238E+04  0.36127318786E+04 0.  0.
        4    1    3    3  502    0 -0.39513266107E+03 -0.66087458641E+03 -0.22065762445E+04  0.23370634084E+04  0.12699999809E+01 0.  1.
       -4    1    3    3    0  502  0.39513266107E+03  0.66087458641E+03  0.11887236170E+04  0.14163158155E+04  0.12699999809E+01 0. -1.
</event>
<event>
 5   0  0.1566576E-06  0.3389411E+04  0.7818609E-02  0.8140510E-01
        2   -1    0    0  501    0  0.00000000000E+00  0.00000000000E+00  0.24173337806E+04  0.24173337806E+04  0.25500000920E-02 0. -1.
       -2   -1    0    0    0  501  0.00000000000E+00  0.00000000000E+00 -0.11880970300E+04  0.11880970300E+04  0.25500000920E-02 0.  1.
    10030    2    1    2    0    0  0.00000000000E+00  0.00000000000E+00  0.12292367506E+04  0.36054308106E+04  0.33894112086E+04 0.  0.
        4    1    3    3  502    0  0.59908875901E+03  0.21992717530E+03 -0.10553927215E+04  0.12333412800E+04  0.12699999809E+01 0.  1.
       -4    1    3    3    0  502 -0.59908875901E+03 -0.21992717530E+03  0.22846294721E+04  0.23720895306E+04  0.12699999809E+01 0. -1.
</event>
<event>
 5   0  0.9875111E-07  0.2122796E+04  0.7818609E-02  0.8551268E-01
        1   -1    0    0  501    0  0.00000000000E+00  0.00000000000E+00  0.14934166629E+04  0.14934166629E+04  0.50400001928E-02 0.  1.
       -1   -1    0    0    0  501  0.00000000000E+00  0.00000000000E+00 -0.75435431367E+03  0.75435431368E+03  0.50400001928E-02 0. -1.
    10030    2    1    2    0    0  0.00000000000E+00  0.00000000000E+00  0.73906234926E+03  0.22477709766E+04  0.21227956113E+04 0.  0.
        2    1    3    3  502    0  0.12054020496E+03 -0.13812429007E+03 -0.73746322652E+03  0.75990806746E+03  0.25500000920E-02 0. -1.
       -2    1    3    3    0  502 -0.12054020496E+03  0.13812429007E+03  0.14765255758E+04  0.14878629092E+04  0.25500000920E-02 0.  1.
</event>
<event>
 5   0  0.7754556E-07  0.1806798E+04  0.7818609E-02  0.8702693E-01
       -1   -1    0    0    0  501  0.00000000000E+00  0.00000000000E+00  0.54628254644E+03  0.54628254647E+03  0.50400001928E-02 0.  1.
        1   -1    0    0  501    0  0.00000000000E+00  0.00000000000E+00 -0.14939700721E+04  0.14939700721E+04  0.50400001928E-02 0. -1.
    10030    2    1    2    0    0  0.00000000000E+00  0.00000000000E+00 -0.94768752562E+03  0.20402526185E+04  0.18067980245E+04 0.  0.
        4    1    3    3  502    0 -0.32605618534E+02  0.10206347731E+03 -0.14867688495E+04  0.14906251388E+04  0.12699999809E+01 0. -1.
       -4    1    3    3    0  502  0.32605618534E+02 -0.10206347731E+03  0.53908132390E+03  0.54962747969E+03  0.12699999809E+01 0.  1.
</event>
<event>
 5   0  0.8452742E-07  0.1824989E+04  0.7818609E-02  0.8693122E-01
       -1   -1    0    0    0  501  0.00000000000E+00  0.00000000000E+00  0.30087970463E+03  0.30087970467E+03  0.50400001928E-02 0. -1.
        1   -1    0    0  501    0  0.00000000000E+00  0.00000000000E+00 -0.27673726799E+04  0.27673726799E+04  0.50400001928E-02 0.  1.
    10030    2    1    2    0    0  0.00000000000E+00  0.00000000000E+00 -0.24664929753E+04  0.30682523846E+04  0.18249890680E+04 0.  0.
        1    1    3    3  502    0 -0.70905211111E+03  0.42090861894E+02 -0.27020057815E+03  0.75995716286E+03  0.50400001928E-02 0. -1.
       -1    1    3    3    0  502  0.70905211111E+03 -0.42090861894E+02 -0.21962923971E+04  0.23082952217E+04  0.50400001928E-02 0.  1.
</event>
<event>
 5   0  0.8452742E-07  0.2013832E+04  0.7818609E-02  0.8600181E-01
       -1   -1    0    0    0  501  0.00000000000E+00  0.00000000000E+00  0.59791419703E+03  0.59791419706E+03  0.50400001928E-02 0. -1.
        1   -1    0    0  501    0  0.00000000000E+00  0.00000000000E+00 -0.16956947928E+04  0.16956947929E+04  0.50400001928E-02 0.  1.
    10030    2    1    2    0    0  0.00000000000E+00  0.00000000000E+00 -0.10977805958E+04  0.22936089899E+04  0.20138321584E+04 0.  0.
        1    1    3    3  502    0 -0.15822729079E+03 -0.93629595370E+03 -0.93037834089E+03  0.13293945410E+04  0.50400001928E-02 0.  1.
       -1    1    3    3    0  502  0.15822729079E+03  0.93629595370E+03 -0.16740225492E+03  0.96421444889E+03  0.50400001928E-02 0. -1.
</event>
<event>
 5   0  0.1566576E-06  0.3536776E+04  0.7818609E-02  0.8105129E-01
        2   -1    0    0  501    0  0.00000000000E+00  0.00000000000E+00  0.24594434741E+04  0.24594434741E+04  0.25500000920E-02 0.  1.
       -2   -1    0    0    0  501  0.00000000000E+00  0.00000000000E+00 -0.12715056365E+04  0.12715056365E+04  0.25500000920E-02 0. -1.
    10030    2    1    2    0    0  0.00000000000E+00  0.00000000000E+00  0.11879378376E+04  0.37309491106E+04  0.35367760687E+04 0.  0.
        4    1    3    3  502    0  0.10952378093E+04  0.33912751477E+03 -0.82629056253E+03  0.14132625505E+04  0.12699999809E+01 0. -1.
       -4    1    3    3    0  502 -0.10952378093E+04 -0.33912751477E+03  0.20142284001E+04  0.23176865601E+04  0.12699999809E+01 0.  1.
</event>
<event>
 5   0  0.2382711E-06  0.2185409E+04  0.7818609E-02  0.8524526E-01
       -2   -1    0    0    0  501  0.00000000000E+00  0.00000000000E+00  0.85278853123E+03  0.85278853124E+03  0.25500000920E-02 0.  1.
        2   -1    0    0  501    0  0.00000000000E+00  0.00000000000E+00 -0.14001158195E+04  0.14001158195E+04  0.25500000920E-02 0. -1.
    10030    2    1    2    0    0  0.00000000000E+00  0.00000000000E+00 -0.54732728824E+03  0.22529043507E+04  0.21854086238E+04 0.  0.
        5    1    3    3  502    0 -0.34902677500E+03  0.88700562323E+03 -0.82437414524E+03  0.12602434236E+04  0.46999998093E+01 0. -1.
       -5    1    3    3    0  502  0.34902677500E+03 -0.88700562323E+03  0.27704685700E+03  0.99266092715E+03  0.46999998093E+01 0.  1.
</event>
<event>
 5   0  0.8423692E-07  0.3306339E+04  0.7818609E-02  0.8161284E-01
        1   -1    0    0  501    0  0.00000000000E+00  0.00000000000E+00  0.21027479025E+04  0.21027479025E+04  0.50400001928E-02 0. -1.
       -1   -1    0    0    0  501  0.00000000000E+00  0.00000000000E+00 -0.12997130202E+04  0.12997130202E+04  0.50400001928E-02 0.  1.
    10030    2    1    2    0    0  0.00000000000E+00  0.00000000000E+00  0.80303488232E+03  0.34024609227E+04  0.33063386560E+04 0.  0.
        2    1    3    3  502    0  0.12659072591E+04 -0.10542892180E+04  0.54307334588E+03  0.17346399058E+04  0.25500000920E-02 0.  1.
       -2    1    3    3    0  502 -0.12659072591E+04  0.10542892180E+04  0.25996153645E+03  0.16678210169E+04  0.25500000920E-02 0. -1.
</event>
<event>
 5   0  0.1566576E-06  0.2620357E+04  0.7818609E-02  0.8361319E-01
        2   -1    0    0  501    0  0.00000000000E+00  0.00000000000E+00  0.21665676906E+04  0.21665676906E+04  0.25500000920E-02 0.  1.
       -2   -1    0    0    0  501  0.00000000000E+00  0.00000000000E+00 -0.79229805195E+03  0.79229805195E+03  0.25500000920E-02 0. -1.
    10030    2    1    2    0    0  0.00000000000E+00  0.00000000000E+00  0.13742696387E+04  0.29588657426E+04  0.26203567396E+04 0.  0.
        4    1    3    3  502    0  0.90710616666E+02  0.96611812258E+03  0.16811718196E+04  0.19411215683E+04  0.12699999809E+01 0.  1.
       -4    1    3    3    0  502 -0.90710616666E+02 -0.96611812258E+03 -0.30690218097E+03  0.10177441743E+04  0.12699999809E+01 0. -1.
</event>
<event>
 5   0  0.1513502E-06  0.3570035E+04  0.7818609E-02  0.8097390E-01
        2   -1    0    0  501    0  0.00000000000E+00  0.00000000000E+00  0.23047486616E+04  0.23047486616E+04  0.25500000920E-02 0. -1.
       -2   -1    0    0    0  501  0.00000000000E+00  0.00000000000E+00 -0.13824879894E+04  0.13824879894E+04  0.25500000920E-02 0.  1.
    10030    2    1    2    0    0  0.00000000000E+00  0.00000000000E+00  0.92226067217E+03  0.36872366510E+04  0.35700349261E+04 0.  0.
        3    1    3    3  502    0 -0.12459404844E+04  0.11067260830E+04  0.11217189575E+04  0.20088463712E+04  0.10100000352E+00 0. -1.
       -3    1    3    3    0  502  0.12459404844E+04 -0.11067260830E+04 -0.19945828531E+03  0.16783902798E+04  0.10100000352E+00 0.  1.
</event>
<event>
 5   0  0.8423692E-07  0.3519664E+04  0.7818609E-02  0.8109146E-01
        1   -1    0    0  501    0  0.00000000000E+00  0.00000000000E+00  0.11624788567E+04  0.11624788567E+04  0.50400001928E-02 0.  1.
       -1   -1    0    0    0  501  0.00000000000E+00  0.00000000000E+00 -0.26641421169E+04  0.26641421169E+04  0.50400001928E-02 0. -1.
    10030    2    1    2    0    0  0.00000000000E+00  0.00000000000E+00 -0.15016632602E+04  0.38266209736E+04  0.35196641215E+04 0.  0.
        2    1    3    3  502    0  0.13372861212E+03 -0.12216482643E+04  0.61866756768E+03  0.13758842185E+04  0.25500000920E-02 0.  1.
       -2    1    3    3    0  502 -0.13372861212E+03  0.12216482643E+04 -0.21203308278E+04  0.24507367551E+04  0.25500000920E-02 0. -1.
</event>
<event>
 5   0  0.1566576E-06  0.3733397E+04  0.7818609E-02  0.8060601E-01
       -2   -1    0    0    0  501  0.00000000000E+00  0.00000000000E+00  0.13575083822E+04  0.13575083822E+04  0.25500000920E-02 0.  1.
        2   -1    0    0  501    0  0.00000000000E+00  0.00000000000E+00 -0.25668816820E+04  0.25668816820E+04  0.25500000920E-02 0. -1.
    10030    2    1    2    0    0  0.00000000000E+00  0.00000000000E+00 -0.12093732998E+04  0.39243900642E+04  0.37333970586E+04 0.  0.
        4    1    3    3  502    0  0.18335899105E+04  0.34544532069E+03 -0.66393837440E+03  0.19804545456E+04  0.12699999809E+01 0. -1.
       -4    1    3    3    0  502 -0.18335899105E+04 -0.34544532069E+03 -0.54543492538E+03  0.19439355185E+04  0.12699999809E+01 0.  1.
</event>
<event>
 5   0  0.1513502E-06  0.3189315E+04  0.7818609E-02  0.8191645E-01
       -2   -1    0    0    0  501  0.00000000000E+00  0.00000000000E+00  0.10740050332E+04  0.10740050332E+04  0.25500000920E-02 0.  1.
        2   -1    0    0  501    0  0.00000000000E+00  0.00000000000E+00 -0.23677099423E+04  0.23677099423E+04  0.25500000920E-02 0. -1.
    10030    2    1    2    0    0  0.00000000000E+00  0.00000000000E+00 -0.12937049091E+04  0.34417149755E+04  0.31893149077E+04 0.  0.
        3    1    3    3  502    0 -0.74448494444E+03 -0.13514059733E+04 -0.10817019962E+04  0.18843129135E+04  0.10100000352E+00 0. -1.
       -3    1    3    3    0  502  0.74448494444E+03  0.13514059733E+04 -0.21200291289E+03  0.15574020619E+04  0.10100000352E+00 0.  1.
</event>
<event>
 5   0  0.1634374E-06  0.2049389E+04  0.7818609E-02  0.8583872E-01
       -1   -1    0    0    0  501  0.00000000000E+00  0.00000000000E+00  0.32456784650E+04  0.32456784650E+04  0.50400001928E-02 0. -1.
        1   -1    0    0  501    0  0.00000000000E+00  0.00000000000E+00 -0.32350669093E+03  0.32350669097E+03  0.50400001928E-02 0.  1.
    10030    2    1    2    0    0  0.00000000000E+00  0.00000000000E+00  0.29221717740E+04  0.35691851559E+04  0.20493888846E+04 0.  0.
        5    1    3    3  502    0  0.15786298841E+03 -0.91699484739E+02 -0.29493554859E+03  0.34689852469E+03  0.46999998093E+01 0.  1.
       -5    1    3    3    0  502 -0.15786298841E+03  0.91699484739E+02  0.32171073226E+04  0.32222866313E+04  0.46999998093E+01 0. -1.
</event>
<event>
 5   0  0.2422436E-06  0.2664911E+04  0.7818609E-02  0.8346481E-01
       -2   -1    0    0    0  501  0.00000000000E+00  0.00000000000E+00  0.86619158158E+03  0.86619158158E+03  0.25500000920E-02 0. -1.
        2   -1    0    0  501    0  0.00000000000E+00  0.00000000000E+00 -0.20497053134E+04  0.20497053134E+04  0.25500000920E-02 0.  1.
    10030    2    1    2    0    0  0.00000000000E+00  0.00000000000E+00 -0.11835137319E+04  0.29158968950E+04  0.26649108707E+04 0.  0.
        2    1    3    3  502    0 -0.19079753611E+03  0.12673740375E+04 -0.99049093050E+03  0.16197879287E+04  0.25500000920E-02 0. -1.
       -2    1    3    3    0  502  0.19079753611E+03 -0.12673740375E+04 -0.19302280136E+03  0.12961089663E+04  0.25500000920E-02 0.  1.
</event>
<event>
 5   0  0.7707500E-07  0.3516273E+04  0.7818609E-02  0.8109944E-01
       -3   -1    0    0    0  501  0.00000000000E+00  0.00000000000E+00  0.14939924874E+04  0.14939924908E+04  0.10100000352E+00 0. -1.
        3   -1    0    0  501    0  0.00000000000E+00  0.00000000000E+00 -0.20689827203E+04  0.20689827227E+04  0.10100000352E+00 0.  1.
    10030    2    1    2    0    0  0.00000000000E+00  0.00000000000E+00 -0.57499023287E+03  0.35629752136E+04  0.35162733973E+04 0.  0.
        1    1    3    3  502    0 -0.14628018754E+04  0.11372075395E+02 -0.12757049998E+04  0.19409641669E+04  0.50400001928E-02 0.  1.
       -1    1    3    3    0  502  0.14628018754E+04 -0.11372075395E+02  0.70071476692E+03  0.16220110466E+04  0.50400001928E-02 0. -1.
</event>
<event>
 5   0  0.2422436E-06  0.3676775E+04  0.7818609E-02  0.8073128E-01
        2   -1    0    0  501    0  0.00000000000E+00  0.00000000000E+00  0.24387839804E+04  0.24387839804E+04  0.25500000920E-02 0.  1.
       -2   -1    0    0    0  501  0.00000000000E+00  0.00000000000E+00 -0.13858009669E+04  0.13858009669E+04  0.25500000920E-02 0. -1.
    10030    2    1    2    0    0  0.00000000000E+00  0.00000000000E+00  0.10529830135E+04  0.38245849473E+04  0.36767753252E+04 0.  0.
        2    1    3    3  502    0  0.88152753256E+03 -0.12006018883E+04  0.16473693875E+04  0.22208920694E+04  0.25500000920E-02 0.  1.
       -2    1    3    3    0  502 -0.88152753256E+03  0.12006018883E+04 -0.59438637398E+03  0.16036928779E+04  0.25500000920E-02 0. -1.
</event>
<event>
 5   0  0.8452742E-07  0.3549168E+04  0.7818609E-02  0.8102236E-01
       -1   -1    0    0    0  501  0.00000000000E+00  0.00000000000E+00  0.12929676764E+04  0.12929676764E+04  0.50400001928E-02 0. -1.
        1   -1    0    0  501    0  0.00000000000E+00  0.00000000000E+00 -0.24355964647E+04  0.24355964647E+04  0.50400001928E-02 0.  1.
    10030    2    1    2    0    0  0.00000000000E+00  0.00000000000E+00 -0.11426287883E+04  0.37285641411E+04  0.35491675089E+04 0.  0.
        1    1    3    3  502    0  0.26317537104E+03 -0.16179596899E+04  0.14281952297E+03  0.16454337575E+04  0.50400001928E-02 0. -1.
       -1    1    3    3    0  502 -0.26317537104E+03  0.16179596899E+04 -0.12854483113E+04  0.20831303836E+04  0.50400001928E-02 0.  1.
</event>
<event>
 5   0  0.2536619E-06  0.2576417E+04  0.7818609E-02  0.8376256E-01
        2   -1    0    0  501    0  0.00000000000E+00  0.00000000000E+00  0.18249647795E+04  0.18249647795E+04  0.25500000920E-02 0.  1.
       -2   -1    0    0    0  501  0.00000000000E+00  0.00000000000E+00 -0.90932203996E+03  0.90932203996E+03  0.25500000920E-02 0. -1.
    10030    2    1    2    0    0  0.00000000000E+00  0.00000000000E+00  0.91564273952E+03  0.27342868194E+04  0.25764166559E+04 0.  0.
        1    1    3    3  502    0  0.11315399712E+04  0.21428943087E+03 -0.15476333431E+03  0.11620044563E+04  0.50400001928E-02 0. -1.
       -1    1    3    3    0  502 -0.11315399712E+04 -0.21428943087E+03  0.10704060738E+04  0.15722823632E+04  0.50400001928E-02 0.  1.
</event>
<event>
 5   0  0.8423692E-07  0.1768626E+04  0.7818609E-02  0.8723164E-01
       -1   -1    0    0    0  501  0.00000000000E+00  0.00000000000E+00  0.26469580516E+03  0.26469580521E+03  0.50400001928E-02 0. -1.
        1   -1    0    0  501    0  0.00000000000E+00  0.00000000000E+00 -0.29543705490E+04  0.29543705490E+04  0.50400001928E-02 0.  1.
    10030    2    1    2    0    0  0.00000000000E+00  0.00000000000E+00 -0.26896747439E+04  0.32190663542E+04  0.17686260106E+04 0.  0.
        2    1    3    3  502    0  0.77092019067E+03  0.33860747510E+03 -0.18367228296E+04  0.20205256037E+04  0.25500000920E-02 0.  1.
       -2    1    3    3    0  502 -0.77092019067E+03 -0.33860747510E+03 -0.85295191425E+03  0.11985407505E+04  0.25500000920E-02 0. -1.
</event>
<event>
 5   0  0.7754556E-07  0.1813005E+04  0.7818609E-02  0.8699414E-01
       -1   -1    0    0    0  501  0.00000000000E+00  0.00000000000E+00  0.66379380089E+03  0.66379380091E+03  0.50400001928E-02 0. -1.
        1   -1    0    0  501    0  0.00000000000E+00  0.00000000000E+00 -0.12379545579E+04  0.12379545579E+04  0.50400001928E-02 0.  1.
    10030    2    1    2    0    0  0.00000000000E+00  0.00000000000E+00 -0.57416075699E+03  0.19017483588E+04  0.18130047560E+04 0.  0.
        4    1    3    3  502    0 -0.19860067751E+03  0.27942886340E+03  0.59317557643E+03  0.68511429425E+03  0.12699999809E+01 0. -1.
       -4    1    3    3    0  502  0.19860067751E+03 -0.27942886340E+03 -0.11673363334E+04  0.12166340646E+04  0.12699999809E+01 0.  1.
</event>
<event>
 5   0  0.2422436E-06  0.3572207E+04  0.7818609E-02  0.8096888E-01
       -2   -1    0    0    0  501  0.00000000000E+00  0.00000000000E+00  0.11218597409E+04  0.11218597409E+04  0.25500000920E-02 0.  1.
        2   -1    0    0  501    0  0.00000000000E+00  0.00000000000E+00 -0.28436398093E+04  0.28436398093E+04  0.25500000920E-02 0. -1.
    10030    2    1    2    0    0  0.00000000000E+00  0.00000000000E+00 -0.17217800684E+04  0.39654995502E+04  0.35722066120E+04 0.  0.
        2    1    3    3  502    0 -0.78378826926E+03  0.16008271382E+04 -0.73338116469E+03  0.19273867049E+04  0.25500000920E-02 0. -1.
       -2    1    3    3    0  502  0.78378826926E+03 -0.16008271382E+04 -0.98839890367E+03  0.20381128453E+04  0.25500000920E-02 0.  1.
</event>
<event>
 5   0  0.8452742E-07  0.3569883E+04  0.7818609E-02  0.8097425E-01
       -1   -1    0    0    0  501  0.00000000000E+00  0.00000000000E+00  0.22343041162E+04  0.22343041162E+04  0.50400001928E-02 0.  1.
        1   -1    0    0  501    0  0.00000000000E+00  0.00000000000E+00 -0.14259549265E+04  0.14259549265E+04  0.50400001928E-02 0. -1.
    10030    2    1    2    0    0  0.00000000000E+00  0.00000000000E+00  0.80834918975E+03  0.36602590427E+04  0.35698834501E+04 0.  0.
        1    1    3    3  502    0 -0.43196588537E+03  0.17211412593E+04  0.60165165366E+03  0.18737413037E+04  0.50400001928E-02 0.  1.
       -1    1    3    3    0  502  0.43196588537E+03 -0.17211412593E+04  0.20669753608E+03  0.17865177391E+04  0.50400001928E-02 0. -1.
</event>
<event>
 5   0  0.1566576E-06  0.3582981E+04  0.7818609E-02  0.8094401E-01
        2   -1    0    0  501    0  0.00000000000E+00  0.00000000000E+00  0.24862075815E+04  0.24862075815E+04  0.25500000920E-02 0. -1.
       -2   -1    0    0    0  501  0.00000000000E+00  0.00000000000E+00 -0.12908968043E+04  0.12908968043E+04  0.25500000920E-02 0.  1.
    10030    2    1    2    0    0  0.00000000000E+00  0.00000000000E+00  0.11953107772E+04  0.37771043858E+04  0.35829805592E+04 0.  0.
        4    1    3    3  502    0  0.26278823161E+03 -0.43064962978E+02  0.24652268655E+04  0.24795679779E+04  0.12699999809E+01 0. -1.
       -4    1    3    3    0  502 -0.26278823161E+03  0.43064962978E+02 -0.12699160883E+04  0.12975364079E+04  0.12699999809E+01 0.  1.
</event>
<event>
 5   0  0.2536619E-06  0.1780957E+04  0.7818609E-02  0.8716492E-01
        2   -1    0    0  501    0  0.00000000000E+00  0.00000000000E+00  0.13288443648E+04  0.13288443648E+04  0.25500000920E-02 0. -1.
       -2   -1    0    0    0  501  0.00000000000E+00  0.00000000000E+00 -0.59672303270E+03  0.59672303271E+03  0.25500000920E-02 0.  1.
    10030    2    1    2    0    0  0.00000000000E+00  0.00000000000E+00  0.73212133205E+03  0.19255673975E+04  0.17809570903E+04 0.  0.
        1    1    3    3  502    0  0.52014274404E+03 -0.28749247675E+03 -0.35092257196E+03  0.69017899845E+03  0.50400001928E-02 0.  1.
       -1    1    3    3    0  502 -0.52014274404E+03  0.28749247675E+03  0.10830439040E+04  0.12353883990E+04  0.50400001928E-02 0. -1.
</event>
<event>
 5   0  0.1513502E-06  0.3250227E+04  0.7818609E-02  0.8175677E-01
       -2   -1    0    0    0  501  0.00000000000E+00  0.00000000000E+00  0.13277286822E+04  0.13277286822E+04  0.25500000920E-02 0. -1.
        2   -1    0    0  501    0  0.00000000000E+00  0.00000000000E+00 -0.19891069608E+04  0.19891069608E+04  0.25500000920E-02 0.  1.
    10030    2    1    2    0    0  0.00000000000E+00  0.00000000000E+00 -0.66137827859E+03  0.33168356431E+04  0.32502272929E+04 0.  0.
        3    1    3    3  502    0 -0.12963761740E+04  0.60881542613E+03 -0.11143769091E+04  0.18146854585E+04  0.10100000352E+00 0. -1.
       -3    1    3    3    0  502  0.12963761740E+04 -0.60881542613E+03  0.45299863052E+03  0.15021501846E+04  0.10100000352E+00 0.  1.
</event>
<event>
 5   0  0.8423692E-07  0.3271733E+04  0.7818609E-02  0.8170125E-01
        1   -1    0    0  501    0  0.00000000000E+00  0.00000000000E+00  0.18581403434E+04  0.18581403434E+04  0.50400001928E-02 0. -1.
       -1   -1    0    0    0  501  0.00000000000E+00  0.00000000000E+00 -0.14401812257E+04  0.14401812257E+04  0.50400001928E-02 0.  1.
    10030    2    1    2    0    0  0.00000000000E+00  0.00000000000E+00  0.41795911763E+03  0.32983215691E+04  0.32717327747E+04 0.  0.
        2    1    3    3  502    0  0.11051117526E+04 -0.31029427692E+03 -0.96604158370E+03  0.15002635986E+04  0.25500000920E-02 0.  1.
       -2    1    3    3    0  502 -0.11051117526E+04  0.31029427692E+03  0.13840007013E+04  0.17980579705E+04  0.25500000920E-02 0. -1.
</event>
<event>
 5   0  0.8452742E-07  0.3618977E+04  0.7818609E-02  0.8086159E-01
       -1   -1    0    0    0  501  0.00000000000E+00  0.00000000000E+00  0.17264750040E+04  0.17264750040E+04  0.50400001928E-02 0.  1.
        1   -1    0    0  501    0  0.00000000000E+00  0.00000000000E+00 -0.18964930576E+04  0.18964930576E+04  0.50400001928E-02 0. -1.
    10030    2    1    2    0    0  0.00000000000E+00  0.00000000000E+00 -0.17001805361E+03  0.36229680617E+04  0.36189765732E+04 0.  0.
        1    1    3    3  502    0  0.14686315968E+04  0.68707182869E+03  0.71918350459E+03  0.17737450150E+04  0.50400001928E-02 0.  1.
       -1    1    3    3    0  502 -0.14686315968E+04 -0.68707182869E+03 -0.88920155820E+03  0.18492230466E+04  0.50400001928E-02 0. -1.
</event>
<event>
 5   0  0.1908273E-06  0.3593120E+04  0.7818609E-02  0.8092070E-01
        1   -1    0    0  501    0  0.00000000000E+00  0.00000000000E+00  0.21418941500E+04  0.21418941500E+04  0.50400001928E-02 0.  1.
       -1   -1    0    0    0  501  0.00000000000E+00  0.00000000000E+00 -0.15069031568E+04  0.15069031568E+04  0.50400001928E-02 0. -1.
    10030    2    1    2    0    0  0.00000000000E+00  0.00000000000E+00  0.63499099319E+03  0.36487973068E+04  0.35931195673E+04 0.  0.
        3    1    3    3  502    0  0.69733941254E+03  0.13678339992E+04  0.12648908678E+04  0.19892714806E+04  0.10100000352E+00 0.  1.
       -3    1    3    3    0  502 -0.69733941254E+03 -0.13678339992E+04 -0.62989987460E+03  0.16595258262E+04  0.10100000352E+00 0. -1.
</event>
<event>
 5   0  0.1566576E-06  0.3620757E+04  0.7818609E-02  0.8085754E-01
        2   -1    0    0  501    0  0.00000000000E+00  0.00000000000E+00  0.21111993640E+04  0.21111993640E+04  0.25500000920E-02 0.  1.
       -2   -1    0    0    0  501  0.00000000000E+00  0.00000000000E+00 -0.15524210474E+04  0.15524210474E+04  0.25500000920E-02 0. -1.
    10030    2    1    2    0    0  0.00000000000E+00  0.00000000000E+00  0.55877831662E+03  0.36636204114E+04  0.36207570081E+04 0.  0.
        4    1    3    3  502    0 -0.11621384168E+03  0.11815115933E+04  0.16623145804E+04  0.20427350976E+04  0.12699999809E+01 0.  1.
       -4    1    3    3    0  502  0.11621384168E+03 -0.11815115933E+04 -0.11035362637E+04  0.16208853138E+04  0.12699999809E+01 0. -1.
</event>
<event>
 5   0  0.1566576E-06  0.3314220E+04  0.7818609E-02  0.8159287E-01
        2   -1    0    0  501    0  0.00000000000E+00  0.00000000000E+00  0.19879592535E+04  0.19879592535E+04  0.25500000920E-02 0.  1.
       -2   -1    0    0    0  501  0.00000000000E+00  0.00000000000E+00 -0.13813228011E+04  0.13813228011E+04  0.25500000920E-02 0. -1.
    10030    2    1    2    0    0  0.00000000000E+00  0.00000000000E+00  0.60663645233E+03  0.33692820546E+04  0.33142199351E+04 0.  0.
        4    1    3    3  502    0  0.40935146675E+03 -0.14238557558E+04  0.10579977701E+04  0.18205204562E+04  0.12699999809E+01 0.  1.
       -4    1    3    3    0  502 -0.40935146675E+03  0.14238557558E+04 -0.45136131780E+03  0.15487615985E+04  0.12699999809E+01 0. -1.
</event>
<event>
 5   0  0.1513502E-06  0.3462786E+04  0.7818609E-02  0.8122666E-01
       -2   -1    0    0    0  501  0.00000000000E+00  0.00000000000E+00  0.13545741773E+04  0.13545741773E+04  0.25500000920E-02 0. -1.
        2   -1    0    0  501    0  0.00000000000E+00  0.00000000000E+00 -0.22130359555E+04  0.22130359555E+04  0.25500000920E-02 0.  1.
    10030    2    1    2    0    0  0.00000000000E+00  0.00000000000E+00 -0.85846177817E+03  0.35676101328E+04  0.34627857911E+04 0.  0.
        3    1    3    3  502    0 -0.82693595416E+03  0.13109647137E+03  0.11321362358E+04  0.14080986555E+04  0.10100000352E+00 0. -1.
       -3    1    3    3    0  502  0.82693595416E+03 -0.13109647137E+03 -0.19905980140E+04  0.21595114773E+04  0.10100000352E+00 0.  1.
</event>
<event>
 5   0  0.1566576E-06  0.3554746E+04  0.7818609E-02  0.8100937E-01
        2   -1    0    0  501    0  0.00000000000E+00  0.00000000000E+00  0.16667288734E+04  0.16667288734E+04  0.25500000920E-02 0. -1.
       -2   -1    0    0    0  501  0.00000000000E+00  0.00000000000E+00 -0.18953623925E+04  0.18953623925E+04  0.25500000920E-02 0.  1.
    10030    2    1    2    0    0  0.00000000000E+00  0.00000000000E+00 -0.22863351910E+03  0.35620912659E+04  0.35547462498E+04 0.  0.
        4    1    3    3  502    0  0.97518480411E+02 -0.95800454563E+03 -0.16113148886E+04  0.18771307484E+04  0.12699999809E+01 0.  1.
       -4    1    3    3    0  502 -0.97518480411E+02  0.95800454563E+03  0.13826813694E+04  0.16849605176E+04  0.12699999809E+01 0. -1.
</event>
<event>
 5   0  0.2422436E-06  0.2552963E+04  0.7818609E-02  0.8384356E-01
        2   -1    0    0  501    0  0.00000000000E+00  0.00000000000E+00  0.10795822772E+04  0.10795822772E+04  0.25500000920E-02 0. -1.
       -2   -1    0    0    0  501  0.00000000000E+00  0.00000000000E+00 -0.15092926710E+04  0.15092926710E+04  0.25500000920E-02 0.  1.
    10030    2    1    2    0    0  0.00000000000E+00  0.00000000000E+00 -0.42971039377E+03  0.25888749482E+04  0.25529634692E+04 0.  0.
        2    1    3    3  502    0 -0.60170891894E+03  0.98805649485E+03  0.33226766052E+03  0.12036241350E+04  0.25500000920E-02 0.  1.
       -2    1    3    3    0  502  0.60170891894E+03 -0.98805649485E+03 -0.76197805429E+03  0.13852508132E+04  0.25500000920E-02 0. -1.
</event>
<event>
 5   0  0.1513502E-06  0.3628805E+04  0.7818609E-02  0.8083925E-01
        2   -1    0    0  501    0  0.00000000000E+00  0.00000000000E+00  0.16431168423E+04  0.16431168423E+04  0.25500000920E-02 0.  1.
       -2   -1    0    0    0  501  0.00000000000E+00  0.00000000000E+00 -0.20035433044E+04  0.20035433044E+04  0.25500000920E-02 0. -1.
    10030    2    1    2    0    0  0.00000000000E+00  0.00000000000E+00 -0.36042646212E+03  0.36466601467E+04  0.36288046228E+04 0.  0.
        3    1    3    3  502    0 -0.32856273733E+03  0.17756253665E+04 -0.25473140387E+01  0.18057700334E+04  0.10100000352E+00 0.  1.
       -3    1    3    3    0  502  0.32856273733E+03 -0.17756253665E+04 -0.35787914808E+03  0.18408901133E+04  0.10100000352E+00 0. -1.
</event>
<event>
 5   0  0.1513502E-06  0.3519346E+04  0.7818609E-02  0.8109220E-01
       -2   -1    0    0    0  501  0.00000000000E+00  0.00000000000E+00  0.24161689402E+04  0.24161689402E+04  0.25500000920E-02 0. -1.
        2   -1    0    0  501    0  0.00000000000E+00  0.00000000000E+00 -0.12815534932E+04  0.12815534932E+04  0.25500000920E-02 0.  1.
    10030    2    1    2    0    0  0.00000000000E+00  0.00000000000E+00  0.11346154469E+04  0.36977224334E+04  0.35193463857E+04 0.  0.
        3    1    3    3  502    0  0.15774203981E+04  0.27092175879E+03  0.13356706095E+04  0.20846269928E+04  0.10100000352E+00 0. -1.
       -3    1    3    3    0  502 -0.15774203981E+04 -0.27092175879E+03 -0.20105516261E+03  0.16130954406E+04  0.10100000352E+00 0.  1.
</event>
<event>
 5   0  0.2382711E-06  0.3607498E+04  0.7818609E-02  0.8088776E-01
       -2   -1    0    0    0  501  0.00000000000E+00  0.00000000000E+00  0.14101741275E+04  0.14101741275E+04  0.25500000920E-02 0.  1.
        2   -1    0    0  501    0  0.00000000000E+00  0.00000000000E+00 -0.23071696831E+04  0.23071696831E+04  0.25500000920E-02 0. -1.
    10030    2    1    2    0    0  0.00000000000E+00  0.00000000000E+00 -0.89699555559E+03  0.37173438105E+04  0.36074982992E+04 0.  0.
        5    1    3    3  502    0  0.11490166521E+03  0.32770821955E+03  0.13753955480E+04  0.14185662033E+04  0.46999998093E+01 0.  1.
       -5    1    3    3    0  502 -0.11490166521E+03 -0.32770821955E+03 -0.22723911036E+04  0.22987776072E+04  0.46999998093E+01 0. -1.
</event>
<event>
 5   0  0.2382711E-06  0.4007596E+04  0.7818609E-02  0.8003016E-01
       -2   -1    0    0    0  501  0.00000000000E+00  0.00000000000E+00  0.28908076705E+04  0.28908076705E+04  0.25500000920E-02 0.  1.
        2   -1    0    0  501    0  0.00000000000E+00  0.00000000000E+00 -0.13889565610E+04  0.13889565610E+04  0.25500000920E-02 0. -1.
    10030    2    1    2    0    0  0.00000000000E+00  0.00000000000E+00  0.15018511095E+04  0.42797642316E+04  0.40075959281E+04 0.  0.
        5    1    3    3  502    0 -0.18084856309E+04  0.54231697241E+03  0.14676664912E+04  0.23914002164E+04  0.46999998093E+01 0.  1.
       -5    1    3    3    0  502  0.18084856309E+04 -0.54231697241E+03  0.34184618312E+02  0.18883640152E+04  0.46999998093E+01 0. -1.
</event>
<event>
 5   0  0.2382711E-06  0.3631597E+04  0.7818609E-02  0.8083292E-01
        2   -1    0    0  501    0  0.00000000000E+00  0.00000000000E+00  0.21946315521E+04  0.21946315521E+04  0.25500000920E-02 0. -1.
       -2   -1    0    0    0  501  0.00000000000E+00  0.00000000000E+00 -0.15023589488E+04  0.15023589488E+04  0.25500000920E-02 0.  1.
    10030    2    1    2    0    0  0.00000000000E+00  0.00000000000E+00  0.69227260332E+03  0.36969905010E+04  0.36315970876E+04 0.  0.
        5    1    3    3  502    0 -0.23818452319E+03  0.11347425554E+01 -0.14863802969E+04  0.15053509995E+04  0.46999998093E+01 0.  1.
       -5    1    3    3    0  502  0.23818452319E+03 -0.11347425554E+01  0.21786529002E+04  0.21916395014E+04  0.46999998093E+01 0. -1.
</event>
<event>
 5   0  0.1908273E-06  0.1969710E+04  0.7818609E-02  0.8620914E-01
        1   -1    0    0  501    0  0.00000000000E+00  0.00000000000E+00  0.13739962676E+04  0.13739962677E+04  0.50400001928E-02 0.  1.
       -1   -1    0    0    0  501  0.00000000000E+00  0.00000000000E+00 -0.70592596671E+03  0.70592596673E+03  0.50400001928E-02 0. -1.
    10030    2    1    2    0    0  0.00000000000E+00  0.00000000000E+00  0.66807030093E+03  0.20799222344E+04  0.19697102767E+04 0.  0.
        3    1    3    3  502    0  0.56860284943E+03  0.50713474438E+03  0.99300825947E+03  0.12516230514E+04  0.10100000352E+00 0.  1.
       -3    1    3    3    0  502 -0.56860284943E+03 -0.50713474438E+03 -0.32493795854E+03  0.82829918293E+03  0.10100000352E+00 0. -1.
</event>
<event>
 5   0  0.1888307E-06  0.1851238E+04  0.7818609E-02  0.8679516E-01
        2   -1    0    0  501    0  0.00000000000E+00  0.00000000000E+00  0.14920338180E+04  0.14920338180E+04  0.25500000920E-02 0.  1.
       -2   -1    0    0    0  501  0.00000000000E+00  0.00000000000E+00 -0.57423026536E+03  0.57423026537E+03  0.25500000920E-02 0. -1.
    10030    2    1    2    0    0  0.00000000000E+00  0.00000000000E+00  0.91780355266E+03  0.20662640834E+04  0.18512384776E+04 0.  0.
        3    1    3    3  502    0  0.62048226360E+03 -0.68625536699E+03  0.42681755397E+03  0.10188807108E+04  0.10100000352E+00 0.  1.
       -3    1    3    3    0  502 -0.62048226360E+03  0.68625536699E+03  0.49098599869E+03  0.10473833726E+04  0.10100000352E+00 0. -1.
</event>
<event>
 5   0  0.7754556E-07  0.3546563E+04  0.7818609E-02  0.8102843E-01
        1   -1    0    0  501    0  0.00000000000E+00  0.00000000000E+00  0.17852619274E+04  0.17852619274E+04  0.50400001928E-02 0.  1.
       -1   -1    0    0    0  501  0.00000000000E+00  0.00000000000E+00 -0.17613814728E+04  0.17613814728E+04  0.50400001928E-02 0. -1.
    10030    2    1    2    0    0  0.00000000000E+00  0.00000000000E+00  0.23880454589E+02  0.35466434001E+04  0.35465630026E+04 0.  0.
        4    1    3    3  502    0 -0.63364732637E+03  0.23691418559E+03 -0.16272700169E+04  0.17622844794E+04  0.12699999809E+01 0. -1.
       -4    1    3    3    0  502  0.63364732637E+03 -0.23691418559E+03  0.16511504715E+04  0.17843589207E+04  0.12699999809E+01 0.  1.
</event>
<event>
 5   0  0.2382711E-06  0.2965378E+04  0.7818609E-02  0.8253687E-01
        2   -1    0    0  501    0  0.00000000000E+00  0.00000000000E+00  0.13392268828E+04  0.13392268828E+04  0.25500000920E-02 0. -1.
       -2   -1    0    0    0  501  0.00000000000E+00  0.00000000000E+00 -0.16415196519E+04  0.16415196519E+04  0.25500000920E-02 0.  1.
    10030    2    1    2    0    0  0.00000000000E+00  0.00000000000E+00 -0.30229276911E+03  0.29807465346E+04  0.29653783882E+04 0.  0.
        5    1    3    3  502    0  0.68216044210E+03 -0.14364350657E+02  0.11720327449E+04  0.13561828964E+04  0.46999998093E+01 0. -1.
       -5    1    3    3    0  502 -0.68216044210E+03  0.14364350657E+02 -0.14743255140E+04  0.16245636382E+04  0.46999998093E+01 0.  1.
</event>
<event>
 5   0  0.1634374E-06  0.1810078E+04  0.7818609E-02  0.8700959E-01
        1   -1    0    0  501    0  0.00000000000E+00  0.00000000000E+00  0.11677820024E+04  0.11677820024E+04  0.50400001928E-02 0.  1.
       -1   -1    0    0    0  501  0.00000000000E+00  0.00000000000E+00 -0.70141107333E+03  0.70141107334E+03  0.50400001928E-02 0. -1.
    10030    2    1    2    0    0  0.00000000000E+00  0.00000000000E+00  0.46637092907E+03  0.18691930757E+04  0.18100775980E+04 0.  0.
        5    1    3    3  502    0  0.63092211667E+03 -0.59803173199E+03 -0.26766781296E+02  0.86973744334E+03  0.46999998093E+01 0. -1.
       -5    1    3    3    0  502 -0.63092211667E+03  0.59803173199E+03  0.49313771036E+03  0.99945563241E+03  0.46999998093E+01 0.  1.
</event>
<event>
 5   0  0.2422436E-06  0.3446892E+04  0.7818609E-02  0.8126492E-01
       -2   -1    0    0    0  501  0.00000000000E+00  0.00000000000E+00  0.21929860313E+04  0.21929860313E+04  0.25500000920E-02 0. -1.
        2   -1    0    0  501    0  0.00000000000E+00  0.00000000000E+00 -0.13544390448E+04  0.13544390448E+04  0.25500000920E-02 0.  1.
    10030    2    1    2    0    0  0.00000000000E+00  0.00000000000E+00  0.83854698642E+03  0.35474250761E+04  0.34468918785E+04 0.  0.
        2    1    3    3  502    0  0.39912636998E+03  0.15558111219E+04 -0.22378320015E+03  0.16217055919E+04  0.25500000920E-02 0.  1.
       -2    1    3    3    0  502 -0.39912636998E+03 -0.15558111219E+04  0.10623301866E+04  0.19257194841E+04  0.25500000920E-02 0. -1.
</event>
<event>
 5   0  0.1566576E-06  0.3586172E+04  0.7818609E-02  0.8093667E-01
        2   -1    0    0  501    0  0.00000000000E+00  0.00000000000E+00  0.18772617500E+04  0.18772617500E+04  0.25500000920E-02 0. -1.
       -2   -1    0    0    0  501  0.00000000000E+00  0.00000000000E+00 -0.17126844569E+04  0.17126844569E+04  0.25500000920E-02 0.  1.
    10030    2    1    2    0    0  0.00000000000E+00  0.00000000000E+00  0.16457729312E+03  0.35899462069E+04  0.35861717866E+04 0.  0.
        4    1    3    3  502    0 -0.53544837404E+03  0.46967212032E+03 -0.15650005052E+04  0.17194548717E+04  0.12699999809E+01 0.  1.
       -4    1    3    3    0  502  0.53544837404E+03 -0.46967212032E+03  0.17295777983E+04  0.18704913352E+04  0.12699999809E+01 0. -1.
</event>
<event>
 5   0  0.8452742E-07  0.1989385E+04  0.7818609E-02  0.8611600E-01
       -1   -1    0    0    0  501  0.00000000000E+00  0.00000000000E+00  0.60011333628E+03  0.60011333630E+03  0.50400001928E-02 0. -1.
        1   -1    0    0  501    0  0.00000000000E+00  0.00000000000E+00 -0.16487098700E+04  0.16487098700E+04  0.50400001928E-02 0.  1.
    10030    2    1    2    0    0  0.00000000000E+00  0.00000000000E+00 -0.10485965337E+04  0.22488232063E+04  0.19893846090E+04 0.  0.
        1    1    3    3  502    0  0.87104662184E+03  0.45458204489E+03 -0.69958761372E+03  0.12061467084E+04  0.50400001928E-02 0. -1.
       -1    1    3    3    0  502 -0.87104662184E+03 -0.45458204489E+03 -0.34900892000E+03  0.10426764979E+04  0.50400001928E-02 0.  1.
</event>
<event>
 5   0  0.2422436E-06  0.3565247E+04  0.7818609E-02  0.8098499E-01
       -2   -1    0    0    0  501  0.00000000000E+00  0.00000000000E+00  0.22695186861E+04  0.22695186861E+04  0.25500000920E-02 0.  1.
        2   -1    0    0  501    0  0.00000000000E+00  0.00000000000E+00 -0.14001849614E+04  0.14001849614E+04  0.25500000920E-02 0. -1.
    10030    2    1    2    0    0  0.00000000000E+00  0.00000000000E+00  0.86933372468E+03  0.36697036475E+04  0.35652466585E+04 0.  0.
        2    1    3    3  502    0 -0.13223758675E+04  0.49463330336E+03  0.15548568641E+04  0.21002190142E+04  0.25500000920E-02 0.  1.
       -2    1    3    3    0  502  0.13223758675E+04 -0.49463330336E+03 -0.68552313938E+03  0.15694846334E+04  0.25500000920E-02 0. -1.
</event>
<event>
 5   0  0.1634374E-06  0.1855582E+04  0.7818609E-02  0.8677287E-01
        1   -1    0    0  501    0  0.00000000000E+00  0.00000000000E+00  0.77508882866E+03  0.77508882867E+03  0.50400001928E-02 0. -1.
       -1   -1    0    0    0  501  0.00000000000E+00  0.00000000000E+00 -0.11105779892E+04  0.11105779892E+04  0.50400001928E-02 0.  1.
    10030    2    1    2    0    0  0.00000000000E+00  0.00000000000E+00 -0.33548916054E+03  0.18856668179E+04  0.18555824884E+04 0.  0.
        5    1    3    3  502    0  0.11849730691E+03  0.64347148807E+03  0.50070209360E+03  0.82390645358E+03  0.46999998093E+01 0. -1.
       -5    1    3    3    0  502 -0.11849730691E+03 -0.64347148807E+03 -0.83619125415E+03  0.10617603643E+04  0.46999998093E+01 0.  1.
</event>
<event>
 5   0  0.8423692E-07  0.3560169E+04  0.7818609E-02  0.8099677E-01
        1   -1    0    0  501    0  0.00000000000E+00  0.00000000000E+00  0.15935336066E+04  0.15935336066E+04  0.50400001928E-02 0. -1.
       -1   -1    0    0    0  501  0.00000000000E+00  0.00000000000E+00 -0.19884745985E+04  0.19884745985E+04  0.50400001928E-02 0.  1.
    10030    2    1    2    0    0  0.00000000000E+00  0.00000000000E+00 -0.39494099191E+03  0.35820082050E+04  0.35601691524E+04 0.  0.
        2    1    3    3  502    0 -0.17228477586E+03  0.25765448629E+03 -0.19611160353E+04  0.19854581291E+04  0.25500000920E-02 0.  1.
       -2    1    3    3    0  502  0.17228477586E+03 -0.25765448629E+03  0.15661750434E+04  0.15965500759E+04  0.25500000920E-02 0. -1.
</event>
<event>
 5   0  0.7707500E-07  0.2386921E+04  0.7818609E-02  0.8444417E-01
        4   -1    0    0  501    0  0.00000000000E+00  0.00000000000E+00  0.97459325428E+03  0.97459408176E+03  0.12699999809E+01 0.  1.
       -4   -1    0    0    0  501  0.00000000000E+00  0.00000000000E+00 -0.14614772481E+04  0.14614777999E+04  0.12699999809E+01 0. -1.
    10030    2    1    2    0    0  0.00000000000E+00  0.00000000000E+00 -0.48688399379E+03  0.24360718816E+04  0.23869206499E+04 0.  0.
        3    1    3    3  502    0  0.27883495077E+03 -0.11617543934E+03 -0.14218177206E+04  0.14535512731E+04  0.10100000352E+00 0. -1.
       -3    1    3    3    0  502 -0.27883495077E+03  0.11617543934E+03  0.93493372685E+03  0.98252060858E+03  0.10100000352E+00 0.  1.
</event>
<event>
 5   0  0.1634374E-06  0.3773257E+04  0.7818609E-02  0.8051918E-01
       -1   -1    0    0    0  501  0.00000000000E+00  0.00000000000E+00  0.19375929642E+04  0.19375929642E+04  0.50400001928E-02 0.  1.
        1   -1    0    0  501    0  0.00000000000E+00  0.00000000000E+00 -0.18370041500E+04  0.18370041500E+04  0.50400001928E-02 0. -1.
    10030    2    1    2    0    0  0.00000000000E+00  0.00000000000E+00  0.10058881419E+03  0.37745971143E+04  0.37732565862E+04 0.  0.
        5    1    3    3  502    0  0.17880890309E+04 -0.39772681852E+03 -0.40141360005E+03  0.18752610412E+04  0.46999998093E+01 0.  1.
       -5    1    3    3    0  502 -0.17880890309E+04  0.39772681852E+03  0.50200241424E+03  0.18993360730E+04  0.46999998093E+01 0. -1.
</event>
<event>
 5   0  0.7754556E-07  0.2886656E+04  0.7818609E-02  0.8276859E-01
       -1   -1    0    0    0  501  0.00000000000E+00  0.00000000000E+00  0.21496362799E+04  0.21496362799E+04  0.50400001928E-02 0. -1.
        1   -1    0    0  501    0  0.00000000000E+00  0.00000000000E+00 -0.96909205321E+03  0.96909205323E+03  0.50400001928E-02 0.  1.
    10030    2    1    2    0    0  0.00000000000E+00  0.00000000000E+00  0.11805442267E+04  0.31187283331E+04  0.28866558064E+04 0.  0.
        4    1    3    3  502    0  0.29006784922E+03  0.90485033050E+03 -0.58348654669E+03  0.11150567882E+04  0.12699999809E+01 0.  1.
       -4    1    3    3    0  502 -0.29006784922E+03 -0.90485033050E+03  0.17640307733E+04  0.20036715449E+04  0.12699999809E+01 0. -1.
</event>
<event>
 5   0  0.2536619E-06  0.3423600E+04  0.7818609E-02  0.8132138E-01
       -2   -1    0    0    0  501  0.00000000000E+00  0.00000000000E+00  0.15273455958E+04  0.15273455958E+04  0.25500000920E-02 0.  1.
        2   -1    0    0  501    0  0.00000000000E+00  0.00000000000E+00 -0.19185310581E+04  0.19185310581E+04  0.25500000920E-02 0. -1.
    10030    2    1    2    0    0  0.00000000000E+00  0.00000000000E+00 -0.39118546232E+03  0.34458766539E+04  0.34236004218E+04 0.  0.
        1    1    3    3  502    0 -0.14562646470E+04  0.44775695751E+03 -0.98109812632E+03  0.18121110752E+04  0.50400001928E-02 0.  1.
       -1    1    3    3    0  502  0.14562646470E+04 -0.44775695751E+03  0.58991266400E+03  0.16337655788E+04  0.50400001928E-02 0. -1.
</event>
<event>
 5   0  0.1513502E-06  0.3898933E+04  0.7818609E-02  0.8025251E-01
       -2   -1    0    0    0  501  0.00000000000E+00  0.00000000000E+00  0.18825920975E+04  0.18825920975E+04  0.25500000920E-02 0. -1.
        2   -1    0    0  501    0  0.00000000000E+00  0.00000000000E+00 -0.20187164117E+04  0.20187164117E+04  0.25500000920E-02 0.  1.
    10030    2    1    2    0    0  0.00000000000E+00  0.00000000000E+00 -0.13612431417E+03  0.39013085092E+04  0.38989329636E+04 0.  0.
        3    1    3    3  502    0 -0.17400176020E+04  0.87540911659E+03  0.12093932762E+02  0.19478574512E+04  0.10100000352E+00 0. -1.
       -3    1    3    3    0  502  0.17400176020E+04 -0.87540911659E+03 -0.14821824693E+03  0.19534510579E+04  0.10100000352E+00 0.  1.
</event>
<event>
 5   0  0.1908273E-06  0.3561573E+04  0.7818609E-02  0.8099351E-01
       -1   -1    0    0    0  501  0.00000000000E+00  0.00000000000E+00  0.14431732841E+04  0.14431732842E+04  0.50400001928E-02 0.  1.
        1   -1    0    0  501    0  0.00000000000E+00  0.00000000000E+00 -0.21973807204E+04  0.21973807204E+04  0.50400001928E-02 0. -1.
    10030    2    1    2    0    0  0.00000000000E+00  0.00000000000E+00 -0.75420743622E+03  0.36405540045E+04  0.35615733325E+04 0.  0.
        3    1    3    3  502    0 -0.15313656181E+03  0.13860165603E+03 -0.21850954375E+04  0.21948355990E+04  0.10100000352E+00 0. -1.
       -3    1    3    3    0  502  0.15313656181E+03 -0.13860165603E+03  0.14308880013E+04  0.14457184055E+04  0.10100000352E+00 0.  1.
</event>
<event>
 5   0  0.8452742E-07  0.3552941E+04  0.7818609E-02  0.8101357E-01
        1   -1    0    0  501    0  0.00000000000E+00  0.00000000000E+00  0.18641513576E+04  0.18641513576E+04  0.50400001928E-02 0. -1.
       -1   -1    0    0    0  501  0.00000000000E+00  0.00000000000E+00 -0.16929136224E+04  0.16929136224E+04  0.50400001928E-02 0.  1.
    10030    2    1    2    0    0  0.00000000000E+00  0.00000000000E+00  0.17123773519E+03  0.35570649801E+04  0.35529408819E+04 0.  0.
        1    1    3    3  502    0 -0.23571363058E+03  0.67226042238E+03 -0.15436459934E+04  0.17000993924E+04  0.50400001928E-02 0.  1.
       -1    1    3    3    0  502  0.23571363058E+03 -0.67226042238E+03  0.17148837286E+04  0.18569655877E+04  0.50400001928E-02 0. -1.
</event>
<event>
 5   0  0.8452742E-07  0.3192421E+04  0.7818609E-02  0.8190822E-01
        1   -1    0    0  501    0  0.00000000000E+00  0.00000000000E+00  0.10750127884E+04  0.10750127884E+04  0.50400001928E-02 0.  1.
       -1   -1    0    0    0  501  0.00000000000E+00  0.00000000000E+00 -0.23701005530E+04  0.23701005531E+04  0.50400001928E-02 0. -1.
    10030    2    1    2    0    0  0.00000000000E+00  0.00000000000E+00 -0.12950877646E+04  0.34451133415E+04  0.31924212782E+04 0.  0.
        1    1    3    3  502    0  0.10704525192E+04  0.83579320580E+03 -0.15526634664E+04  0.20628094238E+04  0.50400001928E-02 0. -1.
       -1    1    3    3    0  502 -0.10704525192E+04 -0.83579320580E+03  0.25757570180E+03  0.13823039177E+04  0.50400001928E-02 0.  1.
</event>
<event>
 5   0  0.2422436E-06  0.3626498E+04  0.7818609E-02  0.8084449E-01
        2   -1    0    0  501    0  0.00000000000E+00  0.00000000000E+00  0.17672636363E+04  0.17672636363E+04  0.25500000920E-02 0. -1.
       -2   -1    0    0    0  501  0.00000000000E+00  0.00000000000E+00 -0.18604304349E+04  0.18604304349E+04  0.25500000920E-02 0.  1.
    10030    2    1    2    0    0  0.00000000000E+00  0.00000000000E+00 -0.93166798638E+02  0.36276940712E+04  0.36264975144E+04 0.  0.
        2    1    3    3  502    0 -0.70566882928E+03  0.74667622027E+03 -0.15411905592E+04  0.18522316848E+04  0.25500000920E-02 0.  1.
       -2    1    3    3    0  502  0.70566882928E+03 -0.74667622027E+03  0.14480237605E+04  0.17754623864E+04  0.25500000920E-02 0. -1.
</event>
<event>
 5   0  0.2422436E-06  0.3582226E+04  0.7818609E-02  0.8094575E-01
       -2   -1    0    0    0  501  0.00000000000E+00  0.00000000000E+00  0.11785097051E+04  0.11785097051E+04  0.25500000920E-02 0.  1.
        2   -1    0    0  501    0  0.00000000000E+00  0.00000000000E+00 -0.27221544361E+04  0.27221544361E+04  0.25500000920E-02 0. -1.
    10030    2    1    2    0    0  0.00000000000E+00  0.00000000000E+00 -0.15436447310E+04  0.39006641412E+04  0.35822258007E+04 0.  0.
        2    1    3    3  502    0  0.21727272627E+03 -0.47042621640E+03  0.10951076256E+04  0.12115151565E+04  0.25500000920E-02 0.  1.
       -2    1    3    3    0  502 -0.21727272627E+03  0.47042621640E+03 -0.26387523566E+04  0.26891489848E+04  0.25500000920E-02 0. -1.
</event>
<event>
 5   0  0.8423692E-07  0.3646643E+04  0.7818609E-02  0.8079890E-01
        1   -1    0    0  501    0  0.00000000000E+00  0.00000000000E+00  0.10824395517E+04  0.10824395517E+04  0.50400001928E-02 0. -1.
       -1   -1    0    0    0  501  0.00000000000E+00  0.00000000000E+00 -0.30713041996E+04  0.30713041996E+04  0.50400001928E-02 0.  1.
    10030    2    1    2    0    0  0.00000000000E+00  0.00000000000E+00 -0.19888646479E+04  0.41537437514E+04  0.36466429170E+04 0.  0.
        2    1    3    3  502    0 -0.88861813779E+03  0.11840508304E+04  0.21794808808E+03  0.14963689160E+04  0.25500000920E-02 0. -1.
       -2    1    3    3    0  502  0.88861813779E+03 -0.11840508304E+04 -0.22068127360E+04  0.26573748353E+04  0.25500000920E-02 0.  1.
</event>
<event>
 5   0  0.2536619E-06  0.3556351E+04  0.7818609E-02  0.8100564E-01
        2   -1    0    0  501    0  0.00000000000E+00  0.00000000000E+00  0.17580858953E+04  0.17580858953E+04  0.25500000920E-02 0.  1.
       -2   -1    0    0    0  501  0.00000000000E+00  0.00000000000E+00 -0.17984948024E+04  0.17984948024E+04  0.25500000920E-02 0. -1.
    10030    2    1    2    0    0  0.00000000000E+00  0.00000000000E+00 -0.40408907032E+02  0.35565806977E+04  0.35563511328E+04 0.  0.
        1    1    3    3  502    0  0.79033196804E+03 -0.12833482350E+03 -0.16080140609E+04  0.17963306118E+04  0.50400001928E-02 0. -1.
       -1    1    3    3    0  502 -0.79033196804E+03  0.12833482350E+03  0.15676051539E+04  0.17602500860E+04  0.50400001928E-02 0.  1.
</event>
<event>
 5   0  0.1513502E-06  0.2891892E+04  0.7818609E-02  0.8275294E-01
        2   -1    0    0  501    0  0.00000000000E+00  0.00000000000E+00  0.20596742074E+04  0.20596742074E+04  0.25500000920E-02 0. -1.
       -2   -1    0    0    0  501  0.00000000000E+00  0.00000000000E+00 -0.10150928126E+04  0.10150928126E+04  0.25500000920E-02 0.  1.
    10030    2    1    2    0    0  0.00000000000E+00  0.00000000000E+00  0.10445813948E+04  0.30747670200E+04  0.28918924490E+04 0.  0.
        3    1    3    3  502    0 -0.14690307193E+03  0.14303193819E+04  0.35976343026E+03  0.14821686081E+04  0.10100000352E+00 0.  1.
       -3    1    3    3    0  502  0.14690307193E+03 -0.14303193819E+04  0.68481796458E+03  0.15925984119E+04  0.10100000352E+00 0. -1.
</event>
<event>
 5   0  0.1513502E-06  0.3576104E+04  0.7818609E-02  0.8095987E-01
        2   -1    0    0  501    0  0.00000000000E+00  0.00000000000E+00  0.11891486022E+04  0.11891486022E+04  0.25500000920E-02 0.  1.
       -2   -1    0    0    0  501  0.00000000000E+00  0.00000000000E+00 -0.26885870825E+04  0.26885870825E+04  0.25500000920E-02 0. -1.
    10030    2    1    2    0    0  0.00000000000E+00  0.00000000000E+00 -0.14994384802E+04  0.38777356847E+04  0.35761037855E+04 0.  0.
        3    1    3    3  502    0  0.30239503348E+03  0.16392966578E+04 -0.48327842169E+02  0.16676546042E+04  0.10100000352E+00 0.  1.
       -3    1    3    3    0  502 -0.30239503348E+03 -0.16392966578E+04 -0.14511106381E+04  0.22100810805E+04  0.10100000352E+00 0. -1.
</event>
<event>
 5   0  0.2422436E-06  0.3487217E+04  0.7818609E-02  0.8116826E-01
        2   -1    0    0  501    0  0.00000000000E+00  0.00000000000E+00  0.24806372435E+04  0.24806372435E+04  0.25500000920E-02 0. -1.
       -2   -1    0    0    0  501  0.00000000000E+00  0.00000000000E+00 -0.12255603012E+04  0.12255603012E+04  0.25500000920E-02 0.  1.
    10030    2    1    2    0    0  0.00000000000E+00  0.00000000000E+00  0.12550769423E+04  0.37061975446E+04  0.34872169575E+04 0.  0.
        2    1    3    3  502    0  0.15383998884E+04 -0.70659953827E+03  0.10711372871E+04  0.20033202969E+04  0.25500000920E-02 0. -1.
       -2    1    3    3    0  502 -0.15383998884E+04  0.70659953827E+03  0.18393965520E+03  0.17028772477E+04  0.25500000920E-02 0.  1.
</event>
<event>
 5   0  0.7707500E-07  0.2771503E+04  0.7818609E-02  0.8312171E-01
       -3   -1    0    0    0  501  0.00000000000E+00  0.00000000000E+00  0.12634245525E+04  0.12634245566E+04  0.10100000352E+00 0. -1.
        3   -1    0    0  501    0  0.00000000000E+00  0.00000000000E+00 -0.15199220400E+04  0.15199220433E+04  0.10100000352E+00 0.  1.
    10030    2    1    2    0    0  0.00000000000E+00  0.00000000000E+00 -0.25649748743E+03  0.27833465999E+04  0.27715027213E+04 0.  0.
        2    1    3    3  502    0  0.57786468301E+03  0.65512819495E+03  0.95207425361E+03  0.12921168399E+04  0.25500000920E-02 0. -1.
       -2    1    3    3    0  502 -0.57786468301E+03 -0.65512819495E+03 -0.12085717410E+04  0.14912297599E+04  0.25500000920E-02 0.  1.
</event>
<event>
 5   0  0.1513502E-06  0.3578319E+04  0.7818609E-02  0.8095476E-01
       -2   -1    0    0    0  501  0.00000000000E+00  0.00000000000E+00  0.17779939964E+04  0.17779939964E+04  0.25500000920E-02 0. -1.
        2   -1    0    0  501    0  0.00000000000E+00  0.00000000000E+00 -0.18003953299E+04  0.18003953299E+04  0.25500000920E-02 0.  1.
    10030    2    1    2    0    0  0.00000000000E+00  0.00000000000E+00 -0.22401333541E+02  0.35783893264E+04  0.35783192076E+04 0.  0.
        3    1    3    3  502    0  0.12289273807E+04 -0.13082399533E+03 -0.13049472602E+04  0.17972937397E+04  0.10100000352E+00 0.  1.
       -3    1    3    3    0  502 -0.12289273807E+04  0.13082399533E+03  0.12825459266E+04  0.17810955867E+04  0.10100000352E+00 0. -1.
</event>
<event>
 5   0  0.8452742E-07  0.3554253E+04  0.7818609E-02  0.8101052E-01
       -1   -1    0    0    0  501  0.00000000000E+00  0.00000000000E+00  0.17569982761E+04  0.17569982761E+04  0.50400001928E-02 0. -1.
        1   -1    0    0  501    0  0.00000000000E+00  0.00000000000E+00 -0.17974855458E+04  0.17974855458E+04  0.50400001928E-02 0.  1.
    10030    2    1    2    0    0  0.00000000000E+00  0.00000000000E+00 -0.40487269725E+02  0.35544838218E+04  0.35542532297E+04 0.  0.
        1    1    3    3  502    0 -0.74065712286E+03  0.15101930473E+04 -0.59379892641E+03  0.17837749798E+04  0.50400001928E-02 0.  1.
       -1    1    3    3    0  502  0.74065712286E+03 -0.15101930473E+04  0.55331165668E+03  0.17707088420E+04  0.50400001928E-02 0. -1.
</event>
<event>
 5   0  0.1566576E-06  0.2217512E+04  0.7818609E-02  0.8511174E-01
       -2   -1    0    0    0  501  0.00000000000E+00  0.00000000000E+00  0.90076195355E+03  0.90076195355E+03  0.25500000920E-02 0. -1.
        2   -1    0    0  501    0  0.00000000000E+00  0.00000000000E+00 -0.13647776209E+04  0.13647776209E+04  0.25500000920E-02 0.  1.
    10030    2    1    2    0    0  0.00000000000E+00  0.00000000000E+00 -0.46401566738E+03  0.22655395745E+04  0.22175118994E+04 0.  0.
        4    1    3    3  502    0 -0.10489478856E+04 -0.33472828289E+03 -0.36522931447E+03  0.11600554966E+04  0.12699999809E+01 0.  1.
       -4    1    3    3    0  502  0.10489478856E+04  0.33472828289E+03 -0.98786352916E+02  0.11054840779E+04  0.12699999809E+01 0. -1.
</event>
<event>
 5   0  0.7707500E-07  0.2648085E+04  0.7818609E-02  0.8352049E-01
        4   -1    0    0  501    0  0.00000000000E+00  0.00000000000E+00  0.15006920971E+04  0.15006926345E+04  0.12699999809E+01 0.  1.
       -4   -1    0    0    0  501  0.00000000000E+00  0.00000000000E+00 -0.11681856939E+04  0.11681863843E+04  0.12699999809E+01 0. -1.
    10030    2    1    2    0    0  0.00000000000E+00  0.00000000000E+00  0.33250640321E+03  0.26688790188E+04  0.26480851022E+04 0.  0.
        5    1    3    3  502    0  0.10948481315E+04  0.13259403117E+03 -0.57216154790E+03  0.12424429705E+04  0.46999998093E+01 0. -1.
       -5    1    3    3    0  502 -0.10948481315E+04 -0.13259403117E+03  0.90466795111E+03  0.14264360483E+04  0.46999998093E+01 0.  1.
</event>
<event>
 5   0  0.7754556E-07  0.3711784E+04  0.7818609E-02  0.8065355E-01
       -1   -1    0    0    0  501  0.00000000000E+00  0.00000000000E+00  0.32217945856E+04  0.32217945856E+04  0.50400001928E-02 0.  1.
        1   -1    0    0  501    0  0.00000000000E+00  0.00000000000E+00 -0.10690734210E+04  0.10690734210E+04  0.50400001928E-02 0. -1.
    10030    2    1    2    0    0  0.00000000000E+00  0.00000000000E+00  0.21527211646E+04  0.42908680066E+04  0.37117839158E+04 0.  0.
        4    1    3    3  502    0  0.49035032347E+02 -0.19685949167E+03  0.32089371203E+04  0.32153440172E+04  0.12699999809E+01 0.  1.
       -4    1    3    3    0  502 -0.49035032347E+02  0.19685949167E+03 -0.10562159557E+04  0.10755239895E+04  0.12699999809E+01 0. -1.
</event>
<event>
 5   0  0.1513502E-06  0.3535606E+04  0.7818609E-02  0.8105403E-01
       -2   -1    0    0    0  501  0.00000000000E+00  0.00000000000E+00  0.12645753229E+04  0.12645753229E+04  0.25500000920E-02 0.  1.
        2   -1    0    0  501    0  0.00000000000E+00  0.00000000000E+00 -0.24712855293E+04  0.24712855293E+04  0.25500000920E-02 0. -1.
    10030    2    1    2    0    0  0.00000000000E+00  0.00000000000E+00 -0.12067102064E+04  0.37358608522E+04  0.35356055754E+04 0.  0.
        3    1    3    3  502    0  0.12199154142E+04 -0.12566586398E+04 -0.85726129214E+03  0.19499439705E+04  0.10100000352E+00 0.  1.
       -3    1    3    3    0  502 -0.12199154142E+04  0.12566586398E+04 -0.34944891426E+03  0.17859168818E+04  0.10100000352E+00 0. -1.
</event>
<event>
 5   0  0.1908273E-06  0.3526653E+04  0.7818609E-02  0.8107503E-01
       -1   -1    0    0    0  501  0.00000000000E+00  0.00000000000E+00  0.16147184992E+04  0.16147184992E+04  0.50400001928E-02 0. -1.
        1   -1    0    0  501    0  0.00000000000E+00  0.00000000000E+00 -0.19256109202E+04  0.19256109202E+04  0.50400001928E-02 0.  1.
    10030    2    1    2    0    0  0.00000000000E+00  0.00000000000E+00 -0.31089242098E+03  0.35403294194E+04  0.35266525631E+04 0.  0.
        3    1    3    3  502    0 -0.62414787948E+03  0.58449835133E+03 -0.17035423990E+04  0.19061100738E+04  0.10100000352E+00 0.  1.
       -3    1    3    3    0  502  0.62414787948E+03 -0.58449835133E+03  0.13926499780E+04  0.16342193456E+04  0.10100000352E+00 0. -1.
</event>
<event>
 5   0  0.1513502E-06  0.3611879E+04  0.7818609E-02  0.8087776E-01
       -2   -1    0    0    0  501  0.00000000000E+00  0.00000000000E+00  0.12239322684E+04  0.12239322684E+04  0.25500000920E-02 0. -1.
        2   -1    0    0  501    0  0.00000000000E+00  0.00000000000E+00 -0.26647035752E+04  0.26647035752E+04  0.25500000920E-02 0.  1.
    10030    2    1    2    0    0  0.00000000000E+00  0.00000000000E+00 -0.14407713068E+04  0.38886358437E+04  0.36118785647E+04 0.  0.
        3    1    3    3  502    0  0.64437540723E+03 -0.70150159324E+03  0.93148447322E+03  0.13322865626E+04  0.10100000352E+00 0. -1.
       -3    1    3    3    0  502 -0.64437540723E+03  0.70150159324E+03 -0.23722557801E+04  0.25563492811E+04  0.10100000352E+00 0.  1.
</event>
<event>
 5   0  0.2536619E-06  0.3548044E+04  0.7818609E-02  0.8102498E-01
       -2   -1    0    0    0  501  0.00000000000E+00  0.00000000000E+00  0.29711740590E+04  0.29711740590E+04  0.25500000920E-02 0.  1.
        2   -1    0    0  501    0  0.00000000000E+00  0.00000000000E+00 -0.10592292452E+04  0.10592292452E+04  0.25500000920E-02 0. -1.
    10030    2    1    2    0    0  0.00000000000E+00  0.00000000000E+00  0.19119448138E+04  0.40304033042E+04  0.35480442252E+04 0.  0.
        1    1    3    3  502    0 -0.88028276136E+03 -0.47317260195E+03  0.26209694085E+04  0.28050437949E+04  0.50400001928E-02 0.  1.
       -1    1    3    3    0  502  0.88028276136E+03  0.47317260195E+03 -0.70902459466E+03  0.12253595093E+04  0.50400001928E-02 0. -1.
</event>
<event>
 5   0  0.2382711E-06  0.3606624E+04  0.7818609E-02  0.8088976E-01
        2   -1    0    0  501    0  0.00000000000E+00  0.00000000000E+00  0.22036531276E+04  0.22036531276E+04  0.25500000920E-02 0.  1.
       -2   -1    0    0    0  501  0.00000000000E+00  0.00000000000E+00 -0.14757016112E+04  0.14757016112E+04  0.25500000920E-02 0. -1.
    10030    2    1    2    0    0  0.00000000000E+00  0.00000000000E+00  0.72795151639E+03  0.36793547387E+04  0.36066241672E+04 0.  0.
        5    1    3    3  502    0 -0.58233227815E+03  0.13159803457E+04 -0.74467615896E+03  0.16203332448E+04  0.46999998093E+01 0. -1.
       -5    1    3    3    0  502  0.58233227815E+03 -0.13159803457E+04  0.14726276753E+04  0.20590214940E+04  0.46999998093E+01 0.  1.
</event>
<event>
 5   0  0.2382711E-06  0.3610184E+04  0.7818609E-02  0.8088163E-01
       -2   -1    0    0    0  501  0.00000000000E+00  0.00000000000E+00  0.13907782045E+04  0.13907782045E+04  0.25500000920E-02 0. -1.
        2   -1    0    0  501    0  0.00000000000E+00  0.00000000000E+00 -0.23428307450E+04  0.23428307450E+04  0.25500000920E-02 0.  1.
    10030    2    1    2    0    0  0.00000000000E+00  0.00000000000E+00 -0.95205254051E+03  0.37336089495E+04  0.36101844479E+04 0.  0.
        5    1    3    3  502    0  0.53179057628E+03 -0.11409093856E+04 -0.18140353355E+04  0.22079904283E+04  0.46999998093E+01 0.  1.
       -5    1    3    3    0  502 -0.53179057628E+03  0.11409093856E+04  0.86198279497E+03  0.15256185211E+04  0.46999998093E+01 0. -1.
</event>
<event>
 5   0  0.2536619E-06  0.3092563E+04  0.7818609E-02  0.8217782E-01
        2   -1    0    0  501    0  0.00000000000E+00  0.00000000000E+00  0.26112757914E+04  0.26112757914E+04  0.25500000920E-02 0. -1.
       -2   -1    0    0    0  501  0.00000000000E+00  0.00000000000E+00 -0.91563915823E+03  0.91563915824E+03  0.25500000920E-02 0.  1.
    10030    2    1    2    0    0  0.00000000000E+00  0.00000000000E+00  0.16956366332E+04  0.35269149497E+04  0.30925629291E+04 0.  0.
        1    1    3    3  502    0  0.11489985822E+04  0.25457485018E+03 -0.29603720546E+03  0.12135254935E+04  0.50400001928E-02 0.  1.
       -1    1    3    3    0  502 -0.11489985822E+04 -0.25457485018E+03  0.19916738387E+04  0.23133894562E+04  0.50400001928E-02 0. -1.
</event>
<event>
 5   0  0.1513502E-06  0.3801428E+04  0.7818609E-02  0.8045848E-01
       -2   -1    0    0    0  501  0.00000000000E+00  0.00000000000E+00  0.25428477334E+04  0.25428477334E+04  0.25500000920E-02 0. -1.
        2   -1    0    0  501    0  0.00000000000E+00  0.00000000000E+00 -0.14207355319E+04  0.14207355319E+04  0.25500000920E-02 0.  1.
    10030    2    1    2    0    0  0.00000000000E+00  0.00000000000E+00  0.11221122015E+04  0.39635832653E+04  0.38014282195E+04 0.  0.
        3    1    3    3  502    0  0.31630021898E+03  0.52910856531E+03 -0.13136134579E+04  0.14510623796E+04  0.10100000352E+00 0.  1.
       -3    1    3    3    0  502 -0.31630021898E+03 -0.52910856531E+03  0.24357256595E+04  0.25125208857E+04  0.10100000352E+00 0. -1.
</event>
<event>
 5   0  0.8423692E-07  0.3579520E+04  0.7818609E-02  0.8095199E-01
       -1   -1    0    0    0  501  0.00000000000E+00  0.00000000000E+00  0.14186744956E+04  0.14186744956E+04  0.50400001928E-02 0.  1.
        1   -1    0    0  501    0  0.00000000000E+00  0.00000000000E+00 -0.22579114162E+04  0.22579114162E+04  0.50400001928E-02 0. -1.
    10030    2    1    2    0    0  0.00000000000E+00  0.00000000000E+00 -0.83923692068E+03  0.36765859118E+04  0.35795202692E+04 0.  0.
        2    1    3    3  502    0 -0.13435849684E+04 -0.83572147581E+03  0.43947776201E+03  0.16421911143E+04  0.25500000920E-02 0.  1.
       -2    1    3    3    0  502  0.13435849684E+04  0.83572147581E+03 -0.12787146827E+04  0.20343947975E+04  0.25500000920E-02 0. -1.
</event>
<event>
 5   0  0.8423692E-07  0.3576356E+04  0.7818609E-02  0.8095929E-01
        1   -1    0    0  501    0  0.00000000000E+00  0.00000000000E+00  0.16017611001E+04  0.16017611001E+04  0.50400001928E-02 0.  1.
       -1   -1    0    0    0  501  0.00000000000E+00  0.00000000000E+00 -0.19962908655E+04  0.19962908655E+04  0.50400001928E-02 0. -1.
    10030    2    1    2    0    0  0.00000000000E+00  0.00000000000E+00 -0.39452976536E+03  0.35980519656E+04  0.35763562758E+04 0.  0.
        2    1    3    3  502    0  0.86087344646E+03 -0.13208343766E+04  0.65158008157E+03  0.17059493381E+04  0.25500000920E-02 0.  1.
       -2    1    3    3    0  502 -0.86087344646E+03  0.13208343766E+04 -0.10461098469E+04  0.18921026275E+04  0.25500000920E-02 0. -1.
</event>
<event>
 5   0  0.7754556E-07  0.3568631E+04  0.7818609E-02  0.8097715E-01
        1   -1    0    0  501    0  0.00000000000E+00  0.00000000000E+00  0.19508693771E+04  0.19508693771E+04  0.50400001928E-02 0. -1.
       -1   -1    0    0    0  501  0.00000000000E+00  0.00000000000E+00 -0.16319809519E+04  0.16319809519E+04  0.50400001928E-02 0.  1.
    10030    2    1    2    0    0  0.00000000000E+00  0.00000000000E+00  0.31888842512E+03  0.35828503290E+04  0.35686309213E+04 0.  0.
        4    1    3    3  502    0  0.84771019831E+03  0.12683413464E+04  0.10885925659E+04  0.18741231920E+04  0.12699999809E+01 0. -1.
       -4    1    3    3    0  502 -0.84771019831E+03 -0.12683413464E+04 -0.76970414083E+03  0.17087271370E+04  0.12699999809E+01 0.  1.
</event>
<event>
 5   0  0.7754556E-07  0.3286722E+04  0.7818609E-02  0.8166282E-01
        1   -1    0    0  501    0  0.00000000000E+00  0.00000000000E+00  0.15410518744E+04  0.15410518745E+04  0.50400001928E-02 0.  1.
       -1   -1    0    0    0  501  0.00000000000E+00  0.00000000000E+00 -0.17524624372E+04  0.17524624372E+04  0.50400001928E-02 0. -1.
    10030    2    1    2    0    0  0.00000000000E+00  0.00000000000E+00 -0.21141056274E+03  0.32935143116E+04  0.32867220897E+04 0.  0.
        4    1    3    3  502    0 -0.94540522470E+03 -0.46633546803E+03  0.11576038565E+04  0.15656653886E+04  0.12699999809E+01 0.  1.
       -4    1    3    3    0  502  0.94540522470E+03  0.46633546803E+03 -0.13690144193E+04  0.17278489230E+04  0.12699999809E+01 0. -1.
</event>
<event>
 5   0  0.2382711E-06  0.1889111E+04  0.7818609E-02  0.8660296E-01
       -2   -1    0    0    0  501  0.00000000000E+00  0.00000000000E+00  0.13468515894E+04  0.13468515894E+04  0.25500000920E-02 0.  1.
        2   -1    0    0  501    0  0.00000000000E+00  0.00000000000E+00 -0.66242240356E+03  0.66242240356E+03  0.25500000920E-02 0. -1.
    10030    2    1    2    0    0  0.00000000000E+00  0.00000000000E+00  0.68442918589E+03  0.20092739930E+04  0.18891105496E+04 0.  0.
        5    1    3    3  502    0  0.32398693385E+03 -0.84103628866E+03  0.64277199049E+03  0.11070173865E+04  0.46999998093E+01 0.  1.
       -5    1    3    3    0  502 -0.32398693385E+03  0.84103628866E+03  0.41657195400E+02  0.90225660656E+03  0.46999998093E+01 0. -1.
</event>
<event>
 5   0  0.1908273E-06  0.2640228E+04  0.7818609E-02  0.8354664E-01
       -1   -1    0    0    0  501  0.00000000000E+00  0.00000000000E+00  0.81476212977E+03  0.81476212979E+03  0.50400001928E-02 0. -1.
        1   -1    0    0  501    0  0.00000000000E+00  0.00000000000E+00 -0.21389068938E+04  0.21389068938E+04  0.50400001928E-02 0.  1.
    10030    2    1    2    0    0  0.00000000000E+00  0.00000000000E+00 -0.13241447640E+04  0.29536690235E+04  0.26402275176E+04 0.  0.
        3    1    3    3  502    0  0.10201915157E+04 -0.82050124918E+03 -0.47259154556E+03  0.13918892943E+04  0.10100000352E+00 0.  1.
       -3    1    3    3    0  502 -0.10201915157E+04  0.82050124918E+03 -0.85155321842E+03  0.15617797292E+04  0.10100000352E+00 0. -1.
</event>
<event>
 5   0  0.2382711E-06  0.2572820E+04  0.7818609E-02  0.8377493E-01
        2   -1    0    0  501    0  0.00000000000E+00  0.00000000000E+00  0.15682783797E+04  0.15682783797E+04  0.25500000920E-02 0. -1.
       -2   -1    0    0    0  501  0.00000000000E+00  0.00000000000E+00 -0.10552024713E+04  0.10552024713E+04  0.25500000920E-02 0.  1.
    10030    2    1    2    0    0  0.00000000000E+00  0.00000000000E+00  0.51307590848E+03  0.26234808510E+04  0.25728204150E+04 0.  0.
        5    1    3    3  502    0 -0.17849720105E+03  0.64555561503E+03 -0.86337105234E+03  0.10927190704E+04  0.46999998093E+01 0.  1.
       -5    1    3    3    0  502  0.17849720105E+03 -0.64555561503E+03  0.13764469608E+04  0.15307617806E+04  0.46999998093E+01 0. -1.
</event>
<event>
 5   0  0.1566576E-06  0.3674262E+04  0.7818609E-02  0.8073690E-01
        2   -1    0    0  501    0  0.00000000000E+00  0.00000000000E+00  0.18021435145E+04  0.18021435145E+04  0.25500000920E-02 0. -1.
       -2   -1    0    0    0  501  0.00000000000E+00  0.00000000000E+00 -0.18727979535E+04  0.18727979535E+04  0.25500000920E-02 0.  1.
    10030    2    1    2    0    0  0.00000000000E+00  0.00000000000E+00 -0.70654439002E+02  0.36749414681E+04  0.36742622041E+04 0.  0.
        4    1    3    3  502    0 -0.39676667149E+03  0.94131988181E+02 -0.18269608244E+04  0.18719166887E+04  0.12699999809E+01 0.  1.
       -4    1    3    3    0  502  0.39676667149E+03 -0.94131988181E+02  0.17563063854E+04  0.18030247794E+04  0.12699999809E+01 0. -1.
</event>
<event>
 5   0  0.2536619E-06  0.3607578E+04  0.7818609E-02  0.8088758E-01
       -2   -1    0    0    0  501  0.00000000000E+00  0.00000000000E+00  0.14628484222E+04  0.14628484222E+04  0.25500000920E-02 0.  1.
        2   -1    0    0  501    0  0.00000000000E+00  0.00000000000E+00 -0.22241908298E+04  0.22241908298E+04  0.25500000920E-02 0. -1.
    10030    2    1    2    0    0  0.00000000000E+00  0.00000000000E+00 -0.76134240759E+03  0.36870392521E+04  0.36075776062E+04 0.  0.
        1    1    3    3  502    0 -0.14661809268E+04 -0.10500221366E+04 -0.41919832552E+03  0.18514751507E+04  0.50400001928E-02 0. -1.
       -1    1    3    3    0  502  0.14661809268E+04  0.10500221366E+04 -0.34214408207E+03  0.18355641014E+04  0.50400001928E-02 0.  1.
</event>
<event>
 5   0  0.2422436E-06  0.2114896E+04  0.7818609E-02  0.8554710E-01
        2   -1    0    0  501    0  0.00000000000E+00  0.00000000000E+00  0.19107617318E+04  0.19107617318E+04  0.25500000920E-02 0. -1.
       -2   -1    0    0    0  501  0.00000000000E+00  0.00000000000E+00 -0.58520984508E+03  0.58520984509E+03  0.25500000920E-02 0.  1.
    10030    2    1    2    0    0  0.00000000000E+00  0.00000000000E+00  0.13255518867E+04  0.24959715769E+04  0.21148962878E+04 0.  0.
        2    1    3    3  502    0 -0.20406130970E+03 -0.19906692375E+03 -0.53900370313E+03  0.60974884193E+03  0.25500000920E-02 0.  1.
       -2    1    3    3    0  502  0.20406130970E+03  0.19906692375E+03  0.18645555898E+04  0.18862227350E+04  0.25500000920E-02 0. -1.
</event>
<event>
 5   0  0.8423692E-07  0.2494923E+04  0.7818609E-02  0.8404796E-01
       -1   -1    0    0    0  501  0.00000000000E+00  0.00000000000E+00  0.10757096284E+04  0.10757096285E+04  0.50400001928E-02 0. -1.
        1   -1    0    0  501    0  0.00000000000E+00  0.00000000000E+00 -0.14466358962E+04  0.14466358962E+04  0.50400001928E-02 0.  1.
    10030    2    1    2    0    0  0.00000000000E+00  0.00000000000E+00 -0.37092626778E+03  0.25223455247E+04  0.24949229747E+04 0.  0.
        2    1    3    3  502    0 -0.69879543840E+03  0.93424565654E+03  0.26101306746E+03  0.11955157184E+04  0.25500000920E-02 0.  1.
       -2    1    3    3    0  502  0.69879543840E+03 -0.93424565654E+03 -0.63193933525E+03  0.13268298063E+04  0.25500000920E-02 0. -1.
</event>
<event>
 5   0  0.8423692E-07  0.2256465E+04  0.7818609E-02  0.8495287E-01
        1   -1    0    0  501    0  0.00000000000E+00  0.00000000000E+00  0.61942840071E+03  0.61942840073E+03  0.50400001928E-02 0. -1.
       -1   -1    0    0    0  501  0.00000000000E+00  0.00000000000E+00 -0.20549720894E+04  0.20549720894E+04  0.50400001928E-02 0.  1.
    10030    2    1    2    0    0  0.00000000000E+00  0.00000000000E+00 -0.14355436887E+04  0.26744004902E+04  0.22564645576E+04 0.  0.
        2    1    3    3  502    0 -0.29983974708E+03 -0.83260426839E+03  0.11168909225E+03  0.89196871863E+03  0.25500000920E-02 0. -1.
       -2    1    3    3    0  502  0.29983974708E+03  0.83260426839E+03 -0.15472327810E+04  0.17824317715E+04  0.25500000920E-02 0.  1.
</event>
<event>
 5   0  0.7754556E-07  0.2204904E+04  0.7818609E-02  0.8516390E-01
       -1   -1    0    0    0  501  0.00000000000E+00  0.00000000000E+00  0.34080543960E+04  0.34080543960E+04  0.50400001928E-02 0. -1.
        1   -1    0    0  501    0  0.00000000000E+00  0.00000000000E+00 -0.35662584385E+03  0.35662584389E+03  0.50400001928E-02 0.  1.
    10030    2    1    2    0    0  0.00000000000E+00  0.00000000000E+00  0.30514285522E+04  0.37646802399E+04  0.22049038754E+04 0.  0.
        4    1    3    3  502    0  0.68911410955E+03  0.32723431282E+03  0.16680479661E+03  0.78088795902E+03  0.12699999809E+01 0.  1.
       -4    1    3    3    0  502 -0.68911410955E+03 -0.32723431282E+03  0.28846237555E+04  0.29837922809E+04  0.12699999809E+01 0. -1.
</event>
<event>
 5   0  0.2382711E-06  0.3516694E+04  0.7818609E-02  0.8109845E-01
        2   -1    0    0  501    0  0.00000000000E+00  0.00000000000E+00  0.29100525029E+04  0.29100525029E+04  0.25500000920E-02 0.  1.
       -2   -1    0    0    0  501  0.00000000000E+00  0.00000000000E+00 -0.10624497251E+04  0.10624497251E+04  0.25500000920E-02 0. -1.
    10030    2    1    2    0    0  0.00000000000E+00  0.00000000000E+00  0.18476027777E+04  0.39725022280E+04  0.35166941760E+04 0.  0.
        5    1    3    3  502    0  0.45217196837E+03 -0.61965495162E+03  0.27110651726E+04  0.28175038967E+04  0.46999998093E+01 0.  1.
       -5    1    3    3    0  502 -0.45217196837E+03  0.61965495162E+03 -0.86346239484E+03  0.11549983313E+04  0.46999998093E+01 0. -1.
</event>
<event>
 5   0  0.2382711E-06  0.3615175E+04  0.7818609E-02  0.8087024E-01
       -2   -1    0    0    0  501  0.00000000000E+00  0.00000000000E+00  0.22103905290E+04  0.22103905290E+04  0.25500000920E-02 0. -1.
        2   -1    0    0  501    0  0.00000000000E+00  0.00000000000E+00 -0.14781880012E+04  0.14781880012E+04  0.25500000920E-02 0.  1.
    10030    2    1    2    0    0  0.00000000000E+00  0.00000000000E+00  0.73220252776E+03  0.36885785302E+04  0.36151751039E+04 0.  0.
        5    1    3    3  502    0 -0.17025623870E+04 -0.60555153930E+03  0.41103312411E+03  0.18532084792E+04  0.46999998093E+01 0.  1.
       -5    1    3    3    0  502  0.17025623870E+04  0.60555153930E+03  0.32116940365E+03  0.18353700510E+04  0.46999998093E+01 0. -1.
</event>
<event>
 5   0  0.2536619E-06  0.2006399E+04  0.7818609E-02  0.8603635E-01
        2   -1    0    0  501    0  0.00000000000E+00  0.00000000000E+00  0.13786295879E+04  0.13786295879E+04  0.25500000920E-02 0.  1.
       -2   -1    0    0    0  501  0.00000000000E+00  0.00000000000E+00 -0.73000687102E+03  0.73000687103E+03  0.25500000920E-02 0. -1.
    10030    2    1    2    0    0  0.00000000000E+00  0.00000000000E+00  0.64862271684E+03  0.21086364589E+04  0.20063988355E+04 0.  0.
        1    1    3    3  502    0  0.85507469038E+02  0.40021051424E+01 -0.72616167665E+03  0.73118966402E+03  0.50400001928E-02 0. -1.
       -1    1    3    3    0  502 -0.85507469038E+02 -0.40021051424E+01  0.13747843935E+04  0.13774467949E+04  0.50400001928E-02 0.  1.
</event>
<event>
 5   0  0.2536619E-06  0.3606423E+04  0.7818609E-02  0.8089022E-01
       -2   -1    0    0    0  501  0.00000000000E+00  0.00000000000E+00  0.16650566398E+04  0.16650566398E+04  0.25500000920E-02 0. -1.
        2   -1    0    0  501    0  0.00000000000E+00  0.00000000000E+00 -0.19528290766E+04  0.19528290766E+04  0.25500000920E-02 0.  1.
    10030    2    1    2    0    0  0.00000000000E+00  0.00000000000E+00 -0.28777243679E+03  0.36178857165E+04  0.36064226155E+04 0.  0.
        1    1    3    3  502    0 -0.12954953517E+04 -0.71673389548E+03 -0.11765050669E+04  0.18910790188E+04  0.50400001928E-02 0.  1.
       -1    1    3    3    0  502  0.12954953517E+04  0.71673389548E+03  0.88873263007E+03  0.17268066976E+04  0.50400001928E-02 0. -1.
</event>
<event>
 5   0  0.2536619E-06  0.2532773E+04  0.7818609E-02  0.8391402E-01
        2   -1    0    0  501    0  0.00000000000E+00  0.00000000000E+00  0.11418465008E+04  0.11418465008E+04  0.25500000920E-02 0. -1.
       -2   -1    0    0    0  501  0.00000000000E+00  0.00000000000E+00 -0.14045103964E+04  0.14045103964E+04  0.25500000920E-02 0.  1.
    10030    2    1    2    0    0  0.00000000000E+00  0.00000000000E+00 -0.26266389557E+03  0.25463568972E+04  0.25327734059E+04 0.  0.
        1    1    3    3  502    0 -0.60968825234E+03  0.38509190941E+03 -0.11779336299E+04  0.13811383639E+04  0.50400001928E-02 0.  1.
       -1    1    3    3    0  502  0.60968825234E+03 -0.38509190941E+03  0.91526973433E+03  0.11652185333E+04  0.50400001928E-02 0. -1.
</event>
<event>
 5   0  0.7754556E-07  0.3611502E+04  0.7818609E-02  0.8087862E-01
       -1   -1    0    0    0  501  0.00000000000E+00  0.00000000000E+00  0.18526786513E+04  0.18526786513E+04  0.50400001928E-02 0. -1.
        1   -1    0    0  501    0  0.00000000000E+00  0.00000000000E+00 -0.17600118572E+04  0.17600118572E+04  0.50400001928E-02 0.  1.
    10030    2    1    2    0    0  0.00000000000E+00  0.00000000000E+00  0.92666794108E+02  0.36126905085E+04  0.36115018449E+04 0.  0.
        4    1    3    3  502    0 -0.16408942862E+04 -0.24739786008E+03 -0.66593678596E+03  0.17880752712E+04  0.12699999809E+01 0.  1.
       -4    1    3    3    0  502  0.16408942862E+04  0.24739786008E+03  0.75860358007E+03  0.18246152373E+04  0.12699999809E+01 0. -1.
</event>
<event>
 5   0  0.2422436E-06  0.3578205E+04  0.7818609E-02  0.8095502E-01
       -2   -1    0    0    0  501  0.00000000000E+00  0.00000000000E+00  0.14608501331E+04  0.14608501331E+04  0.25500000920E-02 0. -1.
        2   -1    0    0  501    0  0.00000000000E+00  0.00000000000E+00 -0.21911134651E+04  0.21911134651E+04  0.25500000920E-02 0.  1.
    10030    2    1    2    0    0  0.00000000000E+00  0.00000000000E+00 -0.73026333201E+03  0.36519635982E+04  0.35782053586E+04 0.  0.
        2    1    3    3  502    0 -0.28718299499E+03 -0.50672963498E+03 -0.20916398115E+04  0.21712222587E+04  0.25500000920E-02 0.  1.
       -2    1    3    3    0  502  0.28718299499E+03  0.50672963498E+03  0.13613764795E+04  0.14807413395E+04  0.25500000920E-02 0. -1.
</event>
<event>
 5   0  0.2422436E-06  0.3584486E+04  0.7818609E-02  0.8094055E-01
       -2   -1    0    0    0  501  0.00000000000E+00  0.00000000000E+00  0.11470733996E+04  0.11470733996E+04  0.25500000920E-02 0.  1.
        2   -1    0    0  501    0  0.00000000000E+00  0.00000000000E+00 -0.28002876214E+04  0.28002876214E+04  0.25500000920E-02 0. -1.
    10030    2    1    2    0    0  0.00000000000E+00  0.00000000000E+00 -0.16532142218E+04  0.39473610210E+04  0.35844862626E+04 0.  0.
        2    1    3    3  502    0 -0.42822060784E+03 -0.17402111617E+04 -0.80383349625E+03  0.19641425778E+04  0.25500000920E-02 0. -1.
       -2    1    3    3    0  502  0.42822060784E+03  0.17402111617E+04 -0.84938072551E+03  0.19832184431E+04  0.25500000920E-02 0.  1.
</event>
<event>
 5   0  0.7754556E-07  0.2971334E+04  0.7818609E-02  0.8251964E-01
        1   -1    0    0  501    0  0.00000000000E+00  0.00000000000E+00  0.16689662970E+04  0.16689662970E+04  0.50400001928E-02 0.  1.
       -1   -1    0    0    0  501  0.00000000000E+00  0.00000000000E+00 -0.13224995029E+04  0.13224995029E+04  0.50400001928E-02 0. -1.
    10030    2    1    2    0    0  0.00000000000E+00  0.00000000000E+00  0.34646679413E+03  0.29914657999E+04  0.29713344464E+04 0.  0.
        4    1    3    3  502    0 -0.13934253711E+02  0.12162644715E+04  0.10320734493E+04  0.15952023840E+04  0.12699999809E+01 0.  1.
       -4    1    3    3    0  502  0.13934253711E+02 -0.12162644715E+04 -0.68560665517E+03  0.13962634159E+04  0.12699999809E+01 0. -1.
</event>
<event>
 5   0  0.8423692E-07  0.1946208E+04  0.7818609E-02  0.8632191E-01
        1   -1    0    0  501    0  0.00000000000E+00  0.00000000000E+00  0.17002421924E+04  0.17002421924E+04  0.50400001928E-02 0. -1.
       -1   -1    0    0    0  501  0.00000000000E+00  0.00000000000E+00 -0.55693924184E+03  0.55693924186E+03  0.50400001928E-02 0.  1.
    10030    2    1    2    0    0  0.00000000000E+00  0.00000000000E+00  0.11433029505E+04  0.22571814342E+04  0.19462082084E+04 0.  0.
        2    1    3    3  502    0  0.66419416448E+03  0.58595184368E+03  0.10390864260E+04  0.13653549179E+04  0.25500000920E-02 0. -1.
       -2    1    3    3    0  502 -0.66419416448E+03 -0.58595184368E+03  0.10421652458E+03  0.89182651633E+03  0.25500000920E-02 0.  1.
</event>
<event>
 5   0  0.1634374E-06  0.3600850E+04  0.7818609E-02  0.8090297E-01
       -1   -1    0    0    0  501  0.00000000000E+00  0.00000000000E+00  0.21862172744E+04  0.21862172744E+04  0.50400001928E-02 0. -1.
        1   -1    0    0  501    0  0.00000000000E+00  0.00000000000E+00 -0.14827114370E+04  0.14827114370E+04  0.50400001928E-02 0.  1.
    10030    2    1    2    0    0  0.00000000000E+00  0.00000000000E+00  0.70350583744E+03  0.36689287114E+04  0.36008495422E+04 0.  0.
        5    1    3    3  502    0 -0.16468848663E+04  0.43024032063E+03 -0.24599942830E+03  0.17198471749E+04  0.46999998093E+01 0.  1.
       -5    1    3    3    0  502  0.16468848663E+04 -0.43024032063E+03  0.94950526574E+03  0.19490815365E+04  0.46999998093E+01 0. -1.
</event>
<event>
 5   0  0.1566576E-06  0.2593040E+04  0.7818609E-02  0.8370569E-01
       -2   -1    0    0    0  501  0.00000000000E+00  0.00000000000E+00  0.17871437973E+04  0.17871437973E+04  0.25500000920E-02 0. -1.
        2   -1    0    0  501    0  0.00000000000E+00  0.00000000000E+00 -0.94058698823E+03  0.94058698823E+03  0.25500000920E-02 0.  1.
    10030    2    1    2    0    0  0.00000000000E+00  0.00000000000E+00  0.84655680910E+03  0.27277307856E+04  0.25930400705E+04 0.  0.
        4    1    3    3  502    0 -0.97483966014E+03 -0.15088646065E+03  0.13083393403E+04  0.16385458582E+04  0.12699999809E+01 0. -1.
       -4    1    3    3    0  502  0.97483966014E+03  0.15088646065E+03 -0.46178253123E+03  0.10891849274E+04  0.12699999809E+01 0.  1.
</event>
<event>
 5   0  0.1634374E-06  0.3615219E+04  0.7818609E-02  0.8087014E-01
       -1   -1    0    0    0  501  0.00000000000E+00  0.00000000000E+00  0.12593411288E+04  0.12593411288E+04  0.50400001928E-02 0.  1.
        1   -1    0    0  501    0  0.00000000000E+00  0.00000000000E+00 -0.25945729563E+04  0.25945729563E+04  0.50400001928E-02 0. -1.
    10030    2    1    2    0    0  0.00000000000E+00  0.00000000000E+00 -0.13352318275E+04  0.38539140850E+04  0.36152191831E+04 0.  0.
        5    1    3    3  502    0  0.54284273947E+02 -0.17933646744E+04 -0.43326804930E+03  0.18457645923E+04  0.46999998093E+01 0. -1.
       -5    1    3    3    0  502 -0.54284273947E+02  0.17933646744E+04 -0.90196377822E+03  0.20081494927E+04  0.46999998093E+01 0.  1.
</event>
<event>
 5   0  0.2536619E-06  0.3530442E+04  0.7818609E-02  0.8106613E-01
       -2   -1    0    0    0  501  0.00000000000E+00  0.00000000000E+00  0.17170156067E+04  0.17170156067E+04  0.25500000920E-02 0. -1.
        2   -1    0    0  501    0  0.00000000000E+00  0.00000000000E+00 -0.18147795527E+04  0.18147795527E+04  0.25500000920E-02 0.  1.
    10030    2    1    2    0    0  0.00000000000E+00  0.00000000000E+00 -0.97763946013E+02  0.35317951594E+04  0.35304417937E+04 0.  0.
        1    1    3    3  502    0  0.14493560873E+04  0.66429209306E+03  0.70909427337E+03  0.17449159697E+04  0.50400001928E-02 0.  1.
       -1    1    3    3    0  502 -0.14493560873E+04 -0.66429209306E+03 -0.80685821938E+03  0.17868791898E+04  0.50400001928E-02 0. -1.
</event>
<event>
 5   0  0.1634374E-06  0.2225019E+04  0.7818609E-02  0.8508086E-01
       -1   -1    0    0    0  501  0.00000000000E+00  0.00000000000E+00  0.10176659923E+04  0.10176659923E+04  0.50400001928E-02 0. -1.
        1   -1    0    0  501    0  0.00000000000E+00  0.00000000000E+00 -0.12161918850E+04  0.12161918850E+04  0.50400001928E-02 0.  1.
    10030    2    1    2    0    0  0.00000000000E+00  0.00000000000E+00 -0.19852589274E+03  0.22338578773E+04  0.22250187608E+04 0.  0.
        5    1    3    3  502    0  0.23425682867E+03  0.72572147439E+02  0.99018012800E+03  0.10201086973E+04  0.46999998093E+01 0. -1.
       -5    1    3    3    0  502 -0.23425682867E+03 -0.72572147439E+02 -0.11887060207E+04  0.12137491801E+04  0.46999998093E+01 0.  1.
</event>
<event>
 5   0  0.8452742E-07  0.3684111E+04  0.7818609E-02  0.8071492E-01
        1   -1    0    0  501    0  0.00000000000E+00  0.00000000000E+00  0.27278052892E+04  0.27278052892E+04  0.50400001928E-02 0.  1.
       -1   -1    0    0    0  501  0.00000000000E+00  0.00000000000E+00 -0.12439188538E+04  0.12439188538E+04  0.50400001928E-02 0. -1.
    10030    2    1    2    0    0  0.00000000000E+00  0.00000000000E+00  0.14838864353E+04  0.39717241430E+04  0.36841109803E+04 0.  0.
        1    1    3    3  502    0 -0.16057088506E+03 -0.17456170262E+04  0.13189870654E+03  0.17579417169E+04  0.50400001928E-02 0.  1.
       -1    1    3    3    0  502  0.16057088506E+03  0.17456170262E+04  0.13519877288E+04  0.22137824261E+04  0.50400001928E-02 0. -1.
</event>
<event>
 5   0  0.8452742E-07  0.3585342E+04  0.7818609E-02  0.8093858E-01
        1   -1    0    0  501    0  0.00000000000E+00  0.00000000000E+00  0.27641532468E+04  0.27641532468E+04  0.50400001928E-02 0. -1.
       -1   -1    0    0    0  501  0.00000000000E+00  0.00000000000E+00 -0.11626232249E+04  0.11626232249E+04  0.50400001928E-02 0.  1.
    10030    2    1    2    0    0  0.00000000000E+00  0.00000000000E+00  0.16015300219E+04  0.39267764717E+04  0.35853416919E+04 0.  0.
        1    1    3    3  502    0 -0.64856148189E+03 -0.53511867106E+03 -0.93326053130E+03  0.12561684629E+04  0.50400001928E-02 0.  1.
       -1    1    3    3    0  502  0.64856148189E+03  0.53511867106E+03  0.25347905532E+04  0.26706080088E+04  0.50400001928E-02 0. -1.
</event>
<event>
 5   0  0.1634374E-06  0.3280136E+04  0.7818609E-02  0.8167968E-01
       -1   -1    0    0    0  501  0.00000000000E+00  0.00000000000E+00  0.98172334270E+03  0.98172334271E+03  0.50400001928E-02 0. -1.
        1   -1    0    0  501    0  0.00000000000E+00  0.00000000000E+00 -0.27398988691E+04  0.27398988691E+04  0.50400001928E-02 0.  1.
    10030    2    1    2    0    0  0.00000000000E+00  0.00000000000E+00 -0.17581755264E+04  0.37216222118E+04  0.32801357755E+04 0.  0.
        5    1    3    3  502    0 -0.14672131951E+04  0.73121527880E+03 -0.82338575543E+03  0.18344962622E+04  0.46999998093E+01 0. -1.
       -5    1    3    3    0  502  0.14672131951E+04 -0.73121527880E+03 -0.93478977093E+03  0.18871259496E+04  0.46999998093E+01 0.  1.
</event>
<event>
 5   0  0.1566576E-06  0.2965605E+04  0.7818609E-02  0.8253621E-01
       -2   -1    0    0    0  501  0.00000000000E+00  0.00000000000E+00  0.87066970201E+03  0.87066970202E+03  0.25500000920E-02 0.  1.
        2   -1    0    0  501    0  0.00000000000E+00  0.00000000000E+00 -0.25253017424E+04  0.25253017424E+04  0.25500000920E-02 0. -1.
    10030    2    1    2    0    0  0.00000000000E+00  0.00000000000E+00 -0.16546320404E+04  0.33959714444E+04  0.29656053113E+04 0.  0.
        4    1    3    3  502    0 -0.15060987455E+03 -0.12021001117E+04 -0.18063588036E+04  0.21750084489E+04  0.12699999809E+01 0. -1.
       -4    1    3    3    0  502  0.15060987455E+03  0.12021001117E+04  0.15172676319E+03  0.12209629955E+04  0.12699999809E+01 0.  1.
</event>
<event>
 5   0  0.2536619E-06  0.3789386E+04  0.7818609E-02  0.8048437E-01
        2   -1    0    0  501    0  0.00000000000E+00  0.00000000000E+00  0.18711461178E+04  0.18711461178E+04  0.25500000920E-02 0.  1.
       -2   -1    0    0    0  501  0.00000000000E+00  0.00000000000E+00 -0.19185357410E+04  0.19185357410E+04  0.25500000920E-02 0. -1.
    10030    2    1    2    0    0  0.00000000000E+00  0.00000000000E+00 -0.47389623243E+02  0.37896818589E+04  0.37893855458E+04 0.  0.
        1    1    3    3  502    0  0.12405957373E+04 -0.61790121193E+03 -0.13156863118E+04  0.19109971644E+04  0.50400001928E-02 0. -1.
       -1    1    3    3    0  502 -0.12405957373E+04  0.61790121193E+03  0.12682966886E+04  0.18786846945E+04  0.50400001928E-02 0.  1.
</event>
<event>
 5   0  0.2422436E-06  0.3590252E+04  0.7818609E-02  0.8092728E-01
       -2   -1    0    0    0  501  0.00000000000E+00  0.00000000000E+00  0.12351060938E+04  0.12351060938E+04  0.25500000920E-02 0.  1.
        2   -1    0    0  501    0  0.00000000000E+00  0.00000000000E+00 -0.26090692422E+04  0.26090692422E+04  0.25500000920E-02 0. -1.
    10030    2    1    2    0    0  0.00000000000E+00  0.00000000000E+00 -0.13739631484E+04  0.38441753360E+04  0.35902519801E+04 0.  0.
        2    1    3    3  502    0 -0.84671299805E+03  0.54850499015E+03  0.90285572992E+03  0.13538571174E+04  0.25500000920E-02 0.  1.
       -2    1    3    3    0  502  0.84671299805E+03 -0.54850499015E+03 -0.22768188783E+04  0.24903182186E+04  0.25500000920E-02 0. -1.
</event>
<event>
 5   0  0.2536619E-06  0.2000962E+04  0.7818609E-02  0.8606171E-01
        2   -1    0    0  501    0  0.00000000000E+00  0.00000000000E+00  0.92816208642E+03  0.92816208643E+03  0.25500000920E-02 0. -1.
       -2   -1    0    0    0  501  0.00000000000E+00  0.00000000000E+00 -0.10784343249E+04  0.10784343249E+04  0.25500000920E-02 0.  1.
    10030    2    1    2    0    0  0.00000000000E+00  0.00000000000E+00 -0.15027223851E+03  0.20065964114E+04  0.20009616219E+04 0.  0.
        1    1    3    3  502    0 -0.32621251158E+02  0.36322464536E+03 -0.10094063692E+04  0.10732648821E+04  0.50400001928E-02 0.  1.
       -1    1    3    3    0  502  0.32621251158E+02 -0.36322464536E+03  0.85913413066E+03  0.93333152926E+03  0.50400001928E-02 0. -1.
</event>
<event>
 5   0  0.1513502E-06  0.3356910E+04  0.7818609E-02  0.8148564E-01
       -2   -1    0    0    0  501  0.00000000000E+00  0.00000000000E+00  0.90660810756E+03  0.90660810756E+03  0.25500000920E-02 0. -1.
        2   -1    0    0  501    0  0.00000000000E+00  0.00000000000E+00 -0.31074185259E+04  0.31074185259E+04  0.25500000920E-02 0.  1.
    10030    2    1    2    0    0  0.00000000000E+00  0.00000000000E+00 -0.22008104184E+04  0.40140266335E+04  0.33569097868E+04 0.  0.
        3    1    3    3  502    0 -0.51896679052E+02 -0.83423922824E+03  0.64004344774E+03  0.10527601723E+04  0.10100000352E+00 0. -1.
       -3    1    3    3    0  502  0.51896679052E+02  0.83423922824E+03 -0.28408538661E+04  0.29612664612E+04  0.10100000352E+00 0.  1.
</event>
<event>
 5   0  0.1637999E-06  0.1892927E+04  0.7818609E-02  0.8658385E-01
       -2   -1    0    0    0  501  0.00000000000E+00  0.00000000000E+00  0.65893841194E+03  0.65893841195E+03  0.25500000920E-02 0.  1.
        2   -1    0    0  501    0  0.00000000000E+00  0.00000000000E+00 -0.13594484360E+04  0.13594484360E+04  0.25500000920E-02 0. -1.
    10030    2    1    2    0    0  0.00000000000E+00  0.00000000000E+00 -0.70051002403E+03  0.20183868479E+04  0.18929266161E+04 0.  0.
        3    1    3    3  502    0  0.27542061300E+01  0.92370534613E+03 -0.57021259691E+03  0.10855328498E+04  0.10100000352E+00 0. -1.
       -3    1    3    3    0  502 -0.27542061300E+01 -0.92370534613E+03 -0.13029742713E+03  0.93285399813E+03  0.10100000352E+00 0.  1.
</event>
<event>
 5   0  0.7754556E-07  0.3626452E+04  0.7818609E-02  0.8084459E-01
       -1   -1    0    0    0  501  0.00000000000E+00  0.00000000000E+00  0.14709627757E+04  0.14709627757E+04  0.50400001928E-02 0.  1.
        1   -1    0    0  501    0  0.00000000000E+00  0.00000000000E+00 -0.22351269544E+04  0.22351269544E+04  0.50400001928E-02 0. -1.
    10030    2    1    2    0    0  0.00000000000E+00  0.00000000000E+00 -0.76416417876E+03  0.37060897301E+04  0.36264520120E+04 0.  0.
        4    1    3    3  502    0  0.12108138425E+03 -0.10653211426E+04 -0.18764581238E+04  0.21611724924E+04  0.12699999809E+01 0. -1.
       -4    1    3    3    0  502 -0.12108138425E+03  0.10653211426E+04  0.11122939450E+04  0.15449172378E+04  0.12699999809E+01 0.  1.
</event>
<event>
 5   0  0.8452742E-07  0.3864287E+04  0.7818609E-02  0.8032498E-01
       -1   -1    0    0    0  501  0.00000000000E+00  0.00000000000E+00  0.16606206612E+04  0.16606206612E+04  0.50400001928E-02 0. -1.
        1   -1    0    0  501    0  0.00000000000E+00  0.00000000000E+00 -0.22480622450E+04  0.22480622450E+04  0.50400001928E-02 0.  1.
    10030    2    1    2    0    0  0.00000000000E+00  0.00000000000E+00 -0.58744158380E+03  0.39086829062E+04  0.38642870555E+04 0.  0.
        1    1    3    3  502    0 -0.18702039365E+04  0.13266538392E+03  0.17845678946E+03  0.18833772043E+04  0.50400001928E-02 0. -1.
       -1    1    3    3    0  502  0.18702039365E+04 -0.13266538392E+03 -0.76589837326E+03  0.20253057019E+04  0.50400001928E-02 0.  1.
</event>
<event>
 5   0  0.1634374E-06  0.2766792E+04  0.7818609E-02  0.8313653E-01
       -1   -1    0    0    0  501  0.00000000000E+00  0.00000000000E+00  0.12274403493E+04  0.12274403493E+04  0.50400001928E-02 0.  1.
        1   -1    0    0  501    0  0.00000000000E+00  0.00000000000E+00 -0.15591669941E+04  0.15591669941E+04  0.50400001928E-02 0. -1.
    10030    2    1    2    0    0  0.00000000000E+00  0.00000000000E+00 -0.33172664483E+03  0.27866073434E+04  0.27667919906E+04 0.  0.
        5    1    3    3  502    0 -0.24905393919E+03  0.13470616649E+04  0.28284977443E+02  0.13701916375E+04  0.46999998093E+01 0.  1.
       -5    1    3    3    0  502  0.24905393919E+03 -0.13470616649E+04 -0.36001162227E+03  0.14164157059E+04  0.46999998093E+01 0. -1.
</event>
<event>
 5   0  0.8452742E-07  0.3662966E+04  0.7818609E-02  0.8076219E-01
       -1   -1    0    0    0  501  0.00000000000E+00  0.00000000000E+00  0.18154665560E+04  0.18154665561E+04  0.50400001928E-02 0.  1.
        1   -1    0    0  501    0  0.00000000000E+00  0.00000000000E+00 -0.18476405518E+04  0.18476405518E+04  0.50400001928E-02 0. -1.
    10030    2    1    2    0    0  0.00000000000E+00  0.00000000000E+00 -0.32173995764E+02  0.36631071079E+04  0.36629658090E+04 0.  0.
        1    1    3    3  502    0  0.93786885244E+03 -0.15318210459E+04  0.34205518554E+03  0.18284079006E+04  0.50400001928E-02 0.  1.
       -1    1    3    3    0  502 -0.93786885244E+03  0.15318210459E+04 -0.37422918130E+03  0.18346992073E+04  0.50400001928E-02 0. -1.
</event>
<event>
 5   0  0.2422436E-06  0.1960104E+04  0.7818609E-02  0.8625504E-01
       -2   -1    0    0    0  501  0.00000000000E+00  0.00000000000E+00  0.90057292884E+03  0.90057292884E+03  0.25500000920E-02 0. -1.
        2   -1    0    0  501    0  0.00000000000E+00  0.00000000000E+00 -0.10665457378E+04  0.10665457378E+04  0.25500000920E-02 0.  1.
    10030    2    1    2    0    0  0.00000000000E+00  0.00000000000E+00 -0.16597280898E+03  0.19671186667E+04  0.19601043022E+04 0.  0.
        2    1    3    3  502    0 -0.76217175197E+03  0.53738580406E+03  0.21944385234E+03  0.95804221527E+03  0.25500000920E-02 0. -1.
       -2    1    3    3    0  502  0.76217175197E+03 -0.53738580406E+03 -0.38541666132E+03  0.10090764514E+04  0.25500000920E-02 0.  1.
</event>
<event>
 5   0  0.2536619E-06  0.1957159E+04  0.7818609E-02  0.8626916E-01
        2   -1    0    0  501    0  0.00000000000E+00  0.00000000000E+00  0.30121426836E+04  0.30121426836E+04  0.25500000920E-02 0. -1.
       -2   -1    0    0    0  501  0.00000000000E+00  0.00000000000E+00 -0.31791917543E+03  0.31791917544E+03  0.25500000920E-02 0.  1.
    10030    2    1    2    0    0  0.00000000000E+00  0.00000000000E+00  0.26942235082E+04  0.33300618591E+04  0.19571590822E+04 0.  0.
        1    1    3    3  502    0  0.37822262574E+03  0.81720839789E+03  0.69534154100E+03  0.11377090045E+04  0.50400001928E-02 0.  1.
       -1    1    3    3    0  502 -0.37822262574E+03 -0.81720839789E+03  0.19988819672E+04  0.21923528546E+04  0.50400001928E-02 0. -1.
</event>
<event>
 5   0  0.8452742E-07  0.2547960E+04  0.7818609E-02  0.8386096E-01
       -1   -1    0    0    0  501  0.00000000000E+00  0.00000000000E+00  0.10193946003E+04  0.10193946003E+04  0.50400001928E-02 0.  1.
        1   -1    0    0  501    0  0.00000000000E+00  0.00000000000E+00 -0.15921460390E+04  0.15921460390E+04  0.50400001928E-02 0. -1.
    10030    2    1    2    0    0  0.00000000000E+00  0.00000000000E+00 -0.57275143872E+03  0.26115406393E+04  0.25479600272E+04 0.  0.
        1    1    3    3  502    0  0.89975667616E+02 -0.76179678917E+03  0.75615626538E+03  0.10771268572E+04  0.50400001928E-02 0.  1.
       -1    1    3    3    0  502 -0.89975667616E+02  0.76179678917E+03 -0.13289077041E+04  0.15344137821E+04  0.50400001928E-02 0. -1.
</event>
<event>
 5   0  0.2382711E-06  0.3615850E+04  0.7818609E-02  0.8086871E-01
       -2   -1    0    0    0  501  0.00000000000E+00  0.00000000000E+00  0.26473352368E+04  0.26473352368E+04  0.25500000920E-02 0. -1.
        2   -1    0    0  501    0  0.00000000000E+00  0.00000000000E+00 -0.12346725736E+04  0.12346725736E+04  0.25500000920E-02 0.  1.
    10030    2    1    2    0    0  0.00000000000E+00  0.00000000000E+00  0.14126626632E+04  0.38820078104E+04  0.36158496706E+04 0.  0.
        5    1    3    3  502    0  0.10860142697E+04  0.62836765881E+03  0.21037959998E+04  0.24495413055E+04  0.46999998093E+01 0. -1.
       -5    1    3    3    0  502 -0.10860142697E+04 -0.62836765881E+03 -0.69113333658E+03  0.14324665049E+04  0.46999998093E+01 0.  1.
</event>
<event>
 5   0  0.2422436E-06  0.3433414E+04  0.7818609E-02  0.8129754E-01
        2   -1    0    0  501    0  0.00000000000E+00  0.00000000000E+00  0.18611164359E+04  0.18611164359E+04  0.25500000920E-02 0.  1.
       -2   -1    0    0    0  501  0.00000000000E+00  0.00000000000E+00 -0.15835031202E+04  0.15835031202E+04  0.25500000920E-02 0. -1.
    10030    2    1    2    0    0  0.00000000000E+00  0.00000000000E+00  0.27761331565E+03  0.34446195561E+04  0.34334144424E+04 0.  0.
        2    1    3    3  502    0  0.38545202115E+03 -0.66915938179E+03 -0.13994081071E+04  0.15983399479E+04  0.25500000920E-02 0. -1.
       -2    1    3    3    0  502 -0.38545202115E+03  0.66915938179E+03  0.16770214228E+04  0.18462796081E+04  0.25500000920E-02 0.  1.
</event>
<event>
 5   0  0.8423692E-07  0.1861441E+04  0.7818609E-02  0.8674291E-01
        1   -1    0    0  501    0  0.00000000000E+00  0.00000000000E+00  0.94715153019E+03  0.94715153020E+03  0.50400001928E-02 0.  1.
       -1   -1    0    0    0  501  0.00000000000E+00  0.00000000000E+00 -0.91457497993E+03  0.91457497994E+03  0.50400001928E-02 0. -1.
    10030    2    1    2    0    0  0.00000000000E+00  0.00000000000E+00  0.32576550261E+02  0.18617265101E+04  0.18614414756E+04 0.  0.
        2    1    3    3  502    0 -0.17987770025E+03 -0.46949062956E+03 -0.76707086470E+03  0.91715601168E+03  0.25500000920E-02 0. -1.
       -2    1    3    3    0  502  0.17987770025E+03  0.46949062956E+03  0.79964741496E+03  0.94457049845E+03  0.25500000920E-02 0.  1.
</event>
<event>
 5   0  0.1566576E-06  0.3618504E+04  0.7818609E-02  0.8086266E-01
        2   -1    0    0  501    0  0.00000000000E+00  0.00000000000E+00  0.13847691983E+04  0.13847691983E+04  0.25500000920E-02 0.  1.
       -2   -1    0    0    0  501  0.00000000000E+00  0.00000000000E+00 -0.23638546692E+04  0.23638546692E+04  0.25500000920E-02 0. -1.
    10030    2    1    2    0    0  0.00000000000E+00  0.00000000000E+00 -0.97908547091E+03  0.37486238676E+04  0.36185041856E+04 0.  0.
        4    1    3    3  502    0 -0.10588998843E+04 -0.10017096205E+04  0.62077217403E+03  0.15843139947E+04  0.12699999809E+01 0.  1.
       -4    1    3    3    0  502  0.10588998843E+04  0.10017096205E+04 -0.15998576449E+04  0.21643098729E+04  0.12699999809E+01 0. -1.
</event>
<event>
 5   0  0.8423692E-07  0.2161942E+04  0.7818609E-02  0.8534438E-01
       -1   -1    0    0    0  501  0.00000000000E+00  0.00000000000E+00  0.12228201859E+04  0.12228201859E+04  0.50400001928E-02 0.  1.
        1   -1    0    0  501    0  0.00000000000E+00  0.00000000000E+00 -0.95557664124E+03  0.95557664125E+03  0.50400001928E-02 0. -1.
    10030    2    1    2    0    0  0.00000000000E+00  0.00000000000E+00  0.26724354467E+03  0.21783968272E+04  0.21619420955E+04 0.  0.
        2    1    3    3  502    0 -0.78716349494E+03 -0.38906307584E+03  0.76889795871E+03  0.11671334609E+04  0.25500000920E-02 0.  1.
       -2    1    3    3    0  502  0.78716349494E+03  0.38906307584E+03 -0.50165441404E+03  0.10112633662E+04  0.25500000920E-02 0. -1.
</event>
<event>
 5   0  0.8452742E-07  0.3358817E+04  0.7818609E-02  0.8148088E-01
        1   -1    0    0  501    0  0.00000000000E+00  0.00000000000E+00  0.17931282187E+04  0.17931282187E+04  0.50400001928E-02 0. -1.
       -1   -1    0    0    0  501  0.00000000000E+00  0.00000000000E+00 -0.15729012344E+04  0.15729012344E+04  0.50400001928E-02 0.  1.
    10030    2    1    2    0    0  0.00000000000E+00  0.00000000000E+00  0.22022698433E+03  0.33660294531E+04  0.33588174042E+04 0.  0.
        1    1    3    3  502    0  0.65804650227E+03 -0.44983534757E+03 -0.13712473820E+04  0.15860947077E+04  0.50400001928E-02 0.  1.
       -1    1    3    3    0  502 -0.65804650227E+03  0.44983534757E+03  0.15914743664E+04  0.17799347454E+04  0.50400001928E-02 0. -1.
</event>
<event>
 5   0  0.2382711E-06  0.3582750E+04  0.7818609E-02  0.8094454E-01
        2   -1    0    0  501    0  0.00000000000E+00  0.00000000000E+00  0.17078855222E+04  0.17078855222E+04  0.25500000920E-02 0. -1.
       -2   -1    0    0    0  501  0.00000000000E+00  0.00000000000E+00 -0.18789458468E+04  0.18789458468E+04  0.25500000920E-02 0.  1.
    10030    2    1    2    0    0  0.00000000000E+00  0.00000000000E+00 -0.17106032458E+03  0.35868313690E+04  0.35827500101E+04 0.  0.
        5    1    3    3  502    0  0.11784780929E+04 -0.44196790164E+03 -0.13616806856E+04  0.18542768459E+04  0.46999998093E+01 0.  1.
       -5    1    3    3    0  502 -0.11784780929E+04  0.44196790164E+03  0.11906203611E+04  0.17325545231E+04  0.46999998093E+01 0. -1.
</event>
<event>
 5   0  0.1566576E-06  0.2670106E+04  0.7818609E-02  0.8344770E-01
        2   -1    0    0  501    0  0.00000000000E+00  0.00000000000E+00  0.11165183890E+04  0.11165183890E+04  0.25500000920E-02 0. -1.
       -2   -1    0    0    0  501  0.00000000000E+00  0.00000000000E+00 -0.15963613237E+04  0.15963613237E+04  0.25500000920E-02 0.  1.
    10030    2    1    2    0    0  0.00000000000E+00  0.00000000000E+00 -0.47984293475E+03  0.27128797127E+04  0.26701061952E+04 0.  0.
        4    1    3    3  502    0  0.77375594787E+03 -0.83627523091E+03 -0.94699406220E+03  0.14815039303E+04  0.12699999809E+01 0. -1.
       -4    1    3    3    0  502 -0.77375594787E+03  0.83627523091E+03  0.46715112744E+03  0.12313757824E+04  0.12699999809E+01 0.  1.
</event>
<event>
 5   0  0.1513502E-06  0.3200077E+04  0.7818609E-02  0.8188797E-01
       -2   -1    0    0    0  501  0.00000000000E+00  0.00000000000E+00  0.12488540414E+04  0.12488540414E+04  0.25500000920E-02 0. -1.
        2   -1    0    0  501    0  0.00000000000E+00  0.00000000000E+00 -0.20499784809E+04  0.20499784809E+04  0.25500000920E-02 0.  1.
    10030    2    1    2    0    0  0.00000000000E+00  0.00000000000E+00 -0.80112443951E+03  0.32988325223E+04  0.32000774432E+04 0.  0.
        3    1    3    3  502    0 -0.49232712399E+03  0.12273368623E+04  0.52800318267E+03  0.14239133196E+04  0.10100000352E+00 0. -1.
       -3    1    3    3    0  502  0.49232712399E+03 -0.12273368623E+04 -0.13291276222E+04  0.18749192027E+04  0.10100000352E+00 0.  1.
</event>
<event>
 5   0  0.1908273E-06  0.3670225E+04  0.7818609E-02  0.8074593E-01
       -1   -1    0    0    0  501  0.00000000000E+00  0.00000000000E+00  0.13221478149E+04  0.13221478149E+04  0.50400001928E-02 0.  1.
        1   -1    0    0  501    0  0.00000000000E+00  0.00000000000E+00 -0.25470965542E+04  0.25470965542E+04  0.50400001928E-02 0. -1.
    10030    2    1    2    0    0  0.00000000000E+00  0.00000000000E+00 -0.12249487393E+04  0.38692443691E+04  0.36702251394E+04 0.  0.
        3    1    3    3  502    0 -0.24088541217E+03  0.17268312528E+04 -0.12159354416E+04  0.21256695335E+04  0.10100000352E+00 0.  1.
       -3    1    3    3    0  502  0.24088541217E+03 -0.17268312528E+04 -0.90132977175E+01  0.17435748356E+04  0.10100000352E+00 0. -1.
</event>
<event>
 5   0  0.1566576E-06  0.3457031E+04  0.7818609E-02  0.8124049E-01
        2   -1    0    0  501    0  0.00000000000E+00  0.00000000000E+00  0.25404533727E+04  0.25404533727E+04  0.25500000920E-02 0. -1.
       -2   -1    0    0    0  501  0.00000000000E+00  0.00000000000E+00 -0.11760759572E+04  0.11760759572E+04  0.25500000920E-02 0.  1.
    10030    2    1    2    0    0  0.00000000000E+00  0.00000000000E+00  0.13643774155E+04  0.37165293298E+04  0.34570311725E+04 0.  0.
        4    1    3    3  502    0  0.58786314012E+03  0.44836297670E+03 -0.99751115866E+03  0.12416289925E+04  0.12699999809E+01 0.  1.
       -4    1    3    3    0  502 -0.58786314012E+03 -0.44836297670E+03  0.23618885741E+04  0.24749003374E+04  0.12699999809E+01 0. -1.
</event>
<event>
 5   0  0.7754556E-07  0.2241753E+04  0.7818609E-02  0.8501248E-01
       -1   -1    0    0    0  501  0.00000000000E+00  0.00000000000E+00  0.67407817571E+03  0.67407817573E+03  0.50400001928E-02 0.  1.
        1   -1    0    0  501    0  0.00000000000E+00  0.00000000000E+00 -0.18638259837E+04  0.18638259837E+04  0.50400001928E-02 0. -1.
    10030    2    1    2    0    0  0.00000000000E+00  0.00000000000E+00 -0.11897478080E+04  0.25379041595E+04  0.22417532594E+04 0.  0.
        4    1    3    3  502    0  0.76374808555E+03 -0.79486519420E+03 -0.36496703145E+03  0.11611737002E+04  0.12699999809E+01 0.  1.
       -4    1    3    3    0  502 -0.76374808555E+03  0.79486519420E+03 -0.82478077656E+03  0.13767304592E+04  0.12699999809E+01 0. -1.
</event>
<event>
 5   0  0.1634374E-06  0.3582028E+04  0.7818609E-02  0.8094621E-01
       -1   -1    0    0    0  501  0.00000000000E+00  0.00000000000E+00  0.13240662552E+04  0.13240662552E+04  0.50400001928E-02 0.  1.
        1   -1    0    0  501    0  0.00000000000E+00  0.00000000000E+00 -0.24226367656E+04  0.24226367656E+04  0.50400001928E-02 0. -1.
    10030    2    1    2    0    0  0.00000000000E+00  0.00000000000E+00 -0.10985705104E+04  0.37467030208E+04  0.35820282466E+04 0.  0.
        5    1    3    3  502    0 -0.45260718142E+03  0.35852450223E+02  0.12628664962E+04  0.13420106319E+04  0.46999998093E+01 0.  1.
       -5    1    3    3    0  502  0.45260718142E+03 -0.35852450223E+02 -0.23614370066E+04  0.24046923889E+04  0.46999998093E+01 0. -1.
</event>
<event>
 5   0  0.2382711E-06  0.3391067E+04  0.7818609E-02  0.8140102E-01
       -2   -1    0    0    0  501  0.00000000000E+00  0.00000000000E+00  0.13665388970E+04  0.13665388970E+04  0.25500000920E-02 0.  1.
        2   -1    0    0  501    0  0.00000000000E+00  0.00000000000E+00 -0.21037341822E+04  0.21037341822E+04  0.25500000920E-02 0. -1.
    10030    2    1    2    0    0  0.00000000000E+00  0.00000000000E+00 -0.73719528519E+03  0.34702730792E+04  0.33910674360E+04 0.  0.
        5    1    3    3  502    0 -0.52122390856E+03  0.15502769785E+04 -0.82600443057E+03  0.18323041457E+04  0.46999998093E+01 0.  1.
       -5    1    3    3    0  502  0.52122390856E+03 -0.15502769785E+04  0.88809145383E+02  0.16379689335E+04  0.46999998093E+01 0. -1.
</event>
<event>
 5   0  0.2382711E-06  0.3495946E+04  0.7818609E-02  0.8114751E-01
       -2   -1    0    0    0  501  0.00000000000E+00  0.00000000000E+00  0.19340161688E+04  0.19340161688E+04  0.25500000920E-02 0.  1.
        2   -1    0    0  501    0  0.00000000000E+00  0.00000000000E+00 -0.15798263570E+04  0.15798263570E+04  0.25500000920E-02 0. -1.
    10030    2    1    2    0    0  0.00000000000E+00  0.00000000000E+00  0.35418981182E+03  0.35138425259E+04  0.34959460628E+04 0.  0.
        5    1    3    3  502    0 -0.32633621232E+03  0.32686906322E+03  0.18715628046E+04  0.19277209677E+04  0.46999998093E+01 0.  1.
       -5    1    3    3    0  502  0.32633621232E+03 -0.32686906322E+03 -0.15173729928E+04  0.15861215581E+04  0.46999998093E+01 0. -1.
</event>
<event>
 5   0  0.7707500E-07  0.3418867E+04  0.7818609E-02  0.8133291E-01
        3   -1    0    0  501    0  0.00000000000E+00  0.00000000000E+00  0.15452542124E+04  0.15452542157E+04  0.10100000352E+00 0. -1.
       -3   -1    0    0    0  501  0.00000000000E+00  0.00000000000E+00 -0.18910568261E+04  0.18910568288E+04  0.10100000352E+00 0.  1.
    10030    2    1    2    0    0  0.00000000000E+00  0.00000000000E+00 -0.34580261369E+03  0.34363110445E+04  0.34188673778E+04 0.  0.
        2    1    3    3  502    0  0.10538380020E+04 -0.88333524260E+03 -0.11936160217E+04  0.18208720143E+04  0.25500000920E-02 0.  1.
       -2    1    3    3    0  502 -0.10538380020E+04  0.88333524260E+03  0.84781340804E+03  0.16154390301E+04  0.25500000920E-02 0. -1.
</event>
<event>
 5   0  0.1634374E-06  0.2303892E+04  0.7818609E-02  0.8476388E-01
       -1   -1    0    0    0  501  0.00000000000E+00  0.00000000000E+00  0.14896321890E+04  0.14896321890E+04  0.50400001928E-02 0. -1.
        1   -1    0    0  501    0  0.00000000000E+00  0.00000000000E+00 -0.89081009039E+03  0.89081009041E+03  0.50400001928E-02 0.  1.
    10030    2    1    2    0    0  0.00000000000E+00  0.00000000000E+00  0.59882209860E+03  0.23804422794E+04  0.23038918247E+04 0.  0.
        5    1    3    3  502    0 -0.10738588003E+04 -0.37280290087E+03  0.10665801490E+03  0.11417323452E+04  0.46999998093E+01 0. -1.
       -5    1    3    3    0  502  0.10738588003E+04  0.37280290087E+03  0.49216408370E+03  0.12387099342E+04  0.46999998093E+01 0.  1.
</event>
<event>
 5   0  0.7707500E-07  0.1801488E+04  0.7818609E-02  0.8705508E-01
        4   -1    0    0  501    0  0.00000000000E+00  0.00000000000E+00  0.98690644431E+03  0.98690726146E+03  0.12699999809E+01 0.  1.
       -4   -1    0    0    0  501  0.00000000000E+00  0.00000000000E+00 -0.82210268800E+03  0.82210366896E+03  0.12699999809E+01 0. -1.
    10030    2    1    2    0    0  0.00000000000E+00  0.00000000000E+00  0.16480375630E+03  0.18090109304E+04  0.18014883481E+04 0.  0.
        2    1    3    3  502    0  0.73703003512E+03  0.11362247252E+03 -0.42489746717E+03  0.85828969267E+03  0.25500000920E-02 0. -1.
       -2    1    3    3    0  502 -0.73703003512E+03 -0.11362247252E+03  0.58970122348E+03  0.95072123775E+03  0.25500000920E-02 0.  1.
</event>
<event>
 5   0  0.2382711E-06  0.3236250E+04  0.7818609E-02  0.8179309E-01
       -2   -1    0    0    0  501  0.00000000000E+00  0.00000000000E+00  0.23318199256E+04  0.23318199256E+04  0.25500000920E-02 0.  1.
        2   -1    0    0  501    0  0.00000000000E+00  0.00000000000E+00 -0.11228692021E+04  0.11228692021E+04  0.25500000920E-02 0. -1.
    10030    2    1    2    0    0  0.00000000000E+00  0.00000000000E+00  0.12089507235E+04  0.34546891278E+04  0.32362501630E+04 0.  0.
        5    1    3    3  502    0 -0.55121459179E+03  0.49535270550E+03 -0.93105033566E+03  0.11899952296E+04  0.46999998093E+01 0. -1.
       -5    1    3    3    0  502  0.55121459179E+03 -0.49535270550E+03  0.21400010591E+04  0.22646938981E+04  0.46999998093E+01 0.  1.
</event>
<event>
 5   0  0.2382711E-06  0.1872181E+04  0.7818609E-02  0.8668829E-01
        2   -1    0    0  501    0  0.00000000000E+00  0.00000000000E+00  0.74421707608E+03  0.74421707608E+03  0.25500000920E-02 0. -1.
       -2   -1    0    0    0  501  0.00000000000E+00  0.00000000000E+00 -0.11774325826E+04  0.11774325826E+04  0.25500000920E-02 0.  1.
    10030    2    1    2    0    0  0.00000000000E+00  0.00000000000E+00 -0.43321550653E+03  0.19216496587E+04  0.18721810104E+04 0.  0.
        5    1    3    3  502    0  0.97989037393E+02 -0.92259044616E+03 -0.34426589802E+03  0.98960400228E+03  0.46999998093E+01 0. -1.
       -5    1    3    3    0  502 -0.97989037393E+02  0.92259044616E+03 -0.88949608511E+02  0.93204565642E+03  0.46999998093E+01 0.  1.
</event>
<event>
 5   0  0.1566576E-06  0.3632370E+04  0.7818609E-02  0.8083117E-01
        2   -1    0    0  501    0  0.00000000000E+00  0.00000000000E+00  0.20779122912E+04  0.20779122912E+04  0.25500000920E-02 0.  1.
       -2   -1    0    0    0  501  0.00000000000E+00  0.00000000000E+00 -0.15874242001E+04  0.15874242001E+04  0.25500000920E-02 0. -1.
    10030    2    1    2    0    0  0.00000000000E+00  0.00000000000E+00  0.49048809111E+03  0.36653364912E+04  0.36323701665E+04 0.  0.
        4    1    3    3  502    0 -0.89378188400E+03  0.74848409589E+03  0.16505254022E+04  0.20207202217E+04  0.12699999809E+01 0.  1.
       -4    1    3    3    0  502  0.89378188400E+03 -0.74848409589E+03 -0.11600373111E+04  0.16446162696E+04  0.12699999809E+01 0. -1.
</event>
<event>
 5   0  0.1634374E-06  0.3383984E+04  0.7818609E-02  0.8141848E-01
        1   -1    0    0  501    0  0.00000000000E+00  0.00000000000E+00  0.19953982212E+04  0.19953982212E+04  0.50400001928E-02 0. -1.
       -1   -1    0    0    0  501  0.00000000000E+00  0.00000000000E+00 -0.14347197558E+04  0.14347197558E+04  0.50400001928E-02 0.  1.
    10030    2    1    2    0    0  0.00000000000E+00  0.00000000000E+00  0.56067846536E+03  0.34301179770E+04  0.33839841895E+04 0.  0.
        5    1    3    3  502    0 -0.63504200958E+03  0.52689625712E+02  0.18691133361E+04  0.19747560112E+04  0.46999998093E+01 0. -1.
       -5    1    3    3    0  502  0.63504200958E+03 -0.52689625712E+02 -0.13084348707E+04  0.14553619658E+04  0.46999998093E+01 0.  1.
</event>
<event>
 5   0  0.2382711E-06  0.3591499E+04  0.7818609E-02  0.8092442E-01
       -2   -1    0    0    0  501  0.00000000000E+00  0.00000000000E+00  0.13276666274E+04  0.13276666274E+04  0.25500000920E-02 0. -1.
        2   -1    0    0  501    0  0.00000000000E+00  0.00000000000E+00 -0.24288599846E+04  0.24288599846E+04  0.25500000920E-02 0.  1.
    10030    2    1    2    0    0  0.00000000000E+00  0.00000000000E+00 -0.11011933572E+04  0.37565266121E+04  0.35914990432E+04 0.  0.
        5    1    3    3  502    0  0.17128763518E+04 -0.43115254885E+03 -0.21190224689E+03  0.17789779563E+04  0.46999998093E+01 0.  1.
       -5    1    3    3    0  502 -0.17128763518E+04  0.43115254885E+03 -0.88929111029E+03  0.19775486557E+04  0.46999998093E+01 0. -1.
</event>
<event>
 5   0  0.7754556E-07  0.3643717E+04  0.7818609E-02  0.8080551E-01
       -1   -1    0    0    0  501  0.00000000000E+00  0.00000000000E+00  0.20602669718E+04  0.20602669718E+04  0.50400001928E-02 0. -1.
        1   -1    0    0  501    0  0.00000000000E+00  0.00000000000E+00 -0.16110377149E+04  0.16110377149E+04  0.50400001928E-02 0.  1.
    10030    2    1    2    0    0  0.00000000000E+00  0.00000000000E+00  0.44922925684E+03  0.36713046867E+04  0.36437166708E+04 0.  0.
        4    1    3    3  502    0  0.65648838191E+03 -0.61867523397E+03 -0.13702248514E+04  0.16405041289E+04  0.12699999809E+01 0.  1.
       -4    1    3    3    0  502 -0.65648838191E+03  0.61867523397E+03  0.18194541082E+04  0.20308005578E+04  0.12699999809E+01 0. -1.
</event>
<event>
 5   0  0.1513502E-06  0.3545427E+04  0.7818609E-02  0.8103108E-01
       -2   -1    0    0    0  501  0.00000000000E+00  0.00000000000E+00  0.15307762637E+04  0.15307762637E+04  0.25500000920E-02 0. -1.
        2   -1    0    0  501    0  0.00000000000E+00  0.00000000000E+00 -0.20528890978E+04  0.20528890978E+04  0.25500000920E-02 0.  1.
    10030    2    1    2    0    0  0.00000000000E+00  0.00000000000E+00 -0.52211283406E+03  0.35836653615E+04  0.35454274230E+04 0.  0.
        3    1    3    3  502    0  0.12227213677E+04  0.97822715565E+03  0.57889203679E+03  0.16694585684E+04  0.10100000352E+00 0. -1.
       -3    1    3    3    0  502 -0.12227213677E+04 -0.97822715565E+03 -0.11010048708E+04  0.19142067931E+04  0.10100000352E+00 0.  1.
</event>
<event>
 5   0  0.1513502E-06  0.3731299E+04  0.7818609E-02  0.8061061E-01
       -2   -1    0    0    0  501  0.00000000000E+00  0.00000000000E+00  0.15973670155E+04  0.15973670155E+04  0.25500000920E-02 0.  1.
        2   -1    0    0  501    0  0.00000000000E+00  0.00000000000E+00 -0.21789905743E+04  0.21789905743E+04  0.25500000920E-02 0. -1.
    10030    2    1    2    0    0  0.00000000000E+00  0.00000000000E+00 -0.58162355872E+03  0.37763575898E+04  0.37312987929E+04 0.  0.
        3    1    3    3  502    0  0.39169077154E+03  0.18107745604E+04 -0.68335737790E+02  0.18539136852E+04  0.10100000352E+00 0.  1.
       -3    1    3    3    0  502 -0.39169077154E+03 -0.18107745604E+04 -0.51328782093E+03  0.19224439046E+04  0.10100000352E+00 0. -1.
</event>
<event>
 5   0  0.1566576E-06  0.3519136E+04  0.7818609E-02  0.8109270E-01
       -2   -1    0    0    0  501  0.00000000000E+00  0.00000000000E+00  0.18490130195E+04  0.18490130195E+04  0.25500000920E-02 0. -1.
        2   -1    0    0  501    0  0.00000000000E+00  0.00000000000E+00 -0.16744499004E+04  0.16744499004E+04  0.25500000920E-02 0.  1.
    10030    2    1    2    0    0  0.00000000000E+00  0.00000000000E+00  0.17456311909E+03  0.35234629199E+04  0.35191360680E+04 0.  0.
        4    1    3    3  502    0 -0.55037276598E+03  0.83040066369E+03  0.15394449929E+04  0.18336760735E+04  0.12699999809E+01 0. -1.
       -4    1    3    3    0  502  0.55037276598E+03 -0.83040066369E+03 -0.13648818738E+04  0.16897868463E+04  0.12699999809E+01 0.  1.
</event>
<event>
 5   0  0.1634374E-06  0.3627718E+04  0.7818609E-02  0.8084172E-01
       -1   -1    0    0    0  501  0.00000000000E+00  0.00000000000E+00  0.12610832744E+04  0.12610832744E+04  0.50400001928E-02 0. -1.
        1   -1    0    0  501    0  0.00000000000E+00  0.00000000000E+00 -0.26089356764E+04  0.26089356764E+04  0.50400001928E-02 0.  1.
    10030    2    1    2    0    0  0.00000000000E+00  0.00000000000E+00 -0.13478524020E+04  0.38700189508E+04  0.36277183713E+04 0.  0.
        5    1    3    3  502    0 -0.60109160336E+03 -0.90280668497E+03 -0.22248854328E+04  0.24751784390E+04  0.46999998093E+01 0.  1.
       -5    1    3    3    0  502  0.60109160336E+03  0.90280668497E+03  0.87703303077E+03  0.13948405117E+04  0.46999998093E+01 0. -1.
</event>
<event>
 5   0  0.2422436E-06  0.3497269E+04  0.7818609E-02  0.8114437E-01
       -2   -1    0    0    0  501  0.00000000000E+00  0.00000000000E+00  0.15911435641E+04  0.15911435641E+04  0.25500000920E-02 0.  1.
        2   -1    0    0  501    0  0.00000000000E+00  0.00000000000E+00 -0.19217137353E+04  0.19217137353E+04  0.25500000920E-02 0. -1.
    10030    2    1    2    0    0  0.00000000000E+00  0.00000000000E+00 -0.33057017114E+03  0.35128572994E+04  0.34972689013E+04 0.  0.
        2    1    3    3  502    0  0.57748612560E+03  0.16404694792E+04 -0.34800827856E+03  0.17736234379E+04  0.25500000920E-02 0.  1.
       -2    1    3    3    0  502 -0.57748612560E+03 -0.16404694792E+04  0.17438107421E+02  0.17392338615E+04  0.25500000920E-02 0. -1.
</event>
<event>
 5   0  0.2382711E-06  0.3626544E+04  0.7818609E-02  0.8084438E-01
        2   -1    0    0  501    0  0.00000000000E+00  0.00000000000E+00  0.28342461245E+04  0.28342461245E+04  0.25500000920E-02 0.  1.
       -2   -1    0    0    0  501  0.00000000000E+00  0.00000000000E+00 -0.11600808233E+04  0.11600808233E+04  0.25500000920E-02 0. -1.
    10030    2    1    2    0    0  0.00000000000E+00  0.00000000000E+00  0.16741653012E+04  0.39943269478E+04  0.36265435762E+04 0.  0.
        5    1    3    3  502    0 -0.99199001603E+03  0.27163743776E+03 -0.80771703773E+03  0.13077690899E+04  0.46999998093E+01 0. -1.
       -5    1    3    3    0  502  0.99199001603E+03 -0.27163743776E+03  0.24818823389E+04  0.26865578579E+04  0.46999998093E+01 0.  1.
</event>
<event>
 5   0  0.2422436E-06  0.3646108E+04  0.7818609E-02  0.8080011E-01
        2   -1    0    0  501    0  0.00000000000E+00  0.00000000000E+00  0.16304471234E+04  0.16304471234E+04  0.25500000920E-02 0. -1.
       -2   -1    0    0    0  501  0.00000000000E+00  0.00000000000E+00 -0.20384138442E+04  0.20384138442E+04  0.25500000920E-02 0.  1.
    10030    2    1    2    0    0  0.00000000000E+00  0.00000000000E+00 -0.40796672078E+03  0.36688609675E+04  0.36461080557E+04 0.  0.
        2    1    3    3  502    0  0.18206111439E+03  0.81224858467E+03 -0.18360269971E+04  0.20159090125E+04  0.25500000920E-02 0.  1.
       -2    1    3    3    0  502 -0.18206111439E+03 -0.81224858467E+03  0.14280602763E+04  0.16529519550E+04  0.25500000920E-02 0. -1.
</event>
<event>
 5   0  0.1908273E-06  0.2172059E+04  0.7818609E-02  0.8530149E-01
        1   -1    0    0  501    0  0.00000000000E+00  0.00000000000E+00  0.25263955340E+04  0.25263955340E+04  0.50400001928E-02 0.  1.
       -1   -1    0    0    0  501  0.00000000000E+00  0.00000000000E+00 -0.46685484721E+03  0.46685484723E+03  0.50400001928E-02 0. -1.
    10030    2    1    2    0    0  0.00000000000E+00  0.00000000000E+00  0.20595406868E+04  0.29932503813E+04  0.21720589320E+04 0.  0.
        3    1    3    3  502    0 -0.61704357432E+03 -0.42320288541E+03 -0.54987856998E+02  0.75024471305E+03  0.10100000352E+00 0. -1.
       -3    1    3    3    0  502  0.61704357432E+03  0.42320288541E+03  0.21145285438E+04  0.22430056682E+04  0.10100000352E+00 0.  1.
</event>
<event>
 5   0  0.1566576E-06  0.1838454E+04  0.7818609E-02  0.8686113E-01
        2   -1    0    0  501    0  0.00000000000E+00  0.00000000000E+00  0.12944136975E+04  0.12944136975E+04  0.25500000920E-02 0. -1.
       -2   -1    0    0    0  501  0.00000000000E+00  0.00000000000E+00 -0.65278825018E+03  0.65278825019E+03  0.25500000920E-02 0.  1.
    10030    2    1    2    0    0  0.00000000000E+00  0.00000000000E+00  0.64162544733E+03  0.19472019477E+04  0.18384537553E+04 0.  0.
        4    1    3    3  502    0 -0.63229678195E+03  0.11870072448E+03 -0.37459727124E+03  0.74445537877E+03  0.12699999809E+01 0.  1.
       -4    1    3    3    0  502  0.63229678195E+03 -0.11870072448E+03  0.10162227186E+04  0.12027465689E+04  0.12699999809E+01 0. -1.
</event>
<event>
 5   0  0.7754556E-07  0.2457306E+04  0.7818609E-02  0.8418355E-01
        1   -1    0    0  501    0  0.00000000000E+00  0.00000000000E+00  0.22454271083E+04  0.22454271083E+04  0.50400001928E-02 0. -1.
       -1   -1    0    0    0  501  0.00000000000E+00  0.00000000000E+00 -0.67229439153E+03  0.67229439155E+03  0.50400001928E-02 0.  1.
    10030    2    1    2    0    0  0.00000000000E+00  0.00000000000E+00  0.15731327167E+04  0.29177214998E+04  0.24573058837E+04 0.  0.
        4    1    3    3  502    0 -0.89870316637E+03  0.81714214907E+03  0.56699106051E+03  0.13404734793E+04  0.12699999809E+01 0.  1.
       -4    1    3    3    0  502  0.89870316637E+03 -0.81714214907E+03  0.10061416562E+04  0.15772480205E+04  0.12699999809E+01 0. -1.
</event>
<event>
 5   0  0.1634374E-06  0.3543620E+04  0.7818609E-02  0.8103530E-01
        1   -1    0    0  501    0  0.00000000000E+00  0.00000000000E+00  0.16588748687E+04  0.16588748687E+04  0.50400001928E-02 0.  1.
       -1   -1    0    0    0  501  0.00000000000E+00  0.00000000000E+00 -0.18924341254E+04  0.18924341254E+04  0.50400001928E-02 0. -1.
    10030    2    1    2    0    0  0.00000000000E+00  0.00000000000E+00 -0.23355925673E+03  0.35513089941E+04  0.35436204149E+04 0.  0.
        5    1    3    3  502    0 -0.66973407086E+03  0.12860931949E+04  0.90361904900E+03  0.17085458458E+04  0.46999998093E+01 0.  1.
       -5    1    3    3    0  502  0.66973407086E+03 -0.12860931949E+04 -0.11371783057E+04  0.18427631483E+04  0.46999998093E+01 0. -1.
</event>
<event>
 5   0  0.7754556E-07  0.3660636E+04  0.7818609E-02  0.8076742E-01
       -1   -1    0    0    0  501  0.00000000000E+00  0.00000000000E+00  0.14433164613E+04  0.14433164613E+04  0.50400001928E-02 0. -1.
        1   -1    0    0  501    0  0.00000000000E+00  0.00000000000E+00 -0.23210874595E+04  0.23210874595E+04  0.50400001928E-02 0.  1.
    10030    2    1    2    0    0  0.00000000000E+00  0.00000000000E+00 -0.87777099819E+03  0.37644039209E+04  0.36606358675E+04 0.  0.
        4    1    3    3  502    0  0.10024012069E+04 -0.11357794898E+04  0.61749213478E+03  0.16358793899E+04  0.12699999809E+01 0. -1.
       -4    1    3    3    0  502 -0.10024012069E+04  0.11357794898E+04 -0.14952631330E+04  0.21285245309E+04  0.12699999809E+01 0.  1.
</event>
<event>
 5   0  0.2422436E-06  0.3331610E+04  0.7818609E-02  0.8154898E-01
        2   -1    0    0  501    0  0.00000000000E+00  0.00000000000E+00  0.15517066685E+04  0.15517066685E+04  0.25500000920E-02 0.  1.
       -2   -1    0    0    0  501  0.00000000000E+00  0.00000000000E+00 -0.17882931442E+04  0.17882931442E+04  0.25500000920E-02 0. -1.
    10030    2    1    2    0    0  0.00000000000E+00  0.00000000000E+00 -0.23658647576E+03  0.33399998127E+04  0.33316100595E+04 0.  0.
        2    1    3    3  502    0  0.57061840185E+03  0.15518731036E+04 -0.32126519568E+03  0.16843772785E+04  0.25500000920E-02 0. -1.
       -2    1    3    3    0  502 -0.57061840185E+03 -0.15518731036E+04  0.84678719914E+02  0.16556225342E+04  0.25500000920E-02 0.  1.
</event>
<event>
 5   0  0.2536619E-06  0.2196466E+04  0.7818609E-02  0.8519901E-01
        2   -1    0    0  501    0  0.00000000000E+00  0.00000000000E+00  0.18483076275E+04  0.18483076275E+04  0.25500000920E-02 0. -1.
       -2   -1    0    0    0  501  0.00000000000E+00  0.00000000000E+00 -0.65255118549E+03  0.65255118550E+03  0.25500000920E-02 0.  1.
    10030    2    1    2    0    0  0.00000000000E+00  0.00000000000E+00  0.11957564420E+04  0.25008588130E+04  0.21964656460E+04 0.  0.
        1    1    3    3  502    0 -0.21626645869E+03 -0.71914980042E+03 -0.31452958790E+03  0.81417226573E+03  0.50400001928E-02 0.  1.
       -1    1    3    3    0  502  0.21626645869E+03  0.71914980042E+03  0.15102860299E+04  0.16866865473E+04  0.50400001928E-02 0. -1.
</event>
<event>
 5   0  0.1908273E-06  0.3035110E+04  0.7818609E-02  0.8233775E-01
       -1   -1    0    0    0  501  0.00000000000E+00  0.00000000000E+00  0.13857786803E+04  0.13857786803E+04  0.50400001928E-02 0.  1.
        1   -1    0    0  501    0  0.00000000000E+00  0.00000000000E+00 -0.16618626908E+04  0.16618626908E+04  0.50400001928E-02 0. -1.
    10030    2    1    2    0    0  0.00000000000E+00  0.00000000000E+00 -0.27608401048E+03  0.30476413711E+04  0.30351104668E+04 0.  0.
        3    1    3    3  502    0 -0.72852215095E+03 -0.78587889088E+03  0.94092855649E+03  0.14260773872E+04  0.10100000352E+00 0.  1.
       -3    1    3    3    0  502  0.72852215095E+03  0.78587889088E+03 -0.12170125670E+04  0.16215639839E+04  0.10100000352E+00 0. -1.
</event>
<event>
 5   0  0.1513502E-06  0.3467095E+04  0.7818609E-02  0.8121633E-01
        2   -1    0    0  501    0  0.00000000000E+00  0.00000000000E+00  0.22424597160E+04  0.22424597160E+04  0.25500000920E-02 0.  1.
       -2   -1    0    0    0  501  0.00000000000E+00  0.00000000000E+00 -0.13401294721E+04  0.13401294721E+04  0.25500000920E-02 0. -1.
    10030    2    1    2    0    0  0.00000000000E+00  0.00000000000E+00  0.90233024384E+03  0.35825891881E+04  0.34670946658E+04 0.  0.
        3    1    3    3  502    0  0.66537872036E+03  0.14075453930E+04 -0.33664501027E+03  0.15928724833E+04  0.10100000352E+00 0. -1.
       -3    1    3    3    0  502 -0.66537872036E+03 -0.14075453930E+04  0.12389752541E+04  0.19897167048E+04  0.10100000352E+00 0.  1.
</event>
<event>
 5   0  0.1513502E-06  0.3526603E+04  0.7818609E-02  0.8107514E-01
        2   -1    0    0  501    0  0.00000000000E+00  0.00000000000E+00  0.14108795505E+04  0.14108795506E+04  0.25500000920E-02 0. -1.
       -2   -1    0    0    0  501  0.00000000000E+00  0.00000000000E+00 -0.22037546136E+04  0.22037546136E+04  0.25500000920E-02 0.  1.
    10030    2    1    2    0    0  0.00000000000E+00  0.00000000000E+00 -0.79287506302E+03  0.36146341641E+04  0.35266030787E+04 0.  0.
        3    1    3    3  502    0 -0.48753648711E+03 -0.71611775557E+03  0.11777105295E+04  0.14620255017E+04  0.10100000352E+00 0. -1.
       -3    1    3    3    0  502  0.48753648711E+03  0.71611775557E+03 -0.19705855925E+04  0.21526086624E+04  0.10100000352E+00 0.  1.
</event>
<event>
 5   0  0.1513502E-06  0.1980923E+04  0.7818609E-02  0.8615592E-01
       -2   -1    0    0    0  501  0.00000000000E+00  0.00000000000E+00  0.46404801930E+03  0.46404801931E+03  0.25500000920E-02 0. -1.
        2   -1    0    0  501    0  0.00000000000E+00  0.00000000000E+00 -0.21140347215E+04  0.21140347215E+04  0.25500000920E-02 0.  1.
    10030    2    1    2    0    0  0.00000000000E+00  0.00000000000E+00 -0.16499867022E+04  0.25780827409E+04  0.19809226389E+04 0.  0.
        3    1    3    3  502    0  0.52532928030E+03 -0.81486868383E+03 -0.56136654374E+03  0.11203188079E+04  0.10100000352E+00 0.  1.
       -3    1    3    3    0  502 -0.52532928030E+03  0.81486868383E+03 -0.10886201585E+04  0.14577639330E+04  0.10100000352E+00 0. -1.
</event>
<event>
 5   0  0.7754556E-07  0.3573768E+04  0.7818609E-02  0.8096527E-01
       -1   -1    0    0    0  501  0.00000000000E+00  0.00000000000E+00  0.16614221824E+04  0.16614221824E+04  0.50400001928E-02 0.  1.
        1   -1    0    0  501    0  0.00000000000E+00  0.00000000000E+00 -0.19218197491E+04  0.19218197492E+04  0.50400001928E-02 0. -1.
    10030    2    1    2    0    0  0.00000000000E+00  0.00000000000E+00 -0.26039756677E+03  0.35832419315E+04  0.35737677383E+04 0.  0.
        4    1    3    3  502    0 -0.17129779238E+04 -0.49596823780E+03 -0.24307827118E+03  0.17998240245E+04  0.12699999809E+01 0. -1.
       -4    1    3    3    0  502  0.17129779238E+04  0.49596823780E+03 -0.17319295597E+02  0.17834179071E+04  0.12699999809E+01 0.  1.
</event>
<event>
 5   0  0.1566576E-06  0.2047490E+04  0.7818609E-02  0.8584734E-01
        2   -1    0    0  501    0  0.00000000000E+00  0.00000000000E+00  0.19741478403E+04  0.19741478403E+04  0.25500000920E-02 0.  1.
       -2   -1    0    0    0  501  0.00000000000E+00  0.00000000000E+00 -0.53088948226E+03  0.53088948227E+03  0.25500000920E-02 0. -1.
    10030    2    1    2    0    0  0.00000000000E+00  0.00000000000E+00  0.14432583581E+04  0.25050373226E+04  0.20474904882E+04 0.  0.
        4    1    3    3  502    0  0.44884997351E+03  0.85761305360E+03  0.11294059547E+04  0.14874561748E+04  0.12699999809E+01 0. -1.
       -4    1    3    3    0  502 -0.44884997351E+03 -0.85761305360E+03  0.31385240336E+03  0.10175811478E+04  0.12699999809E+01 0.  1.
</event>
<event>
 5   0  0.7754556E-07  0.3199998E+04  0.7818609E-02  0.8188818E-01
        1   -1    0    0  501    0  0.00000000000E+00  0.00000000000E+00  0.19169411341E+04  0.19169411341E+04  0.50400001928E-02 0. -1.
       -1   -1    0    0    0  501  0.00000000000E+00  0.00000000000E+00 -0.13354596679E+04  0.13354596680E+04  0.50400001928E-02 0.  1.
    10030    2    1    2    0    0  0.00000000000E+00  0.00000000000E+00  0.58148146618E+03  0.32524008021E+04  0.31999984816E+04 0.  0.
        4    1    3    3  502    0  0.70257053550E+03 -0.14300877580E+04  0.14261602703E+03  0.15997178804E+04  0.12699999809E+01 0.  1.
       -4    1    3    3    0  502 -0.70257053550E+03  0.14300877580E+04  0.43886543916E+03  0.16526829217E+04  0.12699999809E+01 0. -1.
</event>
<event>
 5   0  0.8452742E-07  0.3404837E+04  0.7818609E-02  0.8136720E-01
       -1   -1    0    0    0  501  0.00000000000E+00  0.00000000000E+00  0.15585969804E+04  0.15585969804E+04  0.50400001928E-02 0.  1.
        1   -1    0    0  501    0  0.00000000000E+00  0.00000000000E+00 -0.18595117445E+04  0.18595117445E+04  0.50400001928E-02 0. -1.
    10030    2    1    2    0    0  0.00000000000E+00  0.00000000000E+00 -0.30091476410E+03  0.34181087249E+04  0.34048373765E+04 0.  0.
        1    1    3    3  502    0 -0.28338854126E+03 -0.15084927005E+04  0.58887098147E+03  0.16439672520E+04  0.50400001928E-02 0.  1.
       -1    1    3    3    0  502  0.28338854126E+03  0.15084927005E+04 -0.88978574557E+03  0.17741414729E+04  0.50400001928E-02 0. -1.
</event>
<event>
 5   0  0.8423692E-07  0.3698125E+04  0.7818609E-02  0.8068378E-01
        1   -1    0    0  501    0  0.00000000000E+00  0.00000000000E+00  0.28585424075E+04  0.28585424075E+04  0.50400001928E-02 0. -1.
       -1   -1    0    0    0  501  0.00000000000E+00  0.00000000000E+00 -0.11960751684E+04  0.11960751684E+04  0.50400001928E-02 0.  1.
    10030    2    1    2    0    0  0.00000000000E+00  0.00000000000E+00  0.16624672391E+04  0.40546175759E+04  0.36981247093E+04 0.  0.
        2    1    3    3  502    0  0.52408745767E+03  0.12057417143E+04  0.22567836538E+04  0.26118103310E+04  0.25500000920E-02 0. -1.
       -2    1    3    3    0  502 -0.52408745767E+03 -0.12057417143E+04 -0.59431641476E+03  0.14428072449E+04  0.25500000920E-02 0.  1.
</event>
<event>
 5   0  0.1566576E-06  0.2667369E+04  0.7818609E-02  0.8345671E-01
        2   -1    0    0  501    0  0.00000000000E+00  0.00000000000E+00  0.13668657940E+04  0.13668657940E+04  0.25500000920E-02 0. -1.
       -2   -1    0    0    0  501  0.00000000000E+00  0.00000000000E+00 -0.13013084048E+04  0.13013084048E+04  0.25500000920E-02 0.  1.
    10030    2    1    2    0    0  0.00000000000E+00  0.00000000000E+00  0.65557389168E+02  0.26681741988E+04  0.26673687004E+04 0.  0.
        4    1    3    3  502    0  0.29457300610E+03  0.94925659468E+03  0.92234528165E+03  0.13559438668E+04  0.12699999809E+01 0. -1.
       -4    1    3    3    0  502 -0.29457300610E+03 -0.94925659468E+03 -0.85678789248E+03  0.13122303319E+04  0.12699999809E+01 0.  1.
</event>
<event>
 5   0  0.9445747E-07  0.2065274E+04  0.7818609E-02  0.8576697E-01
       -1   -1    0    0    0  501  0.00000000000E+00  0.00000000000E+00  0.88798772159E+03  0.88798772160E+03  0.50400001928E-02 0.  1.
        1   -1    0    0  501    0  0.00000000000E+00  0.00000000000E+00 -0.12008484290E+04  0.12008484290E+04  0.50400001928E-02 0. -1.
    10030    2    1    2    0    0  0.00000000000E+00  0.00000000000E+00 -0.31286070745E+03  0.20888361507E+04  0.20652735030E+04 0.  0.
        2    1    3    3  502    0  0.60463926345E+03  0.56272891774E+03  0.47038719414E+03  0.95053489478E+03  0.25500000920E-02 0. -1.
       -2    1    3    3    0  502 -0.60463926345E+03 -0.56272891774E+03 -0.78324790159E+03  0.11383012559E+04  0.25500000920E-02 0.  1.
</event>
<event>
 5   0  0.8452742E-07  0.3373384E+04  0.7818609E-02  0.8144470E-01
       -1   -1    0    0    0  501  0.00000000000E+00  0.00000000000E+00  0.13230543143E+04  0.13230543143E+04  0.50400001928E-02 0.  1.
        1   -1    0    0  501    0  0.00000000000E+00  0.00000000000E+00 -0.21502740538E+04  0.21502740538E+04  0.50400001928E-02 0. -1.
    10030    2    1    2    0    0  0.00000000000E+00  0.00000000000E+00 -0.82721973945E+03  0.34733283681E+04  0.33733836804E+04 0.  0.
        1    1    3    3  502    0 -0.26846534815E+03 -0.20513539791E+03  0.12878553580E+04  0.13314374179E+04  0.50400001928E-02 0.  1.
       -1    1    3    3    0  502  0.26846534815E+03  0.20513539791E+03 -0.21150750974E+04  0.21418909502E+04  0.50400001928E-02 0. -1.
</event>
<event>
 5   0  0.2536619E-06  0.2528996E+04  0.7818609E-02  0.8392728E-01
        2   -1    0    0  501    0  0.00000000000E+00  0.00000000000E+00  0.13179617845E+04  0.13179617845E+04  0.25500000920E-02 0. -1.
       -2   -1    0    0    0  501  0.00000000000E+00  0.00000000000E+00 -0.12132031330E+04  0.12132031330E+04  0.25500000920E-02 0.  1.
    10030    2    1    2    0    0  0.00000000000E+00  0.00000000000E+00  0.10475865151E+03  0.25311649175E+04  0.25289961377E+04 0.  0.
        1    1    3    3  502    0  0.39626770263E+02 -0.36267383662E+03  0.12641416708E+04  0.13157343032E+04  0.50400001928E-02 0. -1.
       -1    1    3    3    0  502 -0.39626770263E+02  0.36267383662E+03 -0.11593830193E+04  0.12154306143E+04  0.50400001928E-02 0.  1.
</event>
<event>
 5   0  0.1513502E-06  0.3600505E+04  0.7818609E-02  0.8090376E-01
       -2   -1    0    0    0  501  0.00000000000E+00  0.00000000000E+00  0.14264360936E+04  0.14264360936E+04  0.25500000920E-02 0. -1.
        2   -1    0    0  501    0  0.00000000000E+00  0.00000000000E+00 -0.22720318450E+04  0.22720318450E+04  0.25500000920E-02 0.  1.
    10030    2    1    2    0    0  0.00000000000E+00  0.00000000000E+00 -0.84559575140E+03  0.36984679386E+04  0.36005045366E+04 0.  0.
        3    1    3    3  502    0  0.12724417732E+04  0.10989541897E+04 -0.10838124394E+04  0.20003644147E+04  0.10100000352E+00 0.  1.
       -3    1    3    3    0  502 -0.12724417732E+04 -0.10989541897E+04  0.23821668804E+03  0.16981035239E+04  0.10100000352E+00 0. -1.
</event>
<event>
 5   0  0.8423692E-07  0.2313159E+04  0.7818609E-02  0.8472751E-01
       -1   -1    0    0    0  501  0.00000000000E+00  0.00000000000E+00  0.12653856095E+04  0.12653856095E+04  0.50400001928E-02 0.  1.
        1   -1    0    0  501    0  0.00000000000E+00  0.00000000000E+00 -0.10571295170E+04  0.10571295170E+04  0.50400001928E-02 0. -1.
    10030    2    1    2    0    0  0.00000000000E+00  0.00000000000E+00  0.20825609250E+03  0.23225151265E+04  0.23131592926E+04 0.  0.
        2    1    3    3  502    0  0.69459732962E+03  0.81664167936E+03  0.53982718211E+03  0.12003259846E+04  0.25500000920E-02 0. -1.
       -2    1    3    3    0  502 -0.69459732962E+03 -0.81664167936E+03 -0.33157108960E+03  0.11221891419E+04  0.25500000920E-02 0.  1.
</event>
<event>
 5   0  0.1566576E-06  0.3598340E+04  0.7818609E-02  0.8090872E-01
       -2   -1    0    0    0  501  0.00000000000E+00  0.00000000000E+00  0.13400565182E+04  0.13400565182E+04  0.25500000920E-02 0. -1.
        2   -1    0    0  501    0  0.00000000000E+00  0.00000000000E+00 -0.24155790457E+04  0.24155790457E+04  0.25500000920E-02 0.  1.
    10030    2    1    2    0    0  0.00000000000E+00  0.00000000000E+00 -0.10755225275E+04  0.37556355640E+04  0.35983398647E+04 0.  0.
        4    1    3    3  502    0  0.25777014384E+03  0.61302424236E+03 -0.22825949605E+04  0.23774956436E+04  0.12699999809E+01 0.  1.
       -4    1    3    3    0  502 -0.25777014384E+03 -0.61302424236E+03  0.12070724330E+04  0.13781399204E+04  0.12699999809E+01 0. -1.
</event>
<event>
 5   0  0.2422436E-06  0.3633767E+04  0.7818609E-02  0.8082800E-01
        2   -1    0    0  501    0  0.00000000000E+00  0.00000000000E+00  0.12780106586E+04  0.12780106586E+04  0.25500000920E-02 0.  1.
       -2   -1    0    0    0  501  0.00000000000E+00  0.00000000000E+00 -0.25829726172E+04  0.25829726172E+04  0.25500000920E-02 0. -1.
    10030    2    1    2    0    0  0.00000000000E+00  0.00000000000E+00 -0.13049619586E+04  0.38609832758E+04  0.36337674860E+04 0.  0.
        2    1    3    3  502    0  0.77754044514E+03 -0.10501270998E+04 -0.19938498493E+04  0.23838568101E+04  0.25500000920E-02 0. -1.
       -2    1    3    3    0  502 -0.77754044514E+03  0.10501270998E+04  0.68888789072E+03  0.14771264656E+04  0.25500000920E-02 0.  1.
</event>
<event>
 5   0  0.7754556E-07  0.3606681E+04  0.7818609E-02  0.8088963E-01
       -1   -1    0    0    0  501  0.00000000000E+00  0.00000000000E+00  0.21114613312E+04  0.21114613312E+04  0.50400001928E-02 0.  1.
        1   -1    0    0  501    0  0.00000000000E+00  0.00000000000E+00 -0.15401834440E+04  0.15401834440E+04  0.50400001928E-02 0. -1.
    10030    2    1    2    0    0  0.00000000000E+00  0.00000000000E+00  0.57127788718E+03  0.36516447752E+04  0.36066814580E+04 0.  0.
        4    1    3    3  502    0  0.16136186848E+04 -0.46671677680E+02 -0.52818065111E+03  0.16985052012E+04  0.12699999809E+01 0. -1.
       -4    1    3    3    0  502 -0.16136186848E+04  0.46671677680E+02  0.10994585383E+04  0.19531395740E+04  0.12699999809E+01 0.  1.
</event>
<event>
 5   0  0.2422436E-06  0.3384523E+04  0.7818609E-02  0.8141715E-01
        2   -1    0    0  501    0  0.00000000000E+00  0.00000000000E+00  0.16271406083E+04  0.16271406083E+04  0.25500000920E-02 0. -1.
       -2   -1    0    0    0  501  0.00000000000E+00  0.00000000000E+00 -0.17599889367E+04  0.17599889367E+04  0.25500000920E-02 0.  1.
    10030    2    1    2    0    0  0.00000000000E+00  0.00000000000E+00 -0.13284832840E+03  0.33871295450E+04  0.33845232864E+04 0.  0.
        2    1    3    3  502    0 -0.12585587072E+03 -0.16705118839E+04  0.17313396312E+03  0.16841689415E+04  0.25500000920E-02 0.  1.
       -2    1    3    3    0  502  0.12585587072E+03  0.16705118839E+04 -0.30598229152E+03  0.17029606035E+04  0.25500000920E-02 0. -1.
</event>
<event>
 5   0  0.7707500E-07  0.1956453E+04  0.7818609E-02  0.8627255E-01
        4   -1    0    0  501    0  0.00000000000E+00  0.00000000000E+00  0.62008368230E+03  0.62008498285E+03  0.12699999809E+01 0. -1.
       -4   -1    0    0    0  501  0.00000000000E+00  0.00000000000E+00 -0.15432194836E+04  0.15432200061E+04  0.12699999809E+01 0.  1.
    10030    2    1    2    0    0  0.00000000000E+00  0.00000000000E+00 -0.92313580127E+03  0.21633049890E+04  0.19564531090E+04 0.  0.
        1    1    3    3  502    0 -0.98128975494E+02 -0.42354390178E+03  0.50738581913E+03  0.66817595141E+03  0.50400001928E-02 0. -1.
       -1    1    3    3    0  502  0.98128975494E+02  0.42354390178E+03 -0.14305216204E+04  0.14951290376E+04  0.50400001928E-02 0.  1.
</event>
<event>
 5   0  0.7754556E-07  0.3401163E+04  0.7818609E-02  0.8137621E-01
        1   -1    0    0  501    0  0.00000000000E+00  0.00000000000E+00  0.25287178184E+04  0.25287178184E+04  0.50400001928E-02 0.  1.
       -1   -1    0    0    0  501  0.00000000000E+00  0.00000000000E+00 -0.11436535767E+04  0.11436535767E+04  0.50400001928E-02 0. -1.
    10030    2    1    2    0    0  0.00000000000E+00  0.00000000000E+00  0.13850642418E+04  0.36723713951E+04  0.34011628467E+04 0.  0.
        4    1    3    3  502    0 -0.44776208873E+03  0.14571342309E+04 -0.12139738733E+03  0.15292056741E+04  0.12699999809E+01 0. -1.
       -4    1    3    3    0  502  0.44776208873E+03 -0.14571342309E+04  0.15064616291E+04  0.21431657211E+04  0.12699999809E+01 0.  1.
</event>
<event>
 5   0  0.1566576E-06  0.3588774E+04  0.7818609E-02  0.8093068E-01
        2   -1    0    0  501    0  0.00000000000E+00  0.00000000000E+00  0.24096890991E+04  0.24096890991E+04  0.25500000920E-02 0. -1.
       -2   -1    0    0    0  501  0.00000000000E+00  0.00000000000E+00 -0.13361993949E+04  0.13361993949E+04  0.25500000920E-02 0.  1.
    10030    2    1    2    0    0  0.00000000000E+00  0.00000000000E+00  0.10734897042E+04  0.37458884940E+04  0.35887742287E+04 0.  0.
        4    1    3    3  502    0  0.17910591652E+04  0.93552225699E+02  0.59559171208E+03  0.18898084699E+04  0.12699999809E+01 0.  1.
       -4    1    3    3    0  502 -0.17910591652E+04 -0.93552225699E+02  0.47789799212E+03  0.18560800242E+04  0.12699999809E+01 0. -1.
</event>
<event>
 5   0  0.2422436E-06  0.2831852E+04  0.7818609E-02  0.8293447E-01
       -2   -1    0    0    0  501  0.00000000000E+00  0.00000000000E+00  0.86263957265E+03  0.86263957266E+03  0.25500000920E-02 0.  1.
        2   -1    0    0  501    0  0.00000000000E+00  0.00000000000E+00 -0.23240842114E+04  0.23240842115E+04  0.25500000920E-02 0. -1.
    10030    2    1    2    0    0  0.00000000000E+00  0.00000000000E+00 -0.14614446388E+04  0.31867237841E+04  0.28318524050E+04 0.  0.
        2    1    3    3  502    0  0.93499212452E+02 -0.47557746794E+03 -0.22278263269E+04  0.22799399496E+04  0.25500000920E-02 0. -1.
       -2    1    3    3    0  502 -0.93499212452E+02  0.47557746794E+03  0.76638168810E+03  0.90678383455E+03  0.25500000920E-02 0.  1.
</event>
<event>
 5   0  0.7754556E-07  0.1919618E+04  0.7818609E-02  0.8645152E-01
        1   -1    0    0  501    0  0.00000000000E+00  0.00000000000E+00  0.15635181009E+04  0.15635181009E+04  0.50400001928E-02 0.  1.
       -1   -1    0    0    0  501  0.00000000000E+00  0.00000000000E+00 -0.58920533076E+03  0.58920533078E+03  0.50400001928E-02 0. -1.
    10030    2    1    2    0    0  0.00000000000E+00  0.00000000000E+00  0.97431277015E+03  0.21527234317E+04  0.19196178785E+04 0.  0.
        4    1    3    3  502    0 -0.81953598943E+03  0.43292477674E+03  0.76677018376E+03  0.12029136411E+04  0.12699999809E+01 0. -1.
       -4    1    3    3    0  502  0.81953598943E+03 -0.43292477674E+03  0.20754258639E+03  0.94980979062E+03  0.12699999809E+01 0.  1.
</event>
<event>
 5   0  0.2382711E-06  0.3617518E+04  0.7818609E-02  0.8086491E-01
       -2   -1    0    0    0  501  0.00000000000E+00  0.00000000000E+00  0.15758095384E+04  0.15758095384E+04  0.25500000920E-02 0.  1.
        2   -1    0    0  501    0  0.00000000000E+00  0.00000000000E+00 -0.20761452643E+04  0.20761452643E+04  0.25500000920E-02 0. -1.
    10030    2    1    2    0    0  0.00000000000E+00  0.00000000000E+00 -0.50033572590E+03  0.36519548027E+04  0.36175182159E+04 0.  0.
        5    1    3    3  502    0  0.11067663653E+04  0.51393542257E+03  0.10976543381E+04  0.16413191469E+04  0.46999998093E+01 0.  1.
       -5    1    3    3    0  502 -0.11067663653E+04 -0.51393542257E+03 -0.15979900640E+04  0.20106356559E+04  0.46999998093E+01 0. -1.
</event>
<event>
 5   0  0.2536619E-06  0.3586774E+04  0.7818609E-02  0.8093528E-01
       -2   -1    0    0    0  501  0.00000000000E+00  0.00000000000E+00  0.19736466993E+04  0.19736466993E+04  0.25500000920E-02 0.  1.
        2   -1    0    0  501    0  0.00000000000E+00  0.00000000000E+00 -0.16295908788E+04  0.16295908788E+04  0.25500000920E-02 0. -1.
    10030    2    1    2    0    0  0.00000000000E+00  0.00000000000E+00  0.34405582051E+03  0.36032375782E+04  0.35867738480E+04 0.  0.
        1    1    3    3  502    0  0.17115510679E+04 -0.30306573049E+03  0.61562101569E+03  0.18439753605E+04  0.50400001928E-02 0. -1.
       -1    1    3    3    0  502 -0.17115510679E+04  0.30306573049E+03 -0.27156519518E+03  0.17592622176E+04  0.50400001928E-02 0.  1.
</event>
<event>
 5   0  0.2382711E-06  0.3642433E+04  0.7818609E-02  0.8080840E-01
       -2   -1    0    0    0  501  0.00000000000E+00  0.00000000000E+00  0.10096059292E+04  0.10096059292E+04  0.25500000920E-02 0. -1.
        2   -1    0    0  501    0  0.00000000000E+00  0.00000000000E+00 -0.32852718688E+04  0.32852718688E+04  0.25500000920E-02 0.  1.
    10030    2    1    2    0    0  0.00000000000E+00  0.00000000000E+00 -0.22756659397E+04  0.42948777980E+04  0.36424332294E+04 0.  0.
        5    1    3    3  502    0 -0.14806783008E+04 -0.32177902550E+03 -0.23291897977E+04  0.27786862319E+04  0.46999998093E+01 0.  1.
       -5    1    3    3    0  502  0.14806783008E+04  0.32177902550E+03  0.53523858023E+02  0.15161915661E+04  0.46999998093E+01 0. -1.
</event>
<event>
 5   0  0.8452742E-07  0.3633539E+04  0.7818609E-02  0.8082852E-01
        1   -1    0    0  501    0  0.00000000000E+00  0.00000000000E+00  0.13148085752E+04  0.13148085752E+04  0.50400001928E-02 0. -1.
       -1   -1    0    0    0  501  0.00000000000E+00  0.00000000000E+00 -0.25103661534E+04  0.25103661534E+04  0.50400001928E-02 0.  1.
    10030    2    1    2    0    0  0.00000000000E+00  0.00000000000E+00 -0.11955575781E+04  0.38251747286E+04  0.36335387409E+04 0.  0.
        1    1    3    3  502    0 -0.63592649011E+03  0.43298580217E+03 -0.23304162016E+04  0.24541228328E+04  0.50400001928E-02 0.  1.
       -1    1    3    3    0  502  0.63592649011E+03 -0.43298580217E+03  0.11348586235E+04  0.13710518958E+04  0.50400001928E-02 0. -1.
</event>
<event>
 5   0  0.1566576E-06  0.3556777E+04  0.7818609E-02  0.8100465E-01
       -2   -1    0    0    0  501  0.00000000000E+00  0.00000000000E+00  0.13341711504E+04  0.13341711504E+04  0.25500000920E-02 0. -1.
        2   -1    0    0  501    0  0.00000000000E+00  0.00000000000E+00 -0.23705102129E+04  0.23705102129E+04  0.25500000920E-02 0.  1.
    10030    2    1    2    0    0  0.00000000000E+00  0.00000000000E+00 -0.10363390625E+04  0.37046813633E+04  0.35567773829E+04 0.  0.
        4    1    3    3  502    0 -0.91016773335E+03  0.14647472821E+04 -0.65619904267E+02  0.17257454876E+04  0.12699999809E+01 0.  1.
       -4    1    3    3    0  502  0.91016773335E+03 -0.14647472821E+04 -0.97071915826E+03  0.19789358757E+04  0.12699999809E+01 0. -1.
</event>
<event>
 5   0  0.1566576E-06  0.3006734E+04  0.7818609E-02  0.8241811E-01
        2   -1    0    0  501    0  0.00000000000E+00  0.00000000000E+00  0.94600836393E+03  0.94600836394E+03  0.25500000920E-02 0.  1.
       -2   -1    0    0    0  501  0.00000000000E+00  0.00000000000E+00 -0.23891038273E+04  0.23891038273E+04  0.25500000920E-02 0. -1.
    10030    2    1    2    0    0  0.00000000000E+00  0.00000000000E+00 -0.14430954634E+04  0.33351121913E+04  0.30067339110E+04 0.  0.
        4    1    3    3  502    0 -0.87893527824E+03  0.10970165004E+04 -0.13128100986E+04  0.19233939777E+04  0.12699999809E+01 0.  1.
       -4    1    3    3    0  502  0.87893527824E+03 -0.10970165004E+04 -0.13028536477E+03  0.14117182136E+04  0.12699999809E+01 0. -1.
</event>
<event>
 5   0  0.1566576E-06  0.2056051E+04  0.7818609E-02  0.8580854E-01
       -2   -1    0    0    0  501  0.00000000000E+00  0.00000000000E+00  0.89060648382E+03  0.89060648382E+03  0.25500000920E-02 0.  1.
        2   -1    0    0  501    0  0.00000000000E+00  0.00000000000E+00 -0.11866475823E+04  0.11866475823E+04  0.25500000920E-02 0. -1.
    10030    2    1    2    0    0  0.00000000000E+00  0.00000000000E+00 -0.29604109850E+03  0.20772540661E+04  0.20560506130E+04 0.  0.
        4    1    3    3  502    0  0.62320839089E+03 -0.74140234510E+03 -0.49620233941E+03  0.10882483679E+04  0.12699999809E+01 0. -1.
       -4    1    3    3    0  502 -0.62320839089E+03  0.74140234510E+03  0.20016124091E+03  0.98900569819E+03  0.12699999809E+01 0.  1.
</event>
<event>
 5   0  0.1513502E-06  0.2917099E+04  0.7818609E-02  0.8267808E-01
        2   -1    0    0  501    0  0.00000000000E+00  0.00000000000E+00  0.24926693664E+04  0.24926693664E+04  0.25500000920E-02 0.  1.
       -2   -1    0    0    0  501  0.00000000000E+00  0.00000000000E+00 -0.85344933983E+03  0.85344933984E+03  0.25500000920E-02 0. -1.
    10030    2    1    2    0    0  0.00000000000E+00  0.00000000000E+00  0.16392200266E+04  0.33461187062E+04  0.29170992614E+04 0.  0.
        3    1    3    3  502    0 -0.43098444738E+03 -0.12797480173E+04  0.18729998235E+03  0.13632988943E+04  0.10100000352E+00 0. -1.
       -3    1    3    3    0  502  0.43098444738E+03  0.12797480173E+04  0.14519200442E+04  0.19828198119E+04  0.10100000352E+00 0.  1.
</event>
<event>
 5   0  0.7754556E-07  0.3646296E+04  0.7818609E-02  0.8079969E-01
       -1   -1    0    0    0  501  0.00000000000E+00  0.00000000000E+00  0.16024184114E+04  0.16024184114E+04  0.50400001928E-02 0. -1.
        1   -1    0    0  501    0  0.00000000000E+00  0.00000000000E+00 -0.20742828613E+04  0.20742828613E+04  0.50400001928E-02 0.  1.
    10030    2    1    2    0    0  0.00000000000E+00  0.00000000000E+00 -0.47186444987E+03  0.36767012727E+04  0.36462962290E+04 0.  0.
        4    1    3    3  502    0  0.72381046335E+03  0.40567987151E+03  0.14009929139E+04  0.16282691739E+04  0.12699999809E+01 0. -1.
       -4    1    3    3    0  502 -0.72381046335E+03 -0.40567987151E+03 -0.18728573638E+04  0.20484320987E+04  0.12699999809E+01 0.  1.
</event>
<event>
 5   0  0.2422436E-06  0.1816065E+04  0.7818609E-02  0.8697803E-01
       -2   -1    0    0    0  501  0.00000000000E+00  0.00000000000E+00  0.10486771762E+04  0.10486771762E+04  0.25500000920E-02 0. -1.
        2   -1    0    0  501    0  0.00000000000E+00  0.00000000000E+00 -0.78625013870E+03  0.78625013870E+03  0.25500000920E-02 0.  1.
    10030    2    1    2    0    0  0.00000000000E+00  0.00000000000E+00  0.26242703750E+03  0.18349273149E+04  0.18160645090E+04 0.  0.
        2    1    3    3  502    0  0.71168285094E+03 -0.50233772501E+03 -0.12774308706E+03  0.88042828589E+03  0.25500000920E-02 0. -1.
       -2    1    3    3    0  502 -0.71168285094E+03  0.50233772501E+03  0.39017012456E+03  0.95449902902E+03  0.25500000920E-02 0.  1.
</event>
<event>
 5   0  0.2536619E-06  0.3597099E+04  0.7818609E-02  0.8091157E-01
        2   -1    0    0  501    0  0.00000000000E+00  0.00000000000E+00  0.26689799994E+04  0.26689799994E+04  0.25500000920E-02 0.  1.
       -2   -1    0    0    0  501  0.00000000000E+00  0.00000000000E+00 -0.12119909509E+04  0.12119909509E+04  0.25500000920E-02 0. -1.
    10030    2    1    2    0    0  0.00000000000E+00  0.00000000000E+00  0.14569890485E+04  0.38809709504E+04  0.35970986128E+04 0.  0.
        1    1    3    3  502    0 -0.15671953459E+04 -0.44669650720E+03  0.15495642676E+04  0.22487304065E+04  0.50400001928E-02 0.  1.
       -1    1    3    3    0  502  0.15671953459E+04  0.44669650720E+03 -0.92575219141E+02  0.16322405438E+04  0.50400001928E-02 0. -1.
</event>
<event>
 5   0  0.2382711E-06  0.2772157E+04  0.7818609E-02  0.8311965E-01
       -2   -1    0    0    0  501  0.00000000000E+00  0.00000000000E+00  0.82182513260E+03  0.82182513260E+03  0.25500000920E-02 0.  1.
        2   -1    0    0  501    0  0.00000000000E+00  0.00000000000E+00 -0.23377398552E+04  0.23377398552E+04  0.25500000920E-02 0. -1.
    10030    2    1    2    0    0  0.00000000000E+00  0.00000000000E+00 -0.15159147226E+04  0.31595649878E+04  0.27721568256E+04 0.  0.
        5    1    3    3  502    0  0.62828927106E+03  0.10592126353E+04 -0.14828529382E+04  0.19275771686E+04  0.46999998093E+01 0. -1.
       -5    1    3    3    0  502 -0.62828927106E+03 -0.10592126353E+04 -0.33061784409E+02  0.12319878191E+04  0.46999998093E+01 0.  1.
</event>
<event>
 5   0  0.2382711E-06  0.3392159E+04  0.7818609E-02  0.8139834E-01
        2   -1    0    0  501    0  0.00000000000E+00  0.00000000000E+00  0.18294658301E+04  0.18294658301E+04  0.25500000920E-02 0. -1.
       -2   -1    0    0    0  501  0.00000000000E+00  0.00000000000E+00 -0.15724180321E+04  0.15724180321E+04  0.25500000920E-02 0.  1.
    10030    2    1    2    0    0  0.00000000000E+00  0.00000000000E+00  0.25704779807E+03  0.34018838622E+04  0.33921586404E+04 0.  0.
        5    1    3    3  502    0  0.47696919040E+03  0.49503893710E+03 -0.14264373686E+04  0.15834483934E+04  0.46999998093E+01 0.  1.
       -5    1    3    3    0  502 -0.47696919040E+03 -0.49503893710E+03  0.16834851667E+04  0.18184354688E+04  0.46999998093E+01 0. -1.
</event>
<event>
 5   0  0.1566576E-06  0.3656303E+04  0.7818609E-02  0.8077715E-01
        2   -1    0    0  501    0  0.00000000000E+00  0.00000000000E+00  0.25134394472E+04  0.25134394472E+04  0.25500000920E-02 0. -1.
       -2   -1    0    0    0  501  0.00000000000E+00  0.00000000000E+00 -0.13297066679E+04  0.13297066679E+04  0.25500000920E-02 0.  1.
    10030    2    1    2    0    0  0.00000000000E+00  0.00000000000E+00  0.11837327792E+04  0.38431461151E+04  0.36563026091E+04 0.  0.
        4    1    3    3  502    0 -0.17138783980E+04 -0.41639708212E+03  0.10974560464E+04  0.20773004308E+04  0.12699999809E+01 0. -1.
       -4    1    3    3    0  502  0.17138783980E+04  0.41639708212E+03  0.86276732849E+02  0.17658456843E+04  0.12699999809E+01 0.  1.
</event>
<event>
 5   0  0.1566576E-06  0.2386983E+04  0.7818609E-02  0.8444393E-01
       -2   -1    0    0    0  501  0.00000000000E+00  0.00000000000E+00  0.71980390839E+03  0.71980390840E+03  0.25500000920E-02 0.  1.
        2   -1    0    0  501    0  0.00000000000E+00  0.00000000000E+00 -0.19789030820E+04  0.19789030820E+04  0.25500000920E-02 0. -1.
    10030    2    1    2    0    0  0.00000000000E+00  0.00000000000E+00 -0.12590991737E+04  0.26987069904E+04  0.23869831778E+04 0.  0.
        4    1    3    3  502    0 -0.91958206099E+02 -0.35792701858E+03 -0.19125873469E+04  0.19479630476E+04  0.12699999809E+01 0. -1.
       -4    1    3    3    0  502  0.91958206099E+02  0.35792701858E+03  0.65348817324E+03  0.75074394288E+03  0.12699999809E+01 0.  1.
</event>
<event>
 5   0  0.1566576E-06  0.3615900E+04  0.7818609E-02  0.8086859E-01
       -2   -1    0    0    0  501  0.00000000000E+00  0.00000000000E+00  0.18457899709E+04  0.18457899709E+04  0.25500000920E-02 0.  1.
        2   -1    0    0  501    0  0.00000000000E+00  0.00000000000E+00 -0.17708859252E+04  0.17708859252E+04  0.25500000920E-02 0. -1.
    10030    2    1    2    0    0  0.00000000000E+00  0.00000000000E+00  0.74904045747E+02  0.36166758961E+04  0.36159001537E+04 0.  0.
        4    1    3    3  502    0 -0.79323516881E+03  0.46178203698E+03  0.15954181074E+04  0.18406045836E+04  0.12699999809E+01 0.  1.
       -4    1    3    3    0  502  0.79323516881E+03 -0.46178203698E+03 -0.15205140616E+04  0.17760713126E+04  0.12699999809E+01 0. -1.
</event>
<event>
 5   0  0.8452742E-07  0.2176648E+04  0.7818609E-02  0.8528211E-01
       -1   -1    0    0    0  501  0.00000000000E+00  0.00000000000E+00  0.10889897508E+04  0.10889897508E+04  0.50400001928E-02 0. -1.
        1   -1    0    0  501    0  0.00000000000E+00  0.00000000000E+00 -0.10876588209E+04  0.10876588209E+04  0.50400001928E-02 0.  1.
    10030    2    1    2    0    0  0.00000000000E+00  0.00000000000E+00  0.13309299105E+01  0.21766485717E+04  0.21766481648E+04 0.  0.
        1    1    3    3  502    0 -0.16620335678E+03 -0.83248069531E+03 -0.68036450345E+03  0.10879078644E+04  0.50400001928E-02 0.  1.
       -1    1    3    3    0  502  0.16620335678E+03  0.83248069531E+03  0.68169543336E+03  0.10887407073E+04  0.50400001928E-02 0. -1.
</event>
<event>
 5   0  0.1908273E-06  0.3496771E+04  0.7818609E-02  0.8114556E-01
        1   -1    0    0  501    0  0.00000000000E+00  0.00000000000E+00  0.17677573508E+04  0.17677573508E+04  0.50400001928E-02 0.  1.
       -1   -1    0    0    0  501  0.00000000000E+00  0.00000000000E+00 -0.17292261936E+04  0.17292261936E+04  0.50400001928E-02 0. -1.
    10030    2    1    2    0    0  0.00000000000E+00  0.00000000000E+00  0.38531157245E+02  0.34969835444E+04  0.34967712622E+04 0.  0.
        3    1    3    3  502    0  0.16820167340E+04  0.44948515981E+03 -0.14085379863E+03  0.17467275131E+04  0.10100000352E+00 0.  1.
       -3    1    3    3    0  502 -0.16820167340E+04 -0.44948515981E+03  0.17938495588E+03  0.17502560313E+04  0.10100000352E+00 0. -1.
</event>
<event>
 5   0  0.2422436E-06  0.3659651E+04  0.7818609E-02  0.8076963E-01
       -2   -1    0    0    0  501  0.00000000000E+00  0.00000000000E+00  0.23264907316E+04  0.23264907316E+04  0.25500000920E-02 0.  1.
        2   -1    0    0  501    0  0.00000000000E+00  0.00000000000E+00 -0.14391898654E+04  0.14391898654E+04  0.25500000920E-02 0. -1.
    10030    2    1    2    0    0  0.00000000000E+00  0.00000000000E+00  0.88730086621E+03  0.37656805970E+04  0.36596512855E+04 0.  0.
        2    1    3    3  502    0 -0.22544547266E+03  0.51096366628E+01 -0.14248373317E+04  0.14425717283E+04  0.25500000920E-02 0. -1.
       -2    1    3    3    0  502  0.22544547266E+03 -0.51096366628E+01  0.23121381979E+04  0.23231088687E+04  0.25500000920E-02 0.  1.
</event>
<event>
 5   0  0.2382711E-06  0.3739771E+04  0.7818609E-02  0.8059205E-01
        2   -1    0    0  501    0  0.00000000000E+00  0.00000000000E+00  0.33148203401E+04  0.33148203401E+04  0.25500000920E-02 0. -1.
       -2   -1    0    0    0  501  0.00000000000E+00  0.00000000000E+00 -0.10547999211E+04  0.10547999211E+04  0.25500000920E-02 0.  1.
    10030    2    1    2    0    0  0.00000000000E+00  0.00000000000E+00  0.22600204190E+04  0.43696202612E+04  0.37397712407E+04 0.  0.
        5    1    3    3  502    0 -0.73047530275E+03  0.69524869148E+03 -0.70982710209E+03  0.12332240331E+04  0.46999998093E+01 0.  1.
       -5    1    3    3    0  502  0.73047530275E+03 -0.69524869148E+03  0.29698475211E+04  0.31363962281E+04  0.46999998093E+01 0. -1.
</event>
<event>
 5   0  0.2382711E-06  0.3038747E+04  0.7818609E-02  0.8232752E-01
        2   -1    0    0  501    0  0.00000000000E+00  0.00000000000E+00  0.12732692725E+04  0.12732692725E+04  0.25500000920E-02 0.  1.
       -2   -1    0    0    0  501  0.00000000000E+00  0.00000000000E+00 -0.18130462566E+04  0.18130462566E+04  0.25500000920E-02 0. -1.
    10030    2    1    2    0    0  0.00000000000E+00  0.00000000000E+00 -0.53977698409E+03  0.30863155292E+04  0.30387471683E+04 0.  0.
        5    1    3    3  502    0 -0.23496860504E+03  0.49746939124E+03  0.11685399662E+04  0.12915857630E+04  0.46999998093E+01 0.  1.
       -5    1    3    3    0  502  0.23496860504E+03 -0.49746939124E+03 -0.17083169503E+04  0.17947297661E+04  0.46999998093E+01 0. -1.
</event>
<event>
 5   0  0.7754556E-07  0.3516706E+04  0.7818609E-02  0.8109842E-01
       -1   -1    0    0    0  501  0.00000000000E+00  0.00000000000E+00  0.12987425947E+04  0.12987425947E+04  0.50400001928E-02 0.  1.
        1   -1    0    0  501    0  0.00000000000E+00  0.00000000000E+00 -0.23806143684E+04  0.23806143684E+04  0.50400001928E-02 0. -1.
    10030    2    1    2    0    0  0.00000000000E+00  0.00000000000E+00 -0.10818717737E+04  0.36793569631E+04  0.35167060052E+04 0.  0.
        4    1    3    3  502    0  0.99395163968E+03  0.84626218517E+03  0.69155665548E+03  0.14772785007E+04  0.12699999809E+01 0.  1.
       -4    1    3    3    0  502 -0.99395163968E+03 -0.84626218517E+03 -0.17734284292E+04  0.22020784624E+04  0.12699999809E+01 0. -1.
</event>
<event>
 5   0  0.2422436E-06  0.2399368E+04  0.7818609E-02  0.8439740E-01
        2   -1    0    0  501    0  0.00000000000E+00  0.00000000000E+00  0.19440520308E+04  0.19440520308E+04  0.25500000920E-02 0.  1.
       -2   -1    0    0    0  501  0.00000000000E+00  0.00000000000E+00 -0.74033097543E+03  0.74033097544E+03  0.25500000920E-02 0. -1.
    10030    2    1    2    0    0  0.00000000000E+00  0.00000000000E+00  0.12037210553E+04  0.26843830062E+04  0.23993681970E+04 0.  0.
        2    1    3    3  502    0 -0.29401475572E+03 -0.41621175662E+03 -0.61322969890E+03  0.79732525769E+03  0.25500000920E-02 0. -1.
       -2    1    3    3    0  502  0.29401475572E+03  0.41621175662E+03  0.18169507542E+04  0.18870577485E+04  0.25500000920E-02 0.  1.
</event>
<event>
 5   0  0.1566576E-06  0.2710898E+04  0.7818609E-02  0.8331478E-01
       -2   -1    0    0    0  501  0.00000000000E+00  0.00000000000E+00  0.11024045320E+04  0.11024045320E+04  0.25500000920E-02 0. -1.
        2   -1    0    0  501    0  0.00000000000E+00  0.00000000000E+00 -0.16665773496E+04  0.16665773496E+04  0.25500000920E-02 0.  1.
    10030    2    1    2    0    0  0.00000000000E+00  0.00000000000E+00 -0.56417281756E+03  0.27689818816E+04  0.27108983183E+04 0.  0.
        4    1    3    3  502    0  0.86060722999E+03 -0.58170752125E+03  0.60732422456E+03  0.12032758500E+04  0.12699999809E+01 0. -1.
       -4    1    3    3    0  502 -0.86060722999E+03  0.58170752125E+03 -0.11714970421E+04  0.15657060315E+04  0.12699999809E+01 0.  1.
</event>
<event>
 5   0  0.7754556E-07  0.3620896E+04  0.7818609E-02  0.8085722E-01
        1   -1    0    0  501    0  0.00000000000E+00  0.00000000000E+00  0.28705458367E+04  0.28705458367E+04  0.50400001928E-02 0. -1.
       -1   -1    0    0    0  501  0.00000000000E+00  0.00000000000E+00 -0.11418460846E+04  0.11418460846E+04  0.50400001928E-02 0.  1.
    10030    2    1    2    0    0  0.00000000000E+00  0.00000000000E+00  0.17286997521E+04  0.40123919213E+04  0.36208957589E+04 0.  0.
        4    1    3    3  502    0 -0.16880500528E+04 -0.18072167229E+03  0.16742469376E+03  0.17059325732E+04  0.12699999809E+01 0.  1.
       -4    1    3    3    0  502  0.16880500528E+04  0.18072167229E+03  0.15612750583E+04  0.23064593480E+04  0.12699999809E+01 0. -1.
</event>
<event>
 5   0  0.1566576E-06  0.3509331E+04  0.7818609E-02  0.8111582E-01
       -2   -1    0    0    0  501  0.00000000000E+00  0.00000000000E+00  0.14796412636E+04  0.14796412636E+04  0.25500000920E-02 0. -1.
        2   -1    0    0  501    0  0.00000000000E+00  0.00000000000E+00 -0.20808096457E+04  0.20808096457E+04  0.25500000920E-02 0.  1.
    10030    2    1    2    0    0  0.00000000000E+00  0.00000000000E+00 -0.60116838209E+03  0.35604509094E+04  0.35093314541E+04 0.  0.
        4    1    3    3  502    0  0.94712740396E+03 -0.99005263181E+03 -0.14127250334E+04  0.19680061398E+04  0.12699999809E+01 0.  1.
       -4    1    3    3    0  502 -0.94712740396E+03  0.99005263181E+03  0.81155665135E+03  0.15924447696E+04  0.12699999809E+01 0. -1.
</event>
<event>
 5   0  0.2382711E-06  0.3357661E+04  0.7818609E-02  0.8148377E-01
        2   -1    0    0  501    0  0.00000000000E+00  0.00000000000E+00  0.26331655302E+04  0.26331655302E+04  0.25500000920E-02 0.  1.
       -2   -1    0    0    0  501  0.00000000000E+00  0.00000000000E+00 -0.10703741037E+04  0.10703741037E+04  0.25500000920E-02 0. -1.
    10030    2    1    2    0    0  0.00000000000E+00  0.00000000000E+00  0.15627914265E+04  0.37035396339E+04  0.33576612065E+04 0.  0.
        5    1    3    3  502    0  0.94055125007E+03  0.13323758448E+04  0.12206493491E+04  0.20371227183E+04  0.46999998093E+01 0.  1.
       -5    1    3    3    0  502 -0.94055125007E+03 -0.13323758448E+04  0.34214207737E+03  0.16664169157E+04  0.46999998093E+01 0. -1.
</event>
<event>
 5   0  0.7754556E-07  0.3623511E+04  0.7818609E-02  0.8085127E-01
        1   -1    0    0  501    0  0.00000000000E+00  0.00000000000E+00  0.19007919297E+04  0.19007919297E+04  0.50400001928E-02 0.  1.
       -1   -1    0    0    0  501  0.00000000000E+00  0.00000000000E+00 -0.17268893024E+04  0.17268893024E+04  0.50400001928E-02 0. -1.
    10030    2    1    2    0    0  0.00000000000E+00  0.00000000000E+00  0.17390262731E+03  0.36276812321E+04  0.36235105903E+04 0.  0.
        4    1    3    3  502    0 -0.11278135774E+03 -0.24667928175E+03  0.18803493190E+04  0.18998119583E+04  0.12699999809E+01 0.  1.
       -4    1    3    3    0  502  0.11278135774E+03  0.24667928175E+03 -0.17064466917E+04  0.17278692738E+04  0.12699999809E+01 0. -1.
</event>
<event>
 5   0  0.8452742E-07  0.2783732E+04  0.7818609E-02  0.8308337E-01
        1   -1    0    0  501    0  0.00000000000E+00  0.00000000000E+00  0.15381728610E+04  0.15381728610E+04  0.50400001928E-02 0.  1.
       -1   -1    0    0    0  501  0.00000000000E+00  0.00000000000E+00 -0.12594753261E+04  0.12594753262E+04  0.50400001928E-02 0. -1.
    10030    2    1    2    0    0  0.00000000000E+00  0.00000000000E+00  0.27869753488E+03  0.27976481872E+04  0.27837318591E+04 0.  0.
        1    1    3    3  502    0 -0.68014335365E+03 -0.88733169968E+03 -0.69385447783E+03  0.13158216305E+04  0.50400001928E-02 0. -1.
       -1    1    3    3    0  502  0.68014335365E+03  0.88733169968E+03  0.97255201271E+03  0.14818265567E+04  0.50400001928E-02 0.  1.
</event>
<event>
 5   0  0.7754556E-07  0.3020263E+04  0.7818609E-02  0.8237968E-01
       -1   -1    0    0    0  501  0.00000000000E+00  0.00000000000E+00  0.81829917749E+03  0.81829917751E+03  0.50400001928E-02 0. -1.
        1   -1    0    0  501    0  0.00000000000E+00  0.00000000000E+00 -0.27868736242E+04  0.27868736242E+04  0.50400001928E-02 0.  1.
    10030    2    1    2    0    0  0.00000000000E+00  0.00000000000E+00 -0.19685744467E+04  0.36051728017E+04  0.30202625015E+04 0.  0.
        4    1    3    3  502    0  0.13229152691E+04  0.36614501600E+03 -0.23282238677E+03  0.13922553138E+04  0.12699999809E+01 0.  1.
       -4    1    3    3    0  502 -0.13229152691E+04 -0.36614501600E+03 -0.17357520599E+04  0.22129174880E+04  0.12699999809E+01 0. -1.
</event>
<event>
 5   0  0.7754556E-07  0.2169983E+04  0.7818609E-02  0.8531027E-01
       -1   -1    0    0    0  501  0.00000000000E+00  0.00000000000E+00  0.67528672466E+03  0.67528672468E+03  0.50400001928E-02 0.  1.
        1   -1    0    0  501    0  0.00000000000E+00  0.00000000000E+00 -0.17432696916E+04  0.17432696916E+04  0.50400001928E-02 0. -1.
    10030    2    1    2    0    0  0.00000000000E+00  0.00000000000E+00 -0.10679829670E+04  0.24185564163E+04  0.21699832997E+04 0.  0.
        4    1    3    3  502    0  0.10635199721E+04 -0.85073870289E+02 -0.31418757959E+03  0.11122174889E+04  0.12699999809E+01 0.  1.
       -4    1    3    3    0  502 -0.10635199721E+04  0.85073870289E+02 -0.75379538737E+03  0.13063389274E+04  0.12699999809E+01 0. -1.
</event>
<event>
 5   0  0.2382711E-06  0.3505796E+04  0.7818609E-02  0.8112418E-01
       -2   -1    0    0    0  501  0.00000000000E+00  0.00000000000E+00  0.12138184846E+04  0.12138184846E+04  0.25500000920E-02 0. -1.
        2   -1    0    0  501    0  0.00000000000E+00  0.00000000000E+00 -0.25313925532E+04  0.25313925532E+04  0.25500000920E-02 0.  1.
    10030    2    1    2    0    0  0.00000000000E+00  0.00000000000E+00 -0.13175740685E+04  0.37452110378E+04  0.35057958143E+04 0.  0.
        5    1    3    3  502    0  0.10957010268E+04  0.74631341213E+03  0.56629878151E+03  0.14416174421E+04  0.46999998093E+01 0. -1.
       -5    1    3    3    0  502 -0.10957010268E+04 -0.74631341213E+03 -0.18838728500E+04  0.23035935958E+04  0.46999998093E+01 0.  1.
</event>
<event>
 5   0  0.7754556E-07  0.3134155E+04  0.7818609E-02  0.8206427E-01
       -1   -1    0    0    0  501  0.00000000000E+00  0.00000000000E+00  0.11227251103E+04  0.11227251103E+04  0.50400001928E-02 0. -1.
        1   -1    0    0  501    0  0.00000000000E+00  0.00000000000E+00 -0.21872951807E+04  0.21872951807E+04  0.50400001928E-02 0.  1.
    10030    2    1    2    0    0  0.00000000000E+00  0.00000000000E+00 -0.10645700705E+04  0.33100202910E+04  0.31341545737E+04 0.  0.
        4    1    3    3  502    0  0.13442328530E+04 -0.65945281605E+03 -0.43851910547E+02  0.14979200855E+04  0.12699999809E+01 0. -1.
       -4    1    3    3    0  502 -0.13442328530E+04  0.65945281605E+03 -0.10207181599E+04  0.18121002055E+04  0.12699999809E+01 0.  1.
</event>
<event>
 5   0  0.2422436E-06  0.3604715E+04  0.7818609E-02  0.8089413E-01
       -2   -1    0    0    0  501  0.00000000000E+00  0.00000000000E+00  0.11027244303E+04  0.11027244303E+04  0.25500000920E-02 0.  1.
        2   -1    0    0  501    0  0.00000000000E+00  0.00000000000E+00 -0.29458787599E+04  0.29458787599E+04  0.25500000920E-02 0. -1.
    10030    2    1    2    0    0  0.00000000000E+00  0.00000000000E+00 -0.18431543296E+04  0.40486031903E+04  0.36047149554E+04 0.  0.
        2    1    3    3  502    0  0.10590335294E+04 -0.18103353935E+02 -0.25594436234E+04  0.27699515175E+04  0.25500000920E-02 0. -1.
       -2    1    3    3    0  502 -0.10590335294E+04  0.18103353935E+02  0.71628929384E+03  0.12786516728E+04  0.25500000920E-02 0.  1.
</event>
<event>
 5   0  0.2382711E-06  0.3668428E+04  0.7818609E-02  0.8074995E-01
        2   -1    0    0  501    0  0.00000000000E+00  0.00000000000E+00  0.20508399119E+04  0.20508399119E+04  0.25500000920E-02 0. -1.
       -2   -1    0    0    0  501  0.00000000000E+00  0.00000000000E+00 -0.16404697766E+04  0.16404697766E+04  0.25500000920E-02 0.  1.
    10030    2    1    2    0    0  0.00000000000E+00  0.00000000000E+00  0.41037013527E+03  0.36913096885E+04  0.36684279424E+04 0.  0.
        5    1    3    3  502    0  0.11470424174E+04  0.53667016609E+03  0.15403365613E+04  0.19940862535E+04  0.46999998093E+01 0. -1.
       -5    1    3    3    0  502 -0.11470424174E+04 -0.53667016609E+03 -0.11299664260E+04  0.16972234350E+04  0.46999998093E+01 0.  1.
</event>
<event>
 5   0  0.1908273E-06  0.3652010E+04  0.7818609E-02  0.8078681E-01
        1   -1    0    0  501    0  0.00000000000E+00  0.00000000000E+00  0.28960430050E+04  0.28960430050E+04  0.50400001928E-02 0.  1.
       -1   -1    0    0    0  501  0.00000000000E+00  0.00000000000E+00 -0.11513277893E+04  0.11513277893E+04  0.50400001928E-02 0. -1.
    10030    2    1    2    0    0  0.00000000000E+00  0.00000000000E+00  0.17447152157E+04  0.40473707943E+04  0.36520102907E+04 0.  0.
        3    1    3    3  502    0  0.61767559376E+03  0.10798385089E+04 -0.60903203277E+03  0.13850972426E+04  0.10100000352E+00 0. -1.
       -3    1    3    3    0  502 -0.61767559376E+03 -0.10798385089E+04  0.23537472485E+04  0.26622735517E+04  0.10100000352E+00 0.  1.
</event>
<event>
 5   0  0.1566576E-06  0.2516549E+04  0.7818609E-02  0.8397114E-01
       -2   -1    0    0    0  501  0.00000000000E+00  0.00000000000E+00  0.12508989968E+04  0.12508989968E+04  0.25500000920E-02 0. -1.
        2   -1    0    0  501    0  0.00000000000E+00  0.00000000000E+00 -0.12656930782E+04  0.12656930782E+04  0.25500000920E-02 0.  1.
    10030    2    1    2    0    0  0.00000000000E+00  0.00000000000E+00 -0.14794081427E+02  0.25165920749E+04  0.25165485902E+04 0.  0.
        4    1    3    3  502    0 -0.99888245469E+03  0.99884856561E+02 -0.76603353810E+03  0.12627557710E+04  0.12699999809E+01 0.  1.
       -4    1    3    3    0  502  0.99888245469E+03 -0.99884856561E+02  0.75123945667E+03  0.12538363039E+04  0.12699999809E+01 0. -1.
</event>
<event>
 5   0  0.1566576E-06  0.2121063E+04  0.7818609E-02  0.8552021E-01
        2   -1    0    0  501    0  0.00000000000E+00  0.00000000000E+00  0.13801078762E+04  0.13801078762E+04  0.25500000920E-02 0. -1.
       -2   -1    0    0    0  501  0.00000000000E+00  0.00000000000E+00 -0.81495615831E+03  0.81495615832E+03  0.25500000920E-02 0.  1.
    10030    2    1    2    0    0  0.00000000000E+00  0.00000000000E+00  0.56515171790E+03  0.21950640345E+04  0.21210633304E+04 0.  0.
        4    1    3    3  502    0 -0.99356084973E+03 -0.30645114846E+03  0.49879161128E+03  0.11531999622E+04  0.12699999809E+01 0. -1.
       -4    1    3    3    0  502  0.99356084973E+03  0.30645114846E+03  0.66360106626E+02  0.10418640723E+04  0.12699999809E+01 0.  1.
</event>
<event>
 5   0  0.2422436E-06  0.1998784E+04  0.7818609E-02  0.8607189E-01
       -2   -1    0    0    0  501  0.00000000000E+00  0.00000000000E+00  0.53678290011E+03  0.53678290011E+03  0.25500000920E-02 0. -1.
        2   -1    0    0  501    0  0.00000000000E+00  0.00000000000E+00 -0.18606854716E+04  0.18606854716E+04  0.25500000920E-02 0.  1.
    10030    2    1    2    0    0  0.00000000000E+00  0.00000000000E+00 -0.13239025715E+04  0.23974683717E+04  0.19987837739E+04 0.  0.
        2    1    3    3  502    0  0.86011855846E+03 -0.50716261624E+02 -0.54581874262E+02  0.86333959413E+03  0.25500000920E-02 0. -1.
       -2    1    3    3    0  502 -0.86011855846E+03  0.50716261624E+02 -0.12693206972E+04  0.15341287776E+04  0.25500000920E-02 0.  1.
</event>
<event>
 5   0  0.1513502E-06  0.3400054E+04  0.7818609E-02  0.8137893E-01
       -2   -1    0    0    0  501  0.00000000000E+00  0.00000000000E+00  0.17443606150E+04  0.17443606150E+04  0.25500000920E-02 0.  1.
        2   -1    0    0  501    0  0.00000000000E+00  0.00000000000E+00 -0.16568203207E+04  0.16568203207E+04  0.25500000920E-02 0. -1.
    10030    2    1    2    0    0  0.00000000000E+00  0.00000000000E+00  0.87540294268E+02  0.34011809357E+04  0.34000541840E+04 0.  0.
        3    1    3    3  502    0  0.79321316018E+03  0.83714839317E+03  0.12932187163E+04  0.17327490320E+04  0.10100000352E+00 0.  1.
       -3    1    3    3    0  502 -0.79321316018E+03 -0.83714839317E+03 -0.12056784220E+04  0.16684319037E+04  0.10100000352E+00 0. -1.
</event>
<event>
 5   0  0.8423692E-07  0.1856893E+04  0.7818609E-02  0.8676616E-01
       -1   -1    0    0    0  501  0.00000000000E+00  0.00000000000E+00  0.36006246490E+03  0.36006246493E+03  0.50400001928E-02 0. -1.
        1   -1    0    0  501    0  0.00000000000E+00  0.00000000000E+00 -0.23940647080E+04  0.23940647080E+04  0.50400001928E-02 0.  1.
    10030    2    1    2    0    0  0.00000000000E+00  0.00000000000E+00 -0.20340022431E+04  0.27541271730E+04  0.18568929317E+04 0.  0.
        2    1    3    3  502    0  0.31752582280E+03 -0.87215265813E+03 -0.10514652222E+04  0.14025163174E+04  0.25500000920E-02 0.  1.
       -2    1    3    3    0  502 -0.31752582280E+03  0.87215265813E+03 -0.98253702094E+03  0.13516108555E+04  0.25500000920E-02 0. -1.
</event>
<event>
 5   0  0.2536619E-06  0.3739056E+04  0.7818609E-02  0.8059361E-01
       -2   -1    0    0    0  501  0.00000000000E+00  0.00000000000E+00  0.22456405845E+04  0.22456405845E+04  0.25500000920E-02 0. -1.
        2   -1    0    0  501    0  0.00000000000E+00  0.00000000000E+00 -0.15564085772E+04  0.15564085772E+04  0.25500000920E-02 0.  1.
    10030    2    1    2    0    0  0.00000000000E+00  0.00000000000E+00  0.68923200728E+03  0.38020491617E+04  0.37390556386E+04 0.  0.
        1    1    3    3  502    0 -0.12043409080E+04  0.44318381150E+03  0.17270369688E+04  0.21516285936E+04  0.50400001928E-02 0. -1.
       -1    1    3    3    0  502  0.12043409080E+04 -0.44318381150E+03 -0.10378049615E+04  0.16504205681E+04  0.50400001928E-02 0.  1.
</event>
<event>
 5   0  0.7754556E-07  0.3653074E+04  0.7818609E-02  0.8078442E-01
       -1   -1    0    0    0  501  0.00000000000E+00  0.00000000000E+00  0.14968789422E+04  0.14968789422E+04  0.50400001928E-02 0.  1.
        1   -1    0    0  501    0  0.00000000000E+00  0.00000000000E+00 -0.22287953112E+04  0.22287953112E+04  0.50400001928E-02 0. -1.
    10030    2    1    2    0    0  0.00000000000E+00  0.00000000000E+00 -0.73191636900E+03  0.37256742534E+04  0.36530736472E+04 0.  0.
        4    1    3    3  502    0 -0.94979897849E+03  0.13399789081E+04  0.44903115191E+03  0.17027307955E+04  0.12699999809E+01 0. -1.
       -4    1    3    3    0  502  0.94979897849E+03 -0.13399789081E+04 -0.11809475209E+04  0.20229434579E+04  0.12699999809E+01 0.  1.
</event>
<event>
 5   0  0.2382711E-06  0.3143485E+04  0.7818609E-02  0.8203904E-01
       -2   -1    0    0    0  501  0.00000000000E+00  0.00000000000E+00  0.10475694043E+04  0.10475694043E+04  0.25500000920E-02 0.  1.
        2   -1    0    0  501    0  0.00000000000E+00  0.00000000000E+00 -0.23581964170E+04  0.23581964170E+04  0.25500000920E-02 0. -1.
    10030    2    1    2    0    0  0.00000000000E+00  0.00000000000E+00 -0.13106270127E+04  0.34057658214E+04  0.31434849552E+04 0.  0.
        5    1    3    3  502    0  0.49230172737E+03  0.56467314486E+03  0.84168642974E+03  0.11267985123E+04  0.46999998093E+01 0.  1.
       -5    1    3    3    0  502 -0.49230172737E+03 -0.56467314486E+03 -0.21523134424E+04  0.22789673091E+04  0.46999998093E+01 0. -1.
</event>
<event>
 5   0  0.7754556E-07  0.3567626E+04  0.7818609E-02  0.8097948E-01
        1   -1    0    0  501    0  0.00000000000E+00  0.00000000000E+00  0.32031836751E+04  0.32031836751E+04  0.50400001928E-02 0.  1.
       -1   -1    0    0    0  501  0.00000000000E+00  0.00000000000E+00 -0.99338309994E+03  0.99338309995E+03  0.50400001928E-02 0. -1.
    10030    2    1    2    0    0  0.00000000000E+00  0.00000000000E+00  0.22098005751E+04  0.41965667750E+04  0.35676258374E+04 0.  0.
        4    1    3    3  502    0  0.16005182728E+04 -0.24166636322E+03  0.19866680654E+04  0.25625988737E+04  0.12699999809E+01 0.  1.
       -4    1    3    3    0  502 -0.16005182728E+04  0.24166636322E+03  0.22313250973E+03  0.16339679013E+04  0.12699999809E+01 0. -1.
</event>
<event>
 5   0  0.1634374E-06  0.3599721E+04  0.7818609E-02  0.8090555E-01
        1   -1    0    0  501    0  0.00000000000E+00  0.00000000000E+00  0.27678781808E+04  0.27678781808E+04  0.50400001928E-02 0.  1.
       -1   -1    0    0    0  501  0.00000000000E+00  0.00000000000E+00 -0.11703906253E+04  0.11703906253E+04  0.50400001928E-02 0. -1.
    10030    2    1    2    0    0  0.00000000000E+00  0.00000000000E+00  0.15974875555E+04  0.39382688061E+04  0.35997214752E+04 0.  0.
        5    1    3    3  502    0 -0.17882525283E+04  0.14042982735E+03  0.63680637315E+03  0.19034474220E+04  0.46999998093E+01 0. -1.
       -5    1    3    3    0  502  0.17882525283E+04 -0.14042982735E+03  0.96068118238E+03  0.20348213842E+04  0.46999998093E+01 0.  1.
</event>
<event>
 5   0  0.2382711E-06  0.3591884E+04  0.7818609E-02  0.8092353E-01
        2   -1    0    0  501    0  0.00000000000E+00  0.00000000000E+00  0.20587787723E+04  0.20587787723E+04  0.25500000920E-02 0. -1.
       -2   -1    0    0    0  501  0.00000000000E+00  0.00000000000E+00 -0.15666609283E+04  0.15666609283E+04  0.25500000920E-02 0.  1.
    10030    2    1    2    0    0  0.00000000000E+00  0.00000000000E+00  0.49211784405E+03  0.36254397006E+04  0.35918843314E+04 0.  0.
        5    1    3    3  502    0  0.38855287871E+03 -0.13248623460E+04  0.14053322979E+04  0.19700798291E+04  0.46999998093E+01 0. -1.
       -5    1    3    3    0  502 -0.38855287871E+03  0.13248623460E+04 -0.91321445389E+03  0.16553598715E+04  0.46999998093E+01 0.  1.
</event>
<event>
 5   0  0.1566576E-06  0.3491632E+04  0.7818609E-02  0.8115776E-01
       -2   -1    0    0    0  501  0.00000000000E+00  0.00000000000E+00  0.19342068130E+04  0.19342068130E+04  0.25500000920E-02 0.  1.
        2   -1    0    0  501    0  0.00000000000E+00  0.00000000000E+00 -0.15757742596E+04  0.15757742596E+04  0.25500000920E-02 0. -1.
    10030    2    1    2    0    0  0.00000000000E+00  0.00000000000E+00  0.35843255335E+03  0.35099810726E+04  0.34916318871E+04 0.  0.
        4    1    3    3  502    0 -0.17088659310E+04 -0.32590906572E+03  0.32049503556E+02  0.17399621469E+04  0.12699999809E+01 0.  1.
       -4    1    3    3    0  502  0.17088659310E+04  0.32590906572E+03  0.32638304979E+03  0.17700189257E+04  0.12699999809E+01 0. -1.
</event>
<event>
 5   0  0.1513502E-06  0.3459096E+04  0.7818609E-02  0.8123553E-01
       -2   -1    0    0    0  501  0.00000000000E+00  0.00000000000E+00  0.15919241366E+04  0.15919241366E+04  0.25500000920E-02 0. -1.
        2   -1    0    0  501    0  0.00000000000E+00  0.00000000000E+00 -0.18790700745E+04  0.18790700745E+04  0.25500000920E-02 0.  1.
    10030    2    1    2    0    0  0.00000000000E+00  0.00000000000E+00 -0.28714593799E+03  0.34709942111E+04  0.34590964172E+04 0.  0.
        3    1    3    3  502    0 -0.29889238620E+03  0.12544366075E+04  0.10129489796E+04  0.16398211812E+04  0.10100000352E+00 0. -1.
       -3    1    3    3    0  502  0.29889238620E+03 -0.12544366075E+04 -0.13000949176E+04  0.18311730299E+04  0.10100000352E+00 0.  1.
</event>
<event>
 5   0  0.7754556E-07  0.3653503E+04  0.7818609E-02  0.8078345E-01
       -1   -1    0    0    0  501  0.00000000000E+00  0.00000000000E+00  0.18779051051E+04  0.18779051051E+04  0.50400001928E-02 0. -1.
        1   -1    0    0  501    0  0.00000000000E+00  0.00000000000E+00 -0.17769913149E+04  0.17769913149E+04  0.50400001928E-02 0.  1.
    10030    2    1    2    0    0  0.00000000000E+00  0.00000000000E+00  0.10091379017E+03  0.36548964200E+04  0.36535030105E+04 0.  0.
        4    1    3    3  502    0  0.70204093546E+03 -0.40530649812E+03  0.16881165571E+04  0.18726649342E+04  0.12699999809E+01 0.  1.
       -4    1    3    3    0  502 -0.70204093546E+03  0.40530649812E+03 -0.15872027670E+04  0.17822314858E+04  0.12699999809E+01 0. -1.
</event>
<event>
 5   0  0.2382711E-06  0.3566344E+04  0.7818609E-02  0.8098245E-01
        2   -1    0    0  501    0  0.00000000000E+00  0.00000000000E+00  0.11464727615E+04  0.11464727615E+04  0.25500000920E-02 0.  1.
       -2   -1    0    0    0  501  0.00000000000E+00  0.00000000000E+00 -0.27734646854E+04  0.27734646854E+04  0.25500000920E-02 0. -1.
    10030    2    1    2    0    0  0.00000000000E+00  0.00000000000E+00 -0.16269919239E+04  0.39199374469E+04  0.35663436272E+04 0.  0.
        5    1    3    3  502    0  0.15908461563E+04  0.37169536298E+03 -0.27985581584E+02  0.16339382542E+04  0.46999998093E+01 0.  1.
       -5    1    3    3    0  502 -0.15908461563E+04 -0.37169536298E+03 -0.15990063423E+04  0.22859991926E+04  0.46999998093E+01 0. -1.
</event>
<event>
 5   0  0.7754556E-07  0.3507400E+04  0.7818609E-02  0.8112039E-01
       -1   -1    0    0    0  501  0.00000000000E+00  0.00000000000E+00  0.13004058594E+04  0.13004058594E+04  0.50400001928E-02 0. -1.
        1   -1    0    0  501    0  0.00000000000E+00  0.00000000000E+00 -0.23650027855E+04  0.23650027855E+04  0.50400001928E-02 0.  1.
    10030    2    1    2    0    0  0.00000000000E+00  0.00000000000E+00 -0.10645969261E+04  0.36654086449E+04  0.35073998801E+04 0.  0.
        4    1    3    3  502    0  0.14565210527E+03 -0.40438535595E+03  0.12445079650E+04  0.13166410823E+04  0.12699999809E+01 0. -1.
       -4    1    3    3    0  502 -0.14565210527E+03  0.40438535595E+03 -0.23091048911E+04  0.23487675626E+04  0.12699999809E+01 0.  1.
</event>
<event>
 5   0  0.8423692E-07  0.3646174E+04  0.7818609E-02  0.8079996E-01
        1   -1    0    0  501    0  0.00000000000E+00  0.00000000000E+00  0.22779462150E+04  0.22779462150E+04  0.50400001928E-02 0. -1.
       -1   -1    0    0    0  501  0.00000000000E+00  0.00000000000E+00 -0.14590539291E+04  0.14590539292E+04  0.50400001928E-02 0.  1.
    10030    2    1    2    0    0  0.00000000000E+00  0.00000000000E+00  0.81889228581E+03  0.37370001441E+04  0.36461740909E+04 0.  0.
        2    1    3    3  502    0  0.71576660580E+03  0.13741269511E+04  0.13941599111E+04  0.20842813077E+04  0.25500000920E-02 0. -1.
       -2    1    3    3    0  502 -0.71576660580E+03 -0.13741269511E+04 -0.57526762531E+03  0.16527188365E+04  0.25500000920E-02 0.  1.
</event>
<event>
 5   0  0.8452742E-07  0.3406294E+04  0.7818609E-02  0.8136363E-01
        1   -1    0    0  501    0  0.00000000000E+00  0.00000000000E+00  0.23322127872E+04  0.23322127872E+04  0.50400001928E-02 0.  1.
       -1   -1    0    0    0  501  0.00000000000E+00  0.00000000000E+00 -0.12437587523E+04  0.12437587523E+04  0.50400001928E-02 0. -1.
    10030    2    1    2    0    0  0.00000000000E+00  0.00000000000E+00  0.10884540349E+04  0.35759715395E+04  0.34062942130E+04 0.  0.
        1    1    3    3  502    0 -0.98795723165E+03  0.86671413864E+03  0.16814497165E+04  0.21341335569E+04  0.50400001928E-02 0.  1.
       -1    1    3    3    0  502  0.98795723165E+03 -0.86671413864E+03 -0.59299568157E+03  0.14418379826E+04  0.50400001928E-02 0. -1.
</event>
<event>
 5   0  0.1566576E-06  0.2225425E+04  0.7818609E-02  0.8507920E-01
       -2   -1    0    0    0  501  0.00000000000E+00  0.00000000000E+00  0.11044993683E+04  0.11044993683E+04  0.25500000920E-02 0.  1.
        2   -1    0    0  501    0  0.00000000000E+00  0.00000000000E+00 -0.11209867427E+04  0.11209867427E+04  0.25500000920E-02 0. -1.
    10030    2    1    2    0    0  0.00000000000E+00  0.00000000000E+00 -0.16487374374E+02  0.22254861110E+04  0.22254250374E+04 0.  0.
        4    1    3    3  502    0  0.88352651150E+03 -0.54267637843E+02  0.66598803362E+03  0.11077480521E+04  0.12699999809E+01 0.  1.
       -4    1    3    3    0  502 -0.88352651150E+03  0.54267637843E+02 -0.68247540800E+03  0.11177380590E+04  0.12699999809E+01 0. -1.
</event>
<event>
 5   0  0.1634374E-06  0.3469122E+04  0.7818609E-02  0.8121147E-01
       -1   -1    0    0    0  501  0.00000000000E+00  0.00000000000E+00  0.16837604973E+04  0.16837604973E+04  0.50400001928E-02 0.  1.
        1   -1    0    0  501    0  0.00000000000E+00  0.00000000000E+00 -0.17868938024E+04  0.17868938024E+04  0.50400001928E-02 0. -1.
    10030    2    1    2    0    0  0.00000000000E+00  0.00000000000E+00 -0.10313330512E+03  0.34706542997E+04  0.34691216164E+04 0.  0.
        5    1    3    3  502    0 -0.12663230043E+04 -0.86399435743E+03 -0.86347859371E+03  0.17594537711E+04  0.46999998093E+01 0. -1.
       -5    1    3    3    0  502  0.12663230043E+04  0.86399435743E+03  0.76034528859E+03  0.17112005285E+04  0.46999998093E+01 0.  1.
</event>
<event>
 5   0  0.2422436E-06  0.3529531E+04  0.7818609E-02  0.8106827E-01
       -2   -1    0    0    0  501  0.00000000000E+00  0.00000000000E+00  0.15397361525E+04  0.15397361525E+04  0.25500000920E-02 0. -1.
        2   -1    0    0  501    0  0.00000000000E+00  0.00000000000E+00 -0.20226825716E+04  0.20226825716E+04  0.25500000920E-02 0.  1.
    10030    2    1    2    0    0  0.00000000000E+00  0.00000000000E+00 -0.48294641914E+03  0.35624187241E+04  0.35295311193E+04 0.  0.
        2    1    3    3  502    0 -0.11100493317E+04 -0.11269284117E+04  0.54826257687E+03  0.16741472507E+04  0.25500000920E-02 0.  1.
       -2    1    3    3    0  502  0.11100493317E+04  0.11269284117E+04 -0.10312089960E+04  0.18882714734E+04  0.25500000920E-02 0. -1.
</event>
<event>
 5   0  0.8423692E-07  0.1922093E+04  0.7818609E-02  0.8643937E-01
       -1   -1    0    0    0  501  0.00000000000E+00  0.00000000000E+00  0.10140671329E+04  0.10140671329E+04  0.50400001928E-02 0. -1.
        1   -1    0    0  501    0  0.00000000000E+00  0.00000000000E+00 -0.91079846942E+03  0.91079846944E+03  0.50400001928E-02 0.  1.
    10030    2    1    2    0    0  0.00000000000E+00  0.00000000000E+00  0.10326866350E+03  0.19248656024E+04  0.19220934343E+04 0.  0.
        2    1    3    3  502    0  0.13716139630E+03  0.71097371117E+03 -0.58118996422E+03  0.92848190134E+03  0.25500000920E-02 0.  1.
       -2    1    3    3    0  502 -0.13716139630E+03 -0.71097371117E+03  0.68445862772E+03  0.99638370103E+03  0.25500000920E-02 0. -1.
</event>
<event>
 5   0  0.1513502E-06  0.3533829E+04  0.7818609E-02  0.8105819E-01
       -2   -1    0    0    0  501  0.00000000000E+00  0.00000000000E+00  0.15916053822E+04  0.15916053822E+04  0.25500000920E-02 0.  1.
        2   -1    0    0  501    0  0.00000000000E+00  0.00000000000E+00 -0.19615335055E+04  0.19615335055E+04  0.25500000920E-02 0. -1.
    10030    2    1    2    0    0  0.00000000000E+00  0.00000000000E+00 -0.36992812327E+03  0.35531388878E+04  0.35338292459E+04 0.  0.
        3    1    3    3  502    0 -0.10951990983E+04 -0.88271374624E+03  0.89015070200E+03  0.16646359678E+04  0.10100000352E+00 0.  1.
       -3    1    3    3    0  502  0.10951990983E+04  0.88271374624E+03 -0.12600788253E+04  0.18885029200E+04  0.10100000352E+00 0. -1.
</event>
<event>
 5   0  0.7754556E-07  0.3582772E+04  0.7818609E-02  0.8094449E-01
       -1   -1    0    0    0  501  0.00000000000E+00  0.00000000000E+00  0.15466972033E+04  0.15466972033E+04  0.50400001928E-02 0.  1.
        1   -1    0    0  501    0  0.00000000000E+00  0.00000000000E+00 -0.20747853334E+04  0.20747853334E+04  0.50400001928E-02 0. -1.
    10030    2    1    2    0    0  0.00000000000E+00  0.00000000000E+00 -0.52808813008E+03  0.36214825367E+04  0.35827724865E+04 0.  0.
        4    1    3    3  502    0 -0.14909080155E+04 -0.94656051881E+03 -0.56775597130E+03  0.18550288359E+04  0.12699999809E+01 0. -1.
       -4    1    3    3    0  502  0.14909080155E+04  0.94656051881E+03  0.39667841221E+02  0.17664537007E+04  0.12699999809E+01 0.  1.
</event>
<event>
 5   0  0.2536619E-06  0.3564596E+04  0.7818609E-02  0.8098650E-01
       -2   -1    0    0    0  501  0.00000000000E+00  0.00000000000E+00  0.17174224677E+04  0.17174224677E+04  0.25500000920E-02 0. -1.
        2   -1    0    0  501    0  0.00000000000E+00  0.00000000000E+00 -0.18496239040E+04  0.18496239040E+04  0.25500000920E-02 0.  1.
    10030    2    1    2    0    0  0.00000000000E+00  0.00000000000E+00 -0.13220143637E+03  0.35670463717E+04  0.35645957131E+04 0.  0.
        1    1    3    3  502    0 -0.14898911597E+04 -0.48394881581E+03  0.78454459361E+03  0.17519966733E+04  0.50400001928E-02 0.  1.
       -1    1    3    3    0  502  0.14898911597E+04  0.48394881581E+03 -0.91674602998E+03  0.18150496984E+04  0.50400001928E-02 0. -1.
</event>
<event>
 5   0  0.8452742E-07  0.3590893E+04  0.7818609E-02  0.8092581E-01
       -1   -1    0    0    0  501  0.00000000000E+00  0.00000000000E+00  0.19325883189E+04  0.19325883189E+04  0.50400001928E-02 0.  1.
        1   -1    0    0  501    0  0.00000000000E+00  0.00000000000E+00 -0.16680363755E+04  0.16680363755E+04  0.50400001928E-02 0. -1.
    10030    2    1    2    0    0  0.00000000000E+00  0.00000000000E+00  0.26455194346E+03  0.36006246944E+04  0.35908927106E+04 0.  0.
        1    1    3    3  502    0  0.13080641441E+04 -0.91604076779E+03 -0.69059734674E+03  0.17398526342E+04  0.50400001928E-02 0. -1.
       -1    1    3    3    0  502 -0.13080641441E+04  0.91604076779E+03  0.95514929020E+03  0.18607720602E+04  0.50400001928E-02 0.  1.
</event>
<event>
 5   0  0.1634374E-06  0.3116367E+04  0.7818609E-02  0.8211260E-01
        1   -1    0    0  501    0  0.00000000000E+00  0.00000000000E+00  0.24303931980E+04  0.24303931980E+04  0.50400001928E-02 0.  1.
       -1   -1    0    0    0  501  0.00000000000E+00  0.00000000000E+00 -0.99898898087E+03  0.99898898088E+03  0.50400001928E-02 0. -1.
    10030    2    1    2    0    0  0.00000000000E+00  0.00000000000E+00  0.14314042171E+04  0.34293821788E+04  0.31163671311E+04 0.  0.
        5    1    3    3  502    0 -0.13477766866E+04  0.28401998721E+03  0.15173987367E+04  0.20493146089E+04  0.46999998093E+01 0.  1.
       -5    1    3    3    0  502  0.13477766866E+04 -0.28401998721E+03 -0.85994519614E+02  0.13800675699E+04  0.46999998093E+01 0. -1.
</event>
<event>
 5   0  0.8452742E-07  0.3543214E+04  0.7818609E-02  0.8103625E-01
        1   -1    0    0  501    0  0.00000000000E+00  0.00000000000E+00  0.13552336546E+04  0.13552336546E+04  0.50400001928E-02 0. -1.
       -1   -1    0    0    0  501  0.00000000000E+00  0.00000000000E+00 -0.23159037257E+04  0.23159037257E+04  0.50400001928E-02 0.  1.
    10030    2    1    2    0    0  0.00000000000E+00  0.00000000000E+00 -0.96067007117E+03  0.36711373803E+04  0.35432136091E+04 0.  0.
        1    1    3    3  502    0  0.14531330755E+04 -0.85113575449E+02  0.56595066342E+03  0.15617746986E+04  0.50400001928E-02 0. -1.
       -1    1    3    3    0  502 -0.14531330755E+04  0.85113575449E+02 -0.15266207346E+04  0.21093626817E+04  0.50400001928E-02 0.  1.
</event>
<event>
 5   0  0.1513502E-06  0.3592302E+04  0.7818609E-02  0.8092257E-01
       -2   -1    0    0    0  501  0.00000000000E+00  0.00000000000E+00  0.12456899570E+04  0.12456899570E+04  0.25500000920E-02 0.  1.
        2   -1    0    0  501    0  0.00000000000E+00  0.00000000000E+00 -0.25898570365E+04  0.25898570365E+04  0.25500000920E-02 0. -1.
    10030    2    1    2    0    0  0.00000000000E+00  0.00000000000E+00 -0.13441670795E+04  0.38355469935E+04  0.35923022703E+04 0.  0.
        3    1    3    3  502    0  0.12275775358E+04 -0.97909377111E+03 -0.16032537551E+04  0.22441020102E+04  0.10100000352E+00 0. -1.
       -3    1    3    3    0  502 -0.12275775358E+04  0.97909377111E+03  0.25908667560E+03  0.15914449832E+04  0.10100000352E+00 0.  1.
</event>
<event>
 5   0  0.2536619E-06  0.2558713E+04  0.7818609E-02  0.8382362E-01
       -2   -1    0    0    0  501  0.00000000000E+00  0.00000000000E+00  0.11131054760E+04  0.11131054760E+04  0.25500000920E-02 0. -1.
        2   -1    0    0  501    0  0.00000000000E+00  0.00000000000E+00 -0.14704389411E+04  0.14704389411E+04  0.25500000920E-02 0.  1.
    10030    2    1    2    0    0  0.00000000000E+00  0.00000000000E+00 -0.35733346506E+03  0.25835444171E+04  0.25587134560E+04 0.  0.
        1    1    3    3  502    0  0.30251832221E+03 -0.33917792091E+02  0.10760046893E+04  0.11182369352E+04  0.50400001928E-02 0. -1.
       -1    1    3    3    0  502 -0.30251832221E+03  0.33917792091E+02 -0.14333381543E+04  0.14653074819E+04  0.50400001928E-02 0.  1.
</event>
<event>
 5   0  0.1566576E-06  0.3602650E+04  0.7818609E-02  0.8089885E-01
        2   -1    0    0  501    0  0.00000000000E+00  0.00000000000E+00  0.22694651566E+04  0.22694651566E+04  0.25500000920E-02 0.  1.
       -2   -1    0    0    0  501  0.00000000000E+00  0.00000000000E+00 -0.14297513949E+04  0.14297513949E+04  0.25500000920E-02 0. -1.
    10030    2    1    2    0    0  0.00000000000E+00  0.00000000000E+00  0.83971376172E+03  0.36992165516E+04  0.36026495658E+04 0.  0.
        4    1    3    3  502    0  0.94043928406E+03 -0.59973291145E+03  0.18722185794E+04  0.21792910852E+04  0.12699999809E+01 0.  1.
       -4    1    3    3    0  502 -0.94043928406E+03  0.59973291145E+03 -0.10325048176E+04  0.15199254664E+04  0.12699999809E+01 0. -1.
</event>
<event>
 5   0  0.2382711E-06  0.2668631E+04  0.7818609E-02  0.8345256E-01
       -2   -1    0    0    0  501  0.00000000000E+00  0.00000000000E+00  0.83419638260E+03  0.83419638260E+03  0.25500000920E-02 0.  1.
        2   -1    0    0  501    0  0.00000000000E+00  0.00000000000E+00 -0.21342663612E+04  0.21342663612E+04  0.25500000920E-02 0. -1.
    10030    2    1    2    0    0  0.00000000000E+00  0.00000000000E+00 -0.13000699786E+04  0.29684627438E+04  0.26686305687E+04 0.  0.
        5    1    3    3  502    0  0.22781552855E+03  0.79522732538E+03  0.51453611756E+03  0.97419501146E+03  0.46999998093E+01 0.  1.
       -5    1    3    3    0  502 -0.22781552855E+03 -0.79522732538E+03 -0.18146060962E+04  0.19942677323E+04  0.46999998093E+01 0. -1.
</event>
<event>
 5   0  0.2382711E-06  0.3626339E+04  0.7818609E-02  0.8084485E-01
        2   -1    0    0  501    0  0.00000000000E+00  0.00000000000E+00  0.29224984964E+04  0.29224984964E+04  0.25500000920E-02 0. -1.
       -2   -1    0    0    0  501  0.00000000000E+00  0.00000000000E+00 -0.11249224132E+04  0.11249224132E+04  0.25500000920E-02 0.  1.
    10030    2    1    2    0    0  0.00000000000E+00  0.00000000000E+00  0.17975760832E+04  0.40474209096E+04  0.36263392346E+04 0.  0.
        5    1    3    3  502    0 -0.15967577181E+04 -0.16994256823E+02 -0.59799035900E+02  0.15979743520E+04  0.46999998093E+01 0.  1.
       -5    1    3    3    0  502  0.15967577181E+04  0.16994256823E+02  0.18573751191E+04  0.24494465576E+04  0.46999998093E+01 0. -1.
</event>
<event>
 5   0  0.2422436E-06  0.2766504E+04  0.7818609E-02  0.8313743E-01
        2   -1    0    0  501    0  0.00000000000E+00  0.00000000000E+00  0.19855462460E+04  0.19855462460E+04  0.25500000920E-02 0.  1.
       -2   -1    0    0    0  501  0.00000000000E+00  0.00000000000E+00 -0.96365762188E+03  0.96365762189E+03  0.25500000920E-02 0. -1.
    10030    2    1    2    0    0  0.00000000000E+00  0.00000000000E+00  0.10218886241E+04  0.29492038679E+04  0.27665044902E+04 0.  0.
        2    1    3    3  502    0  0.11662230610E+04 -0.31887379935E+03 -0.20547094904E+03  0.12263666005E+04  0.25500000920E-02 0.  1.
       -2    1    3    3    0  502 -0.11662230610E+04  0.31887379935E+03  0.12273595732E+04  0.17228372674E+04  0.25500000920E-02 0. -1.
</event>
<event>
 5   0  0.1634374E-06  0.3201847E+04  0.7818609E-02  0.8188330E-01
        1   -1    0    0  501    0  0.00000000000E+00  0.00000000000E+00  0.82262595606E+03  0.82262595608E+03  0.50400001928E-02 0. -1.
       -1   -1    0    0    0  501  0.00000000000E+00  0.00000000000E+00 -0.31155789599E+04  0.31155789599E+04  0.50400001928E-02 0.  1.
    10030    2    1    2    0    0  0.00000000000E+00  0.00000000000E+00 -0.22929530038E+04  0.39382049160E+04  0.32018470423E+04 0.  0.
        5    1    3    3  502    0 -0.75791650359E+03 -0.61971647240E+03  0.41149878776E+03  0.10619977754E+04  0.46999998093E+01 0. -1.
       -5    1    3    3    0  502  0.75791650359E+03  0.61971647240E+03 -0.27044517916E+04  0.28762071406E+04  0.46999998093E+01 0.  1.
</event>
<event>
 5   0  0.8423692E-07  0.1927849E+04  0.7818609E-02  0.8641117E-01
       -1   -1    0    0    0  501  0.00000000000E+00  0.00000000000E+00  0.48545598930E+03  0.48545598932E+03  0.50400001928E-02 0. -1.
        1   -1    0    0  501    0  0.00000000000E+00  0.00000000000E+00 -0.19139740642E+04  0.19139740642E+04  0.50400001928E-02 0.  1.
    10030    2    1    2    0    0  0.00000000000E+00  0.00000000000E+00 -0.14285180749E+04  0.23994300536E+04  0.19278487211E+04 0.  0.
        2    1    3    3  502    0 -0.17229741027E+03  0.16300801720E+03 -0.18770869268E+04  0.18920130396E+04  0.25500000920E-02 0.  1.
       -2    1    3    3    0  502  0.17229741027E+03 -0.16300801720E+03  0.44856885183E+03  0.50741701400E+03  0.25500000920E-02 0. -1.
</event>
<event>
 5   0  0.8452742E-07  0.3664443E+04  0.7818609E-02  0.8075888E-01
        1   -1    0    0  501    0  0.00000000000E+00  0.00000000000E+00  0.21723113929E+04  0.21723113929E+04  0.50400001928E-02 0. -1.
       -1   -1    0    0    0  501  0.00000000000E+00  0.00000000000E+00 -0.15453751587E+04  0.15453751587E+04  0.50400001928E-02 0.  1.
    10030    2    1    2    0    0  0.00000000000E+00  0.00000000000E+00  0.62693623414E+03  0.37176865516E+04  0.36644432394E+04 0.  0.
        1    1    3    3  502    0  0.82917141406E+03  0.58244065459E+03 -0.12352352389E+04  0.15976759514E+04  0.50400001928E-02 0.  1.
       -1    1    3    3    0  502 -0.82917141406E+03 -0.58244065459E+03  0.18621714731E+04  0.21200106003E+04  0.50400001928E-02 0. -1.
</event>
<event>
 5   0  0.1908273E-06  0.1904925E+04  0.7818609E-02  0.8652409E-01
       -1   -1    0    0    0  501  0.00000000000E+00  0.00000000000E+00  0.10881078567E+04  0.10881078568E+04  0.50400001928E-02 0. -1.
        1   -1    0    0  501    0  0.00000000000E+00  0.00000000000E+00 -0.83372731874E+03  0.83372731876E+03  0.50400001928E-02 0.  1.
    10030    2    1    2    0    0  0.00000000000E+00  0.00000000000E+00  0.25438053800E+03  0.19218351755E+04  0.19049254536E+04 0.  0.
        3    1    3    3  502    0 -0.33282742939E+03 -0.30804750178E+03  0.97219185448E+03  0.10727648266E+04  0.10100000352E+00 0. -1.
       -3    1    3    3    0  502  0.33282742939E+03  0.30804750178E+03 -0.71781131648E+03  0.84907034889E+03  0.10100000352E+00 0.  1.
</event>
<event>
 5   0  0.2422436E-06  0.3051623E+04  0.7818609E-02  0.8229141E-01
       -2   -1    0    0    0  501  0.00000000000E+00  0.00000000000E+00  0.12424053853E+04  0.12424053853E+04  0.25500000920E-02 0. -1.
        2   -1    0    0  501    0  0.00000000000E+00  0.00000000000E+00 -0.18738657866E+04  0.18738657866E+04  0.25500000920E-02 0.  1.
    10030    2    1    2    0    0  0.00000000000E+00  0.00000000000E+00 -0.63146040136E+03  0.31162711719E+04  0.30516231383E+04 0.  0.
        2    1    3    3  502    0  0.10238991387E+04  0.70653209865E+03  0.58647018356E+03  0.13753197188E+04  0.25500000920E-02 0.  1.
       -2    1    3    3    0  502 -0.10238991387E+04 -0.70653209865E+03 -0.12179305849E+04  0.17409514532E+04  0.25500000920E-02 0. -1.
</event>
<event>
 5   0  0.2422436E-06  0.3598995E+04  0.7818609E-02  0.8090722E-01
       -2   -1    0    0    0  501  0.00000000000E+00  0.00000000000E+00  0.14787730906E+04  0.14787730906E+04  0.25500000920E-02 0. -1.
        2   -1    0    0  501    0  0.00000000000E+00  0.00000000000E+00 -0.21897828403E+04  0.21897828403E+04  0.25500000920E-02 0.  1.
    10030    2    1    2    0    0  0.00000000000E+00  0.00000000000E+00 -0.71100974964E+03  0.36685559309E+04  0.35989953812E+04 0.  0.
        2    1    3    3  502    0 -0.49192225532E+03  0.17060246911E+04 -0.57128663605E+02  0.17764491088E+04  0.25500000920E-02 0.  1.
       -2    1    3    3    0  502  0.49192225532E+03 -0.17060246911E+04 -0.65388108604E+03  0.18921068222E+04  0.25500000920E-02 0. -1.
</event>
<event>
 5   0  0.8423692E-07  0.1816088E+04  0.7818609E-02  0.8697791E-01
       -1   -1    0    0    0  501  0.00000000000E+00  0.00000000000E+00  0.49226171173E+03  0.49226171176E+03  0.50400001928E-02 0.  1.
        1   -1    0    0  501    0  0.00000000000E+00  0.00000000000E+00 -0.16750107451E+04  0.16750107451E+04  0.50400001928E-02 0. -1.
    10030    2    1    2    0    0  0.00000000000E+00  0.00000000000E+00 -0.11827490334E+04  0.21672724569E+04  0.18160877254E+04 0.  0.
        2    1    3    3  502    0  0.42097554396E+03  0.50228723089E+03 -0.13414278749E+04  0.14929640366E+04  0.25500000920E-02 0. -1.
       -2    1    3    3    0  502 -0.42097554396E+03 -0.50228723089E+03  0.15867884153E+03  0.67430842030E+03  0.25500000920E-02 0.  1.
</event>
<event>
 5   0  0.7754556E-07  0.3538758E+04  0.7818609E-02  0.8104666E-01
        1   -1    0    0  501    0  0.00000000000E+00  0.00000000000E+00  0.22975911213E+04  0.22975911213E+04  0.50400001928E-02 0.  1.
       -1   -1    0    0    0  501  0.00000000000E+00  0.00000000000E+00 -0.13626016606E+04  0.13626016607E+04  0.50400001928E-02 0. -1.
    10030    2    1    2    0    0  0.00000000000E+00  0.00000000000E+00  0.93498946066E+03  0.36601927820E+04  0.35387576788E+04 0.  0.
        4    1    3    3  502    0  0.60452276982E+03 -0.95493712070E+03  0.18755883361E+04  0.21897912922E+04  0.12699999809E+01 0.  1.
       -4    1    3    3    0  502 -0.60452276982E+03  0.95493712070E+03 -0.94059887548E+03  0.14704014898E+04  0.12699999809E+01 0. -1.
</event>
<event>
 5   0  0.7754556E-07  0.3810372E+04  0.7818609E-02  0.8043933E-01
        1   -1    0    0  501    0  0.00000000000E+00  0.00000000000E+00  0.26846647638E+04  0.26846647638E+04  0.50400001928E-02 0.  1.
       -1   -1    0    0    0  501  0.00000000000E+00  0.00000000000E+00 -0.13520252032E+04  0.13520252032E+04  0.50400001928E-02 0. -1.
    10030    2    1    2    0    0  0.00000000000E+00  0.00000000000E+00  0.13326395606E+04  0.40366899670E+04  0.38103723822E+04 0.  0.
        4    1    3    3  502    0  0.76924976660E+03  0.11027485677E+04  0.20962808028E+04  0.24904205316E+04  0.12699999809E+01 0.  1.
       -4    1    3    3    0  502 -0.76924976660E+03 -0.11027485677E+04 -0.76364124222E+03  0.15462694354E+04  0.12699999809E+01 0. -1.
</event>
<event>
 5   0  0.2381484E-06  0.1786565E+04  0.7818609E-02  0.8713477E-01
        1   -1    0    0  501    0  0.00000000000E+00  0.00000000000E+00  0.11870742534E+04  0.11870742535E+04  0.50400001928E-02 0.  1.
       -1   -1    0    0    0  501  0.00000000000E+00  0.00000000000E+00 -0.67220175214E+03  0.67220175216E+03  0.50400001928E-02 0. -1.
    10030    2    1    2    0    0  0.00000000000E+00  0.00000000000E+00  0.51487250130E+03  0.18592760056E+04  0.17865647406E+04 0.  0.
        3    1    3    3  502    0  0.34795032964E+03 -0.66729487260E+03  0.75827254525E+03  0.10683300716E+04  0.10100000352E+00 0.  1.
       -3    1    3    3    0  502 -0.34795032964E+03  0.66729487260E+03 -0.24340004395E+03  0.79094593398E+03  0.10100000352E+00 0. -1.
</event>
<event>
 5   0  0.1566576E-06  0.2268192E+04  0.7818609E-02  0.8490569E-01
       -2   -1    0    0    0  501  0.00000000000E+00  0.00000000000E+00  0.85139805476E+03  0.85139805476E+03  0.25500000920E-02 0. -1.
        2   -1    0    0  501    0  0.00000000000E+00  0.00000000000E+00 -0.15106604739E+04  0.15106604739E+04  0.25500000920E-02 0.  1.
    10030    2    1    2    0    0  0.00000000000E+00  0.00000000000E+00 -0.65926241916E+03  0.23620585287E+04  0.22681916929E+04 0.  0.
        4    1    3    3  502    0 -0.39598226297E+03  0.32058112995E+03  0.72551104068E+03  0.88653375374E+03  0.12699999809E+01 0. -1.
       -4    1    3    3    0  502  0.39598226297E+03 -0.32058112995E+03 -0.13847734598E+04  0.14755247749E+04  0.12699999809E+01 0.  1.
</event>
<event>
 5   0  0.2536619E-06  0.3666552E+04  0.7818609E-02  0.8075415E-01
        2   -1    0    0  501    0  0.00000000000E+00  0.00000000000E+00  0.15187922703E+04  0.15187922703E+04  0.25500000920E-02 0. -1.
       -2   -1    0    0    0  501  0.00000000000E+00  0.00000000000E+00 -0.22128775667E+04  0.22128775667E+04  0.25500000920E-02 0.  1.
    10030    2    1    2    0    0  0.00000000000E+00  0.00000000000E+00 -0.69408529639E+03  0.37316698369E+04  0.36665522461E+04 0.  0.
        1    1    3    3  502    0  0.43740434457E+03 -0.15759235987E+04  0.49594496071E+03  0.17090404190E+04  0.50400001928E-02 0.  1.
       -1    1    3    3    0  502 -0.43740434457E+03  0.15759235987E+04 -0.11900302571E+04  0.20226294180E+04  0.50400001928E-02 0. -1.
</event>
<event>
 5   0  0.2536619E-06  0.2188786E+04  0.7818609E-02  0.8523110E-01
       -2   -1    0    0    0  501  0.00000000000E+00  0.00000000000E+00  0.11787614444E+04  0.11787614444E+04  0.25500000920E-02 0.  1.
        2   -1    0    0  501    0  0.00000000000E+00  0.00000000000E+00 -0.10160634081E+04  0.10160634081E+04  0.25500000920E-02 0. -1.
    10030    2    1    2    0    0  0.00000000000E+00  0.00000000000E+00  0.16269803632E+03  0.21948248525E+04  0.21887863035E+04 0.  0.
        1    1    3    3  502    0 -0.40117985193E+03  0.88531809401E+02  0.10985010700E+04  0.11728119012E+04  0.50400001928E-02 0.  1.
       -1    1    3    3    0  502  0.40117985193E+03 -0.88531809401E+02 -0.93580303365E+03  0.10220129513E+04  0.50400001928E-02 0. -1.
</event>
<event>
 5   0  0.1971698E-06  0.1978510E+04  0.7818609E-02  0.8616734E-01
       -2   -1    0    0    0  501  0.00000000000E+00  0.00000000000E+00  0.78826676012E+03  0.78826676012E+03  0.25500000920E-02 0.  1.
        2   -1    0    0  501    0  0.00000000000E+00  0.00000000000E+00 -0.12414901623E+04  0.12414901623E+04  0.25500000920E-02 0. -1.
    10030    2    1    2    0    0  0.00000000000E+00  0.00000000000E+00 -0.45322340218E+03  0.20297569224E+04  0.19785099726E+04 0.  0.
        3    1    3    3  502    0 -0.70529981713E+03 -0.35738032130E+03  0.38330989978E+03  0.87868937376E+03  0.10100000352E+00 0.  1.
       -3    1    3    3    0  502  0.70529981713E+03  0.35738032130E+03 -0.83653330196E+03  0.11510675487E+04  0.10100000352E+00 0. -1.
</event>
<event>
 5   0  0.1513502E-06  0.3678879E+04  0.7818609E-02  0.8072659E-01
        2   -1    0    0  501    0  0.00000000000E+00  0.00000000000E+00  0.10559158231E+04  0.10559158231E+04  0.25500000920E-02 0. -1.
       -2   -1    0    0    0  501  0.00000000000E+00  0.00000000000E+00 -0.32043638284E+04  0.32043638284E+04  0.25500000920E-02 0.  1.
    10030    2    1    2    0    0  0.00000000000E+00  0.00000000000E+00 -0.21484480052E+04  0.42602796515E+04  0.36788794324E+04 0.  0.
        3    1    3    3  502    0  0.12996605216E+04 -0.17521857833E+03 -0.25679213102E+04  0.28834075132E+04  0.10100000352E+00 0.  1.
       -3    1    3    3    0  502 -0.12996605216E+04  0.17521857833E+03  0.41947330496E+03  0.13768721383E+04  0.10100000352E+00 0. -1.
</event>
<event>
 5   0  0.2382711E-06  0.3492212E+04  0.7818609E-02  0.8115638E-01
       -2   -1    0    0    0  501  0.00000000000E+00  0.00000000000E+00  0.13524783103E+04  0.13524783103E+04  0.25500000920E-02 0.  1.
        2   -1    0    0  501    0  0.00000000000E+00  0.00000000000E+00 -0.22542951967E+04  0.22542951967E+04  0.25500000920E-02 0. -1.
    10030    2    1    2    0    0  0.00000000000E+00  0.00000000000E+00 -0.90181688639E+03  0.36067735070E+04  0.34922115391E+04 0.  0.
        5    1    3    3  502    0 -0.36593044008E+03  0.27839895074E+03 -0.21906414592E+04  0.22383795826E+04  0.46999998093E+01 0. -1.
       -5    1    3    3    0  502  0.36593044008E+03 -0.27839895074E+03  0.12888245729E+04  0.13683939244E+04  0.46999998093E+01 0.  1.
</event>
<event>
 5   0  0.8452742E-07  0.3438186E+04  0.7818609E-02  0.8128597E-01
       -1   -1    0    0    0  501  0.00000000000E+00  0.00000000000E+00  0.14852186947E+04  0.14852186947E+04  0.50400001928E-02 0. -1.
        1   -1    0    0  501    0  0.00000000000E+00  0.00000000000E+00 -0.19897951761E+04  0.19897951762E+04  0.50400001928E-02 0.  1.
    10030    2    1    2    0    0  0.00000000000E+00  0.00000000000E+00 -0.50457648145E+03  0.34750138709E+04  0.34381861464E+04 0.  0.
        1    1    3    3  502    0 -0.33187385441E+01  0.11315284315E+04  0.10557587124E+04  0.15475768362E+04  0.50400001928E-02 0. -1.
       -1    1    3    3    0  502  0.33187385441E+01 -0.11315284315E+04 -0.15603351938E+04  0.19274370346E+04  0.50400001928E-02 0.  1.
</event>
<event>
 5   0  0.1566576E-06  0.3694264E+04  0.7818609E-02  0.8069234E-01
        2   -1    0    0  501    0  0.00000000000E+00  0.00000000000E+00  0.26988436753E+04  0.26988436753E+04  0.25500000920E-02 0. -1.
       -2   -1    0    0    0  501  0.00000000000E+00  0.00000000000E+00 -0.12642069658E+04  0.12642069658E+04  0.25500000920E-02 0.  1.
    10030    2    1    2    0    0  0.00000000000E+00  0.00000000000E+00  0.14346367095E+04  0.39630506411E+04  0.36942641886E+04 0.  0.
        4    1    3    3  502    0 -0.19882032054E+03 -0.80381930054E+03 -0.10539474745E+04  0.13403215583E+04  0.12699999809E+01 0.  1.
       -4    1    3    3    0  502  0.19882032054E+03  0.80381930054E+03  0.24885841840E+04  0.26227290828E+04  0.12699999809E+01 0. -1.
</event>
<event>
 5   0  0.8452742E-07  0.2610571E+04  0.7818609E-02  0.8364619E-01
       -1   -1    0    0    0  501  0.00000000000E+00  0.00000000000E+00  0.81272284862E+03  0.81272284864E+03  0.50400001928E-02 0. -1.
        1   -1    0    0  501    0  0.00000000000E+00  0.00000000000E+00 -0.20963731903E+04  0.20963731903E+04  0.50400001928E-02 0.  1.
    10030    2    1    2    0    0  0.00000000000E+00  0.00000000000E+00 -0.12836503417E+04  0.29090960390E+04  0.26105711184E+04 0.  0.
        1    1    3    3  502    0  0.80678211094E+03 -0.30448910663E+03 -0.17337536650E+04  0.19363658646E+04  0.50400001928E-02 0.  1.
       -1    1    3    3    0  502 -0.80678211094E+03  0.30448910663E+03  0.45010332327E+03  0.97273017442E+03  0.50400001928E-02 0. -1.
</event>
<event>
 5   0  0.2382711E-06  0.2459714E+04  0.7818609E-02  0.8417480E-01
        2   -1    0    0  501    0  0.00000000000E+00  0.00000000000E+00  0.18731268937E+04  0.18731268937E+04  0.25500000920E-02 0.  1.
       -2   -1    0    0    0  501  0.00000000000E+00  0.00000000000E+00 -0.80749912918E+03  0.80749912918E+03  0.25500000920E-02 0. -1.
    10030    2    1    2    0    0  0.00000000000E+00  0.00000000000E+00  0.10656277646E+04  0.26806260229E+04  0.24597140773E+04 0.  0.
        5    1    3    3  502    0 -0.11727837303E+04 -0.27611688705E+03  0.26395031114E+03  0.12334318263E+04  0.46999998093E+01 0. -1.
       -5    1    3    3    0  502  0.11727837303E+04  0.27611688705E+03  0.80167745343E+03  0.14471941966E+04  0.46999998093E+01 0.  1.
</event>
<event>
 5   0  0.8423692E-07  0.2019107E+04  0.7818609E-02  0.8597739E-01
        1   -1    0    0  501    0  0.00000000000E+00  0.00000000000E+00  0.22769579163E+04  0.22769579163E+04  0.50400001928E-02 0.  1.
       -1   -1    0    0    0  501  0.00000000000E+00  0.00000000000E+00 -0.44761407105E+03  0.44761407108E+03  0.50400001928E-02 0. -1.
    10030    2    1    2    0    0  0.00000000000E+00  0.00000000000E+00  0.18293438452E+04  0.27245719873E+04  0.20191071319E+04 0.  0.
        2    1    3    3  502    0  0.25847276474E+03  0.11738878830E+03  0.22219908140E+04  0.22400516680E+04  0.25500000920E-02 0.  1.
       -2    1    3    3    0  502 -0.25847276474E+03 -0.11738878830E+03 -0.39264696881E+03  0.48452031934E+03  0.25500000920E-02 0. -1.
</event>
<event>
 5   0  0.1566576E-06  0.3615305E+04  0.7818609E-02  0.8086995E-01
       -2   -1    0    0    0  501  0.00000000000E+00  0.00000000000E+00  0.18482803833E+04  0.18482803834E+04  0.25500000920E-02 0.  1.
        2   -1    0    0  501    0  0.00000000000E+00  0.00000000000E+00 -0.17679171907E+04  0.17679171907E+04  0.25500000920E-02 0. -1.
    10030    2    1    2    0    0  0.00000000000E+00  0.00000000000E+00  0.80363192656E+02  0.36161975740E+04  0.36153045033E+04 0.  0.
        4    1    3    3  502    0 -0.81244860155E+03 -0.11155041361E+04  0.12080242252E+04  0.18340518939E+04  0.12699999809E+01 0.  1.
       -4    1    3    3    0  502  0.81244860155E+03  0.11155041361E+04 -0.11276610326E+04  0.17821456801E+04  0.12699999809E+01 0. -1.
</event>
<event>
 5   0  0.7707500E-07  0.3577985E+04  0.7818609E-02  0.8095553E-01
        3   -1    0    0  501    0  0.00000000000E+00  0.00000000000E+00  0.21224880381E+04  0.21224880405E+04  0.10100000352E+00 0.  1.
       -3   -1    0    0    0  501  0.00000000000E+00  0.00000000000E+00 -0.15078974996E+04  0.15078975030E+04  0.10100000352E+00 0. -1.
    10030    2    1    2    0    0  0.00000000000E+00  0.00000000000E+00  0.61459053844E+03  0.36303855435E+04  0.35779851404E+04 0.  0.
        2    1    3    3  502    0 -0.13615698989E+04  0.54473901776E+03  0.13469384327E+04  0.19911946988E+04  0.25500000920E-02 0.  1.
       -2    1    3    3    0  502  0.13615698989E+04 -0.54473901776E+03 -0.73234789423E+03  0.16391908447E+04  0.25500000920E-02 0. -1.
</event>
<event>
 5   0  0.1908273E-06  0.2277617E+04  0.7818609E-02  0.8486799E-01
        1   -1    0    0  501    0  0.00000000000E+00  0.00000000000E+00  0.13059751891E+04  0.13059751891E+04  0.50400001928E-02 0. -1.
       -1   -1    0    0    0  501  0.00000000000E+00  0.00000000000E+00 -0.99303963569E+03  0.99303963570E+03  0.50400001928E-02 0.  1.
    10030    2    1    2    0    0  0.00000000000E+00  0.00000000000E+00  0.31293555336E+03  0.22990148248E+04  0.22776172865E+04 0.  0.
        3    1    3    3  502    0  0.46230962695E+03 -0.59177392734E+03  0.10206408442E+04  0.12671362655E+04  0.10100000352E+00 0. -1.
       -3    1    3    3    0  502 -0.46230962695E+03  0.59177392734E+03 -0.70770529083E+03  0.10318785593E+04  0.10100000352E+00 0.  1.
</event>
<event>
 5   0  0.1634374E-06  0.2518007E+04  0.7818609E-02  0.8396599E-01
       -1   -1    0    0    0  501  0.00000000000E+00  0.00000000000E+00  0.31107135774E+04  0.31107135774E+04  0.50400001928E-02 0. -1.
        1   -1    0    0  501    0  0.00000000000E+00  0.00000000000E+00 -0.50955810534E+03  0.50955810537E+03  0.50400001928E-02 0.  1.
    10030    2    1    2    0    0  0.00000000000E+00  0.00000000000E+00  0.26011554720E+04  0.36202716827E+04  0.25180066059E+04 0.  0.
        5    1    3    3  502    0  0.50775668308E+02 -0.39279442768E+03  0.30187988648E+04  0.30446731035E+04  0.46999998093E+01 0. -1.
       -5    1    3    3    0  502 -0.50775668308E+02  0.39279442768E+03 -0.41764339278E+03  0.57559857926E+03  0.46999998093E+01 0.  1.
</event>
<event>
 5   0  0.1513502E-06  0.2359047E+04  0.7818609E-02  0.8454997E-01
       -2   -1    0    0    0  501  0.00000000000E+00  0.00000000000E+00  0.63681121278E+03  0.63681121278E+03  0.25500000920E-02 0. -1.
        2   -1    0    0  501    0  0.00000000000E+00  0.00000000000E+00 -0.21847528580E+04  0.21847528580E+04  0.25500000920E-02 0.  1.
    10030    2    1    2    0    0  0.00000000000E+00  0.00000000000E+00 -0.15479416452E+04  0.28215640708E+04  0.23590465168E+04 0.  0.
        3    1    3    3  502    0 -0.12762534689E+03 -0.61310262111E+03 -0.19694889464E+04  0.20666566656E+04  0.10100000352E+00 0.  1.
       -3    1    3    3    0  502  0.12762534689E+03  0.61310262111E+03  0.42154730115E+03  0.75490740524E+03  0.10100000352E+00 0. -1.
</event>
<event>
 5   0  0.2536619E-06  0.3556016E+04  0.7818609E-02  0.8100642E-01
        2   -1    0    0  501    0  0.00000000000E+00  0.00000000000E+00  0.21638901117E+04  0.21638901117E+04  0.25500000920E-02 0.  1.
       -2   -1    0    0    0  501  0.00000000000E+00  0.00000000000E+00 -0.14609393269E+04  0.14609393269E+04  0.25500000920E-02 0. -1.
    10030    2    1    2    0    0  0.00000000000E+00  0.00000000000E+00  0.70295078473E+03  0.36248294386E+04  0.35560158399E+04 0.  0.
        1    1    3    3  502    0  0.16036643169E+04 -0.20606593156E+03  0.11054576358E+04  0.19586319190E+04  0.50400001928E-02 0. -1.
       -1    1    3    3    0  502 -0.16036643169E+04  0.20606593156E+03 -0.40250685112E+03  0.16661975197E+04  0.50400001928E-02 0.  1.
</event>
<event>
 5   0  0.2382711E-06  0.3600250E+04  0.7818609E-02  0.8090434E-01
        2   -1    0    0  501    0  0.00000000000E+00  0.00000000000E+00  0.26219335236E+04  0.26219335236E+04  0.25500000920E-02 0. -1.
       -2   -1    0    0    0  501  0.00000000000E+00  0.00000000000E+00 -0.12359007946E+04  0.12359007946E+04  0.25500000920E-02 0.  1.
    10030    2    1    2    0    0  0.00000000000E+00  0.00000000000E+00  0.13860327290E+04  0.38578343182E+04  0.36002498387E+04 0.  0.
        5    1    3    3  502    0 -0.75409191679E+03 -0.15878774992E+04  0.27743034465E+03  0.17796064895E+04  0.46999998093E+01 0.  1.
       -5    1    3    3    0  502  0.75409191679E+03  0.15878774992E+04  0.11086023843E+04  0.20782278287E+04  0.46999998093E+01 0. -1.
</event>
<event>
 5   0  0.2382711E-06  0.3516536E+04  0.7818609E-02  0.8109882E-01
        2   -1    0    0  501    0  0.00000000000E+00  0.00000000000E+00  0.24819857943E+04  0.24819857943E+04  0.25500000920E-02 0.  1.
       -2   -1    0    0    0  501  0.00000000000E+00  0.00000000000E+00 -0.12455775434E+04  0.12455775434E+04  0.25500000920E-02 0. -1.
    10030    2    1    2    0    0  0.00000000000E+00  0.00000000000E+00  0.12364082509E+04  0.37275633378E+04  0.35165356637E+04 0.  0.
        5    1    3    3  502    0  0.72224153869E+03 -0.14446701031E+04  0.13547236260E+04  0.21080803447E+04  0.46999998093E+01 0.  1.
       -5    1    3    3    0  502 -0.72224153869E+03  0.14446701031E+04 -0.11831537504E+03  0.16194829931E+04  0.46999998093E+01 0. -1.
</event>
<event>
 5   0  0.2536619E-06  0.2157131E+04  0.7818609E-02  0.8536486E-01
        2   -1    0    0  501    0  0.00000000000E+00  0.00000000000E+00  0.17120931538E+04  0.17120931538E+04  0.25500000920E-02 0. -1.
       -2   -1    0    0    0  501  0.00000000000E+00  0.00000000000E+00 -0.67946280261E+03  0.67946280261E+03  0.25500000920E-02 0.  1.
    10030    2    1    2    0    0  0.00000000000E+00  0.00000000000E+00  0.10326303512E+04  0.23915559565E+04  0.21571310694E+04 0.  0.
        1    1    3    3  502    0 -0.60655308875E+03 -0.89128340856E+03  0.55156420055E+03  0.12109978659E+04  0.50400001928E-02 0.  1.
       -1    1    3    3    0  502  0.60655308875E+03  0.89128340856E+03  0.48106615068E+03  0.11805580906E+04  0.50400001928E-02 0. -1.
</event>
<event>
 5   0  0.2536619E-06  0.2549248E+04  0.7818609E-02  0.8385648E-01
       -2   -1    0    0    0  501  0.00000000000E+00  0.00000000000E+00  0.15251701425E+04  0.15251701425E+04  0.25500000920E-02 0. -1.
        2   -1    0    0  501    0  0.00000000000E+00  0.00000000000E+00 -0.10652364910E+04  0.10652364910E+04  0.25500000920E-02 0.  1.
    10030    2    1    2    0    0  0.00000000000E+00  0.00000000000E+00  0.45993365158E+03  0.25904066335E+04  0.25492484310E+04 0.  0.
        1    1    3    3  502    0 -0.73004536786E+03 -0.80500952661E+03 -0.44686547073E+03  0.11750299256E+04  0.50400001928E-02 0.  1.
       -1    1    3    3    0  502  0.73004536786E+03  0.80500952661E+03  0.90679912231E+03  0.14153767079E+04  0.50400001928E-02 0. -1.
</event>
<event>
 5   0  0.1513502E-06  0.3593029E+04  0.7818609E-02  0.8092090E-01
        2   -1    0    0  501    0  0.00000000000E+00  0.00000000000E+00  0.11814921521E+04  0.11814921521E+04  0.25500000920E-02 0.  1.
       -2   -1    0    0    0  501  0.00000000000E+00  0.00000000000E+00 -0.27316850854E+04  0.27316850854E+04  0.25500000920E-02 0. -1.
    10030    2    1    2    0    0  0.00000000000E+00  0.00000000000E+00 -0.15501929333E+04  0.39131772375E+04  0.35930290789E+04 0.  0.
        3    1    3    3  502    0 -0.12908274938E+04  0.11961904716E+04 -0.38187580749E+03  0.18008154835E+04  0.10100000352E+00 0. -1.
       -3    1    3    3    0  502  0.12908274938E+04 -0.11961904716E+04 -0.11683171258E+04  0.21123617540E+04  0.10100000352E+00 0.  1.
</event>
<event>
 5   0  0.8423692E-07  0.2695249E+04  0.7818609E-02  0.8336548E-01
        1   -1    0    0  501    0  0.00000000000E+00  0.00000000000E+00  0.23145420237E+04  0.23145420237E+04  0.50400001928E-02 0.  1.
       -1   -1    0    0    0  501  0.00000000000E+00  0.00000000000E+00 -0.78464418722E+03  0.78464418724E+03  0.50400001928E-02 0. -1.
    10030    2    1    2    0    0  0.00000000000E+00  0.00000000000E+00  0.15298978365E+04  0.30991862110E+04  0.26952491128E+04 0.  0.
        2    1    3    3  502    0 -0.31208708883E+03 -0.18044437421E+03 -0.72817113333E+03  0.81252182901E+03  0.25500000920E-02 0. -1.
       -2    1    3    3    0  502  0.31208708883E+03  0.18044437421E+03  0.22580689698E+04  0.22866643820E+04  0.25500000920E-02 0.  1.
</event>
<event>
 5   0  0.8423692E-07  0.2507077E+04  0.7818609E-02  0.8400469E-01
       -1   -1    0    0    0  501  0.00000000000E+00  0.00000000000E+00  0.87598396622E+03  0.87598396623E+03  0.50400001928E-02 0. -1.
        1   -1    0    0  501    0  0.00000000000E+00  0.00000000000E+00 -0.17938217575E+04  0.17938217575E+04  0.50400001928E-02 0.  1.
    10030    2    1    2    0    0  0.00000000000E+00  0.00000000000E+00 -0.91783779127E+03  0.26698057237E+04  0.25070772607E+04 0.  0.
        2    1    3    3  502    0 -0.32363049811E+03  0.87951576617E+02  0.82732331291E+03  0.89271274396E+03  0.25500000920E-02 0. -1.
       -2    1    3    3    0  502  0.32363049811E+03 -0.87951576617E+02 -0.17451611042E+04  0.17770929798E+04  0.25500000920E-02 0.  1.
</event>
<event>
 5   0  0.7754556E-07  0.2200619E+04  0.7818609E-02  0.8518171E-01
        1   -1    0    0  501    0  0.00000000000E+00  0.00000000000E+00  0.11842912162E+04  0.11842912163E+04  0.50400001928E-02 0. -1.
       -1   -1    0    0    0  501  0.00000000000E+00  0.00000000000E+00 -0.10222827745E+04  0.10222827745E+04  0.50400001928E-02 0.  1.
    10030    2    1    2    0    0  0.00000000000E+00  0.00000000000E+00  0.16200844172E+03  0.22065739908E+04  0.22006185589E+04 0.  0.
        4    1    3    3  502    0 -0.81831196224E+03  0.46376021158E+03  0.65348793531E+03  0.11453192113E+04  0.12699999809E+01 0. -1.
       -4    1    3    3    0  502  0.81831196224E+03 -0.46376021158E+03 -0.49147949359E+03  0.10612547795E+04  0.12699999809E+01 0.  1.
</event>
<event>
 5   0  0.1513502E-06  0.3722567E+04  0.7818609E-02  0.8062979E-01
       -2   -1    0    0    0  501  0.00000000000E+00  0.00000000000E+00  0.23309123855E+04  0.23309123855E+04  0.25500000920E-02 0.  1.
        2   -1    0    0  501    0  0.00000000000E+00  0.00000000000E+00 -0.14862745825E+04  0.14862745825E+04  0.25500000920E-02 0. -1.
    10030    2    1    2    0    0  0.00000000000E+00  0.00000000000E+00  0.84463780305E+03  0.38171869680E+04  0.37225667664E+04 0.  0.
        3    1    3    3  502    0  0.16164842512E+04 -0.26031219956E+03  0.13300264484E+04  0.21094440356E+04  0.10100000352E+00 0.  1.
       -3    1    3    3    0  502 -0.16164842512E+04  0.26031219956E+03 -0.48538864540E+03  0.17077429324E+04  0.10100000352E+00 0. -1.
</event>
<event>
 5   0  0.8452742E-07  0.3576153E+04  0.7818609E-02  0.8095976E-01
       -1   -1    0    0    0  501  0.00000000000E+00  0.00000000000E+00  0.12691948971E+04  0.12691948971E+04  0.50400001928E-02 0. -1.
        1   -1    0    0  501    0  0.00000000000E+00  0.00000000000E+00 -0.25190909536E+04  0.25190909536E+04  0.50400001928E-02 0.  1.
    10030    2    1    2    0    0  0.00000000000E+00  0.00000000000E+00 -0.12498960565E+04  0.37882858507E+04  0.35761528959E+04 0.  0.
        1    1    3    3  502    0 -0.14550075356E+04  0.49375585564E+02  0.47477205071E+03  0.15313044691E+04  0.50400001928E-02 0. -1.
       -1    1    3    3    0  502  0.14550075356E+04 -0.49375585564E+02 -0.17246681072E+04  0.22569813816E+04  0.50400001928E-02 0.  1.
</event>
<event>
 5   0  0.1513502E-06  0.3580611E+04  0.7818609E-02  0.8094948E-01
       -2   -1    0    0    0  501  0.00000000000E+00  0.00000000000E+00  0.29920941854E+04  0.29920941854E+04  0.25500000920E-02 0.  1.
        2   -1    0    0  501    0  0.00000000000E+00  0.00000000000E+00 -0.10712206672E+04  0.10712206672E+04  0.25500000920E-02 0. -1.
    10030    2    1    2    0    0  0.00000000000E+00  0.00000000000E+00  0.19208735182E+04  0.40633148527E+04  0.35806106349E+04 0.  0.
        3    1    3    3  502    0 -0.10997145186E+04  0.41360260101E+03 -0.57250458986E+03  0.13069815031E+04  0.10100000352E+00 0. -1.
       -3    1    3    3    0  502  0.10997145186E+04 -0.41360260101E+03  0.24933781081E+04  0.27563333496E+04  0.10100000352E+00 0.  1.
</event>
<event>
 5   0  0.1566576E-06  0.3574141E+04  0.7818609E-02  0.8096441E-01
       -2   -1    0    0    0  501  0.00000000000E+00  0.00000000000E+00  0.14809713554E+04  0.14809713554E+04  0.25500000920E-02 0. -1.
        2   -1    0    0  501    0  0.00000000000E+00  0.00000000000E+00 -0.21564367978E+04  0.21564367978E+04  0.25500000920E-02 0.  1.
    10030    2    1    2    0    0  0.00000000000E+00  0.00000000000E+00 -0.67546544243E+03  0.36374081532E+04  0.35741410869E+04 0.  0.
        4    1    3    3  502    0  0.10754067778E+04  0.89798760978E+03  0.79129122720E+03  0.16090447179E+04  0.12699999809E+01 0. -1.
       -4    1    3    3    0  502 -0.10754067778E+04 -0.89798760978E+03 -0.14667566696E+04  0.20283634353E+04  0.12699999809E+01 0.  1.
</event>
<event>
 5   0  0.1566576E-06  0.3114326E+04  0.7818609E-02  0.8211817E-01
       -2   -1    0    0    0  501  0.00000000000E+00  0.00000000000E+00  0.11944252326E+04  0.11944252326E+04  0.25500000920E-02 0. -1.
        2   -1    0    0  501    0  0.00000000000E+00  0.00000000000E+00 -0.20300612975E+04  0.20300612975E+04  0.25500000920E-02 0.  1.
    10030    2    1    2    0    0  0.00000000000E+00  0.00000000000E+00 -0.83563606490E+03  0.32244865301E+04  0.31143258901E+04 0.  0.
        4    1    3    3  502    0  0.11045301418E+04  0.10477907305E+04 -0.79293150886E+02  0.15245134522E+04  0.12699999809E+01 0. -1.
       -4    1    3    3    0  502 -0.11045301418E+04 -0.10477907305E+04 -0.75634291401E+03  0.16999730779E+04  0.12699999809E+01 0.  1.
</event>
<event>
 5   0  0.1513502E-06  0.3618209E+04  0.7818609E-02  0.8086334E-01
        2   -1    0    0  501    0  0.00000000000E+00  0.00000000000E+00  0.22168475523E+04  0.22168475523E+04  0.25500000920E-02 0. -1.
       -2   -1    0    0    0  501  0.00000000000E+00  0.00000000000E+00 -0.14763569105E+04  0.14763569105E+04  0.25500000920E-02 0.  1.
    10030    2    1    2    0    0  0.00000000000E+00  0.00000000000E+00  0.74049064178E+03  0.36932044628E+04  0.36182085089E+04 0.  0.
        3    1    3    3  502    0 -0.16419787972E+03 -0.53851340790E+03  0.21251546023E+04  0.21984630377E+04  0.10100000352E+00 0. -1.
       -3    1    3    3    0  502  0.16419787972E+03  0.53851340790E+03 -0.13846639605E+04  0.14947414251E+04  0.10100000352E+00 0.  1.
</event>
<event>
 5   0  0.8423692E-07  0.3645783E+04  0.7818609E-02  0.8080084E-01
        1   -1    0    0  501    0  0.00000000000E+00  0.00000000000E+00  0.27289390613E+04  0.27289390613E+04  0.50400001928E-02 0. -1.
       -1   -1    0    0    0  501  0.00000000000E+00  0.00000000000E+00 -0.12176648865E+04  0.12176648865E+04  0.50400001928E-02 0.  1.
    10030    2    1    2    0    0  0.00000000000E+00  0.00000000000E+00  0.15112741748E+04  0.39466039478E+04  0.36457829186E+04 0.  0.
        2    1    3    3  502    0 -0.13254735837E+04  0.59618369012E+03  0.19467044221E+04  0.24293977279E+04  0.25500000920E-02 0. -1.
       -2    1    3    3    0  502  0.13254735837E+04 -0.59618369012E+03 -0.43543024729E+03  0.15172062199E+04  0.25500000920E-02 0.  1.
</event>
<event>
 5   0  0.1566576E-06  0.3517745E+04  0.7818609E-02  0.8109597E-01
       -2   -1    0    0    0  501  0.00000000000E+00  0.00000000000E+00  0.13039628427E+04  0.13039628427E+04  0.25500000920E-02 0. -1.
        2   -1    0    0  501    0  0.00000000000E+00  0.00000000000E+00 -0.23724856686E+04  0.23724856686E+04  0.25500000920E-02 0.  1.
    10030    2    1    2    0    0  0.00000000000E+00  0.00000000000E+00 -0.10685228259E+04  0.36764485113E+04  0.35177453897E+04 0.  0.
        4    1    3    3  502    0 -0.32224015755E+03 -0.13839381949E+04 -0.16176116717E+04  0.21530891249E+04  0.12699999809E+01 0.  1.
       -4    1    3    3    0  502  0.32224015755E+03  0.13839381949E+04  0.54908884583E+03  0.15233593863E+04  0.12699999809E+01 0. -1.
</event>
<event>
 5   0  0.7754556E-07  0.2409481E+04  0.7818609E-02  0.8435962E-01
        1   -1    0    0  501    0  0.00000000000E+00  0.00000000000E+00  0.15257831146E+04  0.15257831147E+04  0.50400001928E-02 0. -1.
       -1   -1    0    0    0  501  0.00000000000E+00  0.00000000000E+00 -0.95124938183E+03  0.95124938184E+03  0.50400001928E-02 0.  1.
    10030    2    1    2    0    0  0.00000000000E+00  0.00000000000E+00  0.57453373282E+03  0.24770324965E+04  0.24094814750E+04 0.  0.
        4    1    3    3  502    0 -0.83265191707E+03 -0.73101742768E+03  0.77349933481E+03  0.13512951300E+04  0.12699999809E+01 0.  1.
       -4    1    3    3    0  502  0.83265191707E+03  0.73101742768E+03 -0.19896560200E+03  0.11257373665E+04  0.12699999809E+01 0. -1.
</event>
<event>
 5   0  0.2382711E-06  0.3494280E+04  0.7818609E-02  0.8115147E-01
       -2   -1    0    0    0  501  0.00000000000E+00  0.00000000000E+00  0.16718321678E+04  0.16718321678E+04  0.25500000920E-02 0.  1.
        2   -1    0    0  501    0  0.00000000000E+00  0.00000000000E+00 -0.18258401133E+04  0.18258401133E+04  0.25500000920E-02 0. -1.
    10030    2    1    2    0    0  0.00000000000E+00  0.00000000000E+00 -0.15400794548E+03  0.34976722810E+04  0.34942800315E+04 0.  0.
        5    1    3    3  502    0 -0.36246640334E+03 -0.64822729318E+03  0.15059532999E+04  0.16791360721E+04  0.46999998093E+01 0.  1.
       -5    1    3    3    0  502  0.36246640334E+03  0.64822729318E+03 -0.16599612454E+04  0.18185362089E+04  0.46999998093E+01 0. -1.
</event>
<event>
 5   0  0.2382711E-06  0.3575034E+04  0.7818609E-02  0.8096234E-01
       -2   -1    0    0    0  501  0.00000000000E+00  0.00000000000E+00  0.13370076303E+04  0.13370076303E+04  0.25500000920E-02 0. -1.
        2   -1    0    0  501    0  0.00000000000E+00  0.00000000000E+00 -0.23898271429E+04  0.23898271429E+04  0.25500000920E-02 0.  1.
    10030    2    1    2    0    0  0.00000000000E+00  0.00000000000E+00 -0.10528195127E+04  0.37268347732E+04  0.35750340559E+04 0.  0.
        5    1    3    3  502    0 -0.33790767941E+03  0.33128091953E+03 -0.23233380659E+04  0.23710441805E+04  0.46999998093E+01 0.  1.
       -5    1    3    3    0  502  0.33790767941E+03 -0.33128091953E+03  0.12705185532E+04  0.13557905928E+04  0.46999998093E+01 0. -1.
</event>
<event>
 5   0  0.7754556E-07  0.3401641E+04  0.7818609E-02  0.8137504E-01
        1   -1    0    0  501    0  0.00000000000E+00  0.00000000000E+00  0.16591883985E+04  0.16591883985E+04  0.50400001928E-02 0.  1.
       -1   -1    0    0    0  501  0.00000000000E+00  0.00000000000E+00 -0.17434976698E+04  0.17434976699E+04  0.50400001928E-02 0. -1.
    10030    2    1    2    0    0  0.00000000000E+00  0.00000000000E+00 -0.84309271309E+02  0.34026860684E+04  0.34016414313E+04 0.  0.
        4    1    3    3  502    0 -0.40012384053E+03 -0.53311251635E+03 -0.16073975974E+04  0.17401254816E+04  0.12699999809E+01 0. -1.
       -4    1    3    3    0  502  0.40012384053E+03  0.53311251635E+03  0.15230883261E+04  0.16625605868E+04  0.12699999809E+01 0.  1.
</event>
<event>
 5   0  0.8423692E-07  0.3480824E+04  0.7818609E-02  0.8118350E-01
        1   -1    0    0  501    0  0.00000000000E+00  0.00000000000E+00  0.12844251668E+04  0.12844251668E+04  0.50400001928E-02 0. -1.
       -1   -1    0    0    0  501  0.00000000000E+00  0.00000000000E+00 -0.23582793105E+04  0.23582793105E+04  0.50400001928E-02 0.  1.
    10030    2    1    2    0    0  0.00000000000E+00  0.00000000000E+00 -0.10738541437E+04  0.36427044773E+04  0.34808236363E+04 0.  0.
        2    1    3    3  502    0 -0.74844461155E+03  0.12882065100E+04  0.40457284673E+03  0.15438019748E+04  0.25500000920E-02 0. -1.
       -2    1    3    3    0  502  0.74844461155E+03 -0.12882065100E+04 -0.14784269904E+04  0.20989025025E+04  0.25500000920E-02 0.  1.
</event>
<event>
 5   0  0.1566576E-06  0.1876629E+04  0.7818609E-02  0.8666578E-01
       -2   -1    0    0    0  501  0.00000000000E+00  0.00000000000E+00  0.58220762611E+03  0.58220762612E+03  0.25500000920E-02 0. -1.
        2   -1    0    0  501    0  0.00000000000E+00  0.00000000000E+00 -0.15122331459E+04  0.15122331459E+04  0.25500000920E-02 0.  1.
    10030    2    1    2    0    0  0.00000000000E+00  0.00000000000E+00 -0.93002551982E+03  0.20944407721E+04  0.18766285408E+04 0.  0.
        4    1    3    3  502    0 -0.44455371246E+03 -0.44395150277E+03  0.31280667157E+03  0.70183371731E+03  0.12699999809E+01 0. -1.
       -4    1    3    3    0  502  0.44455371246E+03  0.44395150277E+03 -0.12428321914E+04  0.13926070547E+04  0.12699999809E+01 0.  1.
</event>
<event>
 5   0  0.1574412E-06  0.1866148E+04  0.7818609E-02  0.8671893E-01
        2   -1    0    0  501    0  0.00000000000E+00  0.00000000000E+00  0.78533509592E+03  0.78533509592E+03  0.25500000920E-02 0.  1.
       -2   -1    0    0    0  501  0.00000000000E+00  0.00000000000E+00 -0.11086059889E+04  0.11086059889E+04  0.25500000920E-02 0. -1.
    10030    2    1    2    0    0  0.00000000000E+00  0.00000000000E+00 -0.32327089294E+03  0.18939410848E+04  0.18661481084E+04 0.  0.
        4    1    3    3  502    0  0.44798542545E+03  0.73448835429E+03  0.20493844469E+03  0.88440118895E+03  0.12699999809E+01 0.  1.
       -4    1    3    3    0  502 -0.44798542545E+03 -0.73448835429E+03 -0.52820933763E+03  0.10095398958E+04  0.12699999809E+01 0. -1.
</event>
<event>
 5   0  0.1908273E-06  0.2056820E+04  0.7818609E-02  0.8580507E-01
        1   -1    0    0  501    0  0.00000000000E+00  0.00000000000E+00  0.12677997808E+04  0.12677997809E+04  0.50400001928E-02 0. -1.
       -1   -1    0    0    0  501  0.00000000000E+00  0.00000000000E+00 -0.83422259891E+03  0.83422259893E+03  0.50400001928E-02 0.  1.
    10030    2    1    2    0    0  0.00000000000E+00  0.00000000000E+00  0.43357718194E+03  0.21020223798E+04  0.20568200972E+04 0.  0.
        3    1    3    3  502    0  0.64428403748E+03  0.60124012362E+03 -0.32498983281E+03  0.93926035200E+03  0.10100000352E+00 0.  1.
       -3    1    3    3    0  502 -0.64428403748E+03 -0.60124012362E+03  0.75856701475E+03  0.11627620278E+04  0.10100000352E+00 0. -1.
</event>
<event>
 5   0  0.2422436E-06  0.2150381E+04  0.7818609E-02  0.8539369E-01
       -2   -1    0    0    0  501  0.00000000000E+00  0.00000000000E+00  0.80979338306E+03  0.80979338307E+03  0.25500000920E-02 0. -1.
        2   -1    0    0  501    0  0.00000000000E+00  0.00000000000E+00 -0.14275677788E+04  0.14275677788E+04  0.25500000920E-02 0.  1.
    10030    2    1    2    0    0  0.00000000000E+00  0.00000000000E+00 -0.61777439574E+03  0.22373611619E+04  0.21503813068E+04 0.  0.
        2    1    3    3  502    0 -0.59339196673E+03 -0.49123370114E+03 -0.10893001771E+04  0.13341662007E+04  0.25500000920E-02 0.  1.
       -2    1    3    3    0  502  0.59339196673E+03  0.49123370114E+03  0.47152578138E+03  0.90319496114E+03  0.25500000920E-02 0. -1.
</event>
<event>
 5   0  0.1634374E-06  0.2971000E+04  0.7818609E-02  0.8252061E-01
       -1   -1    0    0    0  501  0.00000000000E+00  0.00000000000E+00  0.14537334246E+04  0.14537334246E+04  0.50400001928E-02 0.  1.
        1   -1    0    0  501    0  0.00000000000E+00  0.00000000000E+00 -0.15179602466E+04  0.15179602466E+04  0.50400001928E-02 0. -1.
    10030    2    1    2    0    0  0.00000000000E+00  0.00000000000E+00 -0.64226821991E+02  0.29716936712E+04  0.29709995272E+04 0.  0.
        5    1    3    3  502    0 -0.98838679579E+03 -0.96641883749E+03 -0.57612800083E+03  0.14976045509E+04  0.46999998093E+01 0. -1.
       -5    1    3    3    0  502  0.98838679579E+03  0.96641883749E+03  0.51190117884E+03  0.14740891203E+04  0.46999998093E+01 0.  1.
</event>
<event>
 5   0  0.1566576E-06  0.3553471E+04  0.7818609E-02  0.8101234E-01
        2   -1    0    0  501    0  0.00000000000E+00  0.00000000000E+00  0.25553646188E+04  0.25553646188E+04  0.25500000920E-02 0. -1.
       -2   -1    0    0    0  501  0.00000000000E+00  0.00000000000E+00 -0.12353576216E+04  0.12353576216E+04  0.25500000920E-02 0.  1.
    10030    2    1    2    0    0  0.00000000000E+00  0.00000000000E+00  0.13200069972E+04  0.37907222403E+04  0.35534710679E+04 0.  0.
        4    1    3    3  502    0 -0.28988239279E+03  0.16971335191E+04  0.19196962783E+03  0.17323821560E+04  0.12699999809E+01 0.  1.
       -4    1    3    3    0  502  0.28988239279E+03 -0.16971335191E+04  0.11280373694E+04  0.20583400844E+04  0.12699999809E+01 0. -1.
</event>
<event>
 5   0  0.1566576E-06  0.1927003E+04  0.7818609E-02  0.8641531E-01
       -2   -1    0    0    0  501  0.00000000000E+00  0.00000000000E+00  0.15744611457E+04  0.15744611457E+04  0.25500000920E-02 0. -1.
        2   -1    0    0  501    0  0.00000000000E+00  0.00000000000E+00 -0.58962103699E+03  0.58962103700E+03  0.25500000920E-02 0.  1.
    10030    2    1    2    0    0  0.00000000000E+00  0.00000000000E+00  0.98484010870E+03  0.21640821827E+04  0.19270032833E+04 0.  0.
        4    1    3    3  502    0 -0.68736339679E+03  0.56623088027E+03  0.79413786369E+02  0.89408836889E+03  0.12699999809E+01 0.  1.
       -4    1    3    3    0  502  0.68736339679E+03 -0.56623088027E+03  0.90542632234E+03  0.12699938138E+04  0.12699999809E+01 0. -1.
</event>
<event>
 5   0  0.1908273E-06  0.3500212E+04  0.7818609E-02  0.8113740E-01
       -1   -1    0    0    0  501  0.00000000000E+00  0.00000000000E+00  0.11424123915E+04  0.11424123915E+04  0.50400001928E-02 0. -1.
        1   -1    0    0  501    0  0.00000000000E+00  0.00000000000E+00 -0.26810549876E+04  0.26810549877E+04  0.50400001928E-02 0.  1.
    10030    2    1    2    0    0  0.00000000000E+00  0.00000000000E+00 -0.15386425961E+04  0.38234673792E+04  0.35002116738E+04 0.  0.
        3    1    3    3  502    0 -0.31771965724E+03 -0.15627959420E+04 -0.15567204310E+04  0.22285994363E+04  0.10100000352E+00 0.  1.
       -3    1    3    3    0  502  0.31771965724E+03  0.15627959420E+04  0.18077834889E+02  0.15948679429E+04  0.10100000352E+00 0. -1.
</event>
<event>
 5   0  0.1566576E-06  0.3022152E+04  0.7818609E-02  0.8237433E-01
       -2   -1    0    0    0  501  0.00000000000E+00  0.00000000000E+00  0.98090063330E+03  0.98090063331E+03  0.25500000920E-02 0.  1.
        2   -1    0    0  501    0  0.00000000000E+00  0.00000000000E+00 -0.23278106939E+04  0.23278106939E+04  0.25500000920E-02 0. -1.
    10030    2    1    2    0    0  0.00000000000E+00  0.00000000000E+00 -0.13469100606E+04  0.33087113272E+04  0.30221522026E+04 0.  0.
        4    1    3    3  502    0 -0.49857642742E+03 -0.12293346114E+04  0.11868859055E+03  0.13318898735E+04  0.12699999809E+01 0.  1.
       -4    1    3    3    0  502  0.49857642742E+03  0.12293346114E+04 -0.14655986512E+04  0.19768214537E+04  0.12699999809E+01 0. -1.
</event>
<event>
 5   0  0.1513502E-06  0.2682282E+04  0.7818609E-02  0.8340777E-01
        2   -1    0    0  501    0  0.00000000000E+00  0.00000000000E+00  0.11402744544E+04  0.11402744544E+04  0.25500000920E-02 0. -1.
       -2   -1    0    0    0  501  0.00000000000E+00  0.00000000000E+00 -0.15773912880E+04  0.15773912880E+04  0.25500000920E-02 0.  1.
    10030    2    1    2    0    0  0.00000000000E+00  0.00000000000E+00 -0.43711683358E+03  0.27176657424E+04  0.26822818571E+04 0.  0.
        3    1    3    3  502    0  0.76626118385E+03  0.97489482508E+03 -0.73626156634E+03  0.14421016698E+04  0.10100000352E+00 0.  1.
       -3    1    3    3    0  502 -0.76626118385E+03 -0.97489482508E+03  0.29914473276E+03  0.12755640725E+04  0.10100000352E+00 0. -1.
</event>
<event>
 5   0  0.2536619E-06  0.3304037E+04  0.7818609E-02  0.8161869E-01
        2   -1    0    0  501    0  0.00000000000E+00  0.00000000000E+00  0.15414326134E+04  0.15414326134E+04  0.25500000920E-02 0. -1.
       -2   -1    0    0    0  501  0.00000000000E+00  0.00000000000E+00 -0.17705376231E+04  0.17705376231E+04  0.25500000920E-02 0.  1.
    10030    2    1    2    0    0  0.00000000000E+00  0.00000000000E+00 -0.22910500975E+03  0.33119702365E+04  0.33040365830E+04 0.  0.
        1    1    3    3  502    0 -0.11114881553E+04 -0.11575719009E+04  0.27854447840E+03  0.16287926975E+04  0.50400001928E-02 0. -1.
       -1    1    3    3    0  502  0.11114881553E+04  0.11575719009E+04 -0.50764948815E+03  0.16831775390E+04  0.50400001928E-02 0.  1.
</event>
<event>
 5   0  0.8423692E-07  0.3636828E+04  0.7818609E-02  0.8082107E-01
        1   -1    0    0  501    0  0.00000000000E+00  0.00000000000E+00  0.21355620136E+04  0.21355620136E+04  0.50400001928E-02 0.  1.
       -1   -1    0    0    0  501  0.00000000000E+00  0.00000000000E+00 -0.15483653010E+04  0.15483653010E+04  0.50400001928E-02 0. -1.
    10030    2    1    2    0    0  0.00000000000E+00  0.00000000000E+00  0.58719671260E+03  0.36839273145E+04  0.36368283544E+04 0.  0.
        2    1    3    3  502    0  0.14364279286E+04 -0.10729520442E+04 -0.13776374050E+02  0.17929699026E+04  0.25500000920E-02 0. -1.
       -2    1    3    3    0  502 -0.14364279286E+04  0.10729520442E+04  0.60097308665E+03  0.18909574120E+04  0.25500000920E-02 0.  1.
</event>
<event>
 5   0  0.1566576E-06  0.3579994E+04  0.7818609E-02  0.8095090E-01
       -2   -1    0    0    0  501  0.00000000000E+00  0.00000000000E+00  0.12411107169E+04  0.12411107169E+04  0.25500000920E-02 0.  1.
        2   -1    0    0  501    0  0.00000000000E+00  0.00000000000E+00 -0.25816302695E+04  0.25816302695E+04  0.25500000920E-02 0. -1.
    10030    2    1    2    0    0  0.00000000000E+00  0.00000000000E+00 -0.13405195526E+04  0.38227409864E+04  0.35799938517E+04 0.  0.
        4    1    3    3  502    0  0.54514661187E+03 -0.56025761231E+03 -0.23897314262E+04  0.25143371538E+04  0.12699999809E+01 0. -1.
       -4    1    3    3    0  502 -0.54514661187E+03  0.56025761231E+03  0.10492118736E+04  0.13084038326E+04  0.12699999809E+01 0.  1.
</event>
<event>
 5   0  0.7707500E-07  0.2488949E+04  0.7818609E-02  0.8406933E-01
       -4   -1    0    0    0  501  0.00000000000E+00  0.00000000000E+00  0.10040351736E+04  0.10040359768E+04  0.12699999809E+01 0.  1.
        4   -1    0    0  501    0  0.00000000000E+00  0.00000000000E+00 -0.15424910577E+04  0.15424915805E+04  0.12699999809E+01 0. -1.
    10030    2    1    2    0    0  0.00000000000E+00  0.00000000000E+00 -0.53845588408E+03  0.25465275573E+04  0.24889491480E+04 0.  0.
        1    1    3    3  502    0  0.15906315927E+03  0.12648750767E+03 -0.15253997153E+04  0.15388776656E+04  0.50400001928E-02 0. -1.
       -1    1    3    3    0  502 -0.15906315927E+03 -0.12648750767E+03  0.98694383123E+03  0.10076498917E+04  0.50400001928E-02 0.  1.
</event>
<event>
 5   0  0.2536619E-06  0.2604322E+04  0.7818609E-02  0.8366735E-01
        2   -1    0    0  501    0  0.00000000000E+00  0.00000000000E+00  0.10253080157E+04  0.10253080157E+04  0.25500000920E-02 0.  1.
       -2   -1    0    0    0  501  0.00000000000E+00  0.00000000000E+00 -0.16537698082E+04  0.16537698082E+04  0.25500000920E-02 0. -1.
    10030    2    1    2    0    0  0.00000000000E+00  0.00000000000E+00 -0.62846179254E+03  0.26790778239E+04  0.26043221309E+04 0.  0.
        1    1    3    3  502    0 -0.20971903275E+03  0.12346704175E+04 -0.68116320283E+03  0.14256144014E+04  0.50400001928E-02 0. -1.
       -1    1    3    3    0  502  0.20971903275E+03 -0.12346704175E+04  0.52701410286E+02  0.12534634224E+04  0.50400001928E-02 0.  1.
</event>
<event>
 5   0  0.8423692E-07  0.3597582E+04  0.7818609E-02  0.8091046E-01
        1   -1    0    0  501    0  0.00000000000E+00  0.00000000000E+00  0.16488975669E+04  0.16488975669E+04  0.50400001928E-02 0.  1.
       -1   -1    0    0    0  501  0.00000000000E+00  0.00000000000E+00 -0.19623110044E+04  0.19623110044E+04  0.50400001928E-02 0. -1.
    10030    2    1    2    0    0  0.00000000000E+00  0.00000000000E+00 -0.31341343744E+03  0.36112085713E+04  0.35975824331E+04 0.  0.
        2    1    3    3  502    0  0.28544019418E+03 -0.17483705582E+04 -0.46993690437E+03  0.18327892425E+04  0.25500000920E-02 0.  1.
       -2    1    3    3    0  502 -0.28544019418E+03  0.17483705582E+04  0.15652346694E+03  0.17784193288E+04  0.25500000920E-02 0. -1.
</event>
<event>
 5   0  0.7754556E-07  0.3520867E+04  0.7818609E-02  0.8108862E-01
       -1   -1    0    0    0  501  0.00000000000E+00  0.00000000000E+00  0.13075071978E+04  0.13075071978E+04  0.50400001928E-02 0.  1.
        1   -1    0    0  501    0  0.00000000000E+00  0.00000000000E+00 -0.23702556129E+04  0.23702556129E+04  0.50400001928E-02 0. -1.
    10030    2    1    2    0    0  0.00000000000E+00  0.00000000000E+00 -0.10627484151E+04  0.36777628106E+04  0.35208670946E+04 0.  0.
        4    1    3    3  502    0 -0.17202916206E+03 -0.17401818568E+04 -0.74364839957E+03  0.19002214299E+04  0.12699999809E+01 0. -1.
       -4    1    3    3    0  502  0.17202916206E+03  0.17401818568E+04 -0.31910001552E+03  0.17775413808E+04  0.12699999809E+01 0.  1.
</event>
<event>
 5   0  0.2536619E-06  0.3559660E+04  0.7818609E-02  0.8099795E-01
        2   -1    0    0  501    0  0.00000000000E+00  0.00000000000E+00  0.21116293366E+04  0.21116293366E+04  0.25500000920E-02 0. -1.
       -2   -1    0    0    0  501  0.00000000000E+00  0.00000000000E+00 -0.15001660970E+04  0.15001660970E+04  0.25500000920E-02 0.  1.
    10030    2    1    2    0    0  0.00000000000E+00  0.00000000000E+00  0.61146323961E+03  0.36117954335E+04  0.35596599501E+04 0.  0.
        1    1    3    3  502    0  0.69555130819E+03 -0.13029159184E+03 -0.13512906920E+04  0.15253701372E+04  0.50400001928E-02 0.  1.
       -1    1    3    3    0  502 -0.69555130819E+03  0.13029159184E+03  0.19627539316E+04  0.20864252963E+04  0.50400001928E-02 0. -1.
</event>
<event>
 5   0  0.1566576E-06  0.3519240E+04  0.7818609E-02  0.8109245E-01
        2   -1    0    0  501    0  0.00000000000E+00  0.00000000000E+00  0.21606273425E+04  0.21606273425E+04  0.25500000920E-02 0.  1.
       -2   -1    0    0    0  501  0.00000000000E+00  0.00000000000E+00 -0.14330385033E+04  0.14330385033E+04  0.25500000920E-02 0. -1.
    10030    2    1    2    0    0  0.00000000000E+00  0.00000000000E+00  0.72758883916E+03  0.35936658458E+04  0.35192397890E+04 0.  0.
        4    1    3    3  502    0 -0.80862865776E+03 -0.82133555776E+03  0.17214948097E+04  0.20717187062E+04  0.12699999809E+01 0.  1.
       -4    1    3    3    0  502  0.80862865776E+03  0.82133555776E+03 -0.99390597058E+03  0.15219471396E+04  0.12699999809E+01 0. -1.
</event>
<event>
 5   0  0.7707500E-07  0.2256738E+04  0.7818609E-02  0.8495177E-01
        3   -1    0    0  501    0  0.00000000000E+00  0.00000000000E+00  0.54214629946E+03  0.54214630887E+03  0.10100000352E+00 0.  1.
       -3   -1    0    0    0  501  0.00000000000E+00  0.00000000000E+00 -0.23484747346E+04  0.23484747368E+04  0.10100000352E+00 0. -1.
    10030    2    1    2    0    0  0.00000000000E+00  0.00000000000E+00 -0.18063284351E+04  0.28906210457E+04  0.22567382688E+04 0.  0.
        2    1    3    3  502    0  0.10499102889E+04 -0.34235229299E+03 -0.11999874589E+04  0.16307932452E+04  0.25500000920E-02 0. -1.
       -2    1    3    3    0  502 -0.10499102889E+04  0.34235229299E+03 -0.60634097628E+03  0.12598278004E+04  0.25500000920E-02 0.  1.
</event>
<event>
 5   0  0.1566576E-06  0.3132321E+04  0.7818609E-02  0.8206923E-01
       -2   -1    0    0    0  501  0.00000000000E+00  0.00000000000E+00  0.19948946930E+04  0.19948946930E+04  0.25500000920E-02 0. -1.
        2   -1    0    0  501    0  0.00000000000E+00  0.00000000000E+00 -0.12295683402E+04  0.12295683402E+04  0.25500000920E-02 0.  1.
    10030    2    1    2    0    0  0.00000000000E+00  0.00000000000E+00  0.76532635280E+03  0.32244630332E+04  0.31323214117E+04 0.  0.
        4    1    3    3  502    0 -0.41413375712E+03  0.12330948619E+03 -0.11669917527E+04  0.12444208942E+04  0.12699999809E+01 0.  1.
       -4    1    3    3    0  502  0.41413375712E+03 -0.12330948619E+03  0.19323181055E+04  0.19800421389E+04  0.12699999809E+01 0. -1.
</event>
<event>
 5   0  0.2536619E-06  0.2304678E+04  0.7818609E-02  0.8476079E-01
       -2   -1    0    0    0  501  0.00000000000E+00  0.00000000000E+00  0.95624044005E+03  0.95624044006E+03  0.25500000920E-02 0. -1.
        2   -1    0    0  501    0  0.00000000000E+00  0.00000000000E+00 -0.13886523638E+04  0.13886523638E+04  0.25500000920E-02 0.  1.
    10030    2    1    2    0    0  0.00000000000E+00  0.00000000000E+00 -0.43241192370E+03  0.23448928038E+04  0.23046783267E+04 0.  0.
        1    1    3    3  502    0 -0.24822957969E+02  0.69776771933E+03  0.71651772310E+03  0.10004467087E+04  0.50400001928E-02 0. -1.
       -1    1    3    3    0  502  0.24822957969E+02 -0.69776771933E+03 -0.11489296468E+04  0.13444460951E+04  0.50400001928E-02 0.  1.
</event>
<event>
 5   0  0.7754556E-07  0.1819936E+04  0.7818609E-02  0.8695769E-01
        1   -1    0    0  501    0  0.00000000000E+00  0.00000000000E+00  0.10563055352E+04  0.10563055352E+04  0.50400001928E-02 0. -1.
       -1   -1    0    0    0  501  0.00000000000E+00  0.00000000000E+00 -0.78390326443E+03  0.78390326445E+03  0.50400001928E-02 0.  1.
    10030    2    1    2    0    0  0.00000000000E+00  0.00000000000E+00  0.27240227072E+03  0.18402087996E+04  0.18199355563E+04 0.  0.
        4    1    3    3  502    0  0.43999069631E+03 -0.91884022447E+02 -0.66381746357E+03  0.80167931510E+03  0.12699999809E+01 0.  1.
       -4    1    3    3    0  502 -0.43999069631E+03  0.91884022447E+02  0.93621973429E+03  0.10385294845E+04  0.12699999809E+01 0. -1.
</event>
<event>
 5   0  0.7754556E-07  0.3692808E+04  0.7818609E-02  0.8069557E-01
        1   -1    0    0  501    0  0.00000000000E+00  0.00000000000E+00  0.20814539038E+04  0.20814539038E+04  0.50400001928E-02 0. -1.
       -1   -1    0    0    0  501  0.00000000000E+00  0.00000000000E+00 -0.16378974319E+04  0.16378974319E+04  0.50400001928E-02 0.  1.
    10030    2    1    2    0    0  0.00000000000E+00  0.00000000000E+00  0.44355647187E+03  0.37193513357E+04  0.36928081475E+04 0.  0.
        4    1    3    3  502    0 -0.14672444620E+03  0.77599619917E+03  0.19027587603E+04  0.20601433632E+04  0.12699999809E+01 0. -1.
       -4    1    3    3    0  502  0.14672444620E+03 -0.77599619917E+03 -0.14592022885E+04  0.16592079724E+04  0.12699999809E+01 0.  1.
</event>
<event>
 5   0  0.8452742E-07  0.3595006E+04  0.7818609E-02  0.8091637E-01
        1   -1    0    0  501    0  0.00000000000E+00  0.00000000000E+00  0.19752016801E+04  0.19752016801E+04  0.50400001928E-02 0.  1.
       -1   -1    0    0    0  501  0.00000000000E+00  0.00000000000E+00 -0.16357910047E+04  0.16357910047E+04  0.50400001928E-02 0. -1.
    10030    2    1    2    0    0  0.00000000000E+00  0.00000000000E+00  0.33941067540E+03  0.36109926847E+04  0.35950060588E+04 0.  0.
        1    1    3    3  502    0 -0.16403253868E+04  0.86667694274E+02 -0.56349857026E+03  0.17365797714E+04  0.50400001928E-02 0. -1.
       -1    1    3    3    0  502  0.16403253868E+04 -0.86667694274E+02  0.90290924566E+03  0.18744129133E+04  0.50400001928E-02 0.  1.
</event>
<event>
 5   0  0.1908273E-06  0.3606459E+04  0.7818609E-02  0.8089014E-01
        1   -1    0    0  501    0  0.00000000000E+00  0.00000000000E+00  0.19191253325E+04  0.19191253325E+04  0.50400001928E-02 0.  1.
       -1   -1    0    0    0  501  0.00000000000E+00  0.00000000000E+00 -0.16943329536E+04  0.16943329536E+04  0.50400001928E-02 0. -1.
    10030    2    1    2    0    0  0.00000000000E+00  0.00000000000E+00  0.22479237891E+03  0.36134582861E+04  0.36064593679E+04 0.  0.
        3    1    3    3  502    0  0.16154345703E+04 -0.29865255510E+03 -0.63256207759E+03  0.17603854668E+04  0.10100000352E+00 0. -1.
       -3    1    3    3    0  502 -0.16154345703E+04  0.29865255510E+03  0.85735445650E+03  0.18530728193E+04  0.10100000352E+00 0.  1.
</event>
<event>
 5   0  0.1908273E-06  0.3692533E+04  0.7818609E-02  0.8069619E-01
       -1   -1    0    0    0  501  0.00000000000E+00  0.00000000000E+00  0.13519140712E+04  0.13519140712E+04  0.50400001928E-02 0.  1.
        1   -1    0    0  501    0  0.00000000000E+00  0.00000000000E+00 -0.25213877011E+04  0.25213877011E+04  0.50400001928E-02 0. -1.
    10030    2    1    2    0    0  0.00000000000E+00  0.00000000000E+00 -0.11694736299E+04  0.38733017723E+04  0.36925327416E+04 0.  0.
        3    1    3    3  502    0  0.13109089800E+03  0.91599647711E+02  0.13446350869E+04  0.13541118293E+04  0.10100000352E+00 0.  1.
       -3    1    3    3    0  502 -0.13109089800E+03 -0.91599647711E+02 -0.25141087168E+04  0.25191899430E+04  0.10100000352E+00 0. -1.
</event>
<event>
 5   0  0.1566576E-06  0.3760906E+04  0.7818609E-02  0.8054597E-01
       -2   -1    0    0    0  501  0.00000000000E+00  0.00000000000E+00  0.19018499218E+04  0.19018499218E+04  0.25500000920E-02 0.  1.
        2   -1    0    0  501    0  0.00000000000E+00  0.00000000000E+00 -0.18592972607E+04  0.18592972607E+04  0.25500000920E-02 0. -1.
    10030    2    1    2    0    0  0.00000000000E+00  0.00000000000E+00  0.42552661070E+02  0.37611471826E+04  0.37609064599E+04 0.  0.
        4    1    3    3  502    0  0.78584241200E+03  0.16991687968E+04  0.19843122769E+03  0.18825778767E+04  0.12699999809E+01 0.  1.
       -4    1    3    3    0  502 -0.78584241200E+03 -0.16991687968E+04 -0.15587856662E+03  0.18785693059E+04  0.12699999809E+01 0. -1.
</event>
<event>
 5   0  0.2536619E-06  0.3664600E+04  0.7818609E-02  0.8075852E-01
        2   -1    0    0  501    0  0.00000000000E+00  0.00000000000E+00  0.25048318656E+04  0.25048318656E+04  0.25500000920E-02 0.  1.
       -2   -1    0    0    0  501  0.00000000000E+00  0.00000000000E+00 -0.13403390197E+04  0.13403390197E+04  0.25500000920E-02 0. -1.
    10030    2    1    2    0    0  0.00000000000E+00  0.00000000000E+00  0.11644928458E+04  0.38451708853E+04  0.36646003260E+04 0.  0.
        1    1    3    3  502    0  0.11917064951E+02  0.11321868443E+04  0.20938333101E+04  0.23803627869E+04  0.50400001928E-02 0.  1.
       -1    1    3    3    0  502 -0.11917064951E+02 -0.11321868443E+04 -0.92934046423E+03  0.14648080984E+04  0.50400001928E-02 0. -1.
</event>
<event>
 5   0  0.7707500E-07  0.2180863E+04  0.7818609E-02  0.8526436E-01
       -4   -1    0    0    0  501  0.00000000000E+00  0.00000000000E+00  0.46211277163E+03  0.46211451677E+03  0.12699999809E+01 0.  1.
        4   -1    0    0  501    0  0.00000000000E+00  0.00000000000E+00 -0.25730463070E+04  0.25730466204E+04  0.12699999809E+01 0. -1.
    10030    2    1    2    0    0  0.00000000000E+00  0.00000000000E+00 -0.21109335354E+04  0.30351611372E+04  0.21808628425E+04 0.  0.
        3    1    3    3  502    0 -0.94000481757E+03 -0.35185221204E+03 -0.16485957554E+04  0.19300976688E+04  0.10100000352E+00 0. -1.
       -3    1    3    3    0  502  0.94000481757E+03  0.35185221204E+03 -0.46233777996E+03  0.11050634684E+04  0.10100000352E+00 0.  1.
</event>
<event>
 5   0  0.1513502E-06  0.3587221E+04  0.7818609E-02  0.8093425E-01
        2   -1    0    0  501    0  0.00000000000E+00  0.00000000000E+00  0.18867071045E+04  0.18867071045E+04  0.25500000920E-02 0. -1.
       -2   -1    0    0    0  501  0.00000000000E+00  0.00000000000E+00 -0.17051075305E+04  0.17051075305E+04  0.25500000920E-02 0.  1.
    10030    2    1    2    0    0  0.00000000000E+00  0.00000000000E+00  0.18159957398E+03  0.35918146350E+04  0.35872209253E+04 0.  0.
        3    1    3    3  502    0 -0.96612621102E+03  0.13357283343E+04 -0.61683604925E+03  0.17601297567E+04  0.10100000352E+00 0.  1.
       -3    1    3    3    0  502  0.96612621102E+03 -0.13357283343E+04  0.79843562323E+03  0.18316848783E+04  0.10100000352E+00 0. -1.
</event>
<event>
 5   0  0.2382711E-06  0.3614570E+04  0.7818609E-02  0.8087162E-01
        2   -1    0    0  501    0  0.00000000000E+00  0.00000000000E+00  0.15044263843E+04  0.15044263843E+04  0.25500000920E-02 0. -1.
       -2   -1    0    0    0  501  0.00000000000E+00  0.00000000000E+00 -0.21711124354E+04  0.21711124354E+04  0.25500000920E-02 0.  1.
    10030    2    1    2    0    0  0.00000000000E+00  0.00000000000E+00 -0.66668605107E+03  0.36755388196E+04  0.36145698671E+04 0.  0.
        5    1    3    3  502    0 -0.12331597516E+04 -0.12402325667E+04 -0.79643320521E+03  0.19217668258E+04  0.46999998093E+01 0. -1.
       -5    1    3    3    0  502  0.12331597516E+04  0.12402325667E+04  0.12974715413E+03  0.17537719938E+04  0.46999998093E+01 0.  1.
</event>
<event>
 5   0  0.2422436E-06  0.3622955E+04  0.7818609E-02  0.8085254E-01
       -2   -1    0    0    0  501  0.00000000000E+00  0.00000000000E+00  0.15276205580E+04  0.15276205580E+04  0.25500000920E-02 0. -1.
        2   -1    0    0  501    0  0.00000000000E+00  0.00000000000E+00 -0.21480802505E+04  0.21480802505E+04  0.25500000920E-02 0.  1.
    10030    2    1    2    0    0  0.00000000000E+00  0.00000000000E+00 -0.62045969252E+03  0.36757008086E+04  0.36229554516E+04 0.  0.
        2    1    3    3  502    0  0.12202236182E+03 -0.58760881808E+03 -0.20442877757E+04  0.21305600414E+04  0.25500000920E-02 0.  1.
       -2    1    3    3    0  502 -0.12202236182E+03  0.58760881808E+03  0.14238280832E+04  0.15451407672E+04  0.25500000920E-02 0. -1.
</event>
<event>
 5   0  0.2536619E-06  0.3666951E+04  0.7818609E-02  0.8075326E-01
       -2   -1    0    0    0  501  0.00000000000E+00  0.00000000000E+00  0.11469509187E+04  0.11469509187E+04  0.25500000920E-02 0.  1.
        2   -1    0    0  501    0  0.00000000000E+00  0.00000000000E+00 -0.29309290471E+04  0.29309290471E+04  0.25500000920E-02 0. -1.
    10030    2    1    2    0    0  0.00000000000E+00  0.00000000000E+00 -0.17839781284E+04  0.40778799658E+04  0.36669506477E+04 0.  0.
        1    1    3    3  502    0  0.61585822518E+03 -0.14476709203E+04 -0.19391009010E+04  0.24970271828E+04  0.50400001928E-02 0. -1.
       -1    1    3    3    0  502 -0.61585822518E+03  0.14476709203E+04  0.15512277261E+03  0.15808527831E+04  0.50400001928E-02 0.  1.
</event>
<event>
 5   0  0.1566576E-06  0.3364072E+04  0.7818609E-02  0.8146781E-01
        2   -1    0    0  501    0  0.00000000000E+00  0.00000000000E+00  0.23413647664E+04  0.23413647664E+04  0.25500000920E-02 0.  1.
       -2   -1    0    0    0  501  0.00000000000E+00  0.00000000000E+00 -0.12083740628E+04  0.12083740628E+04  0.25500000920E-02 0. -1.
    10030    2    1    2    0    0  0.00000000000E+00  0.00000000000E+00  0.11329907036E+04  0.35497388293E+04  0.33640716136E+04 0.  0.
        4    1    3    3  502    0  0.11460886237E+04  0.61051461308E+02 -0.73100221298E+03  0.13607396013E+04  0.12699999809E+01 0. -1.
       -4    1    3    3    0  502 -0.11460886237E+04 -0.61051461308E+02  0.18639929166E+04  0.21889992280E+04  0.12699999809E+01 0.  1.
</event>
<event>
 5   0  0.1566576E-06  0.2009892E+04  0.7818609E-02  0.8602010E-01
       -2   -1    0    0    0  501  0.00000000000E+00  0.00000000000E+00  0.67681177424E+03  0.67681177425E+03  0.25500000920E-02 0.  1.
        2   -1    0    0  501    0  0.00000000000E+00  0.00000000000E+00 -0.14921671591E+04  0.14921671591E+04  0.25500000920E-02 0. -1.
    10030    2    1    2    0    0  0.00000000000E+00  0.00000000000E+00 -0.81535538481E+03  0.21689789333E+04  0.20098918403E+04 0.  0.
        4    1    3    3  502    0  0.16642659101E+03 -0.98407336800E+03 -0.28083032953E+03  0.10368054257E+04  0.12699999809E+01 0.  1.
       -4    1    3    3    0  502 -0.16642659101E+03  0.98407336800E+03 -0.53452505528E+03  0.11321735076E+04  0.12699999809E+01 0. -1.
</event>
<event>
 5   0  0.1634374E-06  0.2762005E+04  0.7818609E-02  0.8315162E-01
        1   -1    0    0  501    0  0.00000000000E+00  0.00000000000E+00  0.17160032113E+04  0.17160032113E+04  0.50400001928E-02 0.  1.
       -1   -1    0    0    0  501  0.00000000000E+00  0.00000000000E+00 -0.11114014469E+04  0.11114014469E+04  0.50400001928E-02 0. -1.
    10030    2    1    2    0    0  0.00000000000E+00  0.00000000000E+00  0.60460176436E+03  0.28274046582E+04  0.27620053960E+04 0.  0.
        5    1    3    3  502    0 -0.67150256152E+03 -0.58842433613E+03  0.13808066824E+04  0.16443260241E+04  0.46999998093E+01 0.  1.
       -5    1    3    3    0  502  0.67150256152E+03  0.58842433613E+03 -0.77620491806E+03  0.11830786340E+04  0.46999998093E+01 0. -1.
</event>
<event>
 5   0  0.8423692E-07  0.2617257E+04  0.7818609E-02  0.8362363E-01
       -1   -1    0    0    0  501  0.00000000000E+00  0.00000000000E+00  0.11814859373E+04  0.11814859373E+04  0.50400001928E-02 0. -1.
        1   -1    0    0  501    0  0.00000000000E+00  0.00000000000E+00 -0.14494532311E+04  0.14494532312E+04  0.50400001928E-02 0.  1.
    10030    2    1    2    0    0  0.00000000000E+00  0.00000000000E+00 -0.26796729386E+03  0.26309391685E+04  0.26172570446E+04 0.  0.
        2    1    3    3  502    0 -0.12935157949E+04 -0.62374720216E+02 -0.32320928825E+03  0.13347426574E+04  0.25500000920E-02 0.  1.
       -2    1    3    3    0  502  0.12935157949E+04  0.62374720216E+02  0.55241994394E+02  0.12961965111E+04  0.25500000920E-02 0. -1.
</event>
<event>
 5   0  0.7707500E-07  0.3408502E+04  0.7818609E-02  0.8135823E-01
       -3   -1    0    0    0  501  0.00000000000E+00  0.00000000000E+00  0.12463381707E+04  0.12463381747E+04  0.10100000352E+00 0. -1.
        3   -1    0    0  501    0  0.00000000000E+00  0.00000000000E+00 -0.23304042716E+04  0.23304042738E+04  0.10100000352E+00 0.  1.
    10030    2    1    2    0    0  0.00000000000E+00  0.00000000000E+00 -0.10840661009E+04  0.35767424485E+04  0.34085021977E+04 0.  0.
        4    1    3    3  502    0  0.10059261195E+04  0.76546639909E+03  0.65747380571E+03  0.14248156316E+04  0.12699999809E+01 0. -1.
       -4    1    3    3    0  502 -0.10059261195E+04 -0.76546639909E+03 -0.17415399066E+04  0.21519268169E+04  0.12699999809E+01 0.  1.
</event>
<event>
 5   0  0.2536619E-06  0.3546299E+04  0.7818609E-02  0.8102905E-01
       -2   -1    0    0    0  501  0.00000000000E+00  0.00000000000E+00  0.17146505624E+04  0.17146505624E+04  0.25500000920E-02 0.  1.
        2   -1    0    0  501    0  0.00000000000E+00  0.00000000000E+00 -0.18336438955E+04  0.18336438955E+04  0.25500000920E-02 0. -1.
    10030    2    1    2    0    0  0.00000000000E+00  0.00000000000E+00 -0.11899333304E+03  0.35482944579E+04  0.35462986545E+04 0.  0.
        1    1    3    3  502    0 -0.36254232211E+03 -0.10003930781E+03 -0.17932770277E+04  0.18322901780E+04  0.50400001928E-02 0. -1.
       -1    1    3    3    0  502  0.36254232211E+03  0.10003930781E+03  0.16742836947E+04  0.17160042799E+04  0.50400001928E-02 0.  1.
</event>
<event>
 5   0  0.2422436E-06  0.2398284E+04  0.7818609E-02  0.8440146E-01
       -2   -1    0    0    0  501  0.00000000000E+00  0.00000000000E+00  0.12690155766E+04  0.12690155766E+04  0.25500000920E-02 0. -1.
        2   -1    0    0  501    0  0.00000000000E+00  0.00000000000E+00 -0.11331153621E+04  0.11331153621E+04  0.25500000920E-02 0.  1.
    10030    2    1    2    0    0  0.00000000000E+00  0.00000000000E+00  0.13590021453E+03  0.24021309387E+04  0.23982835900E+04 0.  0.
        2    1    3    3  502    0 -0.36715248340E+03 -0.87696780612E+03  0.79992172703E+03  0.12424766591E+04  0.25500000920E-02 0. -1.
       -2    1    3    3    0  502  0.36715248340E+03  0.87696780612E+03 -0.66402151250E+03  0.11596542796E+04  0.25500000920E-02 0.  1.
</event>
<event>
 5   0  0.1840108E-06  0.1991844E+04  0.7818609E-02  0.8610444E-01
        2   -1    0    0  501    0  0.00000000000E+00  0.00000000000E+00  0.11612129251E+04  0.11612129251E+04  0.25500000920E-02 0.  1.
       -2   -1    0    0    0  501  0.00000000000E+00  0.00000000000E+00 -0.85415872839E+03  0.85415872839E+03  0.25500000920E-02 0. -1.
    10030    2    1    2    0    0  0.00000000000E+00  0.00000000000E+00  0.30705419668E+03  0.20153716535E+04  0.19918435234E+04 0.  0.
        3    1    3    3  502    0 -0.85620905384E+03 -0.42927144872E+03  0.42968368133E+03  0.10497599710E+04  0.10100000352E+00 0.  1.
       -3    1    3    3    0  502  0.85620905384E+03  0.42927144872E+03 -0.12262948465E+03  0.96561168244E+03  0.10100000352E+00 0. -1.
</event>
<event>
 5   0  0.8423692E-07  0.3657610E+04  0.7818609E-02  0.8077421E-01
        1   -1    0    0  501    0  0.00000000000E+00  0.00000000000E+00  0.19925352910E+04  0.19925352910E+04  0.50400001928E-02 0. -1.
       -1   -1    0    0    0  501  0.00000000000E+00  0.00000000000E+00 -0.16785285710E+04  0.16785285710E+04  0.50400001928E-02 0.  1.
    10030    2    1    2    0    0  0.00000000000E+00  0.00000000000E+00  0.31400672005E+03  0.36710638620E+04  0.36576098286E+04 0.  0.
        2    1    3    3  502    0  0.15776013081E+04  0.11573512764E+02  0.10853746980E+04  0.19149407481E+04  0.25500000920E-02 0. -1.
       -2    1    3    3    0  502 -0.15776013081E+04 -0.11573512764E+02 -0.77136797800E+03  0.17561231139E+04  0.25500000920E-02 0.  1.
</event>
<event>
 5   0  0.7754556E-07  0.2359801E+04  0.7818609E-02  0.8454709E-01
        1   -1    0    0  501    0  0.00000000000E+00  0.00000000000E+00  0.86864337741E+03  0.86864337743E+03  0.50400001928E-02 0.  1.
       -1   -1    0    0    0  501  0.00000000000E+00  0.00000000000E+00 -0.16026887930E+04  0.16026887930E+04  0.50400001928E-02 0. -1.
    10030    2    1    2    0    0  0.00000000000E+00  0.00000000000E+00 -0.73404541557E+03  0.24713321704E+04  0.23598008442E+04 0.  0.
        4    1    3    3  502    0  0.64331217752E+03 -0.56496860140E+03  0.48321254416E+03  0.98312565527E+03  0.12699999809E+01 0.  1.
       -4    1    3    3    0  502 -0.64331217752E+03  0.56496860140E+03 -0.12172579597E+04  0.14882065152E+04  0.12699999809E+01 0. -1.
</event>
<event>
 5   0  0.2422436E-06  0.2713620E+04  0.7818609E-02  0.8330599E-01
        2   -1    0    0  501    0  0.00000000000E+00  0.00000000000E+00  0.16381351042E+04  0.16381351042E+04  0.25500000920E-02 0.  1.
       -2   -1    0    0    0  501  0.00000000000E+00  0.00000000000E+00 -0.11237983953E+04  0.11237983953E+04  0.25500000920E-02 0. -1.
    10030    2    1    2    0    0  0.00000000000E+00  0.00000000000E+00  0.51433670892E+03  0.27619334995E+04  0.27136201661E+04 0.  0.
        2    1    3    3  502    0 -0.33488519429E+02 -0.11465208817E+04  0.99484949747E+03  0.15183402569E+04  0.25500000920E-02 0.  1.
       -2    1    3    3    0  502  0.33488519429E+02  0.11465208817E+04 -0.48051278854E+03  0.12435932426E+04  0.25500000920E-02 0. -1.
</event>
<event>
 5   0  0.8423692E-07  0.3412347E+04  0.7818609E-02  0.8134883E-01
       -1   -1    0    0    0  501  0.00000000000E+00  0.00000000000E+00  0.12217878827E+04  0.12217878827E+04  0.50400001928E-02 0.  1.
        1   -1    0    0  501    0  0.00000000000E+00  0.00000000000E+00 -0.23825970390E+04  0.23825970390E+04  0.50400001928E-02 0. -1.
    10030    2    1    2    0    0  0.00000000000E+00  0.00000000000E+00 -0.11608091563E+04  0.36043849217E+04  0.34123471052E+04 0.  0.
        2    1    3    3  502    0 -0.42824387078E+03 -0.89757363996E+03  0.88397717519E+03  0.13305814136E+04  0.25500000920E-02 0.  1.
       -2    1    3    3    0  502  0.42824387078E+03  0.89757363996E+03 -0.20447863315E+04  0.22738035081E+04  0.25500000920E-02 0. -1.
</event>
<event>
 5   0  0.1566576E-06  0.3324861E+04  0.7818609E-02  0.8156598E-01
       -2   -1    0    0    0  501  0.00000000000E+00  0.00000000000E+00  0.15450842417E+04  0.15450842418E+04  0.25500000920E-02 0.  1.
        2   -1    0    0  501    0  0.00000000000E+00  0.00000000000E+00 -0.17886889488E+04  0.17886889488E+04  0.25500000920E-02 0. -1.
    10030    2    1    2    0    0  0.00000000000E+00  0.00000000000E+00 -0.24360470701E+03  0.33337731905E+04  0.33248609644E+04 0.  0.
        4    1    3    3  502    0  0.15015815497E+04  0.63649882997E+02  0.59064784163E+03  0.16148265986E+04  0.12699999809E+01 0.  1.
       -4    1    3    3    0  502 -0.15015815497E+04 -0.63649882997E+02 -0.83425254864E+03  0.17189465919E+04  0.12699999809E+01 0. -1.
</event>
<event>
 5   0  0.1634374E-06  0.3732266E+04  0.7818609E-02  0.8060849E-01
        1   -1    0    0  501    0  0.00000000000E+00  0.00000000000E+00  0.31152177050E+04  0.31152177050E+04  0.50400001928E-02 0.  1.
       -1   -1    0    0    0  501  0.00000000000E+00  0.00000000000E+00 -0.11178842150E+04  0.11178842150E+04  0.50400001928E-02 0. -1.
    10030    2    1    2    0    0  0.00000000000E+00  0.00000000000E+00  0.19973334900E+04  0.42331019199E+04  0.37322661741E+04 0.  0.
        5    1    3    3  502    0 -0.16059672832E+03 -0.18543189917E+04  0.11514266090E+04  0.21886286935E+04  0.46999998093E+01 0. -1.
       -5    1    3    3    0  502  0.16059672832E+03  0.18543189917E+04  0.84590688097E+03  0.20444732264E+04  0.46999998093E+01 0.  1.
</event>
<event>
 5   0  0.1513502E-06  0.3540973E+04  0.7818609E-02  0.8104148E-01
       -2   -1    0    0    0  501  0.00000000000E+00  0.00000000000E+00  0.18276563782E+04  0.18276563782E+04  0.25500000920E-02 0.  1.
        2   -1    0    0  501    0  0.00000000000E+00  0.00000000000E+00 -0.17151050915E+04  0.17151050915E+04  0.25500000920E-02 0. -1.
    10030    2    1    2    0    0  0.00000000000E+00  0.00000000000E+00  0.11255128677E+03  0.35427614697E+04  0.35409731768E+04 0.  0.
        3    1    3    3  502    0  0.28992638835E+03 -0.90034273716E+03  0.15536772068E+04  0.18189522336E+04  0.10100000352E+00 0.  1.
       -3    1    3    3    0  502 -0.28992638835E+03  0.90034273716E+03 -0.14411259200E+04  0.17238092361E+04  0.10100000352E+00 0. -1.
</event>
<event>
 5   0  0.2536619E-06  0.3567918E+04  0.7818609E-02  0.8097880E-01
       -2   -1    0    0    0  501  0.00000000000E+00  0.00000000000E+00  0.18785980971E+04  0.18785980971E+04  0.25500000920E-02 0.  1.
        2   -1    0    0  501    0  0.00000000000E+00  0.00000000000E+00 -0.16940873414E+04  0.16940873414E+04  0.25500000920E-02 0. -1.
    10030    2    1    2    0    0  0.00000000000E+00  0.00000000000E+00  0.18451075579E+03  0.35726854385E+04  0.35679177434E+04 0.  0.
        1    1    3    3  502    0  0.56879083697E+03  0.10451529537E+04  0.14231821646E+04  0.18550782157E+04  0.50400001928E-02 0.  1.
       -1    1    3    3    0  502 -0.56879083697E+03 -0.10451529537E+04 -0.12386714088E+04  0.17176072228E+04  0.50400001928E-02 0. -1.
</event>
<event>
 5   0  0.8452742E-07  0.2048765E+04  0.7818609E-02  0.8584155E-01
        1   -1    0    0  501    0  0.00000000000E+00  0.00000000000E+00  0.12281118715E+04  0.12281118715E+04  0.50400001928E-02 0.  1.
       -1   -1    0    0    0  501  0.00000000000E+00  0.00000000000E+00 -0.85444984173E+03  0.85444984174E+03  0.50400001928E-02 0. -1.
    10030    2    1    2    0    0  0.00000000000E+00  0.00000000000E+00  0.37366202978E+03  0.20825617133E+04  0.20487654763E+04 0.  0.
        1    1    3    3  502    0 -0.82897417509E+03 -0.57887463742E+03  0.19599781077E+02  0.10112755214E+04  0.50400001928E-02 0. -1.
       -1    1    3    3    0  502  0.82897417509E+03  0.57887463742E+03  0.35406224871E+03  0.10712861918E+04  0.50400001928E-02 0.  1.
</event>
<event>
 5   0  0.8423692E-07  0.3577216E+04  0.7818609E-02  0.8095731E-01
       -1   -1    0    0    0  501  0.00000000000E+00  0.00000000000E+00  0.22921680224E+04  0.22921680224E+04  0.50400001928E-02 0. -1.
        1   -1    0    0  501    0  0.00000000000E+00  0.00000000000E+00 -0.13956740215E+04  0.13956740215E+04  0.50400001928E-02 0.  1.
    10030    2    1    2    0    0  0.00000000000E+00  0.00000000000E+00  0.89649400098E+03  0.36878420439E+04  0.35772164384E+04 0.  0.
        2    1    3    3  502    0  0.17799122619E+04  0.17165766022E+03  0.40745896890E+03  0.18340056771E+04  0.25500000920E-02 0.  1.
       -2    1    3    3    0  502 -0.17799122619E+04 -0.17165766022E+03  0.48903503208E+03  0.18538363668E+04  0.25500000920E-02 0. -1.
</event>
<event>
 5   0  0.8423692E-07  0.2031225E+04  0.7818609E-02  0.8592159E-01
       -1   -1    0    0    0  501  0.00000000000E+00  0.00000000000E+00  0.86988950881E+03  0.86988950882E+03  0.50400001928E-02 0.  1.
        1   -1    0    0  501    0  0.00000000000E+00  0.00000000000E+00 -0.11857470336E+04  0.11857470336E+04  0.50400001928E-02 0. -1.
    10030    2    1    2    0    0  0.00000000000E+00  0.00000000000E+00 -0.31585752477E+03  0.20556365424E+04  0.20312251521E+04 0.  0.
        2    1    3    3  502    0  0.91507251133E+03 -0.14133778579E+03 -0.58023849639E+03  0.10927080046E+04  0.25500000920E-02 0. -1.
       -2    1    3    3    0  502 -0.91507251133E+03  0.14133778579E+03  0.26438097162E+03  0.96292853777E+03  0.25500000920E-02 0.  1.
</event>
<event>
 5   0  0.8423692E-07  0.2055730E+04  0.7818609E-02  0.8580999E-01
       -1   -1    0    0    0  501  0.00000000000E+00  0.00000000000E+00  0.44493641860E+03  0.44493641863E+03  0.50400001928E-02 0. -1.
        1   -1    0    0  501    0  0.00000000000E+00  0.00000000000E+00 -0.23745104284E+04  0.23745104284E+04  0.50400001928E-02 0.  1.
    10030    2    1    2    0    0  0.00000000000E+00  0.00000000000E+00 -0.19295740098E+04  0.28194468470E+04  0.20557297157E+04 0.  0.
        2    1    3    3  502    0  0.32854226060E+03 -0.90495919184E+01  0.37092540388E+03  0.49558810252E+03  0.25500000920E-02 0. -1.
       -2    1    3    3    0  502 -0.32854226060E+03  0.90495919184E+01 -0.23004994137E+04  0.23238587445E+04  0.25500000920E-02 0.  1.
</event>
<event>
 5   0  0.8452742E-07  0.2216752E+04  0.7818609E-02  0.8511488E-01
       -1   -1    0    0    0  501  0.00000000000E+00  0.00000000000E+00  0.22967111465E+04  0.22967111465E+04  0.50400001928E-02 0. -1.
        1   -1    0    0  501    0  0.00000000000E+00  0.00000000000E+00 -0.53489429232E+03  0.53489429234E+03  0.50400001928E-02 0.  1.
    10030    2    1    2    0    0  0.00000000000E+00  0.00000000000E+00  0.17618168542E+04  0.28316054388E+04  0.22167522941E+04 0.  0.
        1    1    3    3  502    0  0.10898054632E+04  0.47213233153E+02  0.62996960745E+03  0.12596692992E+04  0.50400001928E-02 0. -1.
       -1    1    3    3    0  502 -0.10898054632E+04 -0.47213233153E+02  0.11318472467E+04  0.15719361396E+04  0.50400001928E-02 0.  1.
</event>
<event>
 5   0  0.1513502E-06  0.2440695E+04  0.7818609E-02  0.8424423E-01
        2   -1    0    0  501    0  0.00000000000E+00  0.00000000000E+00  0.87481951096E+03  0.87481951096E+03  0.25500000920E-02 0.  1.
       -2   -1    0    0    0  501  0.00000000000E+00  0.00000000000E+00 -0.17023484802E+04  0.17023484802E+04  0.25500000920E-02 0. -1.
    10030    2    1    2    0    0  0.00000000000E+00  0.00000000000E+00 -0.82752896923E+03  0.25771679912E+04  0.24406947084E+04 0.  0.
        3    1    3    3  502    0  0.97738707193E+03  0.38880621822E+03  0.23953247005E+03  0.10788102605E+04  0.10100000352E+00 0.  1.
       -3    1    3    3    0  502 -0.97738707193E+03 -0.38880621822E+03 -0.10670614393E+04  0.14983577307E+04  0.10100000352E+00 0. -1.
</event>
<event>
 5   0  0.2422436E-06  0.3650192E+04  0.7818609E-02  0.8079090E-01
        2   -1    0    0  501    0  0.00000000000E+00  0.00000000000E+00  0.21312978566E+04  0.21312978566E+04  0.25500000920E-02 0. -1.
       -2   -1    0    0    0  501  0.00000000000E+00  0.00000000000E+00 -0.15628856384E+04  0.15628856384E+04  0.25500000920E-02 0.  1.
    10030    2    1    2    0    0  0.00000000000E+00  0.00000000000E+00  0.56841221821E+03  0.36941834950E+04  0.36501916724E+04 0.  0.
        2    1    3    3  502    0  0.28364953882E+03  0.24159302119E+03  0.20923978337E+04  0.21253124343E+04  0.25500000920E-02 0. -1.
       -2    1    3    3    0  502 -0.28364953882E+03 -0.24159302119E+03 -0.15239856155E+04  0.15688710607E+04  0.25500000920E-02 0.  1.
</event>
<event>
 5   0  0.2382711E-06  0.2403818E+04  0.7818609E-02  0.8438075E-01
       -2   -1    0    0    0  501  0.00000000000E+00  0.00000000000E+00  0.10584939588E+04  0.10584939588E+04  0.25500000920E-02 0.  1.
        2   -1    0    0  501    0  0.00000000000E+00  0.00000000000E+00 -0.13647554696E+04  0.13647554696E+04  0.25500000920E-02 0. -1.
    10030    2    1    2    0    0  0.00000000000E+00  0.00000000000E+00 -0.30626151076E+03  0.24232494285E+04  0.24038181461E+04 0.  0.
        5    1    3    3  502    0 -0.70018753744E+03  0.97609998844E+03 -0.19255642128E+03  0.12166075129E+04  0.46999998093E+01 0.  1.
       -5    1    3    3    0  502  0.70018753744E+03 -0.97609998844E+03 -0.11370508948E+03  0.12066419156E+04  0.46999998093E+01 0. -1.
</event>
<event>
 5   0  0.7754556E-07  0.3731518E+04  0.7818609E-02  0.8061013E-01
       -1   -1    0    0    0  501  0.00000000000E+00  0.00000000000E+00  0.12480879066E+04  0.12480879066E+04  0.50400001928E-02 0.  1.
        1   -1    0    0  501    0  0.00000000000E+00  0.00000000000E+00 -0.27891121050E+04  0.27891121050E+04  0.50400001928E-02 0. -1.
    10030    2    1    2    0    0  0.00000000000E+00  0.00000000000E+00 -0.15410241984E+04  0.40372000116E+04  0.37315182371E+04 0.  0.
        4    1    3    3  502    0  0.68853280942E+02  0.14030484471E+04  0.55798989666E+03  0.15115025825E+04  0.12699999809E+01 0.  1.
       -4    1    3    3    0  502 -0.68853280942E+02 -0.14030484471E+04 -0.20990140951E+04  0.25256974291E+04  0.12699999809E+01 0. -1.
</event>
<event>
 5   0  0.8452742E-07  0.3610306E+04  0.7818609E-02  0.8088135E-01
       -1   -1    0    0    0  501  0.00000000000E+00  0.00000000000E+00  0.10165363855E+04  0.10165363855E+04  0.50400001928E-02 0. -1.
        1   -1    0    0  501    0  0.00000000000E+00  0.00000000000E+00 -0.32055681658E+04  0.32055681658E+04  0.50400001928E-02 0.  1.
    10030    2    1    2    0    0  0.00000000000E+00  0.00000000000E+00 -0.21890317803E+04  0.42221045513E+04  0.36103056252E+04 0.  0.
        1    1    3    3  502    0  0.83668426731E+03 -0.13924678556E+04 -0.20150290258E+04  0.25883101179E+04  0.50400001928E-02 0. -1.
       -1    1    3    3    0  502 -0.83668426731E+03  0.13924678556E+04 -0.17400275456E+03  0.16337944334E+04  0.50400001928E-02 0.  1.
</event>
<event>
 5   0  0.7754556E-07  0.3576110E+04  0.7818609E-02  0.8095986E-01
        1   -1    0    0  501    0  0.00000000000E+00  0.00000000000E+00  0.21699175334E+04  0.21699175334E+04  0.50400001928E-02 0. -1.
       -1   -1    0    0    0  501  0.00000000000E+00  0.00000000000E+00 -0.14733925915E+04  0.14733925915E+04  0.50400001928E-02 0.  1.
    10030    2    1    2    0    0  0.00000000000E+00  0.00000000000E+00  0.69652494193E+03  0.36433101249E+04  0.35761098517E+04 0.  0.
        4    1    3    3  502    0  0.10799761121E+04 -0.85943392214E+03  0.15063571437E+04  0.20430586205E+04  0.12699999809E+01 0. -1.
       -4    1    3    3    0  502 -0.10799761121E+04  0.85943392214E+03 -0.80983220181E+03  0.16002515044E+04  0.12699999809E+01 0.  1.
</event>
<event>
 5   0  0.8423692E-07  0.3553779E+04  0.7818609E-02  0.8101162E-01
        1   -1    0    0  501    0  0.00000000000E+00  0.00000000000E+00  0.14066085314E+04  0.14066085314E+04  0.50400001928E-02 0.  1.
       -1   -1    0    0    0  501  0.00000000000E+00  0.00000000000E+00 -0.22446450880E+04  0.22446450880E+04  0.50400001928E-02 0. -1.
    10030    2    1    2    0    0  0.00000000000E+00  0.00000000000E+00 -0.83803655653E+03  0.36512536194E+04  0.35537793577E+04 0.  0.
        2    1    3    3  502    0 -0.86261365190E+02 -0.11411487618E+04  0.97755709539E+03  0.15050845141E+04  0.25500000920E-02 0.  1.
       -2    1    3    3    0  502  0.86261365190E+02  0.11411487618E+04 -0.18155936519E+04  0.21461691053E+04  0.25500000920E-02 0. -1.
</event>
<event>
 5   0  0.8423692E-07  0.3627967E+04  0.7818609E-02  0.8084115E-01
       -1   -1    0    0    0  501  0.00000000000E+00  0.00000000000E+00  0.17125727585E+04  0.17125727585E+04  0.50400001928E-02 0.  1.
        1   -1    0    0  501    0  0.00000000000E+00  0.00000000000E+00 -0.19213998037E+04  0.19213998038E+04  0.50400001928E-02 0. -1.
    10030    2    1    2    0    0  0.00000000000E+00  0.00000000000E+00 -0.20882704525E+03  0.36339725623E+04  0.36279674542E+04 0.  0.
        2    1    3    3  502    0 -0.77448540877E+03  0.16399330398E+04 -0.14092847282E+03  0.18190846209E+04  0.25500000920E-02 0. -1.
       -2    1    3    3    0  502  0.77448540877E+03 -0.16399330398E+04 -0.67898572432E+02  0.18148879414E+04  0.25500000920E-02 0.  1.
</event>
<event>
 5   0  0.8452742E-07  0.1822454E+04  0.7818609E-02  0.8694449E-01
        1   -1    0    0  501    0  0.00000000000E+00  0.00000000000E+00  0.21581621159E+04  0.21581621159E+04  0.50400001928E-02 0.  1.
       -1   -1    0    0    0  501  0.00000000000E+00  0.00000000000E+00 -0.38474147434E+03  0.38474147437E+03  0.50400001928E-02 0. -1.
    10030    2    1    2    0    0  0.00000000000E+00  0.00000000000E+00  0.17734206415E+04  0.25429035903E+04  0.18224538122E+04 0.  0.
        1    1    3    3  502    0 -0.81764158783E+03  0.63784229825E+01  0.32552849711E+03  0.88008366244E+03  0.50400001928E-02 0. -1.
       -1    1    3    3    0  502  0.81764158783E+03 -0.63784229825E+01  0.14478921444E+04  0.16628199278E+04  0.50400001928E-02 0.  1.
</event>
<event>
 5   0  0.2422436E-06  0.3584957E+04  0.7818609E-02  0.8093946E-01
       -2   -1    0    0    0  501  0.00000000000E+00  0.00000000000E+00  0.13507504793E+04  0.13507504793E+04  0.25500000920E-02 0.  1.
        2   -1    0    0  501    0  0.00000000000E+00  0.00000000000E+00 -0.23786617134E+04  0.23786617134E+04  0.25500000920E-02 0. -1.
    10030    2    1    2    0    0  0.00000000000E+00  0.00000000000E+00 -0.10279112341E+04  0.37294121927E+04  0.35849565963E+04 0.  0.
        2    1    3    3  502    0  0.17484451669E+04 -0.36579065039E+03 -0.35925166534E+03  0.18220661516E+04  0.25500000920E-02 0. -1.
       -2    1    3    3    0  502 -0.17484451669E+04  0.36579065039E+03 -0.66865956877E+03  0.19073460411E+04  0.25500000920E-02 0.  1.
</event>
<event>
 5   0  0.7707500E-07  0.3262099E+04  0.7818609E-02  0.8172607E-01
        3   -1    0    0  501    0  0.00000000000E+00  0.00000000000E+00  0.16841797555E+04  0.16841797585E+04  0.10100000352E+00 0.  1.
       -3   -1    0    0    0  501  0.00000000000E+00  0.00000000000E+00 -0.15795952991E+04  0.15795953024E+04  0.10100000352E+00 0. -1.
    10030    2    1    2    0    0  0.00000000000E+00  0.00000000000E+00  0.10458445633E+03  0.32637750609E+04  0.32620989776E+04 0.  0.
        4    1    3    3  502    0  0.14885786285E+04 -0.27026344383E+03 -0.55745683885E+03  0.16123487223E+04  0.12699999809E+01 0. -1.
       -4    1    3    3    0  502 -0.14885786285E+04  0.27026344383E+03  0.66204129518E+03  0.16514263386E+04  0.12699999809E+01 0.  1.
</event>
<event>
 5   0  0.2536619E-06  0.3555093E+04  0.7818609E-02  0.8100856E-01
        2   -1    0    0  501    0  0.00000000000E+00  0.00000000000E+00  0.21237558903E+04  0.21237558903E+04  0.25500000920E-02 0. -1.
       -2   -1    0    0    0  501  0.00000000000E+00  0.00000000000E+00 -0.14877749379E+04  0.14877749379E+04  0.25500000920E-02 0.  1.
    10030    2    1    2    0    0  0.00000000000E+00  0.00000000000E+00  0.63598095242E+03  0.36115308282E+04  0.35550925658E+04 0.  0.
        1    1    3    3  502    0 -0.10235765963E+04 -0.12423984596E+04 -0.44790663298E+03  0.16708929746E+04  0.50400001928E-02 0.  1.
       -1    1    3    3    0  502  0.10235765963E+04  0.12423984596E+04  0.10838875854E+04  0.19406378535E+04  0.50400001928E-02 0. -1.
</event>
<event>
 5   0  0.8452742E-07  0.3261401E+04  0.7818609E-02  0.8172787E-01
       -1   -1    0    0    0  501  0.00000000000E+00  0.00000000000E+00  0.18523828068E+04  0.18523828068E+04  0.50400001928E-02 0.  1.
        1   -1    0    0  501    0  0.00000000000E+00  0.00000000000E+00 -0.14355479969E+04  0.14355479969E+04  0.50400001928E-02 0. -1.
    10030    2    1    2    0    0  0.00000000000E+00  0.00000000000E+00  0.41683480994E+03  0.32879308037E+04  0.32614011883E+04 0.  0.
        1    1    3    3  502    0  0.72636501799E+03 -0.12253004015E+03 -0.12582586981E+04  0.14580242458E+04  0.50400001928E-02 0. -1.
       -1    1    3    3    0  502 -0.72636501799E+03  0.12253004015E+03  0.16750935080E+04  0.18299065579E+04  0.50400001928E-02 0.  1.
</event>
<event>
 5   0  0.1566576E-06  0.3594989E+04  0.7818609E-02  0.8091640E-01
        2   -1    0    0  501    0  0.00000000000E+00  0.00000000000E+00  0.17501711060E+04  0.17501711060E+04  0.25500000920E-02 0. -1.
       -2   -1    0    0    0  501  0.00000000000E+00  0.00000000000E+00 -0.18460978704E+04  0.18460978704E+04  0.25500000920E-02 0.  1.
    10030    2    1    2    0    0  0.00000000000E+00  0.00000000000E+00 -0.95926764399E+02  0.35962689764E+04  0.35949893750E+04 0.  0.
        4    1    3    3  502    0 -0.20915810429E+03 -0.32005890222E+03 -0.18049486199E+04  0.18450002566E+04  0.12699999809E+01 0.  1.
       -4    1    3    3    0  502  0.20915810429E+03  0.32005890222E+03  0.17090218555E+04  0.17512687198E+04  0.12699999809E+01 0. -1.
</event>
<event>
 5   0  0.7754556E-07  0.3695463E+04  0.7818609E-02  0.8068968E-01
       -1   -1    0    0    0  501  0.00000000000E+00  0.00000000000E+00  0.21515755420E+04  0.21515755420E+04  0.50400001928E-02 0. -1.
        1   -1    0    0  501    0  0.00000000000E+00  0.00000000000E+00 -0.15867963436E+04  0.15867963436E+04  0.50400001928E-02 0.  1.
    10030    2    1    2    0    0  0.00000000000E+00  0.00000000000E+00  0.56477919842E+03  0.37383718856E+04  0.36954632744E+04 0.  0.
        4    1    3    3  502    0 -0.55562493473E+03 -0.10500055091E+04  0.17140534892E+04  0.20854763518E+04  0.12699999809E+01 0. -1.
       -4    1    3    3    0  502  0.55562493473E+03  0.10500055091E+04 -0.11492742908E+04  0.16528955338E+04  0.12699999809E+01 0.  1.
</event>
<event>
 5   0  0.1513502E-06  0.2879024E+04  0.7818609E-02  0.8279146E-01
       -2   -1    0    0    0  501  0.00000000000E+00  0.00000000000E+00  0.13680895692E+04  0.13680895692E+04  0.25500000920E-02 0.  1.
        2   -1    0    0  501    0  0.00000000000E+00  0.00000000000E+00 -0.15146630314E+04  0.15146630314E+04  0.25500000920E-02 0. -1.
    10030    2    1    2    0    0  0.00000000000E+00  0.00000000000E+00 -0.14657346224E+03  0.28827526006E+04  0.28790239277E+04 0.  0.
        3    1    3    3  502    0  0.12478958102E+04 -0.64319017403E+03 -0.39190810564E+03  0.14575765937E+04  0.10100000352E+00 0. -1.
       -3    1    3    3    0  502 -0.12478958102E+04  0.64319017403E+03  0.24533464340E+03  0.14251760068E+04  0.10100000352E+00 0.  1.
</event>
<event>
 5   0  0.2382711E-06  0.3294435E+04  0.7818609E-02  0.8164313E-01
       -2   -1    0    0    0  501  0.00000000000E+00  0.00000000000E+00  0.14241483832E+04  0.14241483832E+04  0.25500000920E-02 0.  1.
        2   -1    0    0  501    0  0.00000000000E+00  0.00000000000E+00 -0.19052267524E+04  0.19052267524E+04  0.25500000920E-02 0. -1.
    10030    2    1    2    0    0  0.00000000000E+00  0.00000000000E+00 -0.48107836913E+03  0.33293751356E+04  0.32944350648E+04 0.  0.
        5    1    3    3  502    0  0.10852263983E+04  0.12327148270E+04 -0.36837713698E+03  0.16831595246E+04  0.46999998093E+01 0.  1.
       -5    1    3    3    0  502 -0.10852263983E+04 -0.12327148270E+04 -0.11270123216E+03  0.16462156110E+04  0.46999998093E+01 0. -1.
</event>
<event>
 5   0  0.1513502E-06  0.3463785E+04  0.7818609E-02  0.8122426E-01
        2   -1    0    0  501    0  0.00000000000E+00  0.00000000000E+00  0.12311858469E+04  0.12311858469E+04  0.25500000920E-02 0. -1.
       -2   -1    0    0    0  501  0.00000000000E+00  0.00000000000E+00 -0.24362298477E+04  0.24362298477E+04  0.25500000920E-02 0.  1.
    10030    2    1    2    0    0  0.00000000000E+00  0.00000000000E+00 -0.12050440008E+04  0.36674156947E+04  0.34637850444E+04 0.  0.
        3    1    3    3  502    0  0.10942084130E+04 -0.62164021341E+03  0.65726860242E+03  0.14197642874E+04  0.10100000352E+00 0. -1.
       -3    1    3    3    0  502 -0.10942084130E+04  0.62164021341E+03 -0.18623126032E+04  0.22476514072E+04  0.10100000352E+00 0.  1.
</event>
<event>
 5   0  0.2422436E-06  0.2233008E+04  0.7818609E-02  0.8504814E-01
       -2   -1    0    0    0  501  0.00000000000E+00  0.00000000000E+00  0.67558569744E+03  0.67558569745E+03  0.25500000920E-02 0. -1.
        2   -1    0    0  501    0  0.00000000000E+00  0.00000000000E+00 -0.18451855763E+04  0.18451855763E+04  0.25500000920E-02 0.  1.
    10030    2    1    2    0    0  0.00000000000E+00  0.00000000000E+00 -0.11695998788E+04  0.25207712737E+04  0.22330078231E+04 0.  0.
        2    1    3    3  502    0 -0.14355651980E+03 -0.10822673282E+04 -0.84874740515E+03  0.13828532828E+04  0.25500000920E-02 0. -1.
       -2    1    3    3    0  502  0.14355651980E+03  0.10822673282E+04 -0.32085247368E+03  0.11379179909E+04  0.25500000920E-02 0.  1.
</event>
<event>
 5   0  0.2382711E-06  0.3041639E+04  0.7818609E-02  0.8231940E-01
       -2   -1    0    0    0  501  0.00000000000E+00  0.00000000000E+00  0.99625557702E+03  0.99625557702E+03  0.25500000920E-02 0.  1.
        2   -1    0    0  501    0  0.00000000000E+00  0.00000000000E+00 -0.23215852593E+04  0.23215852593E+04  0.25500000920E-02 0. -1.
    10030    2    1    2    0    0  0.00000000000E+00  0.00000000000E+00 -0.13253296823E+04  0.33178408363E+04  0.30416392042E+04 0.  0.
        5    1    3    3  502    0  0.30654687173E+03  0.47870678823E+03 -0.22013363317E+04  0.22735511670E+04  0.46999998093E+01 0. -1.
       -5    1    3    3    0  502 -0.30654687173E+03 -0.47870678823E+03  0.87600664941E+03  0.10442896693E+04  0.46999998093E+01 0.  1.
</event>
<event>
 5   0  0.1513502E-06  0.3572865E+04  0.7818609E-02  0.8096736E-01
       -2   -1    0    0    0  501  0.00000000000E+00  0.00000000000E+00  0.14980975326E+04  0.14980975326E+04  0.25500000920E-02 0. -1.
        2   -1    0    0  501    0  0.00000000000E+00  0.00000000000E+00 -0.21302629201E+04  0.21302629201E+04  0.25500000920E-02 0.  1.
    10030    2    1    2    0    0  0.00000000000E+00  0.00000000000E+00 -0.63216538747E+03  0.36283604527E+04  0.35728653064E+04 0.  0.
        3    1    3    3  502    0  0.92421161398E+03 -0.11165545953E+04 -0.13765632282E+04  0.19989466234E+04  0.10100000352E+00 0.  1.
       -3    1    3    3    0  502 -0.92421161398E+03  0.11165545953E+04  0.74439784071E+03  0.16294138293E+04  0.10100000352E+00 0. -1.
</event>
<event>
 5   0  0.1513502E-06  0.3654150E+04  0.7818609E-02  0.8078199E-01
        2   -1    0    0  501    0  0.00000000000E+00  0.00000000000E+00  0.11901677942E+04  0.11901677942E+04  0.25500000920E-02 0.  1.
       -2   -1    0    0    0  501  0.00000000000E+00  0.00000000000E+00 -0.28048171508E+04  0.28048171508E+04  0.25500000920E-02 0. -1.
    10030    2    1    2    0    0  0.00000000000E+00  0.00000000000E+00 -0.16146493565E+04  0.39949849450E+04  0.36541499923E+04 0.  0.
        3    1    3    3  502    0 -0.55483759345E+03  0.75246879560E+03 -0.25235023941E+04  0.26911184267E+04  0.10100000352E+00 0. -1.
       -3    1    3    3    0  502  0.55483759345E+03 -0.75246879560E+03  0.90885303754E+03  0.13038665183E+04  0.10100000352E+00 0.  1.
</event>
<event>
 5   0  0.1513502E-06  0.2759316E+04  0.7818609E-02  0.8316011E-01
        2   -1    0    0  501    0  0.00000000000E+00  0.00000000000E+00  0.20967098126E+04  0.20967098126E+04  0.25500000920E-02 0.  1.
       -2   -1    0    0    0  501  0.00000000000E+00  0.00000000000E+00 -0.90783033390E+03  0.90783033390E+03  0.25500000920E-02 0. -1.
    10030    2    1    2    0    0  0.00000000000E+00  0.00000000000E+00  0.11888794787E+04  0.30045401465E+04  0.27593164148E+04 0.  0.
        3    1    3    3  502    0 -0.11695545843E+04 -0.53769486740E+01  0.13913044532E+04  0.18175849166E+04  0.10100000352E+00 0.  1.
       -3    1    3    3    0  502  0.11695545843E+04  0.53769486740E+01 -0.20242497457E+03  0.11869552299E+04  0.10100000352E+00 0. -1.
</event>
<event>
 5   0  0.1566576E-06  0.1890596E+04  0.7818609E-02  0.8659552E-01
       -2   -1    0    0    0  501  0.00000000000E+00  0.00000000000E+00  0.34612007734E+03  0.34612007735E+03  0.25500000920E-02 0.  1.
        2   -1    0    0  501    0  0.00000000000E+00  0.00000000000E+00 -0.25817282885E+04  0.25817282885E+04  0.25500000920E-02 0. -1.
    10030    2    1    2    0    0  0.00000000000E+00  0.00000000000E+00 -0.22356082112E+04  0.29278483659E+04  0.18905956679E+04 0.  0.
        4    1    3    3  502    0  0.41310726574E+03 -0.84380854680E+03 -0.12796045847E+04  0.15874696793E+04  0.12699999809E+01 0. -1.
       -4    1    3    3    0  502 -0.41310726574E+03  0.84380854680E+03 -0.95600362651E+03  0.13403786866E+04  0.12699999809E+01 0.  1.
</event>
<event>
 5   0  0.1634374E-06  0.1990367E+04  0.7818609E-02  0.8611138E-01
        1   -1    0    0  501    0  0.00000000000E+00  0.00000000000E+00  0.21127452080E+04  0.21127452080E+04  0.50400001928E-02 0.  1.
       -1   -1    0    0    0  501  0.00000000000E+00  0.00000000000E+00 -0.46876917240E+03  0.46876917243E+03  0.50400001928E-02 0. -1.
    10030    2    1    2    0    0  0.00000000000E+00  0.00000000000E+00  0.16439760356E+04  0.25815143804E+04  0.19903666222E+04 0.  0.
        5    1    3    3  502    0  0.59395132739E+03  0.72482022015E+03  0.12564849016E+04  0.15674561968E+04  0.46999998093E+01 0.  1.
       -5    1    3    3    0  502 -0.59395132739E+03 -0.72482022015E+03  0.38749113392E+03  0.10140581836E+04  0.46999998093E+01 0. -1.
</event>
<event>
 5   0  0.7754556E-07  0.3602921E+04  0.7818609E-02  0.8089823E-01
        1   -1    0    0  501    0  0.00000000000E+00  0.00000000000E+00  0.26347775757E+04  0.26347775758E+04  0.50400001928E-02 0.  1.
       -1   -1    0    0    0  501  0.00000000000E+00  0.00000000000E+00 -0.12317014102E+04  0.12317014102E+04  0.50400001928E-02 0. -1.
    10030    2    1    2    0    0  0.00000000000E+00  0.00000000000E+00  0.14030761656E+04  0.38664789859E+04  0.36029206239E+04 0.  0.
        4    1    3    3  502    0 -0.16883266116E+04 -0.22020271494E+03  0.13330779724E+04  0.21624140391E+04  0.12699999809E+01 0.  1.
       -4    1    3    3    0  502  0.16883266116E+04  0.22020271494E+03  0.69998193172E+02  0.17040649468E+04  0.12699999809E+01 0. -1.
</event>
<event>
 5   0  0.2422436E-06  0.2435564E+04  0.7818609E-02  0.8426308E-01
        2   -1    0    0  501    0  0.00000000000E+00  0.00000000000E+00  0.24833759201E+04  0.24833759201E+04  0.25500000920E-02 0. -1.
       -2   -1    0    0    0  501  0.00000000000E+00  0.00000000000E+00 -0.59716827252E+03  0.59716827253E+03  0.25500000920E-02 0.  1.
    10030    2    1    2    0    0  0.00000000000E+00  0.00000000000E+00  0.18862076475E+04  0.30805441926E+04  0.24355642535E+04 0.  0.
        2    1    3    3  502    0 -0.39220199008E+03 -0.11528224371E+04  0.92654795949E+03  0.15301349920E+04  0.25500000920E-02 0.  1.
       -2    1    3    3    0  502  0.39220199008E+03  0.11528224371E+04  0.95965968804E+03  0.15504092006E+04  0.25500000920E-02 0. -1.
</event>
<event>
 5   0  0.2382711E-06  0.3632154E+04  0.7818609E-02  0.8083166E-01
       -2   -1    0    0    0  501  0.00000000000E+00  0.00000000000E+00  0.22787340077E+04  0.22787340077E+04  0.25500000920E-02 0. -1.
        2   -1    0    0  501    0  0.00000000000E+00  0.00000000000E+00 -0.14473545597E+04  0.14473545597E+04  0.25500000920E-02 0.  1.
    10030    2    1    2    0    0  0.00000000000E+00  0.00000000000E+00  0.83137944801E+03  0.37260885674E+04  0.36321542128E+04 0.  0.
        5    1    3    3  502    0 -0.17989293968E+04  0.20021330846E+03  0.56743970953E+03  0.18969033337E+04  0.46999998093E+01 0. -1.
       -5    1    3    3    0  502  0.17989293968E+04 -0.20021330846E+03  0.26393973847E+03  0.18291852337E+04  0.46999998093E+01 0.  1.
</event>
<event>
 5   0  0.2536619E-06  0.3557558E+04  0.7818609E-02  0.8100283E-01
       -2   -1    0    0    0  501  0.00000000000E+00  0.00000000000E+00  0.14534061746E+04  0.14534061746E+04  0.25500000920E-02 0. -1.
        2   -1    0    0  501    0  0.00000000000E+00  0.00000000000E+00 -0.21769928454E+04  0.21769928454E+04  0.25500000920E-02 0.  1.
    10030    2    1    2    0    0  0.00000000000E+00  0.00000000000E+00 -0.72358667075E+03  0.36303990200E+04  0.35575580634E+04 0.  0.
        1    1    3    3  502    0  0.16618581005E+04  0.47384610526E+03  0.68445945643E+02  0.17294471155E+04  0.50400001928E-02 0. -1.
       -1    1    3    3    0  502 -0.16618581005E+04 -0.47384610526E+03 -0.79203261640E+03  0.19009519045E+04  0.50400001928E-02 0.  1.
</event>
<event>
 5   0  0.1513502E-06  0.3735169E+04  0.7818609E-02  0.8060212E-01
        2   -1    0    0  501    0  0.00000000000E+00  0.00000000000E+00  0.22862591838E+04  0.22862591838E+04  0.25500000920E-02 0. -1.
       -2   -1    0    0    0  501  0.00000000000E+00  0.00000000000E+00 -0.15255802068E+04  0.15255802068E+04  0.25500000920E-02 0.  1.
    10030    2    1    2    0    0  0.00000000000E+00  0.00000000000E+00  0.76067897700E+03  0.38118393905E+04  0.37351689430E+04 0.  0.
        3    1    3    3  502    0 -0.12241688191E+04 -0.99559434628E+03  0.13998830599E+04  0.21093766832E+04  0.10100000352E+00 0. -1.
       -3    1    3    3    0  502  0.12241688191E+04  0.99559434628E+03 -0.63920408286E+03  0.17024627073E+04  0.10100000352E+00 0.  1.
</event>
<event>
 5   0  0.1908273E-06  0.3630290E+04  0.7818609E-02  0.8083588E-01
        1   -1    0    0  501    0  0.00000000000E+00  0.00000000000E+00  0.17886312998E+04  0.17886312998E+04  0.50400001928E-02 0. -1.
       -1   -1    0    0    0  501  0.00000000000E+00  0.00000000000E+00 -0.18420519181E+04  0.18420519181E+04  0.50400001928E-02 0.  1.
    10030    2    1    2    0    0  0.00000000000E+00  0.00000000000E+00 -0.53420618261E+02  0.36306832179E+04  0.36302901903E+04 0.  0.
        3    1    3    3  502    0  0.13020844626E+04  0.12085719851E+04  0.34572967951E+03  0.18098616556E+04  0.10100000352E+00 0.  1.
       -3    1    3    3    0  502 -0.13020844626E+04 -0.12085719851E+04 -0.39915029777E+03  0.18208215622E+04  0.10100000352E+00 0. -1.
</event>
<event>
 5   0  0.2452232E-06  0.1871000E+04  0.7818609E-02  0.8669427E-01
       -1   -1    0    0    0  501  0.00000000000E+00  0.00000000000E+00  0.10066999006E+04  0.10066999006E+04  0.50400001928E-02 0. -1.
        1   -1    0    0  501    0  0.00000000000E+00  0.00000000000E+00 -0.86933621188E+03  0.86933621189E+03  0.50400001928E-02 0.  1.
    10030    2    1    2    0    0  0.00000000000E+00  0.00000000000E+00  0.13736368872E+03  0.18760361125E+04  0.18710004576E+04 0.  0.
        5    1    3    3  502    0 -0.82987977319E+01  0.12862968245E+03  0.99774139361E+03  0.10060439572E+04  0.46999998093E+01 0. -1.
       -5    1    3    3    0  502  0.82987977319E+01 -0.12862968245E+03 -0.86037770489E+03  0.86999215532E+03  0.46999998093E+01 0.  1.
</event>
<event>
 5   0  0.1566576E-06  0.3634159E+04  0.7818609E-02  0.8082712E-01
       -2   -1    0    0    0  501  0.00000000000E+00  0.00000000000E+00  0.12911901804E+04  0.12911901804E+04  0.25500000920E-02 0. -1.
        2   -1    0    0  501    0  0.00000000000E+00  0.00000000000E+00 -0.25571582284E+04  0.25571582284E+04  0.25500000920E-02 0.  1.
    10030    2    1    2    0    0  0.00000000000E+00  0.00000000000E+00 -0.12659680480E+04  0.38483484088E+04  0.36341588266E+04 0.  0.
        4    1    3    3  502    0  0.15761130904E+04 -0.76706900820E+03 -0.12596545143E+03  0.17573833517E+04  0.12699999809E+01 0. -1.
       -4    1    3    3    0  502 -0.15761130904E+04  0.76706900820E+03 -0.11400025966E+04  0.20909650571E+04  0.12699999809E+01 0.  1.
</event>
<event>
 5   0  0.1566576E-06  0.3629596E+04  0.7818609E-02  0.8083746E-01
        2   -1    0    0  501    0  0.00000000000E+00  0.00000000000E+00  0.14860776445E+04  0.14860776446E+04  0.25500000920E-02 0.  1.
       -2   -1    0    0    0  501  0.00000000000E+00  0.00000000000E+00 -0.22162312232E+04  0.22162312232E+04  0.25500000920E-02 0. -1.
    10030    2    1    2    0    0  0.00000000000E+00  0.00000000000E+00 -0.73015357864E+03  0.37023088677E+04  0.36295959422E+04 0.  0.
        4    1    3    3  502    0  0.12808744526E+04 -0.12195994916E+04 -0.77995305189E+03  0.19329745625E+04  0.12699999809E+01 0. -1.
       -4    1    3    3    0  502 -0.12808744526E+04  0.12195994916E+04  0.49799473254E+02  0.17693343052E+04  0.12699999809E+01 0.  1.
</event>
<event>
 5   0  0.2382711E-06  0.1855784E+04  0.7818609E-02  0.8677184E-01
        2   -1    0    0  501    0  0.00000000000E+00  0.00000000000E+00  0.15234601168E+04  0.15234601168E+04  0.25500000920E-02 0. -1.
       -2   -1    0    0    0  501  0.00000000000E+00  0.00000000000E+00 -0.56514976364E+03  0.56514976365E+03  0.25500000920E-02 0.  1.
    10030    2    1    2    0    0  0.00000000000E+00  0.00000000000E+00  0.95831035318E+03  0.20886098805E+04  0.18557835272E+04 0.  0.
        5    1    3    3  502    0  0.22240519560E+03  0.84900085460E+03  0.14021697647E+03  0.88879098366E+03  0.46999998093E+01 0. -1.
       -5    1    3    3    0  502 -0.22240519560E+03 -0.84900085460E+03  0.81809337672E+03  0.11998188968E+04  0.46999998093E+01 0.  1.
</event>
<event>
 5   0  0.8423692E-07  0.1935421E+04  0.7818609E-02  0.8637423E-01
       -1   -1    0    0    0  501  0.00000000000E+00  0.00000000000E+00  0.36184193449E+03  0.36184193452E+03  0.50400001928E-02 0.  1.
        1   -1    0    0  501    0  0.00000000000E+00  0.00000000000E+00 -0.25880472021E+04  0.25880472021E+04  0.50400001928E-02 0. -1.
    10030    2    1    2    0    0  0.00000000000E+00  0.00000000000E+00 -0.22262052676E+04  0.29498891366E+04  0.19354214076E+04 0.  0.
        2    1    3    3  502    0  0.86989880448E+03 -0.40562291323E+03 -0.13010761194E+04  0.16168033109E+04  0.25500000920E-02 0.  1.
       -2    1    3    3    0  502 -0.86989880448E+03  0.40562291323E+03 -0.92512914819E+03  0.13330858257E+04  0.25500000920E-02 0. -1.
</event>
<event>
 5   0  0.1513502E-06  0.3652388E+04  0.7818609E-02  0.8078596E-01
       -2   -1    0    0    0  501  0.00000000000E+00  0.00000000000E+00  0.15674225594E+04  0.15674225594E+04  0.25500000920E-02 0.  1.
        2   -1    0    0  501    0  0.00000000000E+00  0.00000000000E+00 -0.21276864694E+04  0.21276864694E+04  0.25500000920E-02 0. -1.
    10030    2    1    2    0    0  0.00000000000E+00  0.00000000000E+00 -0.56026390993E+03  0.36951090288E+04  0.36523875870E+04 0.  0.
        3    1    3    3  502    0 -0.49151042803E+03 -0.67228135761E+03 -0.19243927246E+04  0.20968624402E+04  0.10100000352E+00 0. -1.
       -3    1    3    3    0  502  0.49151042803E+03  0.67228135761E+03  0.13641288147E+04  0.15982465886E+04  0.10100000352E+00 0.  1.
</event>
<event>
 5   0  0.7754556E-07  0.3610431E+04  0.7818609E-02  0.8088107E-01
        1   -1    0    0  501    0  0.00000000000E+00  0.00000000000E+00  0.19676231943E+04  0.19676231943E+04  0.50400001928E-02 0. -1.
       -1   -1    0    0    0  501  0.00000000000E+00  0.00000000000E+00 -0.16562128698E+04  0.16562128698E+04  0.50400001928E-02 0.  1.
    10030    2    1    2    0    0  0.00000000000E+00  0.00000000000E+00  0.31141032451E+03  0.36238360641E+04  0.36104309201E+04 0.  0.
        4    1    3    3  502    0  0.70681655188E+03 -0.15013290708E+04 -0.55772406865E+03  0.17506102840E+04  0.12699999809E+01 0.  1.
       -4    1    3    3    0  502 -0.70681655188E+03  0.15013290708E+04  0.86913439315E+03  0.18732257801E+04  0.12699999809E+01 0. -1.
</event>
<event>
 5   0  0.1513502E-06  0.3710692E+04  0.7818609E-02  0.8065597E-01
        2   -1    0    0  501    0  0.00000000000E+00  0.00000000000E+00  0.12479308662E+04  0.12479308662E+04  0.25500000920E-02 0.  1.
       -2   -1    0    0    0  501  0.00000000000E+00  0.00000000000E+00 -0.27584128760E+04  0.27584128760E+04  0.25500000920E-02 0. -1.
    10030    2    1    2    0    0  0.00000000000E+00  0.00000000000E+00 -0.15104820099E+04  0.40063437422E+04  0.37106918868E+04 0.  0.
        3    1    3    3  502    0 -0.40205101341E+03 -0.70006493704E+03 -0.25588399764E+04  0.26831693887E+04  0.10100000352E+00 0. -1.
       -3    1    3    3    0  502  0.40205101341E+03  0.70006493704E+03  0.10483579665E+04  0.13231743535E+04  0.10100000352E+00 0.  1.
</event>
<event>
 5   0  0.2382711E-06  0.3679545E+04  0.7818609E-02  0.8072510E-01
        2   -1    0    0  501    0  0.00000000000E+00  0.00000000000E+00  0.20397720813E+04  0.20397720813E+04  0.25500000920E-02 0. -1.
       -2   -1    0    0    0  501  0.00000000000E+00  0.00000000000E+00 -0.16593827430E+04  0.16593827430E+04  0.25500000920E-02 0.  1.
    10030    2    1    2    0    0  0.00000000000E+00  0.00000000000E+00  0.38038933829E+03  0.36991548243E+04  0.36795448585E+04 0.  0.
        5    1    3    3  502    0 -0.23264909780E+03  0.73691218679E+03  0.18686960881E+04  0.20221800942E+04  0.46999998093E+01 0. -1.
       -5    1    3    3    0  502  0.23264909780E+03 -0.73691218679E+03 -0.14883067498E+04  0.16769747301E+04  0.46999998093E+01 0.  1.
</event>
<event>
 5   0  0.2536619E-06  0.3698896E+04  0.7818609E-02  0.8068206E-01
       -2   -1    0    0    0  501  0.00000000000E+00  0.00000000000E+00  0.12205508600E+04  0.12205508600E+04  0.25500000920E-02 0.  1.
        2   -1    0    0  501    0  0.00000000000E+00  0.00000000000E+00 -0.28023889493E+04  0.28023889493E+04  0.25500000920E-02 0. -1.
    10030    2    1    2    0    0  0.00000000000E+00  0.00000000000E+00 -0.15818380893E+04  0.40229398093E+04  0.36988961824E+04 0.  0.
        1    1    3    3  502    0  0.53672021476E+03 -0.35580672999E+03  0.10946862924E+04  0.12700413760E+04  0.50400001928E-02 0.  1.
       -1    1    3    3    0  502 -0.53672021476E+03  0.35580672999E+03 -0.26765243817E+04  0.27528984333E+04  0.50400001928E-02 0. -1.
</event>
<event>
 5   0  0.2422436E-06  0.2325385E+04  0.7818609E-02  0.8467979E-01
        2   -1    0    0  501    0  0.00000000000E+00  0.00000000000E+00  0.21852495348E+04  0.21852495348E+04  0.25500000920E-02 0.  1.
       -2   -1    0    0    0  501  0.00000000000E+00  0.00000000000E+00 -0.61862686094E+03  0.61862686094E+03  0.25500000920E-02 0. -1.
    10030    2    1    2    0    0  0.00000000000E+00  0.00000000000E+00  0.15666226739E+04  0.28038763958E+04  0.23253851811E+04 0.  0.
        2    1    3    3  502    0  0.11367821121E+04 -0.90548617396E+02  0.50999405735E+03  0.12492263850E+04  0.25500000920E-02 0. -1.
       -2    1    3    3    0  502 -0.11367821121E+04  0.90548617396E+02  0.10566286166E+04  0.15546500107E+04  0.25500000920E-02 0.  1.
</event>
<event>
 5   0  0.8423692E-07  0.2660769E+04  0.7818609E-02  0.8347847E-01
        1   -1    0    0  501    0  0.00000000000E+00  0.00000000000E+00  0.16206664902E+04  0.16206664902E+04  0.50400001928E-02 0.  1.
       -1   -1    0    0    0  501  0.00000000000E+00  0.00000000000E+00 -0.10920957757E+04  0.10920957757E+04  0.50400001928E-02 0. -1.
    10030    2    1    2    0    0  0.00000000000E+00  0.00000000000E+00  0.52857071446E+03  0.27127622659E+04  0.26607690826E+04 0.  0.
        2    1    3    3  502    0  0.10707075716E+03  0.13260549119E+04  0.27050801071E+03  0.13575935917E+04  0.25500000920E-02 0. -1.
       -2    1    3    3    0  502 -0.10707075716E+03 -0.13260549119E+04  0.25806270375E+03  0.13551686742E+04  0.25500000920E-02 0.  1.
</event>
<event>
 5   0  0.1566576E-06  0.3597552E+04  0.7818609E-02  0.8091053E-01
        2   -1    0    0  501    0  0.00000000000E+00  0.00000000000E+00  0.18417504087E+04  0.18417504087E+04  0.25500000920E-02 0.  1.
       -2   -1    0    0    0  501  0.00000000000E+00  0.00000000000E+00 -0.17568041375E+04  0.17568041375E+04  0.25500000920E-02 0. -1.
    10030    2    1    2    0    0  0.00000000000E+00  0.00000000000E+00  0.84946271173E+02  0.35985545462E+04  0.35975517999E+04 0.  0.
        4    1    3    3  502    0  0.10796379147E+04  0.33066524245E+03  0.14430904012E+04  0.18323397743E+04  0.12699999809E+01 0.  1.
       -4    1    3    3    0  502 -0.10796379147E+04 -0.33066524245E+03 -0.13581441301E+04  0.17662147719E+04  0.12699999809E+01 0. -1.
</event>
<event>
 5   0  0.1513502E-06  0.3565067E+04  0.7818609E-02  0.8098541E-01
       -2   -1    0    0    0  501  0.00000000000E+00  0.00000000000E+00  0.11133532365E+04  0.11133532365E+04  0.25500000920E-02 0.  1.
        2   -1    0    0  501    0  0.00000000000E+00  0.00000000000E+00 -0.28539236001E+04  0.28539236001E+04  0.25500000920E-02 0. -1.
    10030    2    1    2    0    0  0.00000000000E+00  0.00000000000E+00 -0.17405703635E+04  0.39672768366E+04  0.35650666625E+04 0.  0.
        3    1    3    3  502    0  0.14486169094E+04  0.36950103712E+03 -0.19505822677E+04  0.24575990641E+04  0.10100000352E+00 0. -1.
       -3    1    3    3    0  502 -0.14486169094E+04 -0.36950103712E+03  0.21001190413E+03  0.15096777725E+04  0.10100000352E+00 0.  1.
</event>
<event>
 5   0  0.7754556E-07  0.2253764E+04  0.7818609E-02  0.8496378E-01
       -1   -1    0    0    0  501  0.00000000000E+00  0.00000000000E+00  0.70025029972E+03  0.70025029974E+03  0.50400001928E-02 0. -1.
        1   -1    0    0  501    0  0.00000000000E+00  0.00000000000E+00 -0.18134420873E+04  0.18134420873E+04  0.50400001928E-02 0.  1.
    10030    2    1    2    0    0  0.00000000000E+00  0.00000000000E+00 -0.11131917876E+04  0.25136923870E+04  0.22537642869E+04 0.  0.
        4    1    3    3  502    0 -0.51796607484E+03  0.24572627999E+02 -0.16724668372E+04  0.17510110231E+04  0.12699999809E+01 0.  1.
       -4    1    3    3    0  502  0.51796607484E+03 -0.24572627999E+02  0.55927504966E+03  0.76268136387E+03  0.12699999809E+01 0. -1.
</event>
<event>
 5   0  0.1566576E-06  0.2003582E+04  0.7818609E-02  0.8604948E-01
       -2   -1    0    0    0  501  0.00000000000E+00  0.00000000000E+00  0.11904515868E+04  0.11904515868E+04  0.25500000920E-02 0. -1.
        2   -1    0    0  501    0  0.00000000000E+00  0.00000000000E+00 -0.84302898044E+03  0.84302898044E+03  0.25500000920E-02 0.  1.
    10030    2    1    2    0    0  0.00000000000E+00  0.00000000000E+00  0.34742260640E+03  0.20334805673E+04  0.20035819799E+04 0.  0.
        4    1    3    3  502    0 -0.79896635373E+03 -0.59754231656E+03  0.81920996214E+02  0.10010577990E+04  0.12699999809E+01 0.  1.
       -4    1    3    3    0  502  0.79896635373E+03  0.59754231656E+03  0.26550161018E+03  0.10324227682E+04  0.12699999809E+01 0. -1.
</event>
<event>
 5   0  0.8452742E-07  0.2176802E+04  0.7818609E-02  0.8528146E-01
       -1   -1    0    0    0  501  0.00000000000E+00  0.00000000000E+00  0.10847609643E+04  0.10847609643E+04  0.50400001928E-02 0.  1.
        1   -1    0    0  501    0  0.00000000000E+00  0.00000000000E+00 -0.10920528877E+04  0.10920528877E+04  0.50400001928E-02 0. -1.
    10030    2    1    2    0    0  0.00000000000E+00  0.00000000000E+00 -0.72919234270E+01  0.21768138520E+04  0.21768016387E+04 0.  0.
        1    1    3    3  502    0 -0.48337311944E+03  0.82407861311E+02  0.96804653609E+03  0.10851519360E+04  0.50400001928E-02 0.  1.
       -1    1    3    3    0  502  0.48337311944E+03 -0.82407861311E+02 -0.97533845952E+03  0.10916619160E+04  0.50400001928E-02 0. -1.
</event>
<event>
 5   0  0.2382711E-06  0.3614790E+04  0.7818609E-02  0.8087112E-01
       -2   -1    0    0    0  501  0.00000000000E+00  0.00000000000E+00  0.14623978626E+04  0.14623978626E+04  0.25500000920E-02 0.  1.
        2   -1    0    0  501    0  0.00000000000E+00  0.00000000000E+00 -0.22337808088E+04  0.22337808088E+04  0.25500000920E-02 0. -1.
    10030    2    1    2    0    0  0.00000000000E+00  0.00000000000E+00 -0.77138294619E+03  0.36961786714E+04  0.36147897755E+04 0.  0.
        5    1    3    3  502    0  0.12237125846E+03 -0.85580376293E+03 -0.20086524509E+04  0.21867971017E+04  0.46999998093E+01 0. -1.
       -5    1    3    3    0  502 -0.12237125846E+03  0.85580376293E+03  0.12372695047E+04  0.15093815697E+04  0.46999998093E+01 0.  1.
</event>
<event>
 5   0  0.2382711E-06  0.2479042E+04  0.7818609E-02  0.8410490E-01
       -2   -1    0    0    0  501  0.00000000000E+00  0.00000000000E+00  0.14911111355E+04  0.14911111355E+04  0.25500000920E-02 0. -1.
        2   -1    0    0  501    0  0.00000000000E+00  0.00000000000E+00 -0.10303809199E+04  0.10303809199E+04  0.25500000920E-02 0.  1.
    10030    2    1    2    0    0  0.00000000000E+00  0.00000000000E+00  0.46073021565E+03  0.25214920554E+04  0.24790421242E+04 0.  0.
        5    1    3    3  502    0  0.40293204292E+03 -0.49796447621E+03 -0.84896903201E+03  0.10635287293E+04  0.46999998093E+01 0.  1.
       -5    1    3    3    0  502 -0.40293204292E+03  0.49796447621E+03  0.13096992477E+04  0.14579633260E+04  0.46999998093E+01 0. -1.
</event>
<event>
 5   0  0.7754556E-07  0.1890899E+04  0.7818609E-02  0.8659400E-01
        1   -1    0    0  501    0  0.00000000000E+00  0.00000000000E+00  0.96993064157E+03  0.96993064158E+03  0.50400001928E-02 0.  1.
       -1   -1    0    0    0  501  0.00000000000E+00  0.00000000000E+00 -0.92158667321E+03  0.92158667323E+03  0.50400001928E-02 0. -1.
    10030    2    1    2    0    0  0.00000000000E+00  0.00000000000E+00  0.48343968356E+02  0.18915173148E+04  0.18908994190E+04 0.  0.
        4    1    3    3  502    0 -0.85450194551E+03 -0.33267408986E+03  0.25452514195E+03  0.95164609269E+03  0.12699999809E+01 0. -1.
       -4    1    3    3    0  502  0.85450194551E+03  0.33267408986E+03 -0.20618117359E+03  0.93987122213E+03  0.12699999809E+01 0.  1.
</event>
<event>
 5   0  0.1634374E-06  0.2081126E+04  0.7818609E-02  0.8569604E-01
        1   -1    0    0  501    0  0.00000000000E+00  0.00000000000E+00  0.84102946796E+03  0.84102946797E+03  0.50400001928E-02 0. -1.
       -1   -1    0    0    0  501  0.00000000000E+00  0.00000000000E+00 -0.12874353598E+04  0.12874353599E+04  0.50400001928E-02 0.  1.
    10030    2    1    2    0    0  0.00000000000E+00  0.00000000000E+00 -0.44640589189E+03  0.21284648278E+04  0.20811257297E+04 0.  0.
        5    1    3    3  502    0 -0.10352186514E+04 -0.21824603557E+02 -0.11792946765E+03  0.10421532607E+04  0.46999998093E+01 0. -1.
       -5    1    3    3    0  502  0.10352186514E+04  0.21824603557E+02 -0.32847642424E+03  0.10863115671E+04  0.46999998093E+01 0.  1.
</event>
<event>
 5   0  0.2382711E-06  0.3837116E+04  0.7818609E-02  0.8038236E-01
        2   -1    0    0  501    0  0.00000000000E+00  0.00000000000E+00  0.11806774314E+04  0.11806774314E+04  0.25500000920E-02 0. -1.
       -2   -1    0    0    0  501  0.00000000000E+00  0.00000000000E+00 -0.31175874845E+04  0.31175874845E+04  0.25500000920E-02 0.  1.
    10030    2    1    2    0    0  0.00000000000E+00  0.00000000000E+00 -0.19369100531E+04  0.42982649159E+04  0.38371162001E+04 0.  0.
        5    1    3    3  502    0  0.47264640360E+03  0.13817264222E+04  0.42538540742E+03  0.15210316773E+04  0.46999998093E+01 0. -1.
       -5    1    3    3    0  502 -0.47264640360E+03 -0.13817264222E+04 -0.23622954606E+04  0.27772332386E+04  0.46999998093E+01 0.  1.
</event>
<event>
 5   0  0.1566576E-06  0.3661144E+04  0.7818609E-02  0.8076628E-01
        2   -1    0    0  501    0  0.00000000000E+00  0.00000000000E+00  0.18819850465E+04  0.18819850465E+04  0.25500000920E-02 0.  1.
       -2   -1    0    0    0  501  0.00000000000E+00  0.00000000000E+00 -0.17805636993E+04  0.17805636993E+04  0.25500000920E-02 0. -1.
    10030    2    1    2    0    0  0.00000000000E+00  0.00000000000E+00  0.10142134729E+03  0.36625487458E+04  0.36611442236E+04 0.  0.
        4    1    3    3  502    0  0.71624337090E+03 -0.66182947554E+03 -0.14990672373E+04  0.17883587492E+04  0.12699999809E+01 0. -1.
       -4    1    3    3    0  502 -0.71624337090E+03  0.66182947554E+03  0.16004885846E+04  0.18741899966E+04  0.12699999809E+01 0.  1.
</event>
<event>
 5   0  0.1566576E-06  0.3395791E+04  0.7818609E-02  0.8138940E-01
        2   -1    0    0  501    0  0.00000000000E+00  0.00000000000E+00  0.15278595254E+04  0.15278595254E+04  0.25500000920E-02 0. -1.
       -2   -1    0    0    0  501  0.00000000000E+00  0.00000000000E+00 -0.18868551092E+04  0.18868551092E+04  0.25500000920E-02 0.  1.
    10030    2    1    2    0    0  0.00000000000E+00  0.00000000000E+00 -0.35899558376E+03  0.34147146346E+04  0.33957912489E+04 0.  0.
        4    1    3    3  502    0 -0.14293184034E+04 -0.89725800076E+03 -0.36715208221E+03  0.17270857774E+04  0.12699999809E+01 0.  1.
       -4    1    3    3    0  502  0.14293184034E+04  0.89725800076E+03  0.81564984519E+01  0.16876288572E+04  0.12699999809E+01 0. -1.
</event>
<event>
 5   0  0.1566576E-06  0.3651893E+04  0.7818609E-02  0.8078707E-01
        2   -1    0    0  501    0  0.00000000000E+00  0.00000000000E+00  0.21575748600E+04  0.21575748600E+04  0.25500000920E-02 0.  1.
       -2   -1    0    0    0  501  0.00000000000E+00  0.00000000000E+00 -0.15452906505E+04  0.15452906505E+04  0.25500000920E-02 0. -1.
    10030    2    1    2    0    0  0.00000000000E+00  0.00000000000E+00  0.61228420948E+03  0.37028655105E+04  0.36518928018E+04 0.  0.
        4    1    3    3  502    0 -0.14593512681E+04 -0.10928227002E+04  0.20418477817E+03  0.18345736873E+04  0.12699999809E+01 0.  1.
       -4    1    3    3    0  502  0.14593512681E+04  0.10928227002E+04  0.40809943131E+03  0.18682918232E+04  0.12699999809E+01 0. -1.
</event>
<event>
 5   0  0.8423692E-07  0.3630571E+04  0.7818609E-02  0.8083525E-01
        1   -1    0    0  501    0  0.00000000000E+00  0.00000000000E+00  0.92480711336E+03  0.92480711338E+03  0.50400001928E-02 0. -1.
       -1   -1    0    0    0  501  0.00000000000E+00  0.00000000000E+00 -0.35631873258E+04  0.35631873258E+04  0.50400001928E-02 0.  1.
    10030    2    1    2    0    0  0.00000000000E+00  0.00000000000E+00 -0.26383802125E+04  0.44879944392E+04  0.36305707459E+04 0.  0.
        2    1    3    3  502    0 -0.10454305631E+04  0.10869835658E+04 -0.70230764399E+02  0.15097651125E+04  0.25500000920E-02 0. -1.
       -2    1    3    3    0  502  0.10454305631E+04 -0.10869835658E+04 -0.25681494481E+04  0.29782293267E+04  0.25500000920E-02 0.  1.
</event>
<event>
 5   0  0.8423692E-07  0.3513767E+04  0.7818609E-02  0.8110535E-01
        1   -1    0    0  501    0  0.00000000000E+00  0.00000000000E+00  0.13232251757E+04  0.13232251757E+04  0.50400001928E-02 0. -1.
       -1   -1    0    0    0  501  0.00000000000E+00  0.00000000000E+00 -0.23326644776E+04  0.23326644776E+04  0.50400001928E-02 0.  1.
    10030    2    1    2    0    0  0.00000000000E+00  0.00000000000E+00 -0.10094393019E+04  0.36558896533E+04  0.35137674159E+04 0.  0.
        2    1    3    3  502    0 -0.71171626575E+03 -0.13878659515E+03  0.11602685932E+04  0.13682196352E+04  0.25500000920E-02 0. -1.
       -2    1    3    3    0  502  0.71171626575E+03  0.13878659515E+03 -0.21697078950E+04  0.22876700181E+04  0.25500000920E-02 0.  1.
</event>
<event>
 5   0  0.1513502E-06  0.3146226E+04  0.7818609E-02  0.8203165E-01
        2   -1    0    0  501    0  0.00000000000E+00  0.00000000000E+00  0.11699359022E+04  0.11699359022E+04  0.25500000920E-02 0.  1.
       -2   -1    0    0    0  501  0.00000000000E+00  0.00000000000E+00 -0.21152310934E+04  0.21152310934E+04  0.25500000920E-02 0. -1.
    10030    2    1    2    0    0  0.00000000000E+00  0.00000000000E+00 -0.94529519122E+03  0.32851669956E+04  0.31462261824E+04 0.  0.
        3    1    3    3  502    0 -0.11634530712E+04 -0.57735381771E+03 -0.13993806078E+04  0.19092476464E+04  0.10100000352E+00 0. -1.
       -3    1    3    3    0  502  0.11634530712E+04  0.57735381771E+03  0.45408541655E+03  0.13759193492E+04  0.10100000352E+00 0.  1.
</event>
<event>
 5   0  0.1634374E-06  0.3626723E+04  0.7818609E-02  0.8084398E-01
       -1   -1    0    0    0  501  0.00000000000E+00  0.00000000000E+00  0.14438513620E+04  0.14438513620E+04  0.50400001928E-02 0. -1.
        1   -1    0    0  501    0  0.00000000000E+00  0.00000000000E+00 -0.22774360882E+04  0.22774360882E+04  0.50400001928E-02 0.  1.
    10030    2    1    2    0    0  0.00000000000E+00  0.00000000000E+00 -0.83358472617E+03  0.37212874502E+04  0.36267225964E+04 0.  0.
        5    1    3    3  502    0  0.12010495062E+03 -0.10293995743E+04  0.11100148632E+04  0.15186322034E+04  0.46999998093E+01 0. -1.
       -5    1    3    3    0  502 -0.12010495062E+03  0.10293995743E+04 -0.19435995894E+04  0.22026552468E+04  0.46999998093E+01 0.  1.
</event>
<event>
 5   0  0.7707500E-07  0.3619209E+04  0.7818609E-02  0.8086106E-01
        3   -1    0    0  501    0  0.00000000000E+00  0.00000000000E+00  0.16758749622E+04  0.16758749653E+04  0.10100000352E+00 0.  1.
       -3   -1    0    0    0  501  0.00000000000E+00  0.00000000000E+00 -0.19540052392E+04  0.19540052419E+04  0.10100000352E+00 0. -1.
    10030    2    1    2    0    0  0.00000000000E+00  0.00000000000E+00 -0.27813027704E+03  0.36298802071E+04  0.36192090112E+04 0.  0.
        4    1    3    3  502    0 -0.62303890523E+03  0.81273548401E+02 -0.18410908823E+04  0.19453534684E+04  0.12699999809E+01 0. -1.
       -4    1    3    3    0  502  0.62303890523E+03 -0.81273548401E+02  0.15629606053E+04  0.16845267388E+04  0.12699999809E+01 0.  1.
</event>
<event>
 5   0  0.2422436E-06  0.3192034E+04  0.7818609E-02  0.8190924E-01
        2   -1    0    0  501    0  0.00000000000E+00  0.00000000000E+00  0.20728522842E+04  0.20728522842E+04  0.25500000920E-02 0.  1.
       -2   -1    0    0    0  501  0.00000000000E+00  0.00000000000E+00 -0.12288721373E+04  0.12288721373E+04  0.25500000920E-02 0. -1.
    10030    2    1    2    0    0  0.00000000000E+00  0.00000000000E+00  0.84398014686E+03  0.33017244215E+04  0.31920340955E+04 0.  0.
        2    1    3    3  502    0 -0.59099635011E+03 -0.55914300601E+03  0.18422558395E+04  0.20139076854E+04  0.25500000920E-02 0.  1.
       -2    1    3    3    0  502  0.59099635011E+03  0.55914300601E+03 -0.99827569268E+03  0.12878167360E+04  0.25500000920E-02 0. -1.
</event>
<event>
 5   0  0.8452742E-07  0.3409236E+04  0.7818609E-02  0.8135643E-01
        1   -1    0    0  501    0  0.00000000000E+00  0.00000000000E+00  0.18004373591E+04  0.18004373591E+04  0.50400001928E-02 0. -1.
       -1   -1    0    0    0  501  0.00000000000E+00  0.00000000000E+00 -0.16138976889E+04  0.16138976890E+04  0.50400001928E-02 0.  1.
    10030    2    1    2    0    0  0.00000000000E+00  0.00000000000E+00  0.18653967012E+03  0.34143350480E+04  0.34092355113E+04 0.  0.
        1    1    3    3  502    0 -0.66073110120E+03 -0.73743625311E+03  0.14829129714E+04  0.17830896490E+04  0.50400001928E-02 0. -1.
       -1    1    3    3    0  502  0.66073110120E+03  0.73743625311E+03 -0.12963733013E+04  0.16312453990E+04  0.50400001928E-02 0.  1.
</event>
<event>
 5   0  0.1513502E-06  0.3594810E+04  0.7818609E-02  0.8091682E-01
       -2   -1    0    0    0  501  0.00000000000E+00  0.00000000000E+00  0.21295120547E+04  0.21295120547E+04  0.25500000920E-02 0. -1.
        2   -1    0    0  501    0  0.00000000000E+00  0.00000000000E+00 -0.15170916064E+04  0.15170916064E+04  0.25500000920E-02 0.  1.
    10030    2    1    2    0    0  0.00000000000E+00  0.00000000000E+00  0.61242044834E+03  0.36466036611E+04  0.35948100722E+04 0.  0.
        3    1    3    3  502    0 -0.98110650553E+03  0.84837198470E+03 -0.95604903466E+03  0.16113146082E+04  0.10100000352E+00 0.  1.
       -3    1    3    3    0  502  0.98110650553E+03 -0.84837198470E+03  0.15684694830E+04  0.20352890529E+04  0.10100000352E+00 0. -1.
</event>
<event>
 5   0  0.1936549E-06  0.1818872E+04  0.7818609E-02  0.8696327E-01
        2   -1    0    0  501    0  0.00000000000E+00  0.00000000000E+00  0.14681567329E+04  0.14681567329E+04  0.25500000920E-02 0. -1.
       -2   -1    0    0    0  501  0.00000000000E+00  0.00000000000E+00 -0.56334193758E+03  0.56334193759E+03  0.25500000920E-02 0.  1.
    10030    2    1    2    0    0  0.00000000000E+00  0.00000000000E+00  0.90481479531E+03  0.20314986705E+04  0.18188724624E+04 0.  0.
        4    1    3    3  502    0  0.24959222586E+03 -0.68279837005E+03 -0.15787677574E+03  0.74393318421E+03  0.12699999809E+01 0.  1.
       -4    1    3    3    0  502 -0.24959222586E+03  0.68279837005E+03  0.10626915710E+04  0.12875654863E+04  0.12699999809E+01 0. -1.
</event>
<event>
 5   0  0.1566576E-06  0.3551451E+04  0.7818609E-02  0.8101704E-01
        2   -1    0    0  501    0  0.00000000000E+00  0.00000000000E+00  0.11537085123E+04  0.11537085123E+04  0.25500000920E-02 0. -1.
       -2   -1    0    0    0  501  0.00000000000E+00  0.00000000000E+00 -0.27331000499E+04  0.27331000499E+04  0.25500000920E-02 0.  1.
    10030    2    1    2    0    0  0.00000000000E+00  0.00000000000E+00 -0.15793915375E+04  0.38868085622E+04  0.35514508543E+04 0.  0.
        4    1    3    3  502    0 -0.47271153865E+03  0.28337535897E+03  0.10577308868E+04  0.11927086965E+04  0.12699999809E+01 0. -1.
       -4    1    3    3    0  502  0.47271153865E+03 -0.28337535897E+03 -0.26371224243E+04  0.26940998657E+04  0.12699999809E+01 0.  1.
</event>
<event>
 5   0  0.7707500E-07  0.1909925E+04  0.7818609E-02  0.8649932E-01
       -4   -1    0    0    0  501  0.00000000000E+00  0.00000000000E+00  0.61257379002E+03  0.61257510651E+03  0.12699999809E+01 0.  1.
        4   -1    0    0  501    0  0.00000000000E+00  0.00000000000E+00 -0.14887213762E+04  0.14887219179E+04  0.12699999809E+01 0. -1.
    10030    2    1    2    0    0  0.00000000000E+00  0.00000000000E+00 -0.87614758622E+03  0.21012970245E+04  0.19099252844E+04 0.  0.
        1    1    3    3  502    0  0.22163575908E+03  0.76524807579E+03  0.14120620495E+03  0.80911446628E+03  0.50400001928E-02 0.  1.
       -1    1    3    3    0  502 -0.22163575908E+03 -0.76524807579E+03 -0.10173537912E+04  0.12921825582E+04  0.50400001928E-02 0. -1.
</event>
<event>
 5   0  0.1566576E-06  0.3532110E+04  0.7818609E-02  0.8106222E-01
       -2   -1    0    0    0  501  0.00000000000E+00  0.00000000000E+00  0.19642164543E+04  0.19642164543E+04  0.25500000920E-02 0.  1.
        2   -1    0    0  501    0  0.00000000000E+00  0.00000000000E+00 -0.15878849440E+04  0.15878849440E+04  0.25500000920E-02 0. -1.
    10030    2    1    2    0    0  0.00000000000E+00  0.00000000000E+00  0.37633151031E+03  0.35521013982E+04  0.35321097007E+04 0.  0.
        4    1    3    3  502    0 -0.42324020986E+03  0.70012882446E+03  0.17621555150E+04  0.19428088733E+04  0.12699999809E+01 0.  1.
       -4    1    3    3    0  502  0.42324020986E+03 -0.70012882446E+03 -0.13858240047E+04  0.16092925250E+04  0.12699999809E+01 0. -1.
</event>
<event>
 5   0  0.7754556E-07  0.3716467E+04  0.7818609E-02  0.8064322E-01
       -1   -1    0    0    0  501  0.00000000000E+00  0.00000000000E+00  0.17440808654E+04  0.17440808654E+04  0.50400001928E-02 0.  1.
        1   -1    0    0  501    0  0.00000000000E+00  0.00000000000E+00 -0.19798572944E+04  0.19798572944E+04  0.50400001928E-02 0. -1.
    10030    2    1    2    0    0  0.00000000000E+00  0.00000000000E+00 -0.23577642899E+03  0.37239381598E+04  0.37164667217E+04 0.  0.
        4    1    3    3  502    0  0.53134085085E+03  0.16142771886E+04  0.63516485008E+03  0.18142904787E+04  0.12699999809E+01 0.  1.
       -4    1    3    3    0  502 -0.53134085085E+03 -0.16142771886E+04 -0.87094127908E+03  0.19096476811E+04  0.12699999809E+01 0. -1.
</event>
<event>
 5   0  0.1634374E-06  0.2542507E+04  0.7818609E-02  0.8387997E-01
        1   -1    0    0  501    0  0.00000000000E+00  0.00000000000E+00  0.11357759037E+04  0.11357759037E+04  0.50400001928E-02 0. -1.
       -1   -1    0    0    0  501  0.00000000000E+00  0.00000000000E+00 -0.14228912016E+04  0.14228912016E+04  0.50400001928E-02 0.  1.
    10030    2    1    2    0    0  0.00000000000E+00  0.00000000000E+00 -0.28711529783E+03  0.25586671053E+04  0.25425070622E+04 0.  0.
        5    1    3    3  502    0 -0.69926577154E+03  0.20756513550E+03  0.90421672040E+03  0.11617598169E+04  0.46999998093E+01 0. -1.
       -5    1    3    3    0  502  0.69926577154E+03 -0.20756513550E+03 -0.11913320182E+04  0.13969072884E+04  0.46999998093E+01 0.  1.
</event>
<event>
 5   0  0.1566576E-06  0.3194097E+04  0.7818609E-02  0.8190378E-01
       -2   -1    0    0    0  501  0.00000000000E+00  0.00000000000E+00  0.90008046946E+03  0.90008046946E+03  0.25500000920E-02 0. -1.
        2   -1    0    0  501    0  0.00000000000E+00  0.00000000000E+00 -0.28337061979E+04  0.28337061979E+04  0.25500000920E-02 0.  1.
    10030    2    1    2    0    0  0.00000000000E+00  0.00000000000E+00 -0.19336257284E+04  0.37337866673E+04  0.31940968081E+04 0.  0.
        4    1    3    3  502    0  0.72734927018E+03  0.47566168798E+03 -0.25330821526E+04  0.26780212485E+04  0.12699999809E+01 0.  1.
       -4    1    3    3    0  502 -0.72734927018E+03 -0.47566168798E+03  0.59945642423E+03  0.10557654189E+04  0.12699999809E+01 0. -1.
</event>
<event>
 5   0  0.1908273E-06  0.3565383E+04  0.7818609E-02  0.8098468E-01
       -1   -1    0    0    0  501  0.00000000000E+00  0.00000000000E+00  0.12788500223E+04  0.12788500223E+04  0.50400001928E-02 0.  1.
        1   -1    0    0  501    0  0.00000000000E+00  0.00000000000E+00 -0.24850358584E+04  0.24850358584E+04  0.50400001928E-02 0. -1.
    10030    2    1    2    0    0  0.00000000000E+00  0.00000000000E+00 -0.12061858361E+04  0.37638858807E+04  0.35653825393E+04 0.  0.
        3    1    3    3  502    0  0.14095674912E+04  0.19959468110E+03  0.52961733916E+03  0.15189513110E+04  0.10100000352E+00 0.  1.
       -3    1    3    3    0  502 -0.14095674912E+04 -0.19959468110E+03 -0.17358031752E+04  0.22449345697E+04  0.10100000352E+00 0. -1.
</event>
<event>
 5   0  0.8452742E-07  0.2080754E+04  0.7818609E-02  0.8569769E-01
        1   -1    0    0  501    0  0.00000000000E+00  0.00000000000E+00  0.17020846256E+04  0.17020846256E+04  0.50400001928E-02 0.  1.
       -1   -1    0    0    0  501  0.00000000000E+00  0.00000000000E+00 -0.63591673899E+03  0.63591673901E+03  0.50400001928E-02 0. -1.
    10030    2    1    2    0    0  0.00000000000E+00  0.00000000000E+00  0.10661678867E+04  0.23380013647E+04  0.20807538102E+04 0.  0.
        1    1    3    3  502    0  0.73796829899E+03  0.15750154883E+03  0.13378586984E+04  0.15359914860E+04  0.50400001928E-02 0.  1.
       -1    1    3    3    0  502 -0.73796829899E+03 -0.15750154883E+03 -0.27169081177E+03  0.80200987863E+03  0.50400001928E-02 0. -1.
</event>
<event>
 5   0  0.8423692E-07  0.3648496E+04  0.7818609E-02  0.8079472E-01
       -1   -1    0    0    0  501  0.00000000000E+00  0.00000000000E+00  0.32879942491E+04  0.32879942491E+04  0.50400001928E-02 0. -1.
        1   -1    0    0  501    0  0.00000000000E+00  0.00000000000E+00 -0.10121311884E+04  0.10121311884E+04  0.50400001928E-02 0.  1.
    10030    2    1    2    0    0  0.00000000000E+00  0.00000000000E+00  0.22758630606E+04  0.43001254375E+04  0.36484964174E+04 0.  0.
        2    1    3    3  502    0  0.82881335432E+03 -0.12149464400E+03 -0.77205449384E+03  0.11391929890E+04  0.25500000920E-02 0.  1.
       -2    1    3    3    0  502 -0.82881335432E+03  0.12149464400E+03  0.30479175545E+04  0.31609324485E+04  0.25500000920E-02 0. -1.
</event>
<event>
 5   0  0.1513502E-06  0.3651260E+04  0.7818609E-02  0.8078850E-01
        2   -1    0    0  501    0  0.00000000000E+00  0.00000000000E+00  0.25067292395E+04  0.25067292395E+04  0.25500000920E-02 0.  1.
       -2   -1    0    0    0  501  0.00000000000E+00  0.00000000000E+00 -0.13295913110E+04  0.13295913110E+04  0.25500000920E-02 0. -1.
    10030    2    1    2    0    0  0.00000000000E+00  0.00000000000E+00  0.11771379285E+04  0.38363205506E+04  0.36512602844E+04 0.  0.
        3    1    3    3  502    0  0.14130375187E+04 -0.95872778421E+03 -0.89990198115E+02  0.17099509465E+04  0.10100000352E+00 0. -1.
       -3    1    3    3    0  502 -0.14130375187E+04  0.95872778421E+03  0.12671281266E+04  0.21263696041E+04  0.10100000352E+00 0.  1.
</event>
<event>
 5   0  0.2536619E-06  0.3569565E+04  0.7818609E-02  0.8097499E-01
       -2   -1    0    0    0  501  0.00000000000E+00  0.00000000000E+00  0.17571078837E+04  0.17571078837E+04  0.25500000920E-02 0. -1.
        2   -1    0    0  501    0  0.00000000000E+00  0.00000000000E+00 -0.18128928173E+04  0.18128928173E+04  0.25500000920E-02 0.  1.
    10030    2    1    2    0    0  0.00000000000E+00  0.00000000000E+00 -0.55784933524E+02  0.35700007010E+04  0.35695648259E+04 0.  0.
        1    1    3    3  502    0 -0.36931447341E+03  0.76836453504E+02  0.17167835710E+04  0.17577379926E+04  0.50400001928E-02 0. -1.
       -1    1    3    3    0  502  0.36931447341E+03 -0.76836453504E+02 -0.17725685046E+04  0.18122627084E+04  0.50400001928E-02 0.  1.
</event>
<event>
 5   0  0.2382711E-06  0.3711616E+04  0.7818609E-02  0.8065393E-01
       -2   -1    0    0    0  501  0.00000000000E+00  0.00000000000E+00  0.15345546336E+04  0.15345546336E+04  0.25500000920E-02 0. -1.
        2   -1    0    0  501    0  0.00000000000E+00  0.00000000000E+00 -0.22443140680E+04  0.22443140680E+04  0.25500000920E-02 0.  1.
    10030    2    1    2    0    0  0.00000000000E+00  0.00000000000E+00 -0.70975943434E+03  0.37788687016E+04  0.37116155794E+04 0.  0.
        5    1    3    3  502    0 -0.34952782127E+03  0.17890924277E+04 -0.75691028658E+00  0.18229218512E+04  0.46999998093E+01 0. -1.
       -5    1    3    3    0  502  0.34952782127E+03 -0.17890924277E+04 -0.70900252405E+03  0.19559468504E+04  0.46999998093E+01 0.  1.
</event>
<event>
 5   0  0.1634374E-06  0.3358102E+04  0.7818609E-02  0.8148267E-01
        1   -1    0    0  501    0  0.00000000000E+00  0.00000000000E+00  0.16393911638E+04  0.16393911638E+04  0.50400001928E-02 0. -1.
       -1   -1    0    0    0  501  0.00000000000E+00  0.00000000000E+00 -0.17196698937E+04  0.17196698937E+04  0.50400001928E-02 0.  1.
    10030    2    1    2    0    0  0.00000000000E+00  0.00000000000E+00 -0.80278729894E+02  0.33590610576E+04  0.33581016236E+04 0.  0.
        5    1    3    3  502    0 -0.58895970254E+03 -0.15294593607E+04 -0.40503129443E+03  0.16882511386E+04  0.46999998093E+01 0. -1.
       -5    1    3    3    0  502  0.58895970254E+03  0.15294593607E+04  0.32475256454E+03  0.16708099190E+04  0.46999998093E+01 0.  1.
</event>
<event>
 5   0  0.1513502E-06  0.3740359E+04  0.7818609E-02  0.8059076E-01
       -2   -1    0    0    0  501  0.00000000000E+00  0.00000000000E+00  0.23615165569E+04  0.23615165569E+04  0.25500000920E-02 0.  1.
        2   -1    0    0  501    0  0.00000000000E+00  0.00000000000E+00 -0.14810702438E+04  0.14810702438E+04  0.25500000920E-02 0. -1.
    10030    2    1    2    0    0  0.00000000000E+00  0.00000000000E+00  0.88044631312E+03  0.38425868007E+04  0.37403592890E+04 0.  0.
        3    1    3    3  502    0 -0.12635294474E+04  0.90000089371E+03 -0.63286500244E+03  0.16754182745E+04  0.10100000352E+00 0. -1.
       -3    1    3    3    0  502  0.12635294474E+04 -0.90000089371E+03  0.15133113156E+04  0.21671685262E+04  0.10100000352E+00 0.  1.
</event>
<event>
 5   0  0.2536619E-06  0.2651538E+04  0.7818609E-02  0.8350903E-01
       -2   -1    0    0    0  501  0.00000000000E+00  0.00000000000E+00  0.75771796475E+03  0.75771796475E+03  0.25500000920E-02 0. -1.
        2   -1    0    0  501    0  0.00000000000E+00  0.00000000000E+00 -0.23196807807E+04  0.23196807807E+04  0.25500000920E-02 0.  1.
    10030    2    1    2    0    0  0.00000000000E+00  0.00000000000E+00 -0.15619628160E+04  0.30773987455E+04  0.26515382705E+04 0.  0.
        1    1    3    3  502    0 -0.19856611132E+02  0.11030532096E+04 -0.16342800399E+04  0.19717991574E+04  0.50400001928E-02 0.  1.
       -1    1    3    3    0  502  0.19856611132E+02 -0.11030532096E+04  0.72317223941E+02  0.11055995881E+04  0.50400001928E-02 0. -1.
</event>
<event>
 5   0  0.7707500E-07  0.3554251E+04  0.7818609E-02  0.8101052E-01
        3   -1    0    0  501    0  0.00000000000E+00  0.00000000000E+00  0.17894129740E+04  0.17894129768E+04  0.10100000352E+00 0.  1.
       -3   -1    0    0    0  501  0.00000000000E+00  0.00000000000E+00 -0.17649228250E+04  0.17649228279E+04  0.10100000352E+00 0. -1.
    10030    2    1    2    0    0  0.00000000000E+00  0.00000000000E+00  0.24490148972E+02  0.35543358048E+04  0.35542514325E+04 0.  0.
        3    1    3    3  502    0 -0.37113377052E+03  0.17439841912E+03 -0.17169636102E+04  0.17652532774E+04  0.10100000352E+00 0. -1.
       -3    1    3    3    0  502  0.37113377052E+03 -0.17439841912E+03  0.17414537592E+04  0.17890825274E+04  0.10100000352E+00 0.  1.
</event>
<event>
 5   0  0.2382711E-06  0.3627944E+04  0.7818609E-02  0.8084121E-01
       -2   -1    0    0    0  501  0.00000000000E+00  0.00000000000E+00  0.13133359770E+04  0.13133359770E+04  0.25500000920E-02 0.  1.
        2   -1    0    0  501    0  0.00000000000E+00  0.00000000000E+00 -0.25054478710E+04  0.25054478710E+04  0.25500000920E-02 0. -1.
    10030    2    1    2    0    0  0.00000000000E+00  0.00000000000E+00 -0.11921118940E+04  0.38187838479E+04  0.36279442264E+04 0.  0.
        5    1    3    3  502    0 -0.21531062547E+02 -0.27048434026E+03  0.12918471677E+04  0.13200441506E+04  0.46999998093E+01 0.  1.
       -5    1    3    3    0  502  0.21531062547E+02  0.27048434026E+03 -0.24839590617E+04  0.24987396973E+04  0.46999998093E+01 0. -1.
</event>
<event>
 5   0  0.1634374E-06  0.3635410E+04  0.7818609E-02  0.8082428E-01
        1   -1    0    0  501    0  0.00000000000E+00  0.00000000000E+00  0.11813227389E+04  0.11813227390E+04  0.50400001928E-02 0. -1.
       -1   -1    0    0    0  501  0.00000000000E+00  0.00000000000E+00 -0.27969086313E+04  0.27969086313E+04  0.50400001928E-02 0.  1.
    10030    2    1    2    0    0  0.00000000000E+00  0.00000000000E+00 -0.16155858924E+04  0.39782313703E+04  0.36354101639E+04 0.  0.
        5    1    3    3  502    0  0.82908017472E+03  0.11957750846E+04 -0.19999166038E+04  0.24732449335E+04  0.46999998093E+01 0.  1.
       -5    1    3    3    0  502 -0.82908017472E+03 -0.11957750846E+04  0.38433071142E+03  0.15049864368E+04  0.46999998093E+01 0. -1.
</event>
<event>
 5   0  0.2382711E-06  0.3601782E+04  0.7818609E-02  0.8090084E-01
        2   -1    0    0  501    0  0.00000000000E+00  0.00000000000E+00  0.12345555432E+04  0.12345555432E+04  0.25500000920E-02 0.  1.
       -2   -1    0    0    0  501  0.00000000000E+00  0.00000000000E+00 -0.26270247035E+04  0.26270247035E+04  0.25500000920E-02 0. -1.
    10030    2    1    2    0    0  0.00000000000E+00  0.00000000000E+00 -0.13924691603E+04  0.38615802467E+04  0.36017817313E+04 0.  0.
        5    1    3    3  502    0  0.59213427103E+03  0.63590022848E+03  0.99494516483E+03  0.13209580109E+04  0.46999998093E+01 0.  1.
       -5    1    3    3    0  502 -0.59213427103E+03 -0.63590022848E+03 -0.23874143251E+04  0.25406222359E+04  0.46999998093E+01 0. -1.
</event>
<event>
 5   0  0.1634374E-06  0.2507237E+04  0.7818609E-02  0.8400412E-01
        1   -1    0    0  501    0  0.00000000000E+00  0.00000000000E+00  0.22031544411E+04  0.22031544411E+04  0.50400001928E-02 0.  1.
       -1   -1    0    0    0  501  0.00000000000E+00  0.00000000000E+00 -0.71332209050E+03  0.71332209051E+03  0.50400001928E-02 0. -1.
    10030    2    1    2    0    0  0.00000000000E+00  0.00000000000E+00  0.14898323506E+04  0.29164765316E+04  0.25072365119E+04 0.  0.
        5    1    3    3  502    0 -0.80805957115E+03  0.72124731340E+03  0.10721502867E+02  0.10831874253E+04  0.46999998093E+01 0. -1.
       -5    1    3    3    0  502  0.80805957115E+03 -0.72124731340E+03  0.14791108477E+04  0.18332891063E+04  0.46999998093E+01 0.  1.
</event>
<event>
 5   0  0.2382711E-06  0.1836870E+04  0.7818609E-02  0.8686934E-01
       -2   -1    0    0    0  501  0.00000000000E+00  0.00000000000E+00  0.74424122324E+03  0.74424122325E+03  0.25500000920E-02 0.  1.
        2   -1    0    0  501    0  0.00000000000E+00  0.00000000000E+00 -0.11334001310E+04  0.11334001310E+04  0.25500000920E-02 0. -1.
    10030    2    1    2    0    0  0.00000000000E+00  0.00000000000E+00 -0.38915890777E+03  0.18776413543E+04  0.18368702730E+04 0.  0.
        5    1    3    3  502    0  0.58102843914E+03 -0.48653523920E+03 -0.72493114646E+03  0.10487410754E+04  0.46999998093E+01 0. -1.
       -5    1    3    3    0  502 -0.58102843914E+03  0.48653523920E+03  0.33577223869E+03  0.82890027889E+03  0.46999998093E+01 0.  1.
</event>
<event>
 5   0  0.1513502E-06  0.3286607E+04  0.7818609E-02  0.8166311E-01
       -2   -1    0    0    0  501  0.00000000000E+00  0.00000000000E+00  0.23647475688E+04  0.23647475688E+04  0.25500000920E-02 0.  1.
        2   -1    0    0  501    0  0.00000000000E+00  0.00000000000E+00 -0.11419600017E+04  0.11419600017E+04  0.25500000920E-02 0. -1.
    10030    2    1    2    0    0  0.00000000000E+00  0.00000000000E+00  0.12227875671E+04  0.35067075705E+04  0.32866074531E+04 0.  0.
        3    1    3    3  502    0  0.68667106804E+03 -0.26969129453E+03  0.21781300315E+04  0.22996741061E+04  0.10100000352E+00 0.  1.
       -3    1    3    3    0  502 -0.68667106804E+03  0.26969129453E+03 -0.95534246431E+03  0.12070334645E+04  0.10100000352E+00 0. -1.
</event>
<event>
 5   0  0.2422436E-06  0.2762604E+04  0.7818609E-02  0.8314973E-01
        2   -1    0    0  501    0  0.00000000000E+00  0.00000000000E+00  0.26906231893E+04  0.26906231893E+04  0.25500000920E-02 0. -1.
       -2   -1    0    0    0  501  0.00000000000E+00  0.00000000000E+00 -0.70912784834E+03  0.70912784835E+03  0.25500000920E-02 0.  1.
    10030    2    1    2    0    0  0.00000000000E+00  0.00000000000E+00  0.19814953409E+04  0.33997510376E+04  0.27626044472E+04 0.  0.
        2    1    3    3  502    0 -0.56277510845E+03 -0.39580301085E+03 -0.48325016891E+03  0.84077736164E+03  0.25500000920E-02 0.  1.
       -2    1    3    3    0  502  0.56277510845E+03  0.39580301085E+03  0.24647455098E+04  0.25589736760E+04  0.25500000920E-02 0. -1.
</event>
<event>
 5   0  0.1566576E-06  0.3630072E+04  0.7818609E-02  0.8083638E-01
        2   -1    0    0  501    0  0.00000000000E+00  0.00000000000E+00  0.28438689013E+04  0.28438689013E+04  0.25500000920E-02 0. -1.
       -2   -1    0    0    0  501  0.00000000000E+00  0.00000000000E+00 -0.11584061159E+04  0.11584061159E+04  0.25500000920E-02 0.  1.
    10030    2    1    2    0    0  0.00000000000E+00  0.00000000000E+00  0.16854627854E+04  0.40022750173E+04  0.36300716953E+04 0.  0.
        4    1    3    3  502    0 -0.17584508272E+04 -0.15457090185E+03  0.37716453203E+03  0.18050751155E+04  0.12699999809E+01 0. -1.
       -4    1    3    3    0  502  0.17584508272E+04  0.15457090185E+03  0.13082982534E+04  0.21971999017E+04  0.12699999809E+01 0.  1.
</event>
<event>
 5   0  0.2382711E-06  0.3427862E+04  0.7818609E-02  0.8131102E-01
       -2   -1    0    0    0  501  0.00000000000E+00  0.00000000000E+00  0.16737994631E+04  0.16737994631E+04  0.25500000920E-02 0. -1.
        2   -1    0    0  501    0  0.00000000000E+00  0.00000000000E+00 -0.17550249921E+04  0.17550249921E+04  0.25500000920E-02 0.  1.
    10030    2    1    2    0    0  0.00000000000E+00  0.00000000000E+00 -0.81225529012E+02  0.34288244553E+04  0.34278622432E+04 0.  0.
        5    1    3    3  502    0 -0.66653111388E+03 -0.11963206905E+04  0.99025445667E+03  0.16899919820E+04  0.46999998093E+01 0. -1.
       -5    1    3    3    0  502  0.66653111388E+03  0.11963206905E+04 -0.10714799857E+04  0.17388324733E+04  0.46999998093E+01 0.  1.
</event>
<event>
 5   0  0.1566576E-06  0.3636812E+04  0.7818609E-02  0.8082111E-01
        2   -1    0    0  501    0  0.00000000000E+00  0.00000000000E+00  0.22110862053E+04  0.22110862053E+04  0.25500000920E-02 0. -1.
       -2   -1    0    0    0  501  0.00000000000E+00  0.00000000000E+00 -0.14954641462E+04  0.14954641462E+04  0.25500000920E-02 0.  1.
    10030    2    1    2    0    0  0.00000000000E+00  0.00000000000E+00  0.71562205911E+03  0.37065503516E+04  0.36368118699E+04 0.  0.
        4    1    3    3  502    0 -0.46370907627E+03  0.89351137470E+03  0.19011842746E+04  0.21512535748E+04  0.12699999809E+01 0. -1.
       -4    1    3    3    0  502  0.46370907627E+03 -0.89351137470E+03 -0.11855622155E+04  0.15552967768E+04  0.12699999809E+01 0.  1.
</event>
<event>
 5   0  0.7754556E-07  0.3595479E+04  0.7818609E-02  0.8091528E-01
       -1   -1    0    0    0  501  0.00000000000E+00  0.00000000000E+00  0.11535570833E+04  0.11535570833E+04  0.50400001928E-02 0.  1.
        1   -1    0    0  501    0  0.00000000000E+00  0.00000000000E+00 -0.28016533773E+04  0.28016533773E+04  0.50400001928E-02 0. -1.
    10030    2    1    2    0    0  0.00000000000E+00  0.00000000000E+00 -0.16480962940E+04  0.39552104606E+04  0.35954788823E+04 0.  0.
        4    1    3    3  502    0  0.92689365515E+03  0.11783401265E+04  0.26730465136E+03  0.15228495301E+04  0.12699999809E+01 0. -1.
       -4    1    3    3    0  502 -0.92689365515E+03 -0.11783401265E+04 -0.19154009454E+04  0.24323609305E+04  0.12699999809E+01 0.  1.
</event>
<event>
 5   0  0.8423692E-07  0.2021736E+04  0.7818609E-02  0.8596525E-01
       -1   -1    0    0    0  501  0.00000000000E+00  0.00000000000E+00  0.15012994059E+04  0.15012994059E+04  0.50400001928E-02 0. -1.
        1   -1    0    0  501    0  0.00000000000E+00  0.00000000000E+00 -0.68064666686E+03  0.68064666688E+03  0.50400001928E-02 0.  1.
    10030    2    1    2    0    0  0.00000000000E+00  0.00000000000E+00  0.82065273905E+03  0.21819460728E+04  0.20217363197E+04 0.  0.
        2    1    3    3  502    0  0.81426962997E+03  0.46949893170E+03  0.81181393983E+03  0.12419767108E+04  0.25500000920E-02 0. -1.
       -2    1    3    3    0  502 -0.81426962997E+03 -0.46949893170E+03  0.88387992196E+01  0.93996936203E+03  0.25500000920E-02 0.  1.
</event>
<event>
 5   0  0.1513502E-06  0.3563541E+04  0.7818609E-02  0.8098895E-01
        2   -1    0    0  501    0  0.00000000000E+00  0.00000000000E+00  0.17474149336E+04  0.17474149336E+04  0.25500000920E-02 0.  1.
       -2   -1    0    0    0  501  0.00000000000E+00  0.00000000000E+00 -0.18168012563E+04  0.18168012563E+04  0.25500000920E-02 0. -1.
    10030    2    1    2    0    0  0.00000000000E+00  0.00000000000E+00 -0.69386322754E+02  0.35642161899E+04  0.35635407374E+04 0.  0.
        3    1    3    3  502    0 -0.31000958695E+03 -0.51297000548E+03 -0.17129448953E+04  0.18147794343E+04  0.10100000352E+00 0. -1.
       -3    1    3    3    0  502  0.31000958695E+03  0.51297000548E+03  0.16435585725E+04  0.17494367557E+04  0.10100000352E+00 0.  1.
</event>
<event>
 5   0  0.1908273E-06  0.2023971E+04  0.7818609E-02  0.8595495E-01
        1   -1    0    0  501    0  0.00000000000E+00  0.00000000000E+00  0.55876982155E+03  0.55876982158E+03  0.50400001928E-02 0. -1.
       -1   -1    0    0    0  501  0.00000000000E+00  0.00000000000E+00 -0.18328031546E+04  0.18328031546E+04  0.50400001928E-02 0.  1.
    10030    2    1    2    0    0  0.00000000000E+00  0.00000000000E+00 -0.12740333331E+04  0.23915729762E+04  0.20239714343E+04 0.  0.
        3    1    3    3  502    0 -0.57755791559E+03 -0.67293440394E+03 -0.12131128093E+04  0.15026831190E+04  0.10100000352E+00 0. -1.
       -3    1    3    3    0  502  0.57755791559E+03  0.67293440394E+03 -0.60920523811E+02  0.88888985723E+03  0.10100000352E+00 0.  1.
</event>
<event>
 5   0  0.1513502E-06  0.3245519E+04  0.7818609E-02  0.8176898E-01
        2   -1    0    0  501    0  0.00000000000E+00  0.00000000000E+00  0.25515284166E+04  0.25515284166E+04  0.25500000920E-02 0.  1.
       -2   -1    0    0    0  501  0.00000000000E+00  0.00000000000E+00 -0.10320667312E+04  0.10320667312E+04  0.25500000920E-02 0. -1.
    10030    2    1    2    0    0  0.00000000000E+00  0.00000000000E+00  0.15194616854E+04  0.35835951477E+04  0.32455185055E+04 0.  0.
        3    1    3    3  502    0  0.39082485076E+03  0.26740287164E+03 -0.95407726805E+03  0.10651346409E+04  0.10100000352E+00 0. -1.
       -3    1    3    3    0  502 -0.39082485076E+03 -0.26740287164E+03  0.24735389535E+04  0.25184605068E+04  0.10100000352E+00 0.  1.
</event>
<event>
 5   0  0.8423692E-07  0.3361356E+04  0.7818609E-02  0.8147456E-01
       -1   -1    0    0    0  501  0.00000000000E+00  0.00000000000E+00  0.15723775519E+04  0.15723775519E+04  0.50400001928E-02 0.  1.
        1   -1    0    0  501    0  0.00000000000E+00  0.00000000000E+00 -0.17964381026E+04  0.17964381026E+04  0.50400001928E-02 0. -1.
    10030    2    1    2    0    0  0.00000000000E+00  0.00000000000E+00 -0.22406055072E+03  0.33688156545E+04  0.33613562417E+04 0.  0.
        2    1    3    3  502    0  0.14586276630E+04  0.36395496988E+02  0.72394286726E+03  0.16288070993E+04  0.25500000920E-02 0. -1.
       -2    1    3    3    0  502 -0.14586276630E+04 -0.36395496988E+02 -0.94800341798E+03  0.17400085552E+04  0.25500000920E-02 0.  1.
</event>
<event>
 5   0  0.1634374E-06  0.3309002E+04  0.7818609E-02  0.8160609E-01
        1   -1    0    0  501    0  0.00000000000E+00  0.00000000000E+00  0.21230738786E+04  0.21230738786E+04  0.50400001928E-02 0. -1.
       -1   -1    0    0    0  501  0.00000000000E+00  0.00000000000E+00 -0.12893440813E+04  0.12893440813E+04  0.50400001928E-02 0.  1.
    10030    2    1    2    0    0  0.00000000000E+00  0.00000000000E+00  0.83372979735E+03  0.34124179599E+04  0.33090015047E+04 0.  0.
        5    1    3    3  502    0 -0.39726006502E+03  0.76097522271E+03  0.18754416949E+04  0.20625718145E+04  0.46999998093E+01 0. -1.
       -5    1    3    3    0  502  0.39726006502E+03 -0.76097522271E+03 -0.10417118976E+04  0.13498461455E+04  0.46999998093E+01 0.  1.
</event>
<event>
 5   0  0.1513502E-06  0.2470995E+04  0.7818609E-02  0.8413392E-01
        2   -1    0    0  501    0  0.00000000000E+00  0.00000000000E+00  0.19309000265E+04  0.19309000265E+04  0.25500000920E-02 0. -1.
       -2   -1    0    0    0  501  0.00000000000E+00  0.00000000000E+00 -0.79054015816E+03  0.79054015816E+03  0.25500000920E-02 0.  1.
    10030    2    1    2    0    0  0.00000000000E+00  0.00000000000E+00  0.11403598683E+04  0.27214401846E+04  0.24709949513E+04 0.  0.
        3    1    3    3  502    0 -0.91811363827E+03 -0.34787743422E+03 -0.25583750766E+03  0.10145955857E+04  0.10100000352E+00 0.  1.
       -3    1    3    3    0  502  0.91811363827E+03  0.34787743422E+03  0.13961973760E+04  0.17068445989E+04  0.10100000352E+00 0. -1.
</event>
<event>
 5   0  0.7754556E-07  0.3549166E+04  0.7818609E-02  0.8102236E-01
       -1   -1    0    0    0  501  0.00000000000E+00  0.00000000000E+00  0.20504080213E+04  0.20504080213E+04  0.50400001928E-02 0.  1.
        1   -1    0    0  501    0  0.00000000000E+00  0.00000000000E+00 -0.15358625094E+04  0.15358625094E+04  0.50400001928E-02 0. -1.
    10030    2    1    2    0    0  0.00000000000E+00  0.00000000000E+00  0.51454551189E+03  0.35862705307E+04  0.35491659915E+04 0.  0.
        4    1    3    3  502    0 -0.13693867954E+04 -0.52896557127E+03  0.12647512808E+04  0.19376847489E+04  0.12699999809E+01 0.  1.
       -4    1    3    3    0  502  0.13693867954E+04  0.52896557127E+03 -0.75020576891E+03  0.16485857817E+04  0.12699999809E+01 0. -1.
</event>
<event>
 5   0  0.1513502E-06  0.3480400E+04  0.7818609E-02  0.8118451E-01
       -2   -1    0    0    0  501  0.00000000000E+00  0.00000000000E+00  0.19171767153E+04  0.19171767153E+04  0.25500000920E-02 0.  1.
        2   -1    0    0  501    0  0.00000000000E+00  0.00000000000E+00 -0.15795603018E+04  0.15795603018E+04  0.25500000920E-02 0. -1.
    10030    2    1    2    0    0  0.00000000000E+00  0.00000000000E+00  0.33761641350E+03  0.34967370171E+04  0.34804001098E+04 0.  0.
        3    1    3    3  502    0 -0.42547305180E+03  0.42234274922E+03  0.18101520957E+04  0.19068432907E+04  0.10100000352E+00 0.  1.
       -3    1    3    3    0  502  0.42547305180E+03 -0.42234274922E+03 -0.14725356822E+04  0.15898937264E+04  0.10100000352E+00 0. -1.
</event>
<event>
 5   0  0.2382711E-06  0.3606728E+04  0.7818609E-02  0.8088952E-01
       -2   -1    0    0    0  501  0.00000000000E+00  0.00000000000E+00  0.35935066315E+04  0.35935066315E+04  0.25500000920E-02 0.  1.
        2   -1    0    0  501    0  0.00000000000E+00  0.00000000000E+00 -0.90499930990E+03  0.90499930990E+03  0.25500000920E-02 0. -1.
    10030    2    1    2    0    0  0.00000000000E+00  0.00000000000E+00  0.26885073216E+04  0.44985059414E+04  0.36067276147E+04 0.  0.
        5    1    3    3  502    0 -0.10454401726E+04  0.75482122344E+03 -0.22817655209E+03  0.13094987067E+04  0.46999998093E+01 0. -1.
       -5    1    3    3    0  502  0.10454401726E+04 -0.75482122344E+03  0.29166838737E+04  0.31890072347E+04  0.46999998093E+01 0.  1.
</event>
<event>
 5   0  0.8452742E-07  0.3178692E+04  0.7818609E-02  0.8194467E-01
        1   -1    0    0  501    0  0.00000000000E+00  0.00000000000E+00  0.19366530061E+04  0.19366530061E+04  0.50400001928E-02 0.  1.
       -1   -1    0    0    0  501  0.00000000000E+00  0.00000000000E+00 -0.13043224277E+04  0.13043224277E+04  0.50400001928E-02 0. -1.
    10030    2    1    2    0    0  0.00000000000E+00  0.00000000000E+00  0.63233057843E+03  0.32409754339E+04  0.31786915236E+04 0.  0.
        1    1    3    3  502    0  0.34338746211E+03  0.15490566279E+04  0.22200553078E+03  0.16021166753E+04  0.50400001928E-02 0. -1.
       -1    1    3    3    0  502 -0.34338746211E+03 -0.15490566279E+04  0.41032504766E+03  0.16388587585E+04  0.50400001928E-02 0.  1.
</event>
<event>
 5   0  0.1908273E-06  0.3595061E+04  0.7818609E-02  0.8091624E-01
       -1   -1    0    0    0  501  0.00000000000E+00  0.00000000000E+00  0.15523188513E+04  0.15523188513E+04  0.50400001928E-02 0. -1.
        1   -1    0    0  501    0  0.00000000000E+00  0.00000000000E+00 -0.20814764810E+04  0.20814764810E+04  0.50400001928E-02 0.  1.
    10030    2    1    2    0    0  0.00000000000E+00  0.00000000000E+00 -0.52915762965E+03  0.36337953323E+04  0.35950606003E+04 0.  0.
        3    1    3    3  502    0 -0.24397674535E+02 -0.17779869865E+04 -0.53062992753E+03  0.18556403479E+04  0.10100000352E+00 0.  1.
       -3    1    3    3    0  502  0.24397674535E+02  0.17779869865E+04  0.14722978802E+01  0.17781549844E+04  0.10100000352E+00 0. -1.
</event>
<event>
 5   0  0.2422436E-06  0.3575620E+04  0.7818609E-02  0.8096099E-01
        2   -1    0    0  501    0  0.00000000000E+00  0.00000000000E+00  0.16627449750E+04  0.16627449751E+04  0.25500000920E-02 0.  1.
       -2   -1    0    0    0  501  0.00000000000E+00  0.00000000000E+00 -0.19222816589E+04  0.19222816589E+04  0.25500000920E-02 0. -1.
    10030    2    1    2    0    0  0.00000000000E+00  0.00000000000E+00 -0.25953668384E+03  0.35850266339E+04  0.35756197611E+04 0.  0.
        2    1    3    3  502    0 -0.62148477405E+03  0.10311746834E+04 -0.14548729681E+04  0.18884437787E+04  0.25500000920E-02 0. -1.
       -2    1    3    3    0  502  0.62148477405E+03 -0.10311746834E+04  0.11953362843E+04  0.16965828552E+04  0.25500000920E-02 0.  1.
</event>
<event>
 5   0  0.2536619E-06  0.1795757E+04  0.7818609E-02  0.8708559E-01
        2   -1    0    0  501    0  0.00000000000E+00  0.00000000000E+00  0.21713340863E+04  0.21713340863E+04  0.25500000920E-02 0. -1.
       -2   -1    0    0    0  501  0.00000000000E+00  0.00000000000E+00 -0.37128572577E+03  0.37128572578E+03  0.25500000920E-02 0.  1.
    10030    2    1    2    0    0  0.00000000000E+00  0.00000000000E+00  0.18000483606E+04  0.25426198121E+04  0.17957565003E+04 0.  0.
        1    1    3    3  502    0  0.18503034444E+03 -0.17232082600E+03 -0.31983709554E+03  0.40770879699E+03  0.50400001928E-02 0.  1.
       -1    1    3    3    0  502 -0.18503034444E+03  0.17232082600E+03  0.21198854561E+04  0.21349110151E+04  0.50400001928E-02 0. -1.
</event>
<event>
 5   0  0.7754556E-07  0.3570235E+04  0.7818609E-02  0.8097344E-01
       -1   -1    0    0    0  501  0.00000000000E+00  0.00000000000E+00  0.22197438885E+04  0.22197438885E+04  0.50400001928E-02 0. -1.
        1   -1    0    0  501    0  0.00000000000E+00  0.00000000000E+00 -0.14355913990E+04  0.14355913990E+04  0.50400001928E-02 0.  1.
    10030    2    1    2    0    0  0.00000000000E+00  0.00000000000E+00  0.78415248950E+03  0.36553352875E+04  0.35702354177E+04 0.  0.
        4    1    3    3  502    0  0.28866239469E+03 -0.17496727933E+04  0.60180712807E+03  0.18726596845E+04  0.12699999809E+01 0.  1.
       -4    1    3    3    0  502 -0.28866239469E+03  0.17496727933E+04  0.18234536143E+03  0.17826756030E+04  0.12699999809E+01 0. -1.
</event>
<event>
 5   0  0.8452742E-07  0.2765736E+04  0.7818609E-02  0.8313985E-01
       -1   -1    0    0    0  501  0.00000000000E+00  0.00000000000E+00  0.24341493932E+04  0.24341493932E+04  0.50400001928E-02 0. -1.
        1   -1    0    0  501    0  0.00000000000E+00  0.00000000000E+00 -0.78562323633E+03  0.78562323634E+03  0.50400001928E-02 0.  1.
    10030    2    1    2    0    0  0.00000000000E+00  0.00000000000E+00  0.16485261568E+04  0.32197726295E+04  0.27657363027E+04 0.  0.
        1    1    3    3  502    0 -0.95488787076E+03 -0.54370256268E+03 -0.15315079212E+03  0.11094496327E+04  0.50400001928E-02 0.  1.
       -1    1    3    3    0  502  0.95488787076E+03  0.54370256268E+03  0.18016769490E+04  0.21103229968E+04  0.50400001928E-02 0. -1.
</event>
<event>
 5   0  0.8452742E-07  0.3669681E+04  0.7818609E-02  0.8074714E-01
        1   -1    0    0  501    0  0.00000000000E+00  0.00000000000E+00  0.26147003912E+04  0.26147003913E+04  0.50400001928E-02 0. -1.
       -1   -1    0    0    0  501  0.00000000000E+00  0.00000000000E+00 -0.12875811418E+04  0.12875811418E+04  0.50400001928E-02 0.  1.
    10030    2    1    2    0    0  0.00000000000E+00  0.00000000000E+00  0.13271192494E+04  0.39022815331E+04  0.36696805939E+04 0.  0.
        1    1    3    3  502    0 -0.50372047008E+03  0.47576129852E+03 -0.11431165248E+04  0.13367118292E+04  0.50400001928E-02 0.  1.
       -1    1    3    3    0  502  0.50372047008E+03 -0.47576129852E+03  0.24702357742E+04  0.25655697039E+04  0.50400001928E-02 0. -1.
</event>
<event>
 5   0  0.8423692E-07  0.1995504E+04  0.7818609E-02  0.8608726E-01
       -1   -1    0    0    0  501  0.00000000000E+00  0.00000000000E+00  0.10390336005E+04  0.10390336005E+04  0.50400001928E-02 0.  1.
        1   -1    0    0  501    0  0.00000000000E+00  0.00000000000E+00 -0.95811016996E+03  0.95811016997E+03  0.50400001928E-02 0. -1.
    10030    2    1    2    0    0  0.00000000000E+00  0.00000000000E+00  0.80923430498E+02  0.19971437704E+04  0.19955036052E+04 0.  0.
        2    1    3    3  502    0 -0.22112751887E+03 -0.46956353349E+03  0.89328965868E+03  0.10331281169E+04  0.25500000920E-02 0.  1.
       -2    1    3    3    0  502  0.22112751887E+03  0.46956353349E+03 -0.81236622819E+03  0.96401565355E+03  0.25500000920E-02 0. -1.
</event>
<event>
 5   0  0.1566576E-06  0.3632096E+04  0.7818609E-02  0.8083179E-01
        2   -1    0    0  501    0  0.00000000000E+00  0.00000000000E+00  0.21597176330E+04  0.21597176330E+04  0.25500000920E-02 0. -1.
       -2   -1    0    0    0  501  0.00000000000E+00  0.00000000000E+00 -0.15270651274E+04  0.15270651274E+04  0.25500000920E-02 0.  1.
    10030    2    1    2    0    0  0.00000000000E+00  0.00000000000E+00  0.63265250557E+03  0.36867827604E+04  0.36320955287E+04 0.  0.
        4    1    3    3  502    0 -0.10918414782E+04 -0.12906719167E+04  0.98969686283E+03  0.19589418835E+04  0.12699999809E+01 0. -1.
       -4    1    3    3    0  502  0.10918414782E+04  0.12906719167E+04 -0.35704435726E+03  0.17278408769E+04  0.12699999809E+01 0.  1.
</event>
<event>
 5   0  0.2536619E-06  0.2692315E+04  0.7818609E-02  0.8337503E-01
        2   -1    0    0  501    0  0.00000000000E+00  0.00000000000E+00  0.18038561899E+04  0.18038561899E+04  0.25500000920E-02 0. -1.
       -2   -1    0    0    0  501  0.00000000000E+00  0.00000000000E+00 -0.10045923499E+04  0.10045923499E+04  0.25500000920E-02 0.  1.
    10030    2    1    2    0    0  0.00000000000E+00  0.00000000000E+00  0.79926384004E+03  0.28084485398E+04  0.26923150846E+04 0.  0.
        1    1    3    3  502    0 -0.10728794912E+04  0.30511303372E+03  0.11857820449E+04  0.16279568250E+04  0.50400001928E-02 0. -1.
       -1    1    3    3    0  502  0.10728794912E+04 -0.30511303372E+03 -0.38651820490E+03  0.11804917148E+04  0.50400001928E-02 0.  1.
</event>
<event>
 5   0  0.8452742E-07  0.3604466E+04  0.7818609E-02  0.8089469E-01
       -1   -1    0    0    0  501  0.00000000000E+00  0.00000000000E+00  0.18972506492E+04  0.18972506492E+04  0.50400001928E-02 0.  1.
        1   -1    0    0  501    0  0.00000000000E+00  0.00000000000E+00 -0.17119742633E+04  0.17119742633E+04  0.50400001928E-02 0. -1.
    10030    2    1    2    0    0  0.00000000000E+00  0.00000000000E+00  0.18527638588E+03  0.36092249125E+04  0.36044662753E+04 0.  0.
        1    1    3    3  502    0  0.80278747816E+03 -0.15252058473E+04 -0.43467234429E+03  0.17775434337E+04  0.50400001928E-02 0. -1.
       -1    1    3    3    0  502 -0.80278747816E+03  0.15252058473E+04  0.61994873017E+03  0.18316814788E+04  0.50400001928E-02 0.  1.
</event>
<event>
 5   0  0.1566576E-06  0.2301866E+04  0.7818609E-02  0.8477186E-01
       -2   -1    0    0    0  501  0.00000000000E+00  0.00000000000E+00  0.55079065949E+03  0.55079065949E+03  0.25500000920E-02 0. -1.
        2   -1    0    0  501    0  0.00000000000E+00  0.00000000000E+00 -0.24049904078E+04  0.24049904078E+04  0.25500000920E-02 0.  1.
    10030    2    1    2    0    0  0.00000000000E+00  0.00000000000E+00 -0.18541997483E+04  0.29557810673E+04  0.23018655502E+04 0.  0.
        4    1    3    3  502    0 -0.90936378759E+03 -0.60798143020E+03 -0.13866154989E+04  0.17661506369E+04  0.12699999809E+01 0. -1.
       -4    1    3    3    0  502  0.90936378759E+03  0.60798143020E+03 -0.46758424942E+03  0.11896304304E+04  0.12699999809E+01 0.  1.
</event>
<event>
 5   0  0.8452742E-07  0.3661361E+04  0.7818609E-02  0.8076579E-01
       -1   -1    0    0    0  501  0.00000000000E+00  0.00000000000E+00  0.16094039571E+04  0.16094039571E+04  0.50400001928E-02 0. -1.
        1   -1    0    0  501    0  0.00000000000E+00  0.00000000000E+00 -0.20823803690E+04  0.20823803690E+04  0.50400001928E-02 0.  1.
    10030    2    1    2    0    0  0.00000000000E+00  0.00000000000E+00 -0.47297641197E+03  0.36917843261E+04  0.36613610617E+04 0.  0.
        1    1    3    3  502    0  0.40087625811E+03 -0.17806498095E+04 -0.37899797309E+03  0.18641499355E+04  0.50400001928E-02 0. -1.
       -1    1    3    3    0  502 -0.40087625811E+03  0.17806498095E+04 -0.93978438880E+02  0.18276343906E+04  0.50400001928E-02 0.  1.
</event>
<event>
 5   0  0.8452742E-07  0.2393199E+04  0.7818609E-02  0.8442054E-01
       -1   -1    0    0    0  501  0.00000000000E+00  0.00000000000E+00  0.11147459344E+04  0.11147459344E+04  0.50400001928E-02 0.  1.
        1   -1    0    0  501    0  0.00000000000E+00  0.00000000000E+00 -0.12844629316E+04  0.12844629316E+04  0.50400001928E-02 0. -1.
    10030    2    1    2    0    0  0.00000000000E+00  0.00000000000E+00 -0.16971699719E+03  0.23992088660E+04  0.23931985549E+04 0.  0.
        1    1    3    3  502    0  0.99831254046E+03 -0.44879217541E+03  0.39989229807E+03  0.11653137754E+04  0.50400001928E-02 0.  1.
       -1    1    3    3    0  502 -0.99831254046E+03  0.44879217541E+03 -0.56960929526E+03  0.12338950905E+04  0.50400001928E-02 0. -1.
</event>
<event>
 5   0  0.1513502E-06  0.3108096E+04  0.7818609E-02  0.8213520E-01
        2   -1    0    0  501    0  0.00000000000E+00  0.00000000000E+00  0.17231815116E+04  0.17231815116E+04  0.25500000920E-02 0.  1.
       -2   -1    0    0    0  501  0.00000000000E+00  0.00000000000E+00 -0.14015148119E+04  0.14015148119E+04  0.25500000920E-02 0. -1.
    10030    2    1    2    0    0  0.00000000000E+00  0.00000000000E+00  0.32166669965E+03  0.31246963235E+04  0.31080955018E+04 0.  0.
        3    1    3    3  502    0  0.58520479433E+03  0.61278237859E+03 -0.11488516678E+04  0.14275248018E+04  0.10100000352E+00 0. -1.
       -3    1    3    3    0  502 -0.58520479433E+03 -0.61278237859E+03  0.14705183675E+04  0.16971715217E+04  0.10100000352E+00 0.  1.
</event>
<event>
 5   0  0.8423692E-07  0.3593183E+04  0.7818609E-02  0.8092055E-01
       -1   -1    0    0    0  501  0.00000000000E+00  0.00000000000E+00  0.12325973634E+04  0.12325973634E+04  0.50400001928E-02 0. -1.
        1   -1    0    0  501    0  0.00000000000E+00  0.00000000000E+00 -0.26186494965E+04  0.26186494965E+04  0.50400001928E-02 0.  1.
    10030    2    1    2    0    0  0.00000000000E+00  0.00000000000E+00 -0.13860521330E+04  0.38512468599E+04  0.35931826923E+04 0.  0.
        2    1    3    3  502    0  0.11171740626E+03 -0.18974971317E+03  0.12180796931E+04  0.12378222292E+04  0.25500000920E-02 0. -1.
       -2    1    3    3    0  502 -0.11171740626E+03  0.18974971317E+03 -0.26041318261E+04  0.26134246307E+04  0.25500000920E-02 0.  1.
</event>
<event>
 5   0  0.8452742E-07  0.3603086E+04  0.7818609E-02  0.8089785E-01
       -1   -1    0    0    0  501  0.00000000000E+00  0.00000000000E+00  0.16764760112E+04  0.16764760112E+04  0.50400001928E-02 0. -1.
        1   -1    0    0  501    0  0.00000000000E+00  0.00000000000E+00 -0.19359401258E+04  0.19359401258E+04  0.50400001928E-02 0.  1.
    10030    2    1    2    0    0  0.00000000000E+00  0.00000000000E+00 -0.25946411461E+03  0.36124161371E+04  0.36030859996E+04 0.  0.
        1    1    3    3  502    0  0.18147654648E+03  0.16633118857E+04  0.53984237004E+03  0.17581154542E+04  0.50400001928E-02 0. -1.
       -1    1    3    3    0  502 -0.18147654648E+03 -0.16633118857E+04 -0.79930648465E+03  0.18543006828E+04  0.50400001928E-02 0.  1.
</event>
<event>
 5   0  0.2422436E-06  0.3548672E+04  0.7818609E-02  0.8102351E-01
       -2   -1    0    0    0  501  0.00000000000E+00  0.00000000000E+00  0.17506369388E+04  0.17506369388E+04  0.25500000920E-02 0.  1.
        2   -1    0    0  501    0  0.00000000000E+00  0.00000000000E+00 -0.17983561192E+04  0.17983561192E+04  0.25500000920E-02 0. -1.
    10030    2    1    2    0    0  0.00000000000E+00  0.00000000000E+00 -0.47719180390E+02  0.35489930580E+04  0.35486722313E+04 0.  0.
        2    1    3    3  502    0  0.10965461445E+04  0.57872008564E+03  0.12454825866E+04  0.17574291616E+04  0.25500000920E-02 0.  1.
       -2    1    3    3    0  502 -0.10965461445E+04 -0.57872008564E+03 -0.12932017670E+04  0.17915638963E+04  0.25500000920E-02 0. -1.
</event>
<event>
 5   0  0.7754556E-07  0.3585563E+04  0.7818609E-02  0.8093807E-01
       -1   -1    0    0    0  501  0.00000000000E+00  0.00000000000E+00  0.13751839615E+04  0.13751839615E+04  0.50400001928E-02 0.  1.
        1   -1    0    0  501    0  0.00000000000E+00  0.00000000000E+00 -0.23371899433E+04  0.23371899433E+04  0.50400001928E-02 0. -1.
    10030    2    1    2    0    0  0.00000000000E+00  0.00000000000E+00 -0.96200598180E+03  0.37123739048E+04  0.35855633448E+04 0.  0.
        4    1    3    3  502    0  0.49457458585E+03 -0.15966227714E+04 -0.11522021213E+04  0.20301181336E+04  0.12699999809E+01 0.  1.
       -4    1    3    3    0  502 -0.49457458585E+03  0.15966227714E+04  0.19019613953E+03  0.16822557711E+04  0.12699999809E+01 0. -1.
</event>
<event>
 5   0  0.1566576E-06  0.3538480E+04  0.7818609E-02  0.8104731E-01
       -2   -1    0    0    0  501  0.00000000000E+00  0.00000000000E+00  0.12577921696E+04  0.12577921696E+04  0.25500000920E-02 0. -1.
        2   -1    0    0  501    0  0.00000000000E+00  0.00000000000E+00 -0.24886538744E+04  0.24886538744E+04  0.25500000920E-02 0.  1.
    10030    2    1    2    0    0  0.00000000000E+00  0.00000000000E+00 -0.12308617048E+04  0.37464460441E+04  0.35384795357E+04 0.  0.
        4    1    3    3  502    0 -0.69461903378E+03  0.14886821405E+04  0.80093159554E+02  0.16447147609E+04  0.12699999809E+01 0. -1.
       -4    1    3    3    0  502  0.69461903378E+03 -0.14886821405E+04 -0.13109548643E+04  0.21017312832E+04  0.12699999809E+01 0.  1.
</event>
<event>
 5   0  0.2382711E-06  0.3656235E+04  0.7818609E-02  0.8077731E-01
       -2   -1    0    0    0  501  0.00000000000E+00  0.00000000000E+00  0.19561445817E+04  0.19561445817E+04  0.25500000920E-02 0.  1.
        2   -1    0    0  501    0  0.00000000000E+00  0.00000000000E+00 -0.17084692845E+04  0.17084692845E+04  0.25500000920E-02 0. -1.
    10030    2    1    2    0    0  0.00000000000E+00  0.00000000000E+00  0.24767529713E+03  0.36646138662E+04  0.36562346390E+04 0.  0.
        5    1    3    3  502    0  0.11637642016E+04 -0.13730813836E+04 -0.19672534529E+03  0.18106414759E+04  0.46999998093E+01 0.  1.
       -5    1    3    3    0  502 -0.11637642016E+04  0.13730813836E+04  0.44440064241E+03  0.18539723903E+04  0.46999998093E+01 0. -1.
</event>
<event>
 5   0  0.8423692E-07  0.3147533E+04  0.7818609E-02  0.8202813E-01
       -1   -1    0    0    0  501  0.00000000000E+00  0.00000000000E+00  0.10926715366E+04  0.10926715366E+04  0.50400001928E-02 0.  1.
        1   -1    0    0  501    0  0.00000000000E+00  0.00000000000E+00 -0.22666834916E+04  0.22666834916E+04  0.50400001928E-02 0. -1.
    10030    2    1    2    0    0  0.00000000000E+00  0.00000000000E+00 -0.11740119550E+04  0.33593550282E+04  0.31475327060E+04 0.  0.
        2    1    3    3  502    0  0.13814728706E+04 -0.75268552462E+03 -0.54251434196E+03  0.16641287818E+04  0.25500000920E-02 0.  1.
       -2    1    3    3    0  502 -0.13814728706E+04  0.75268552462E+03 -0.63149761300E+03  0.16952262464E+04  0.25500000920E-02 0. -1.
</event>
<event>
 5   0  0.2536619E-06  0.3147277E+04  0.7818609E-02  0.8202882E-01
        2   -1    0    0  501    0  0.00000000000E+00  0.00000000000E+00  0.15913450593E+04  0.15913450593E+04  0.25500000920E-02 0.  1.
       -2   -1    0    0    0  501  0.00000000000E+00  0.00000000000E+00 -0.15561286699E+04  0.15561286699E+04  0.25500000920E-02 0. -1.
    10030    2    1    2    0    0  0.00000000000E+00  0.00000000000E+00  0.35216389396E+02  0.31474737293E+04  0.31472767089E+04 0.  0.
        1    1    3    3  502    0  0.53188244805E+03  0.11159174378E+04 -0.95619143499E+03  0.15628412354E+04  0.50400001928E-02 0. -1.
       -1    1    3    3    0  502 -0.53188244805E+03 -0.11159174378E+04  0.99140782439E+03  0.15846324939E+04  0.50400001928E-02 0.  1.
</event>
<event>
 5   0  0.8452742E-07  0.3345066E+04  0.7818609E-02  0.8151522E-01
       -1   -1    0    0    0  501  0.00000000000E+00  0.00000000000E+00  0.17939340027E+04  0.17939340027E+04  0.50400001928E-02 0. -1.
        1   -1    0    0  501    0  0.00000000000E+00  0.00000000000E+00 -0.15593472223E+04  0.15593472223E+04  0.50400001928E-02 0.  1.
    10030    2    1    2    0    0  0.00000000000E+00  0.00000000000E+00  0.23458678037E+03  0.33532812249E+04  0.33450656221E+04 0.  0.
        1    1    3    3  502    0 -0.15557026664E+04 -0.42281030901E+03  0.56379349866E+03  0.17078765918E+04  0.50400001928E-02 0. -1.
       -1    1    3    3    0  502  0.15557026664E+04  0.42281030901E+03 -0.32920671829E+03  0.16454046332E+04  0.50400001928E-02 0.  1.
</event>
<event>
 5   0  0.2422436E-06  0.1981778E+04  0.7818609E-02  0.8615188E-01
        2   -1    0    0  501    0  0.00000000000E+00  0.00000000000E+00  0.15991657037E+04  0.15991657037E+04  0.25500000920E-02 0. -1.
       -2   -1    0    0    0  501  0.00000000000E+00  0.00000000000E+00 -0.61398339084E+03  0.61398339084E+03  0.25500000920E-02 0.  1.
    10030    2    1    2    0    0  0.00000000000E+00  0.00000000000E+00  0.98518231290E+03  0.22131490946E+04  0.19817781726E+04 0.  0.
        2    1    3    3  502    0 -0.16138479545E+02  0.37254476569E+03  0.15178198730E+04  0.15629546442E+04  0.25500000920E-02 0. -1.
       -2    1    3    3    0  502  0.16138479545E+02 -0.37254476569E+03 -0.53263756006E+03  0.65019445042E+03  0.25500000920E-02 0.  1.
</event>
<event>
 5   0  0.2536619E-06  0.3497050E+04  0.7818609E-02  0.8114489E-01
       -2   -1    0    0    0  501  0.00000000000E+00  0.00000000000E+00  0.11943407879E+04  0.11943407879E+04  0.25500000920E-02 0. -1.
        2   -1    0    0  501    0  0.00000000000E+00  0.00000000000E+00 -0.25598553666E+04  0.25598553666E+04  0.25500000920E-02 0.  1.
    10030    2    1    2    0    0  0.00000000000E+00  0.00000000000E+00 -0.13655145787E+04  0.37541961545E+04  0.34970499999E+04 0.  0.
        1    1    3    3  502    0 -0.65724589995E+03 -0.32103650940E+03 -0.23877155534E+04  0.24972429151E+04  0.50400001928E-02 0.  1.
       -1    1    3    3    0  502  0.65724589995E+03  0.32103650940E+03  0.10222009747E+04  0.12569532394E+04  0.50400001928E-02 0. -1.
</event>
<event>
 5   0  0.2422436E-06  0.2344943E+04  0.7818609E-02  0.8460408E-01
        2   -1    0    0  501    0  0.00000000000E+00  0.00000000000E+00  0.17230178324E+04  0.17230178324E+04  0.25500000920E-02 0.  1.
       -2   -1    0    0    0  501  0.00000000000E+00  0.00000000000E+00 -0.79783842615E+03  0.79783842615E+03  0.25500000920E-02 0. -1.
    10030    2    1    2    0    0  0.00000000000E+00  0.00000000000E+00  0.92517940626E+03  0.25208562586E+04  0.23449433559E+04 0.  0.
        2    1    3    3  502    0  0.60032335097E+03  0.59895421564E+03  0.13329929007E+04  0.15798747899E+04  0.25500000920E-02 0.  1.
       -2    1    3    3    0  502 -0.60032335097E+03 -0.59895421564E+03 -0.40781349449E+03  0.94098146871E+03  0.25500000920E-02 0. -1.
</event>
<event>
 5   0  0.1566576E-06  0.3567886E+04  0.7818609E-02  0.8097888E-01
        2   -1    0    0  501    0  0.00000000000E+00  0.00000000000E+00  0.17926916385E+04  0.17926916385E+04  0.25500000920E-02 0.  1.
       -2   -1    0    0    0  501  0.00000000000E+00  0.00000000000E+00 -0.17752370328E+04  0.17752370328E+04  0.25500000920E-02 0. -1.
    10030    2    1    2    0    0  0.00000000000E+00  0.00000000000E+00  0.17454605760E+02  0.35679286713E+04  0.35678859764E+04 0.  0.
        4    1    3    3  502    0  0.50573504387E+03 -0.16983184543E+04 -0.19718160917E+03  0.17829570120E+04  0.12699999809E+01 0. -1.
       -4    1    3    3    0  502 -0.50573504387E+03  0.16983184543E+04  0.21463621493E+03  0.17849716593E+04  0.12699999809E+01 0.  1.
</event>
<event>
 5   0  0.1634374E-06  0.1846491E+04  0.7818609E-02  0.8681959E-01
       -1   -1    0    0    0  501  0.00000000000E+00  0.00000000000E+00  0.54400682170E+03  0.54400682172E+03  0.50400001928E-02 0.  1.
        1   -1    0    0  501    0  0.00000000000E+00  0.00000000000E+00 -0.15668600696E+04  0.15668600696E+04  0.50400001928E-02 0. -1.
    10030    2    1    2    0    0  0.00000000000E+00  0.00000000000E+00 -0.10228532479E+04  0.21108668914E+04  0.18464913393E+04 0.  0.
        5    1    3    3  502    0 -0.36185980891E+03  0.77432353082E+03 -0.11239221680E+03  0.86207514295E+03  0.46999998093E+01 0.  1.
       -5    1    3    3    0  502  0.36185980891E+03 -0.77432353082E+03 -0.91046103112E+03  0.12487917484E+04  0.46999998093E+01 0. -1.
</event>
<event>
 5   0  0.7754556E-07  0.3543886E+04  0.7818609E-02  0.8103467E-01
       -1   -1    0    0    0  501  0.00000000000E+00  0.00000000000E+00  0.12769227218E+04  0.12769227218E+04  0.50400001928E-02 0. -1.
        1   -1    0    0  501    0  0.00000000000E+00  0.00000000000E+00 -0.24588666030E+04  0.24588666030E+04  0.50400001928E-02 0.  1.
    10030    2    1    2    0    0  0.00000000000E+00  0.00000000000E+00 -0.11819438812E+04  0.37357893248E+04  0.35438863612E+04 0.  0.
        4    1    3    3  502    0  0.84668632710E+03 -0.62510671236E+03 -0.20936983661E+04  0.23433332242E+04  0.12699999809E+01 0.  1.
       -4    1    3    3    0  502 -0.84668632710E+03  0.62510671236E+03  0.91175448495E+03  0.13924561006E+04  0.12699999809E+01 0. -1.
</event>
<event>
 5   0  0.2422436E-06  0.3652253E+04  0.7818609E-02  0.8078626E-01
        2   -1    0    0  501    0  0.00000000000E+00  0.00000000000E+00  0.28049841343E+04  0.28049841343E+04  0.25500000920E-02 0.  1.
       -2   -1    0    0    0  501  0.00000000000E+00  0.00000000000E+00 -0.11888615986E+04  0.11888615986E+04  0.25500000920E-02 0. -1.
    10030    2    1    2    0    0  0.00000000000E+00  0.00000000000E+00  0.16161225357E+04  0.39938457329E+04  0.36522529605E+04 0.  0.
        2    1    3    3  502    0 -0.92790982051E+03 -0.10266305611E+04 -0.49491505555E+03  0.14696693017E+04  0.25500000920E-02 0. -1.
       -2    1    3    3    0  502  0.92790982051E+03  0.10266305611E+04  0.21110375913E+04  0.25241764312E+04  0.25500000920E-02 0.  1.
</event>
<event>
 5   0  0.2422436E-06  0.3601027E+04  0.7818609E-02  0.8090257E-01
       -2   -1    0    0    0  501  0.00000000000E+00  0.00000000000E+00  0.15560792797E+04  0.15560792797E+04  0.25500000920E-02 0.  1.
        2   -1    0    0  501    0  0.00000000000E+00  0.00000000000E+00 -0.20833441116E+04  0.20833441116E+04  0.25500000920E-02 0. -1.
    10030    2    1    2    0    0  0.00000000000E+00  0.00000000000E+00 -0.52726483191E+03  0.36394233913E+04  0.36010268560E+04 0.  0.
        2    1    3    3  502    0 -0.12588709403E+04 -0.98954064873E+03  0.56849462661E+03  0.16991565202E+04  0.25500000920E-02 0.  1.
       -2    1    3    3    0  502  0.12588709403E+04  0.98954064873E+03 -0.10957594585E+04  0.19402668710E+04  0.25500000920E-02 0. -1.
</event>
<event>
 5   0  0.2536619E-06  0.3524965E+04  0.7818609E-02  0.8107899E-01
        2   -1    0    0  501    0  0.00000000000E+00  0.00000000000E+00  0.24041005378E+04  0.24041005378E+04  0.25500000920E-02 0.  1.
       -2   -1    0    0    0  501  0.00000000000E+00  0.00000000000E+00 -0.12921025488E+04  0.12921025488E+04  0.25500000920E-02 0. -1.
    10030    2    1    2    0    0  0.00000000000E+00  0.00000000000E+00  0.11119979890E+04  0.36962030866E+04  0.35249649261E+04 0.  0.
        1    1    3    3  502    0 -0.16172696521E+04 -0.69858290916E+03  0.61113892072E+03  0.18646903198E+04  0.50400001928E-02 0.  1.
       -1    1    3    3    0  502  0.16172696521E+04  0.69858290916E+03  0.50085906824E+03  0.18315127668E+04  0.50400001928E-02 0. -1.
</event>
<event>
 5   0  0.2382711E-06  0.3612659E+04  0.7818609E-02  0.8087598E-01
       -2   -1    0    0    0  501  0.00000000000E+00  0.00000000000E+00  0.25411650760E+04  0.25411650760E+04  0.25500000920E-02 0. -1.
        2   -1    0    0  501    0  0.00000000000E+00  0.00000000000E+00 -0.12839886076E+04  0.12839886076E+04  0.25500000920E-02 0.  1.
    10030    2    1    2    0    0  0.00000000000E+00  0.00000000000E+00  0.12571764685E+04  0.38251536836E+04  0.36126594124E+04 0.  0.
        5    1    3    3  502    0  0.17528295096E+04 -0.43096938384E+03  0.55631640155E+03  0.18888239537E+04  0.46999998093E+01 0. -1.
       -5    1    3    3    0  502 -0.17528295096E+04  0.43096938384E+03  0.70086006692E+03  0.19363297299E+04  0.46999998093E+01 0.  1.
</event>
<event>
 5   0  0.7754556E-07  0.3238705E+04  0.7818609E-02  0.8178669E-01
       -1   -1    0    0    0  501  0.00000000000E+00  0.00000000000E+00  0.13381211522E+04  0.13381211522E+04  0.50400001928E-02 0. -1.
        1   -1    0    0  501    0  0.00000000000E+00  0.00000000000E+00 -0.19596898917E+04  0.19596898917E+04  0.50400001928E-02 0.  1.
    10030    2    1    2    0    0  0.00000000000E+00  0.00000000000E+00 -0.62156873945E+03  0.32978110439E+04  0.32387049855E+04 0.  0.
        4    1    3    3  502    0  0.32981842513E+03  0.44843984492E+03 -0.18592014796E+04  0.19407499176E+04  0.12699999809E+01 0.  1.
       -4    1    3    3    0  502 -0.32981842513E+03 -0.44843984492E+03  0.12376327401E+04  0.13570611263E+04  0.12699999809E+01 0. -1.
</event>
<event>
 5   0  0.2422436E-06  0.3350526E+04  0.7818609E-02  0.8150157E-01
       -2   -1    0    0    0  501  0.00000000000E+00  0.00000000000E+00  0.15688943280E+04  0.15688943280E+04  0.25500000920E-02 0.  1.
        2   -1    0    0  501    0  0.00000000000E+00  0.00000000000E+00 -0.17888430540E+04  0.17888430540E+04  0.25500000920E-02 0. -1.
    10030    2    1    2    0    0  0.00000000000E+00  0.00000000000E+00 -0.21994872598E+03  0.33577373820E+04  0.33505257624E+04 0.  0.
        2    1    3    3  502    0  0.34598861994E+03 -0.15914495909E+04 -0.50335689090E+03  0.17046372297E+04  0.25500000920E-02 0. -1.
       -2    1    3    3    0  502 -0.34598861994E+03  0.15914495909E+04  0.28340816492E+03  0.16531001522E+04  0.25500000920E-02 0.  1.
</event>
<event>
 5   0  0.1513502E-06  0.3638414E+04  0.7818609E-02  0.8081749E-01
       -2   -1    0    0    0  501  0.00000000000E+00  0.00000000000E+00  0.21975990339E+04  0.21975990339E+04  0.25500000920E-02 0.  1.
        2   -1    0    0  501    0  0.00000000000E+00  0.00000000000E+00 -0.15059684438E+04  0.15059684438E+04  0.25500000920E-02 0. -1.
    10030    2    1    2    0    0  0.00000000000E+00  0.00000000000E+00  0.69163059015E+03  0.37035674777E+04  0.36384143784E+04 0.  0.
        3    1    3    3  502    0 -0.17831235702E+04  0.38129834891E+02  0.71074771305E+03  0.19199338199E+04  0.10100000352E+00 0. -1.
       -3    1    3    3    0  502  0.17831235702E+04 -0.38129834891E+02 -0.19117122898E+02  0.17836336578E+04  0.10100000352E+00 0.  1.
</event>
<event>
 5   0  0.2382711E-06  0.3610011E+04  0.7818609E-02  0.8088202E-01
       -2   -1    0    0    0  501  0.00000000000E+00  0.00000000000E+00  0.26931112517E+04  0.26931112517E+04  0.25500000920E-02 0.  1.
        2   -1    0    0  501    0  0.00000000000E+00  0.00000000000E+00 -0.12097697855E+04  0.12097697855E+04  0.25500000920E-02 0. -1.
    10030    2    1    2    0    0  0.00000000000E+00  0.00000000000E+00  0.14833414661E+04  0.39028810372E+04  0.36100108706E+04 0.  0.
        5    1    3    3  502    0 -0.97404292618E+03 -0.62220225368E+03 -0.75721274938E+03  0.13817700620E+04  0.46999998093E+01 0. -1.
       -5    1    3    3    0  502  0.97404292618E+03  0.62220225368E+03  0.22405542155E+04  0.25211109752E+04  0.46999998093E+01 0.  1.
</event>
<event>
 5   0  0.1703984E-06  0.1850038E+04  0.7818609E-02  0.8680133E-01
        1   -1    0    0  501    0  0.00000000000E+00  0.00000000000E+00  0.13022749383E+04  0.13022749383E+04  0.50400001928E-02 0. -1.
       -1   -1    0    0    0  501  0.00000000000E+00  0.00000000000E+00 -0.65705004019E+03  0.65705004021E+03  0.50400001928E-02 0.  1.
    10030    2    1    2    0    0  0.00000000000E+00  0.00000000000E+00  0.64522489814E+03  0.19593249785E+04  0.18500376219E+04 0.  0.
        5    1    3    3  502    0 -0.17860292398E+03 -0.40042438030E+03 -0.53999524661E+03  0.69559732975E+03  0.46999998093E+01 0.  1.
       -5    1    3    3    0  502  0.17860292398E+03  0.40042438030E+03  0.11852201448E+04  0.12637276488E+04  0.46999998093E+01 0. -1.
</event>
<event>
 5   0  0.1566576E-06  0.3606013E+04  0.7818609E-02  0.8089116E-01
       -2   -1    0    0    0  501  0.00000000000E+00  0.00000000000E+00  0.26371632380E+04  0.26371632380E+04  0.25500000920E-02 0.  1.
        2   -1    0    0  501    0  0.00000000000E+00  0.00000000000E+00 -0.12327004548E+04  0.12327004548E+04  0.25500000920E-02 0. -1.
    10030    2    1    2    0    0  0.00000000000E+00  0.00000000000E+00  0.14044627831E+04  0.38698636928E+04  0.36060129356E+04 0.  0.
        4    1    3    3  502    0  0.17760180913E+04 -0.25824331146E+03  0.51666039817E+03  0.18675838532E+04  0.12699999809E+01 0.  1.
       -4    1    3    3    0  502 -0.17760180913E+04  0.25824331146E+03  0.88780238497E+03  0.20022798397E+04  0.12699999809E+01 0. -1.
</event>
<event>
 5   0  0.8452742E-07  0.3719729E+04  0.7818609E-02  0.8063604E-01
       -1   -1    0    0    0  501  0.00000000000E+00  0.00000000000E+00  0.24788241612E+04  0.24788241612E+04  0.50400001928E-02 0.  1.
        1   -1    0    0  501    0  0.00000000000E+00  0.00000000000E+00 -0.13954581690E+04  0.13954581690E+04  0.50400001928E-02 0. -1.
    10030    2    1    2    0    0  0.00000000000E+00  0.00000000000E+00  0.10833659922E+04  0.38742823302E+04  0.37197287134E+04 0.  0.
        1    1    3    3  502    0  0.34299329937E+03  0.15255415731E+04 -0.50722215952E+03  0.16438357016E+04  0.50400001928E-02 0.  1.
       -1    1    3    3    0  502 -0.34299329937E+03 -0.15255415731E+04  0.15905881517E+04  0.22304466286E+04  0.50400001928E-02 0. -1.
</event>
<event>
 5   0  0.2382711E-06  0.3401649E+04  0.7818609E-02  0.8137502E-01
        2   -1    0    0  501    0  0.00000000000E+00  0.00000000000E+00  0.23005809136E+04  0.23005809136E+04  0.25500000920E-02 0.  1.
       -2   -1    0    0    0  501  0.00000000000E+00  0.00000000000E+00 -0.12574235810E+04  0.12574235810E+04  0.25500000920E-02 0. -1.
    10030    2    1    2    0    0  0.00000000000E+00  0.00000000000E+00  0.10431573326E+04  0.35580044946E+04  0.34016494180E+04 0.  0.
        5    1    3    3  502    0 -0.37293003219E+03  0.13989635596E+04  0.14551315642E+04  0.20527069468E+04  0.46999998093E+01 0.  1.
       -5    1    3    3    0  502  0.37293003219E+03 -0.13989635596E+04 -0.41197423158E+03  0.15052975479E+04  0.46999998093E+01 0. -1.
</event>
<event>
 5   0  0.2422436E-06  0.3610743E+04  0.7818609E-02  0.8088035E-01
        2   -1    0    0  501    0  0.00000000000E+00  0.00000000000E+00  0.17955808965E+04  0.17955808965E+04  0.25500000920E-02 0.  1.
       -2   -1    0    0    0  501  0.00000000000E+00  0.00000000000E+00 -0.18152155890E+04  0.18152155890E+04  0.25500000920E-02 0. -1.
    10030    2    1    2    0    0  0.00000000000E+00  0.00000000000E+00 -0.19634692530E+02  0.36107964854E+04  0.36107431005E+04 0.  0.
        2    1    3    3  502    0  0.44129706713E+03 -0.81216589609E+03 -0.15606497057E+04  0.18138313174E+04  0.25500000920E-02 0. -1.
       -2    1    3    3    0  502 -0.44129706713E+03  0.81216589609E+03  0.15410150132E+04  0.17969651680E+04  0.25500000920E-02 0.  1.
</event>
<event>
 5   0  0.1513502E-06  0.3067928E+04  0.7818609E-02  0.8224595E-01
        2   -1    0    0  501    0  0.00000000000E+00  0.00000000000E+00  0.18524166172E+04  0.18524166172E+04  0.25500000920E-02 0.  1.
       -2   -1    0    0    0  501  0.00000000000E+00  0.00000000000E+00 -0.12702575922E+04  0.12702575922E+04  0.25500000920E-02 0. -1.
    10030    2    1    2    0    0  0.00000000000E+00  0.00000000000E+00  0.58215902502E+03  0.31226742094E+04  0.30679284684E+04 0.  0.
        3    1    3    3  502    0 -0.14999711433E+03 -0.63967127727E+03  0.17019485389E+04  0.18243649077E+04  0.10100000352E+00 0.  1.
       -3    1    3    3    0  502  0.14999711433E+03  0.63967127727E+03 -0.11197895139E+04  0.12983093017E+04  0.10100000352E+00 0. -1.
</event>
<event>
 5   0  0.8423692E-07  0.3549878E+04  0.7818609E-02  0.8102070E-01
        1   -1    0    0  501    0  0.00000000000E+00  0.00000000000E+00  0.28324655190E+04  0.28324655190E+04  0.50400001928E-02 0. -1.
       -1   -1    0    0    0  501  0.00000000000E+00  0.00000000000E+00 -0.11122497560E+04  0.11122497560E+04  0.50400001928E-02 0.  1.
    10030    2    1    2    0    0  0.00000000000E+00  0.00000000000E+00  0.17202157630E+04  0.39447152750E+04  0.35498783541E+04 0.  0.
        2    1    3    3  502    0 -0.12009655954E+04  0.12853935581E+04  0.59748666735E+03  0.18578334904E+04  0.25500000920E-02 0.  1.
       -2    1    3    3    0  502  0.12009655954E+04 -0.12853935581E+04  0.11227290957E+04  0.20868817845E+04  0.25500000920E-02 0. -1.
</event>
<event>
 5   0  0.1513502E-06  0.3580892E+04  0.7818609E-02  0.8094883E-01
       -2   -1    0    0    0  501  0.00000000000E+00  0.00000000000E+00  0.19656098098E+04  0.19656098098E+04  0.25500000920E-02 0.  1.
        2   -1    0    0  501    0  0.00000000000E+00  0.00000000000E+00 -0.16308913615E+04  0.16308913615E+04  0.25500000920E-02 0. -1.
    10030    2    1    2    0    0  0.00000000000E+00  0.00000000000E+00  0.33471844829E+03  0.35965011713E+04  0.35808915420E+04 0.  0.
        3    1    3    3  502    0 -0.13408290118E+04  0.11725329795E+04  0.34992072641E+03  0.18152411829E+04  0.10100000352E+00 0.  1.
       -3    1    3    3    0  502  0.13408290118E+04 -0.11725329795E+04 -0.15202278126E+02  0.17812599885E+04  0.10100000352E+00 0. -1.
</event>
<event>
 5   0  0.8452742E-07  0.1873780E+04  0.7818609E-02  0.8668019E-01
       -1   -1    0    0    0  501  0.00000000000E+00  0.00000000000E+00  0.94689227977E+03  0.94689227979E+03  0.50400001928E-02 0.  1.
        1   -1    0    0  501    0  0.00000000000E+00  0.00000000000E+00 -0.92699325894E+03  0.92699325895E+03  0.50400001928E-02 0. -1.
    10030    2    1    2    0    0  0.00000000000E+00  0.00000000000E+00  0.19899020835E+02  0.18738855387E+04  0.18737798807E+04 0.  0.
        1    1    3    3  502    0 -0.18563430993E+03  0.67960401369E+03  0.62759347436E+03  0.94350160653E+03  0.50400001928E-02 0.  1.
       -1    1    3    3    0  502  0.18563430993E+03 -0.67960401369E+03 -0.60769445352E+03  0.93038393221E+03  0.50400001928E-02 0. -1.
</event>
<event>
 5   0  0.2422436E-06  0.3525698E+04  0.7818609E-02  0.8107727E-01
        2   -1    0    0  501    0  0.00000000000E+00  0.00000000000E+00  0.23074919437E+04  0.23074919437E+04  0.25500000920E-02 0. -1.
       -2   -1    0    0    0  501  0.00000000000E+00  0.00000000000E+00 -0.13467594423E+04  0.13467594423E+04  0.25500000920E-02 0.  1.
    10030    2    1    2    0    0  0.00000000000E+00  0.00000000000E+00  0.96073250131E+03  0.36542513860E+04  0.35256979810E+04 0.  0.
        2    1    3    3  502    0 -0.51314547840E+03  0.50741465550E+03 -0.11866461224E+04  0.13888545404E+04  0.25500000920E-02 0.  1.
       -2    1    3    3    0  502  0.51314547840E+03 -0.50741465550E+03  0.21473786237E+04  0.22653968456E+04  0.25500000920E-02 0. -1.
</event>
<event>
 5   0  0.1513502E-06  0.2023924E+04  0.7818609E-02  0.8595517E-01
       -2   -1    0    0    0  501  0.00000000000E+00  0.00000000000E+00  0.70140217278E+03  0.70140217279E+03  0.25500000920E-02 0. -1.
        2   -1    0    0  501    0  0.00000000000E+00  0.00000000000E+00 -0.14600278553E+04  0.14600278553E+04  0.25500000920E-02 0.  1.
    10030    2    1    2    0    0  0.00000000000E+00  0.00000000000E+00 -0.75862568247E+03  0.21614300280E+04  0.20239236250E+04 0.  0.
        3    1    3    3  502    0 -0.97575773356E+03 -0.26778056870E+03 -0.36218871484E+03  0.10747047329E+04  0.10100000352E+00 0.  1.
       -3    1    3    3    0  502  0.97575773356E+03  0.26778056870E+03 -0.39643696763E+03  0.10867252951E+04  0.10100000352E+00 0. -1.
</event>
<event>
 5   0  0.2536619E-06  0.2391211E+04  0.7818609E-02  0.8442802E-01
       -2   -1    0    0    0  501  0.00000000000E+00  0.00000000000E+00  0.15312816924E+04  0.15312816924E+04  0.25500000920E-02 0.  1.
        2   -1    0    0  501    0  0.00000000000E+00  0.00000000000E+00 -0.93351344421E+03  0.93351344421E+03  0.25500000920E-02 0. -1.
    10030    2    1    2    0    0  0.00000000000E+00  0.00000000000E+00  0.59776824815E+03  0.24647951366E+04  0.23912106111E+04 0.  0.
        1    1    3    3  502    0  0.32157865023E+03  0.31654545450E+03  0.14401402356E+04  0.15091778395E+04  0.50400001928E-02 0.  1.
       -1    1    3    3    0  502 -0.32157865023E+03 -0.31654545450E+03 -0.84237198749E+03  0.95561729703E+03  0.50400001928E-02 0. -1.
</event>
<event>
 5   0  0.7754556E-07  0.2273360E+04  0.7818609E-02  0.8488499E-01
       -1   -1    0    0    0  501  0.00000000000E+00  0.00000000000E+00  0.72778540319E+03  0.72778540321E+03  0.50400001928E-02 0. -1.
        1   -1    0    0  501    0  0.00000000000E+00  0.00000000000E+00 -0.17753058546E+04  0.17753058546E+04  0.50400001928E-02 0.  1.
    10030    2    1    2    0    0  0.00000000000E+00  0.00000000000E+00 -0.10475204514E+04  0.25030912578E+04  0.22733602330E+04 0.  0.
        4    1    3    3  502    0 -0.48783408703E+03  0.89069548441E+03 -0.10859658792E+04  0.14868234751E+04  0.12699999809E+01 0.  1.
       -4    1    3    3    0  502  0.48783408703E+03 -0.89069548441E+03  0.38445427771E+02  0.10162677827E+04  0.12699999809E+01 0. -1.
</event>
<event>
 5   0  0.2536619E-06  0.3549052E+04  0.7818609E-02  0.8102263E-01
        2   -1    0    0  501    0  0.00000000000E+00  0.00000000000E+00  0.20948912058E+04  0.20948912058E+04  0.25500000920E-02 0.  1.
       -2   -1    0    0    0  501  0.00000000000E+00  0.00000000000E+00 -0.15031531036E+04  0.15031531036E+04  0.25500000920E-02 0. -1.
    10030    2    1    2    0    0  0.00000000000E+00  0.00000000000E+00  0.59173810221E+03  0.35980443093E+04  0.35490518269E+04 0.  0.
        1    1    3    3  502    0 -0.40358899909E+02 -0.73863937757E+03 -0.13393836740E+04  0.15300867940E+04  0.50400001928E-02 0. -1.
       -1    1    3    3    0  502  0.40358899909E+02  0.73863937757E+03  0.19311217762E+04  0.20679575154E+04  0.50400001928E-02 0.  1.
</event>
<event>
 5   0  0.8423692E-07  0.2919100E+04  0.7818609E-02  0.8267217E-01
       -1   -1    0    0    0  501  0.00000000000E+00  0.00000000000E+00  0.11527564795E+04  0.11527564795E+04  0.50400001928E-02 0.  1.
        1   -1    0    0  501    0  0.00000000000E+00  0.00000000000E+00 -0.18479929449E+04  0.18479929449E+04  0.50400001928E-02 0. -1.
    10030    2    1    2    0    0  0.00000000000E+00  0.00000000000E+00 -0.69523646545E+03  0.30007494244E+04  0.29190997525E+04 0.  0.
        2    1    3    3  502    0  0.12164716794E+04 -0.75833016983E+03 -0.62992277339E+03  0.15657811768E+04  0.25500000920E-02 0. -1.
       -2    1    3    3    0  502 -0.12164716794E+04  0.75833016983E+03 -0.65313692056E+02  0.14349682476E+04  0.25500000920E-02 0.  1.
</event>
<event>
 5   0  0.1513502E-06  0.3164322E+04  0.7818609E-02  0.8198304E-01
       -2   -1    0    0    0  501  0.00000000000E+00  0.00000000000E+00  0.12246427799E+04  0.12246427799E+04  0.25500000920E-02 0.  1.
        2   -1    0    0  501    0  0.00000000000E+00  0.00000000000E+00 -0.20440521315E+04  0.20440521315E+04  0.25500000920E-02 0. -1.
    10030    2    1    2    0    0  0.00000000000E+00  0.00000000000E+00 -0.81940935157E+03  0.32686949114E+04  0.31643221610E+04 0.  0.
        3    1    3    3  502    0  0.27476025999E+03 -0.85429224012E+03 -0.17557292121E+04  0.19717742032E+04  0.10100000352E+00 0. -1.
       -3    1    3    3    0  502 -0.27476025999E+03  0.85429224012E+03  0.93631986053E+03  0.12969207082E+04  0.10100000352E+00 0.  1.
</event>
<event>
 5   0  0.8423692E-07  0.3563144E+04  0.7818609E-02  0.8098986E-01
       -1   -1    0    0    0  501  0.00000000000E+00  0.00000000000E+00  0.12989413205E+04  0.12989413205E+04  0.50400001928E-02 0.  1.
        1   -1    0    0  501    0  0.00000000000E+00  0.00000000000E+00 -0.24435279173E+04  0.24435279173E+04  0.50400001928E-02 0. -1.
    10030    2    1    2    0    0  0.00000000000E+00  0.00000000000E+00 -0.11445865968E+04  0.37424692379E+04  0.35631443303E+04 0.  0.
        2    1    3    3  502    0  0.74038527567E+03 -0.46761657967E+03 -0.22018806413E+04  0.23696231727E+04  0.25500000920E-02 0. -1.
       -2    1    3    3    0  502 -0.74038527567E+03  0.46761657967E+03  0.10572940445E+04  0.13728460652E+04  0.25500000920E-02 0.  1.
</event>
<event>
 5   0  0.8452742E-07  0.3647446E+04  0.7818609E-02  0.8079709E-01
        1   -1    0    0  501    0  0.00000000000E+00  0.00000000000E+00  0.15509492579E+04  0.15509492579E+04  0.50400001928E-02 0. -1.
       -1   -1    0    0    0  501  0.00000000000E+00  0.00000000000E+00 -0.21444708294E+04  0.21444708294E+04  0.50400001928E-02 0.  1.
    10030    2    1    2    0    0  0.00000000000E+00  0.00000000000E+00 -0.59352157148E+03  0.36954200872E+04  0.36474459236E+04 0.  0.
        1    1    3    3  502    0  0.16964833775E+04 -0.17843007041E+03 -0.95028149696E+03  0.19526720318E+04  0.50400001928E-02 0.  1.
       -1    1    3    3    0  502 -0.16964833775E+04  0.17843007041E+03  0.35675992547E+03  0.17427480554E+04  0.50400001928E-02 0. -1.
</event>
<event>
 5   0  0.2536619E-06  0.3494816E+04  0.7818609E-02  0.8115020E-01
       -2   -1    0    0    0  501  0.00000000000E+00  0.00000000000E+00  0.12943341093E+04  0.12943341093E+04  0.25500000920E-02 0. -1.
        2   -1    0    0  501    0  0.00000000000E+00  0.00000000000E+00 -0.23590775775E+04  0.23590775775E+04  0.25500000920E-02 0.  1.
    10030    2    1    2    0    0  0.00000000000E+00  0.00000000000E+00 -0.10647434682E+04  0.36534116868E+04  0.34948159179E+04 0.  0.
        1    1    3    3  502    0 -0.10054116821E+04 -0.12780466603E+04 -0.12010709220E+04  0.20215902839E+04  0.50400001928E-02 0.  1.
       -1    1    3    3    0  502  0.10054116821E+04  0.12780466603E+04  0.13632745384E+03  0.16318214029E+04  0.50400001928E-02 0. -1.
</event>
<event>
 5   0  0.2541189E-06  0.1787211E+04  0.7818609E-02  0.8713130E-01
       -2   -1    0    0    0  501  0.00000000000E+00  0.00000000000E+00  0.76479209043E+03  0.76479209043E+03  0.25500000920E-02 0.  1.
        2   -1    0    0  501    0  0.00000000000E+00  0.00000000000E+00 -0.10441150837E+04  0.10441150837E+04  0.25500000920E-02 0. -1.
    10030    2    1    2    0    0  0.00000000000E+00  0.00000000000E+00 -0.27932299324E+03  0.18089071741E+04  0.17872111878E+04 0.  0.
        4    1    3    3  502    0  0.15713041052E+02  0.51858248762E+03 -0.87606148385E+03  0.10181650321E+04  0.12699999809E+01 0. -1.
       -4    1    3    3    0  502 -0.15713041052E+02 -0.51858248762E+03  0.59673849061E+03  0.79074214204E+03  0.12699999809E+01 0.  1.
</event>
<event>
 5   0  0.2536619E-06  0.3175696E+04  0.7818609E-02  0.8195265E-01
        2   -1    0    0  501    0  0.00000000000E+00  0.00000000000E+00  0.16175297109E+04  0.16175297109E+04  0.25500000920E-02 0.  1.
       -2   -1    0    0    0  501  0.00000000000E+00  0.00000000000E+00 -0.15587113669E+04  0.15587113669E+04  0.25500000920E-02 0. -1.
    10030    2    1    2    0    0  0.00000000000E+00  0.00000000000E+00  0.58818344067E+02  0.31762410778E+04  0.31756964254E+04 0.  0.
        1    1    3    3  502    0 -0.70970974243E+03 -0.46992982480E+03 -0.13112460206E+04  0.15632939856E+04  0.50400001928E-02 0. -1.
       -1    1    3    3    0  502  0.70970974243E+03  0.46992982480E+03  0.13700643647E+04  0.16129470922E+04  0.50400001928E-02 0.  1.
</event>
<event>
 5   0  0.8423692E-07  0.3548196E+04  0.7818609E-02  0.8102462E-01
       -1   -1    0    0    0  501  0.00000000000E+00  0.00000000000E+00  0.18402636522E+04  0.18402636522E+04  0.50400001928E-02 0. -1.
        1   -1    0    0  501    0  0.00000000000E+00  0.00000000000E+00 -0.17103115564E+04  0.17103115564E+04  0.50400001928E-02 0.  1.
    10030    2    1    2    0    0  0.00000000000E+00  0.00000000000E+00  0.12995209581E+03  0.35505752086E+04  0.35481962692E+04 0.  0.
        2    1    3    3  502    0 -0.37086183811E+03  0.81259515835E+03  0.15988360368E+04  0.18314273305E+04  0.25500000920E-02 0. -1.
       -2    1    3    3    0  502  0.37086183811E+03 -0.81259515835E+03 -0.14688839410E+04  0.17191478780E+04  0.25500000920E-02 0.  1.
</event>
<event>
 5   0  0.2382711E-06  0.3610424E+04  0.7818609E-02  0.8088108E-01
        2   -1    0    0  501    0  0.00000000000E+00  0.00000000000E+00  0.29032004416E+04  0.29032004416E+04  0.25500000920E-02 0. -1.
       -2   -1    0    0    0  501  0.00000000000E+00  0.00000000000E+00 -0.11224823452E+04  0.11224823452E+04  0.25500000920E-02 0.  1.
    10030    2    1    2    0    0  0.00000000000E+00  0.00000000000E+00  0.17807180964E+04  0.40256827869E+04  0.36104244850E+04 0.  0.
        5    1    3    3  502    0 -0.16281020241E+04 -0.29520522525E+03  0.16951096468E+04  0.23688142880E+04  0.46999998093E+01 0. -1.
       -5    1    3    3    0  502  0.16281020241E+04  0.29520522525E+03  0.85608449583E+02  0.16568684989E+04  0.46999998093E+01 0.  1.
</event>
<event>
 5   0  0.1513502E-06  0.3122244E+04  0.7818609E-02  0.8209660E-01
       -2   -1    0    0    0  501  0.00000000000E+00  0.00000000000E+00  0.88480952266E+03  0.88480952266E+03  0.25500000920E-02 0. -1.
        2   -1    0    0  501    0  0.00000000000E+00  0.00000000000E+00 -0.27543807031E+04  0.27543807031E+04  0.25500000920E-02 0.  1.
    10030    2    1    2    0    0  0.00000000000E+00  0.00000000000E+00 -0.18695711804E+04  0.36391902257E+04  0.31222442410E+04 0.  0.
        3    1    3    3  502    0 -0.21672501274E+03 -0.13064671338E+04 -0.18982507596E+04  0.23145587180E+04  0.10100000352E+00 0.  1.
       -3    1    3    3    0  502  0.21672501274E+03  0.13064671338E+04  0.28679579167E+02  0.13246315077E+04  0.10100000352E+00 0. -1.
</event>
<event>
 5   0  0.7754556E-07  0.3664413E+04  0.7818609E-02  0.8075894E-01
       -1   -1    0    0    0  501  0.00000000000E+00  0.00000000000E+00  0.17800263451E+04  0.17800263451E+04  0.50400001928E-02 0. -1.
        1   -1    0    0  501    0  0.00000000000E+00  0.00000000000E+00 -0.18859167588E+04  0.18859167588E+04  0.50400001928E-02 0.  1.
    10030    2    1    2    0    0  0.00000000000E+00  0.00000000000E+00 -0.10589041373E+03  0.36659431039E+04  0.36644134676E+04 0.  0.
        4    1    3    3  502    0 -0.13080927698E+03 -0.13241496592E+04  0.12071426054E+04  0.17965740368E+04  0.12699999809E+01 0. -1.
       -4    1    3    3    0  502  0.13080927698E+03  0.13241496592E+04 -0.13130330191E+04  0.18693690671E+04  0.12699999809E+01 0.  1.
</event>
<event>
 5   0  0.2536619E-06  0.2561068E+04  0.7818609E-02  0.8381547E-01
       -2   -1    0    0    0  501  0.00000000000E+00  0.00000000000E+00  0.71070928381E+03  0.71070928382E+03  0.25500000920E-02 0. -1.
        2   -1    0    0  501    0  0.00000000000E+00  0.00000000000E+00 -0.23072261185E+04  0.23072261185E+04  0.25500000920E-02 0.  1.
    10030    2    1    2    0    0  0.00000000000E+00  0.00000000000E+00 -0.15965168347E+04  0.30179354023E+04  0.25610677635E+04 0.  0.
        1    1    3    3  502    0  0.11716366187E+04 -0.42612788568E+03 -0.45379421726E+03  0.13267428285E+04  0.50400001928E-02 0.  1.
       -1    1    3    3    0  502 -0.11716366187E+04  0.42612788568E+03 -0.11427226174E+04  0.16911925738E+04  0.50400001928E-02 0. -1.
</event>
<event>
 5   0  0.2382711E-06  0.2984257E+04  0.7818609E-02  0.8248241E-01
        2   -1    0    0  501    0  0.00000000000E+00  0.00000000000E+00  0.18151783204E+04  0.18151783204E+04  0.25500000920E-02 0.  1.
       -2   -1    0    0    0  501  0.00000000000E+00  0.00000000000E+00 -0.12265722087E+04  0.12265722087E+04  0.25500000920E-02 0. -1.
    10030    2    1    2    0    0  0.00000000000E+00  0.00000000000E+00  0.58860611175E+03  0.30417505291E+04  0.29842568802E+04 0.  0.
        5    1    3    3  502    0 -0.23376025313E+03  0.16300358752E+03  0.17871745070E+04  0.18097593304E+04  0.46999998093E+01 0.  1.
       -5    1    3    3    0  502  0.23376025313E+03 -0.16300358752E+03 -0.11985683953E+04  0.12319911987E+04  0.46999998093E+01 0. -1.
</event>
<event>
 5   0  0.8423692E-07  0.3581780E+04  0.7818609E-02  0.8094678E-01
       -1   -1    0    0    0  501  0.00000000000E+00  0.00000000000E+00  0.97801360585E+03  0.97801360587E+03  0.50400001928E-02 0. -1.
        1   -1    0    0  501    0  0.00000000000E+00  0.00000000000E+00 -0.32793880391E+04  0.32793880391E+04  0.50400001928E-02 0.  1.
    10030    2    1    2    0    0  0.00000000000E+00  0.00000000000E+00 -0.23013744332E+04  0.42574016450E+04  0.35817795137E+04 0.  0.
        2    1    3    3  502    0  0.15377166341E+04 -0.73583967668E+03 -0.49829025403E+03  0.17760421317E+04  0.25500000920E-02 0.  1.
       -2    1    3    3    0  502 -0.15377166341E+04  0.73583967668E+03 -0.18030841792E+04  0.24813595132E+04  0.25500000920E-02 0. -1.
</event>
<event>
 5   0  0.7707500E-07  0.3698855E+04  0.7818609E-02  0.8068216E-01
        3   -1    0    0  501    0  0.00000000000E+00  0.00000000000E+00  0.13175438831E+04  0.13175438870E+04  0.10100000352E+00 0. -1.
       -3   -1    0    0    0  501  0.00000000000E+00  0.00000000000E+00 -0.25960295039E+04  0.25960295059E+04  0.10100000352E+00 0.  1.
    10030    2    1    2    0    0  0.00000000000E+00  0.00000000000E+00 -0.12784856208E+04  0.39135733928E+04  0.36988553930E+04 0.  0.
        5    1    3    3  502    0  0.15087454411E+04 -0.20676147029E+02 -0.17707233210E+04  0.23264185949E+04  0.46999998093E+01 0.  1.
       -5    1    3    3    0  502 -0.15087454411E+04  0.20676147029E+02  0.49223770018E+03  0.15871547979E+04  0.46999998093E+01 0. -1.
</event>
<event>
 5   0  0.1566576E-06  0.2239104E+04  0.7818609E-02  0.8502326E-01
       -2   -1    0    0    0  501  0.00000000000E+00  0.00000000000E+00  0.85868203584E+03  0.85868203584E+03  0.25500000920E-02 0.  1.
        2   -1    0    0  501    0  0.00000000000E+00  0.00000000000E+00 -0.14596746326E+04  0.14596746326E+04  0.25500000920E-02 0. -1.
    10030    2    1    2    0    0  0.00000000000E+00  0.00000000000E+00 -0.60099259673E+03  0.23183566684E+04  0.22391037360E+04 0.  0.
        4    1    3    3  502    0  0.50926275085E+03 -0.26913437315E+03 -0.12944823995E+04  0.14168514939E+04  0.12699999809E+01 0. -1.
       -4    1    3    3    0  502 -0.50926275085E+03  0.26913437315E+03  0.69348980279E+03  0.90150517452E+03  0.12699999809E+01 0.  1.
</event>
<event>
 5   0  0.1908273E-06  0.1979065E+04  0.7818609E-02  0.8616472E-01
       -1   -1    0    0    0  501  0.00000000000E+00  0.00000000000E+00  0.70221505467E+03  0.70221505469E+03  0.50400001928E-02 0. -1.
        1   -1    0    0  501    0  0.00000000000E+00  0.00000000000E+00 -0.13944081988E+04  0.13944081989E+04  0.50400001928E-02 0.  1.
    10030    2    1    2    0    0  0.00000000000E+00  0.00000000000E+00 -0.69219314417E+03  0.20966232535E+04  0.19790648596E+04 0.  0.
        3    1    3    3  502    0  0.61624838931E+03  0.55534589481E+03 -0.91758746258E+03  0.12369874300E+04  0.10100000352E+00 0.  1.
       -3    1    3    3    0  502 -0.61624838931E+03 -0.55534589481E+03  0.22539431841E+03  0.85963582358E+03  0.10100000352E+00 0. -1.
</event>
<event>
 5   0  0.2422436E-06  0.3350880E+04  0.7818609E-02  0.8150068E-01
       -2   -1    0    0    0  501  0.00000000000E+00  0.00000000000E+00  0.16124103433E+04  0.16124103433E+04  0.25500000920E-02 0.  1.
        2   -1    0    0  501    0  0.00000000000E+00  0.00000000000E+00 -0.17409335251E+04  0.17409335251E+04  0.25500000920E-02 0. -1.
    10030    2    1    2    0    0  0.00000000000E+00  0.00000000000E+00 -0.12852318174E+03  0.33533438684E+04  0.33508800175E+04 0.  0.
        2    1    3    3  502    0 -0.12950349842E+04 -0.20442675560E+03 -0.11081936607E+04  0.17166825852E+04  0.25500000920E-02 0. -1.
       -2    1    3    3    0  502  0.12950349842E+04  0.20442675560E+03  0.97967047901E+03  0.16366612832E+04  0.25500000920E-02 0.  1.
</event>
<event>
 5   0  0.8423692E-07  0.1840819E+04  0.7818609E-02  0.8684888E-01
        1   -1    0    0  501    0  0.00000000000E+00  0.00000000000E+00  0.11033611441E+04  0.11033611441E+04  0.50400001928E-02 0. -1.
       -1   -1    0    0    0  501  0.00000000000E+00  0.00000000000E+00 -0.76779400461E+03  0.76779400463E+03  0.50400001928E-02 0.  1.
    10030    2    1    2    0    0  0.00000000000E+00  0.00000000000E+00  0.33556713951E+03  0.18711551488E+04  0.18408194604E+04 0.  0.
        2    1    3    3  502    0 -0.53213614991E+03 -0.55927269866E+03 -0.34167369649E+03  0.84421309418E+03  0.25500000920E-02 0.  1.
       -2    1    3    3    0  502  0.53213614991E+03  0.55927269866E+03  0.67724083601E+03  0.10269420546E+04  0.25500000920E-02 0. -1.
</event>
<event>
 5   0  0.7754556E-07  0.3584837E+04  0.7818609E-02  0.8093974E-01
       -1   -1    0    0    0  501  0.00000000000E+00  0.00000000000E+00  0.13978422082E+04  0.13978422082E+04  0.50400001928E-02 0. -1.
        1   -1    0    0  501    0  0.00000000000E+00  0.00000000000E+00 -0.22983733465E+04  0.22983733465E+04  0.50400001928E-02 0.  1.
    10030    2    1    2    0    0  0.00000000000E+00  0.00000000000E+00 -0.90053113833E+03  0.36962155547E+04  0.35848365508E+04 0.  0.
        4    1    3    3  502    0  0.14445552446E+04  0.14621415682E+03  0.63340916598E+03  0.15840856097E+04  0.12699999809E+01 0. -1.
       -4    1    3    3    0  502 -0.14445552446E+04 -0.14621415682E+03 -0.15339403043E+04  0.21121299450E+04  0.12699999809E+01 0.  1.
</event>
<event>
 5   0  0.2422436E-06  0.3370736E+04  0.7818609E-02  0.8145126E-01
        2   -1    0    0  501    0  0.00000000000E+00  0.00000000000E+00  0.21250972805E+04  0.21250972805E+04  0.25500000920E-02 0. -1.
       -2   -1    0    0    0  501  0.00000000000E+00  0.00000000000E+00 -0.13366286648E+04  0.13366286648E+04  0.25500000920E-02 0.  1.
    10030    2    1    2    0    0  0.00000000000E+00  0.00000000000E+00  0.78846861573E+03  0.34617259453E+04  0.33707363828E+04 0.  0.
        2    1    3    3  502    0 -0.69235298970E+03 -0.14210535403E+03 -0.11770729619E+04  0.13729702661E+04  0.25500000920E-02 0.  1.
       -2    1    3    3    0  502  0.69235298970E+03  0.14210535403E+03  0.19655415776E+04  0.20887556792E+04  0.25500000920E-02 0. -1.
</event>
<event>
 5   0  0.1566576E-06  0.3676678E+04  0.7818609E-02  0.8073150E-01
        2   -1    0    0  501    0  0.00000000000E+00  0.00000000000E+00  0.23330800508E+04  0.23330800508E+04  0.25500000920E-02 0.  1.
       -2   -1    0    0    0  501  0.00000000000E+00  0.00000000000E+00 -0.14485100550E+04  0.14485100550E+04  0.25500000920E-02 0. -1.
    10030    2    1    2    0    0  0.00000000000E+00  0.00000000000E+00  0.88456999579E+03  0.37815901057E+04  0.36766778007E+04 0.  0.
        4    1    3    3  502    0 -0.12196173528E+04 -0.89393634736E+03 -0.63296392815E+03  0.16392783862E+04  0.12699999809E+01 0. -1.
       -4    1    3    3    0  502  0.12196173528E+04  0.89393634736E+03  0.15175339239E+04  0.21423117195E+04  0.12699999809E+01 0.  1.
</event>
<event>
 5   0  0.2382711E-06  0.3593411E+04  0.7818609E-02  0.8092003E-01
        2   -1    0    0  501    0  0.00000000000E+00  0.00000000000E+00  0.15517437436E+04  0.15517437436E+04  0.25500000920E-02 0.  1.
       -2   -1    0    0    0  501  0.00000000000E+00  0.00000000000E+00 -0.20803376899E+04  0.20803376899E+04  0.25500000920E-02 0. -1.
    10030    2    1    2    0    0  0.00000000000E+00  0.00000000000E+00 -0.52859394634E+03  0.36320814335E+04  0.35934111898E+04 0.  0.
        5    1    3    3  502    0 -0.41615608352E+03 -0.80909505000E+03  0.13016684458E+04  0.15881383814E+04  0.46999998093E+01 0.  1.
       -5    1    3    3    0  502  0.41615608352E+03  0.80909505000E+03 -0.18302623922E+04  0.20439430520E+04  0.46999998093E+01 0. -1.
</event>
<event>
 5   0  0.7754556E-07  0.3602266E+04  0.7818609E-02  0.8089973E-01
        1   -1    0    0  501    0  0.00000000000E+00  0.00000000000E+00  0.22009049779E+04  0.22009049779E+04  0.50400001928E-02 0.  1.
       -1   -1    0    0    0  501  0.00000000000E+00  0.00000000000E+00 -0.14739753612E+04  0.14739753612E+04  0.50400001928E-02 0. -1.
    10030    2    1    2    0    0  0.00000000000E+00  0.00000000000E+00  0.72692961673E+03  0.36748803391E+04  0.36022657924E+04 0.  0.
        4    1    3    3  502    0 -0.95254054486E+03 -0.55256538563E+03 -0.10905435180E+04  0.15498221745E+04  0.12699999809E+01 0. -1.
       -4    1    3    3    0  502  0.95254054486E+03  0.55256538563E+03  0.18174731347E+04  0.21250581647E+04  0.12699999809E+01 0.  1.
</event>
<event>
 5   0  0.7754556E-07  0.3501211E+04  0.7818609E-02  0.8113503E-01
       -1   -1    0    0    0  501  0.00000000000E+00  0.00000000000E+00  0.15878712616E+04  0.15878712616E+04  0.50400001928E-02 0.  1.
        1   -1    0    0  501    0  0.00000000000E+00  0.00000000000E+00 -0.19300173294E+04  0.19300173294E+04  0.50400001928E-02 0. -1.
    10030    2    1    2    0    0  0.00000000000E+00  0.00000000000E+00 -0.34214606779E+03  0.35178885909E+04  0.35012106773E+04 0.  0.
        4    1    3    3  502    0  0.53431877500E+02 -0.50856367466E+03  0.15111559272E+04  0.15953325126E+04  0.12699999809E+01 0.  1.
       -4    1    3    3    0  502 -0.53431877500E+02  0.50856367466E+03 -0.18533019950E+04  0.19225560783E+04  0.12699999809E+01 0. -1.
</event>
<event>
 5   0  0.1566576E-06  0.2007457E+04  0.7818609E-02  0.8603142E-01
       -2   -1    0    0    0  501  0.00000000000E+00  0.00000000000E+00  0.93628928816E+03  0.93628928817E+03  0.25500000920E-02 0.  1.
        2   -1    0    0  501    0  0.00000000000E+00  0.00000000000E+00 -0.10760251540E+04  0.10760251540E+04  0.25500000920E-02 0. -1.
    10030    2    1    2    0    0  0.00000000000E+00  0.00000000000E+00 -0.13973586587E+03  0.20123144422E+04  0.20074569241E+04 0.  0.
        4    1    3    3  502    0 -0.71027734853E+03 -0.69903985286E+03 -0.18981776896E+03  0.10144865825E+04  0.12699999809E+01 0.  1.
       -4    1    3    3    0  502  0.71027734853E+03  0.69903985286E+03  0.50081903097E+02  0.99782785972E+03  0.12699999809E+01 0. -1.
</event>
<event>
 5   0  0.8452742E-07  0.3585380E+04  0.7818609E-02  0.8093849E-01
        1   -1    0    0  501    0  0.00000000000E+00  0.00000000000E+00  0.16636539769E+04  0.16636539770E+04  0.50400001928E-02 0. -1.
       -1   -1    0    0    0  501  0.00000000000E+00  0.00000000000E+00 -0.19317340214E+04  0.19317340214E+04  0.50400001928E-02 0.  1.
    10030    2    1    2    0    0  0.00000000000E+00  0.00000000000E+00 -0.26808004442E+03  0.35953879983E+04  0.35853797495E+04 0.  0.
        1    1    3    3  502    0 -0.13788775035E+04 -0.51480987915E+03 -0.11603246948E+04  0.18742160437E+04  0.50400001928E-02 0. -1.
       -1    1    3    3    0  502  0.13788775035E+04  0.51480987915E+03  0.89224465033E+03  0.17211719546E+04  0.50400001928E-02 0.  1.
</event>
<event>
 5   0  0.7754556E-07  0.2537256E+04  0.7818609E-02  0.8389832E-01
       -1   -1    0    0    0  501  0.00000000000E+00  0.00000000000E+00  0.22678037416E+04  0.22678037416E+04  0.50400001928E-02 0. -1.
        1   -1    0    0  501    0  0.00000000000E+00  0.00000000000E+00 -0.70968062376E+03  0.70968062378E+03  0.50400001928E-02 0.  1.
    10030    2    1    2    0    0  0.00000000000E+00  0.00000000000E+00  0.15581231178E+04  0.29774843654E+04  0.25372555046E+04 0.  0.
        4    1    3    3  502    0 -0.29739980459E+03  0.90168632627E+03  0.17664326553E+04  0.20054353177E+04  0.12699999809E+01 0. -1.
       -4    1    3    3    0  502  0.29739980459E+03 -0.90168632627E+03 -0.20830953751E+03  0.97204904767E+03  0.12699999809E+01 0.  1.
</event>
<event>
 5   0  0.7754556E-07  0.3575962E+04  0.7818609E-02  0.8096020E-01
        1   -1    0    0  501    0  0.00000000000E+00  0.00000000000E+00  0.22936861617E+04  0.22936861617E+04  0.50400001928E-02 0.  1.
       -1   -1    0    0    0  501  0.00000000000E+00  0.00000000000E+00 -0.13937720011E+04  0.13937720012E+04  0.50400001928E-02 0. -1.
    10030    2    1    2    0    0  0.00000000000E+00  0.00000000000E+00  0.89991416059E+03  0.36874581629E+04  0.35759617177E+04 0.  0.
        4    1    3    3  502    0  0.11272682060E+04 -0.44161289125E+03 -0.90678603081E+03  0.15126196060E+04  0.12699999809E+01 0. -1.
       -4    1    3    3    0  502 -0.11272682060E+04  0.44161289125E+03  0.18067001914E+04  0.21748385569E+04  0.12699999809E+01 0.  1.
</event>
<event>
 5   0  0.1566576E-06  0.3502948E+04  0.7818609E-02  0.8113092E-01
       -2   -1    0    0    0  501  0.00000000000E+00  0.00000000000E+00  0.17316252583E+04  0.17316252583E+04  0.25500000920E-02 0.  1.
        2   -1    0    0  501    0  0.00000000000E+00  0.00000000000E+00 -0.17715502068E+04  0.17715502068E+04  0.25500000920E-02 0. -1.
    10030    2    1    2    0    0  0.00000000000E+00  0.00000000000E+00 -0.39924948449E+02  0.35031754651E+04  0.35029479497E+04 0.  0.
        4    1    3    3  502    0  0.11493675270E+03 -0.13004587429E+04 -0.11876238825E+04  0.17648953222E+04  0.12699999809E+01 0. -1.
       -4    1    3    3    0  502 -0.11493675270E+03  0.13004587429E+04  0.11476989341E+04  0.17382801429E+04  0.12699999809E+01 0.  1.
</event>
<event>
 5   0  0.2536619E-06  0.2565562E+04  0.7818609E-02  0.8379994E-01
       -2   -1    0    0    0  501  0.00000000000E+00  0.00000000000E+00  0.75028645083E+03  0.75028645084E+03  0.25500000920E-02 0. -1.
        2   -1    0    0  501    0  0.00000000000E+00  0.00000000000E+00 -0.21931983204E+04  0.21931983204E+04  0.25500000920E-02 0.  1.
    10030    2    1    2    0    0  0.00000000000E+00  0.00000000000E+00 -0.14429118696E+04  0.29434847712E+04  0.25655619141E+04 0.  0.
        1    1    3    3  502    0  0.81712560136E+03  0.64753416432E+03 -0.15788952984E+04  0.18920637161E+04  0.50400001928E-02 0.  1.
       -1    1    3    3    0  502 -0.81712560136E+03 -0.64753416432E+03  0.13598342880E+03  0.10514210552E+04  0.50400001928E-02 0. -1.
</event>
<event>
 5   0  0.1513502E-06  0.3578352E+04  0.7818609E-02  0.8095468E-01
       -2   -1    0    0    0  501  0.00000000000E+00  0.00000000000E+00  0.21400992689E+04  0.21400992689E+04  0.25500000920E-02 0.  1.
        2   -1    0    0  501    0  0.00000000000E+00  0.00000000000E+00 -0.14957958083E+04  0.14957958083E+04  0.25500000920E-02 0. -1.
    10030    2    1    2    0    0  0.00000000000E+00  0.00000000000E+00  0.64430346066E+03  0.36358950772E+04  0.35783524230E+04 0.  0.
        3    1    3    3  502    0 -0.98270126088E+03 -0.59724175274E+03  0.17148690041E+04  0.20647457933E+04  0.10100000352E+00 0.  1.
       -3    1    3    3    0  502  0.98270126088E+03  0.59724175274E+03 -0.10705655435E+04  0.15711492839E+04  0.10100000352E+00 0. -1.
</event>
<event>
 5   0  0.1513502E-06  0.2087422E+04  0.7818609E-02  0.8566805E-01
        2   -1    0    0  501    0  0.00000000000E+00  0.00000000000E+00  0.79305845187E+03  0.79305845188E+03  0.25500000920E-02 0.  1.
       -2   -1    0    0    0  501  0.00000000000E+00  0.00000000000E+00 -0.13735838438E+04  0.13735838438E+04  0.25500000920E-02 0. -1.
    10030    2    1    2    0    0  0.00000000000E+00  0.00000000000E+00 -0.58052539188E+03  0.21666422956E+04  0.20874216408E+04 0.  0.
        3    1    3    3  502    0 -0.37369832768E+03  0.93938150245E+03 -0.21106418694E+02  0.10112040043E+04  0.10100000352E+00 0.  1.
       -3    1    3    3    0  502  0.37369832768E+03 -0.93938150245E+03 -0.55941897319E+03  0.11554382913E+04  0.10100000352E+00 0. -1.
</event>
<event>
 5   0  0.1908273E-06  0.3019037E+04  0.7818609E-02  0.8238316E-01
       -1   -1    0    0    0  501  0.00000000000E+00  0.00000000000E+00  0.17617468610E+04  0.17617468610E+04  0.50400001928E-02 0.  1.
        1   -1    0    0  501    0  0.00000000000E+00  0.00000000000E+00 -0.12934015198E+04  0.12934015198E+04  0.50400001928E-02 0. -1.
    10030    2    1    2    0    0  0.00000000000E+00  0.00000000000E+00  0.46834534116E+03  0.30551483808E+04  0.30190369773E+04 0.  0.
        3    1    3    3  502    0 -0.13030630017E+04 -0.63250164963E+03  0.66424373420E+03  0.15935028308E+04  0.10100000352E+00 0. -1.
       -3    1    3    3    0  502  0.13030630017E+04  0.63250164963E+03 -0.19589839304E+03  0.14616455500E+04  0.10100000352E+00 0.  1.
</event>
<event>
 5   0  0.1513502E-06  0.3710947E+04  0.7818609E-02  0.8065540E-01
       -2   -1    0    0    0  501  0.00000000000E+00  0.00000000000E+00  0.19660710838E+04  0.19660710838E+04  0.25500000920E-02 0. -1.
        2   -1    0    0  501    0  0.00000000000E+00  0.00000000000E+00 -0.17510977674E+04  0.17510977674E+04  0.25500000920E-02 0.  1.
    10030    2    1    2    0    0  0.00000000000E+00  0.00000000000E+00  0.21497331640E+03  0.37171688513E+04  0.37109474184E+04 0.  0.
        3    1    3    3  502    0 -0.91657748535E+03 -0.13482358270E+04  0.99493391153E+03  0.19099077544E+04  0.10100000352E+00 0. -1.
       -3    1    3    3    0  502  0.91657748535E+03  0.13482358270E+04 -0.77996059513E+03  0.18072610968E+04  0.10100000352E+00 0.  1.
</event>
<event>
 5   0  0.2422436E-06  0.3594909E+04  0.7818609E-02  0.8091659E-01
       -2   -1    0    0    0  501  0.00000000000E+00  0.00000000000E+00  0.12504871159E+04  0.12504871159E+04  0.25500000920E-02 0.  1.
        2   -1    0    0  501    0  0.00000000000E+00  0.00000000000E+00 -0.25836675888E+04  0.25836675888E+04  0.25500000920E-02 0. -1.
    10030    2    1    2    0    0  0.00000000000E+00  0.00000000000E+00 -0.13331804730E+04  0.38341547047E+04  0.35949091958E+04 0.  0.
        2    1    3    3  502    0 -0.66383453193E+03  0.12525527614E+02 -0.24480851066E+04  0.25365239726E+04  0.25500000920E-02 0. -1.
       -2    1    3    3    0  502  0.66383453193E+03 -0.12525527614E+02  0.11149046336E+04  0.12976307320E+04  0.25500000920E-02 0.  1.
</event>
<event>
 5   0  0.1513502E-06  0.3081273E+04  0.7818609E-02  0.8220896E-01
        2   -1    0    0  501    0  0.00000000000E+00  0.00000000000E+00  0.30788143107E+04  0.30788143107E+04  0.25500000920E-02 0.  1.
       -2   -1    0    0    0  501  0.00000000000E+00  0.00000000000E+00 -0.77093364380E+03  0.77093364380E+03  0.25500000920E-02 0. -1.
    10030    2    1    2    0    0  0.00000000000E+00  0.00000000000E+00  0.23078806669E+04  0.38497479545E+04  0.30812734609E+04 0.  0.
        3    1    3    3  502    0 -0.48217929815E+03 -0.10887050203E+04  0.23754091732E+04  0.26571308299E+04  0.10100000352E+00 0.  1.
       -3    1    3    3    0  502  0.48217929815E+03  0.10887050203E+04 -0.67528506251E+02  0.11926171247E+04  0.10100000352E+00 0. -1.
</event>
<event>
 5   0  0.7754556E-07  0.2099595E+04  0.7818609E-02  0.8561422E-01
        1   -1    0    0  501    0  0.00000000000E+00  0.00000000000E+00  0.10630492327E+04  0.10630492327E+04  0.50400001928E-02 0. -1.
       -1   -1    0    0    0  501  0.00000000000E+00  0.00000000000E+00 -0.10367112145E+04  0.10367112145E+04  0.50400001928E-02 0.  1.
    10030    2    1    2    0    0  0.00000000000E+00  0.00000000000E+00  0.26338018233E+02  0.20997604472E+04  0.20995952573E+04 0.  0.
        4    1    3    3  502    0  0.84128315710E+03 -0.12357173427E+03 -0.60254664853E+03  0.10421570901E+04  0.12699999809E+01 0.  1.
       -4    1    3    3    0  502 -0.84128315710E+03  0.12357173427E+03  0.62888466677E+03  0.10576033571E+04  0.12699999809E+01 0. -1.
</event>
<event>
 5   0  0.2422436E-06  0.3393218E+04  0.7818609E-02  0.8139573E-01
       -2   -1    0    0    0  501  0.00000000000E+00  0.00000000000E+00  0.13556135843E+04  0.13556135843E+04  0.25500000920E-02 0. -1.
        2   -1    0    0  501    0  0.00000000000E+00  0.00000000000E+00 -0.21233790234E+04  0.21233790234E+04  0.25500000920E-02 0.  1.
    10030    2    1    2    0    0  0.00000000000E+00  0.00000000000E+00 -0.76776543912E+03  0.34789926077E+04  0.33932176168E+04 0.  0.
        2    1    3    3  502    0 -0.43259301835E+03 -0.99610467306E+03  0.95257075854E+03  0.14445595485E+04  0.25500000920E-02 0. -1.
       -2    1    3    3    0  502  0.43259301835E+03  0.99610467306E+03 -0.17203361977E+04  0.20344330592E+04  0.25500000920E-02 0.  1.
</event>
<event>
 5   0  0.1634374E-06  0.2090516E+04  0.7818609E-02  0.8565433E-01
       -1   -1    0    0    0  501  0.00000000000E+00  0.00000000000E+00  0.67659233305E+03  0.67659233307E+03  0.50400001928E-02 0.  1.
        1   -1    0    0  501    0  0.00000000000E+00  0.00000000000E+00 -0.16148044092E+04  0.16148044093E+04  0.50400001928E-02 0. -1.
    10030    2    1    2    0    0  0.00000000000E+00  0.00000000000E+00 -0.93821207619E+03  0.22913967423E+04  0.20905159963E+04 0.  0.
        5    1    3    3  502    0 -0.19703597665E+03 -0.60992644503E+03 -0.13741011425E+04  0.15162484903E+04  0.46999998093E+01 0. -1.
       -5    1    3    3    0  502  0.19703597665E+03  0.60992644503E+03  0.43588906635E+03  0.77514825201E+03  0.46999998093E+01 0.  1.
</event>
<event>
 5   0  0.8452742E-07  0.2253378E+04  0.7818609E-02  0.8496534E-01
       -1   -1    0    0    0  501  0.00000000000E+00  0.00000000000E+00  0.13091778217E+04  0.13091778217E+04  0.50400001928E-02 0.  1.
        1   -1    0    0  501    0  0.00000000000E+00  0.00000000000E+00 -0.96963805085E+03  0.96963805086E+03  0.50400001928E-02 0. -1.
    10030    2    1    2    0    0  0.00000000000E+00  0.00000000000E+00  0.33953977081E+03  0.22788158725E+04  0.22533784691E+04 0.  0.
        1    1    3    3  502    0  0.58939179759E+02  0.87978269267E+03 -0.53953007532E+03  0.10337234231E+04  0.50400001928E-02 0. -1.
       -1    1    3    3    0  502 -0.58939179759E+02 -0.87978269267E+03  0.87906984613E+03  0.12450924494E+04  0.50400001928E-02 0.  1.
</event>
<event>
 5   0  0.1566576E-06  0.3587098E+04  0.7818609E-02  0.8093453E-01
        2   -1    0    0  501    0  0.00000000000E+00  0.00000000000E+00  0.23718870581E+04  0.23718870581E+04  0.25500000920E-02 0.  1.
       -2   -1    0    0    0  501  0.00000000000E+00  0.00000000000E+00 -0.13562274835E+04  0.13562274835E+04  0.25500000920E-02 0. -1.
    10030    2    1    2    0    0  0.00000000000E+00  0.00000000000E+00  0.10156595746E+04  0.37281145416E+04  0.35870982234E+04 0.  0.
        4    1    3    3  502    0 -0.97053172241E+03  0.80412244912E+03  0.18340311332E+04  0.22253576224E+04  0.12699999809E+01 0.  1.
       -4    1    3    3    0  502  0.97053172241E+03 -0.80412244912E+03 -0.81837155860E+03  0.15027569192E+04  0.12699999809E+01 0. -1.
</event>
<event>
 5   0  0.2422788E-06  0.1860614E+04  0.7818609E-02  0.8674714E-01
       -1   -1    0    0    0  501  0.00000000000E+00  0.00000000000E+00  0.88275290340E+03  0.88275290342E+03  0.50400001928E-02 0. -1.
        1   -1    0    0  501    0  0.00000000000E+00  0.00000000000E+00 -0.98042252159E+03  0.98042252160E+03  0.50400001928E-02 0.  1.
    10030    2    1    2    0    0  0.00000000000E+00  0.00000000000E+00 -0.97669618186E+02  0.18631754250E+04  0.18606136918E+04 0.  0.
        3    1    3    3  502    0  0.74611296037E+03  0.20666380589E+03 -0.56537088987E+03  0.95866507791E+03  0.10100000352E+00 0.  1.
       -3    1    3    3    0  502 -0.74611296037E+03 -0.20666380589E+03  0.46770127168E+03  0.90451034711E+03  0.10100000352E+00 0. -1.
</event>
<event>
 5   0  0.7754556E-07  0.3646028E+04  0.7818609E-02  0.8080029E-01
        1   -1    0    0  501    0  0.00000000000E+00  0.00000000000E+00  0.13138683144E+04  0.13138683145E+04  0.50400001928E-02 0. -1.
       -1   -1    0    0    0  501  0.00000000000E+00  0.00000000000E+00 -0.25294616605E+04  0.25294616605E+04  0.50400001928E-02 0.  1.
    10030    2    1    2    0    0  0.00000000000E+00  0.00000000000E+00 -0.12155933461E+04  0.38433299750E+04  0.36460277171E+04 0.  0.
        4    1    3    3  502    0  0.72287785066E+02  0.49886303217E+03 -0.24545399757E+04  0.25057649438E+04  0.12699999809E+01 0.  1.
       -4    1    3    3    0  502 -0.72287785066E+02 -0.49886303217E+03  0.12389466296E+04  0.13375650312E+04  0.12699999809E+01 0. -1.
</event>
<event>
 5   0  0.1908273E-06  0.1937125E+04  0.7818609E-02  0.8636595E-01
       -1   -1    0    0    0  501  0.00000000000E+00  0.00000000000E+00  0.54573502401E+03  0.54573502403E+03  0.50400001928E-02 0.  1.
        1   -1    0    0  501    0  0.00000000000E+00  0.00000000000E+00 -0.17189897942E+04  0.17189897942E+04  0.50400001928E-02 0. -1.
    10030    2    1    2    0    0  0.00000000000E+00  0.00000000000E+00 -0.11732547701E+04  0.22647248182E+04  0.19371246079E+04 0.  0.
        3    1    3    3  502    0 -0.52141563942E+03  0.79088403516E+03 -0.82260687510E+03  0.12546130508E+04  0.10100000352E+00 0. -1.
       -3    1    3    3    0  502  0.52141563942E+03 -0.79088403516E+03 -0.35064789505E+03  0.10101117674E+04  0.10100000352E+00 0.  1.
</event>
<event>
 5   0  0.1513502E-06  0.3538266E+04  0.7818609E-02  0.8104781E-01
       -2   -1    0    0    0  501  0.00000000000E+00  0.00000000000E+00  0.13783864280E+04  0.13783864280E+04  0.25500000920E-02 0.  1.
        2   -1    0    0  501    0  0.00000000000E+00  0.00000000000E+00 -0.22706490698E+04  0.22706490698E+04  0.25500000920E-02 0. -1.
    10030    2    1    2    0    0  0.00000000000E+00  0.00000000000E+00 -0.89226264185E+03  0.36490354978E+04  0.35382661633E+04 0.  0.
        3    1    3    3  502    0  0.62340221747E+03  0.35878137014E+03  0.12207852521E+04  0.14169230883E+04  0.10100000352E+00 0.  1.
       -3    1    3    3    0  502 -0.62340221747E+03 -0.35878137014E+03 -0.21130478940E+04  0.22321124095E+04  0.10100000352E+00 0. -1.
</event>
<event>
 5   0  0.7754556E-07  0.1969078E+04  0.7818609E-02  0.8621215E-01
       -1   -1    0    0    0  501  0.00000000000E+00  0.00000000000E+00  0.17587587165E+04  0.17587587165E+04  0.50400001928E-02 0.  1.
        1   -1    0    0  501    0  0.00000000000E+00  0.00000000000E+00 -0.55113728540E+03  0.55113728542E+03  0.50400001928E-02 0. -1.
    10030    2    1    2    0    0  0.00000000000E+00  0.00000000000E+00  0.12076214311E+04  0.23098960020E+04  0.19690784695E+04 0.  0.
        4    1    3    3  502    0  0.35970601309E+03  0.91272579823E+03  0.70096517875E+03  0.12057406825E+04  0.12699999809E+01 0.  1.
       -4    1    3    3    0  502 -0.35970601309E+03 -0.91272579823E+03  0.50665625239E+03  0.11041553195E+04  0.12699999809E+01 0. -1.
</event>
<event>
 5   0  0.7707500E-07  0.3146509E+04  0.7818609E-02  0.8203089E-01
        3   -1    0    0  501    0  0.00000000000E+00  0.00000000000E+00  0.10044043192E+04  0.10044043243E+04  0.10100000352E+00 0.  1.
       -3   -1    0    0    0  501  0.00000000000E+00  0.00000000000E+00 -0.24642760730E+04  0.24642760751E+04  0.10100000352E+00 0. -1.
    10030    2    1    2    0    0  0.00000000000E+00  0.00000000000E+00 -0.14598717537E+04  0.34686803994E+04  0.31465088869E+04 0.  0.
        1    1    3    3  502    0 -0.12676475362E+04  0.90926020049E+03 -0.50551037171E+03  0.16398857046E+04  0.50400001928E-02 0.  1.
       -1    1    3    3    0  502  0.12676475362E+04 -0.90926020049E+03 -0.95436138204E+03  0.18287946948E+04  0.50400001928E-02 0. -1.
</event>
<event>
 5   0  0.1513502E-06  0.3549358E+04  0.7818609E-02  0.8102191E-01
        2   -1    0    0  501    0  0.00000000000E+00  0.00000000000E+00  0.29381427734E+04  0.29381427734E+04  0.25500000920E-02 0. -1.
       -2   -1    0    0    0  501  0.00000000000E+00  0.00000000000E+00 -0.10719306930E+04  0.10719306930E+04  0.25500000920E-02 0.  1.
    10030    2    1    2    0    0  0.00000000000E+00  0.00000000000E+00  0.18662120804E+04  0.40100734664E+04  0.35493579246E+04 0.  0.
        3    1    3    3  502    0 -0.13366336351E+04 -0.98594548443E+03  0.16393974788E+04  0.23337313634E+04  0.10100000352E+00 0.  1.
       -3    1    3    3    0  502  0.13366336351E+04  0.98594548443E+03  0.22681460164E+03  0.16763421031E+04  0.10100000352E+00 0. -1.
</event>
<event>
 5   0  0.1634374E-06  0.3588087E+04  0.7818609E-02  0.8093226E-01
        1   -1    0    0  501    0  0.00000000000E+00  0.00000000000E+00  0.19049190755E+04  0.19049190755E+04  0.50400001928E-02 0. -1.
       -1   -1    0    0    0  501  0.00000000000E+00  0.00000000000E+00 -0.16896210031E+04  0.16896210031E+04  0.50400001928E-02 0.  1.
    10030    2    1    2    0    0  0.00000000000E+00  0.00000000000E+00  0.21529807239E+03  0.35945400786E+04  0.35880865537E+04 0.  0.
        5    1    3    3  502    0 -0.17453914143E+04  0.10038664461E+03  0.51099027286E+03  0.18214285099E+04  0.46999998093E+01 0. -1.
       -5    1    3    3    0  502  0.17453914143E+04 -0.10038664461E+03 -0.29569220047E+03  0.17731115687E+04  0.46999998093E+01 0.  1.
</event>
<event>
 5   0  0.1566576E-06  0.3605094E+04  0.7818609E-02  0.8089326E-01
        2   -1    0    0  501    0  0.00000000000E+00  0.00000000000E+00  0.20905556187E+04  0.20905556187E+04  0.25500000920E-02 0.  1.
       -2   -1    0    0    0  501  0.00000000000E+00  0.00000000000E+00 -0.15542166938E+04  0.15542166938E+04  0.25500000920E-02 0. -1.
    10030    2    1    2    0    0  0.00000000000E+00  0.00000000000E+00  0.53633892489E+03  0.36447723126E+04  0.36050944188E+04 0.  0.
        4    1    3    3  502    0  0.16632298596E+04  0.23438992944E+03 -0.39317273611E+03  0.17250677141E+04  0.12699999809E+01 0. -1.
       -4    1    3    3    0  502 -0.16632298596E+04 -0.23438992944E+03  0.92951166100E+03  0.19197045985E+04  0.12699999809E+01 0.  1.
</event>
<event>
 5   0  0.8423692E-07  0.3083444E+04  0.7818609E-02  0.8220296E-01
       -1   -1    0    0    0  501  0.00000000000E+00  0.00000000000E+00  0.13503832541E+04  0.13503832541E+04  0.50400001928E-02 0. -1.
        1   -1    0    0  501    0  0.00000000000E+00  0.00000000000E+00 -0.17601723593E+04  0.17601723593E+04  0.50400001928E-02 0.  1.
    10030    2    1    2    0    0  0.00000000000E+00  0.00000000000E+00 -0.40978910520E+03  0.31105556134E+04  0.30834443587E+04 0.  0.
        2    1    3    3  502    0  0.10213671404E+04  0.11165080735E+04  0.92872164604E+02  0.15160495878E+04  0.25500000920E-02 0. -1.
       -2    1    3    3    0  502 -0.10213671404E+04 -0.11165080735E+04 -0.50266126980E+03  0.15945060256E+04  0.25500000920E-02 0.  1.
</event>
<event>
 5   0  0.2382711E-06  0.2074269E+04  0.7818609E-02  0.8572663E-01
        2   -1    0    0  501    0  0.00000000000E+00  0.00000000000E+00  0.24934442291E+04  0.24934442291E+04  0.25500000920E-02 0. -1.
       -2   -1    0    0    0  501  0.00000000000E+00  0.00000000000E+00 -0.43139059435E+03  0.43139059436E+03  0.25500000920E-02 0.  1.
    10030    2    1    2    0    0  0.00000000000E+00  0.00000000000E+00  0.20620536347E+04  0.29248348234E+04  0.20742694020E+04 0.  0.
        5    1    3    3  502    0  0.40003290420E+03  0.42399511798E+03 -0.17852470438E+03  0.60966494453E+03  0.46999998093E+01 0.  1.
       -5    1    3    3    0  502 -0.40003290420E+03 -0.42399511798E+03  0.22405783391E+04  0.23151698789E+04  0.46999998093E+01 0. -1.
</event>
<event>
 5   0  0.8452742E-07  0.3617030E+04  0.7818609E-02  0.8086602E-01
       -1   -1    0    0    0  501  0.00000000000E+00  0.00000000000E+00  0.16646308653E+04  0.16646308653E+04  0.50400001928E-02 0.  1.
        1   -1    0    0  501    0  0.00000000000E+00  0.00000000000E+00 -0.19648355103E+04  0.19648355103E+04  0.50400001928E-02 0. -1.
    10030    2    1    2    0    0  0.00000000000E+00  0.00000000000E+00 -0.30020464497E+03  0.36294663756E+04  0.36170296298E+04 0.  0.
        1    1    3    3  502    0 -0.95956355317E+03 -0.10595639844E+04  0.96153704131E+03  0.17227859796E+04  0.50400001928E-02 0.  1.
       -1    1    3    3    0  502  0.95956355317E+03  0.10595639844E+04 -0.12617416863E+04  0.19066803960E+04  0.50400001928E-02 0. -1.
</event>
<event>
 5   0  0.2536619E-06  0.3540992E+04  0.7818609E-02  0.8104144E-01
       -2   -1    0    0    0  501  0.00000000000E+00  0.00000000000E+00  0.16405978719E+04  0.16405978719E+04  0.25500000920E-02 0. -1.
        2   -1    0    0  501    0  0.00000000000E+00  0.00000000000E+00 -0.19106786382E+04  0.19106786382E+04  0.25500000920E-02 0.  1.
    10030    2    1    2    0    0  0.00000000000E+00  0.00000000000E+00 -0.27008076632E+03  0.35512765101E+04  0.35409915604E+04 0.  0.
        1    1    3    3  502    0  0.84822652794E+03 -0.15540803891E+04 -0.13614325021E+03  0.17757221300E+04  0.50400001928E-02 0. -1.
       -1    1    3    3    0  502 -0.84822652794E+03  0.15540803891E+04 -0.13393751611E+03  0.17755543801E+04  0.50400001928E-02 0.  1.
</event>
<event>
 5   0  0.2382711E-06  0.3611266E+04  0.7818609E-02  0.8087916E-01
       -2   -1    0    0    0  501  0.00000000000E+00  0.00000000000E+00  0.12498989335E+04  0.12498989335E+04  0.25500000920E-02 0.  1.
        2   -1    0    0  501    0  0.00000000000E+00  0.00000000000E+00 -0.26084600369E+04  0.26084600369E+04  0.25500000920E-02 0. -1.
    10030    2    1    2    0    0  0.00000000000E+00  0.00000000000E+00 -0.13585611033E+04  0.38583589704E+04  0.36112664915E+04 0.  0.
        5    1    3    3  502    0  0.33914395560E+03 -0.10398812866E+04  0.85565191173E+03  0.13887166726E+04  0.46999998093E+01 0.  1.
       -5    1    3    3    0  502 -0.33914395560E+03  0.10398812866E+04 -0.22142130151E+04  0.24696422978E+04  0.46999998093E+01 0. -1.
</event>
<event>
 5   0  0.7707500E-07  0.2179259E+04  0.7818609E-02  0.8527111E-01
       -4   -1    0    0    0  501  0.00000000000E+00  0.00000000000E+00  0.48367813852E+03  0.48367980585E+03  0.12699999809E+01 0. -1.
        4   -1    0    0  501    0  0.00000000000E+00  0.00000000000E+00 -0.24547101926E+04  0.24547105212E+04  0.12699999809E+01 0.  1.
    10030    2    1    2    0    0  0.00000000000E+00  0.00000000000E+00 -0.19710320541E+04  0.29383903270E+04  0.21792591300E+04 0.  0.
        5    1    3    3  502    0  0.18802300444E+03 -0.68075554646E+03  0.13327595735E+03  0.71872479785E+03  0.46999998093E+01 0. -1.
       -5    1    3    3    0  502 -0.18802300444E+03  0.68075554646E+03 -0.21043080115E+04  0.22196655292E+04  0.46999998093E+01 0.  1.
</event>
<event>
 5   0  0.1513502E-06  0.3611140E+04  0.7818609E-02  0.8087945E-01
        2   -1    0    0  501    0  0.00000000000E+00  0.00000000000E+00  0.22178778665E+04  0.22178778665E+04  0.25500000920E-02 0.  1.
       -2   -1    0    0    0  501  0.00000000000E+00  0.00000000000E+00 -0.14699109801E+04  0.14699109801E+04  0.25500000920E-02 0. -1.
    10030    2    1    2    0    0  0.00000000000E+00  0.00000000000E+00  0.74796688639E+03  0.36877888467E+04  0.36111400021E+04 0.  0.
        3    1    3    3  502    0  0.30258967276E+03 -0.93075641213E+03  0.19234944334E+04  0.21581702561E+04  0.10100000352E+00 0.  1.
       -3    1    3    3    0  502 -0.30258967276E+03  0.93075641213E+03 -0.11755275470E+04  0.15296185906E+04  0.10100000352E+00 0. -1.
</event>
<event>
 5   0  0.1566576E-06  0.2673156E+04  0.7818609E-02  0.8343768E-01
        2   -1    0    0  501    0  0.00000000000E+00  0.00000000000E+00  0.12696687700E+04  0.12696687700E+04  0.25500000920E-02 0. -1.
       -2   -1    0    0    0  501  0.00000000000E+00  0.00000000000E+00 -0.14070127286E+04  0.14070127286E+04  0.25500000920E-02 0.  1.
    10030    2    1    2    0    0  0.00000000000E+00  0.00000000000E+00 -0.13734395853E+03  0.26766814986E+04  0.26731555290E+04 0.  0.
        4    1    3    3  502    0 -0.22094566882E+03 -0.13072738199E+04 -0.23817810512E+03  0.13470383259E+04  0.12699999809E+01 0.  1.
       -4    1    3    3    0  502  0.22094566882E+03  0.13072738199E+04  0.10083414659E+03  0.13296431727E+04  0.12699999809E+01 0. -1.
</event>
<event>
 5   0  0.2382711E-06  0.3605901E+04  0.7818609E-02  0.8089141E-01
        2   -1    0    0  501    0  0.00000000000E+00  0.00000000000E+00  0.23413365907E+04  0.23413365907E+04  0.25500000920E-02 0.  1.
       -2   -1    0    0    0  501  0.00000000000E+00  0.00000000000E+00 -0.13883650666E+04  0.13883650666E+04  0.25500000920E-02 0. -1.
    10030    2    1    2    0    0  0.00000000000E+00  0.00000000000E+00  0.95297152409E+03  0.37297016574E+04  0.36059006818E+04 0.  0.
        5    1    3    3  502    0  0.15532182937E+04  0.81578678166E+03  0.90621678469E+03  0.19746508784E+04  0.46999998093E+01 0.  1.
       -5    1    3    3    0  502 -0.15532182937E+04 -0.81578678166E+03  0.46754739401E+02  0.17550507789E+04  0.46999998093E+01 0. -1.
</event>
<event>
 5   0  0.8452742E-07  0.3677753E+04  0.7818609E-02  0.8072910E-01
        1   -1    0    0  501    0  0.00000000000E+00  0.00000000000E+00  0.13116961633E+04  0.13116961633E+04  0.50400001928E-02 0.  1.
       -1   -1    0    0    0  501  0.00000000000E+00  0.00000000000E+00 -0.25779347398E+04  0.25779347398E+04  0.50400001928E-02 0. -1.
    10030    2    1    2    0    0  0.00000000000E+00  0.00000000000E+00 -0.12662385765E+04  0.38896309031E+04  0.36777531768E+04 0.  0.
        1    1    3    3  502    0 -0.15326017172E+03  0.37342950649E+03 -0.25305001452E+04  0.25624927827E+04  0.50400001928E-02 0. -1.
       -1    1    3    3    0  502  0.15326017172E+03 -0.37342950649E+03  0.12642615687E+04  0.13271381204E+04  0.50400001928E-02 0.  1.
</event>
<event>
 5   0  0.8452742E-07  0.3224676E+04  0.7818609E-02  0.8182331E-01
       -1   -1    0    0    0  501  0.00000000000E+00  0.00000000000E+00  0.14312588307E+04  0.14312588307E+04  0.50400001928E-02 0. -1.
        1   -1    0    0  501    0  0.00000000000E+00  0.00000000000E+00 -0.18163264366E+04  0.18163264366E+04  0.50400001928E-02 0.  1.
    10030    2    1    2    0    0  0.00000000000E+00  0.00000000000E+00 -0.38506760592E+03  0.32475852673E+04  0.32246756437E+04 0.  0.
        1    1    3    3  502    0 -0.65071718721E+03 -0.43251914264E+03 -0.16129180443E+04  0.17922082145E+04  0.50400001928E-02 0.  1.
       -1    1    3    3    0  502  0.65071718721E+03  0.43251914264E+03  0.12278504384E+04  0.14553770527E+04  0.50400001928E-02 0. -1.
</event>
<event>
 5   0  0.2422436E-06  0.1809882E+04  0.7818609E-02  0.8701062E-01
        2   -1    0    0  501    0  0.00000000000E+00  0.00000000000E+00  0.19746871565E+04  0.19746871565E+04  0.25500000920E-02 0.  1.
       -2   -1    0    0    0  501  0.00000000000E+00  0.00000000000E+00 -0.41470777818E+03  0.41470777819E+03  0.25500000920E-02 0. -1.
    10030    2    1    2    0    0  0.00000000000E+00  0.00000000000E+00  0.15599793783E+04  0.23893949347E+04  0.18098819003E+04 0.  0.
        2    1    3    3  502    0  0.17389773991E+03 -0.70625928074E+03  0.69196139649E+02  0.73063718857E+03  0.25500000920E-02 0. -1.
       -2    1    3    3    0  502 -0.17389773991E+03  0.70625928074E+03  0.14907832386E+04  0.16587577461E+04  0.25500000920E-02 0.  1.
</event>
<event>
 5   0  0.7754556E-07  0.3367965E+04  0.7818609E-02  0.8145814E-01
       -1   -1    0    0    0  501  0.00000000000E+00  0.00000000000E+00  0.11575506491E+04  0.11575506491E+04  0.50400001928E-02 0. -1.
        1   -1    0    0  501    0  0.00000000000E+00  0.00000000000E+00 -0.24498257165E+04  0.24498257165E+04  0.50400001928E-02 0.  1.
    10030    2    1    2    0    0  0.00000000000E+00  0.00000000000E+00 -0.12922750674E+04  0.36073763656E+04  0.33679651710E+04 0.  0.
        4    1    3    3  502    0 -0.12694503164E+04  0.65834417116E+02  0.53689369045E+03  0.13798893883E+04  0.12699999809E+01 0. -1.
       -4    1    3    3    0  502  0.12694503164E+04 -0.65834417116E+02 -0.18291687578E+04  0.22274869773E+04  0.12699999809E+01 0.  1.
</event>
<event>
 5   0  0.1513502E-06  0.3683022E+04  0.7818609E-02  0.8071735E-01
       -2   -1    0    0    0  501  0.00000000000E+00  0.00000000000E+00  0.13148686823E+04  0.13148686823E+04  0.25500000920E-02 0. -1.
        2   -1    0    0  501    0  0.00000000000E+00  0.00000000000E+00 -0.25790882819E+04  0.25790882819E+04  0.25500000920E-02 0.  1.
    10030    2    1    2    0    0  0.00000000000E+00  0.00000000000E+00 -0.12642195996E+04  0.38939569643E+04  0.36830218087E+04 0.  0.
        3    1    3    3  502    0 -0.16450663963E+04  0.13214732178E+03 -0.14958799462E+04  0.22274117685E+04  0.10100000352E+00 0.  1.
       -3    1    3    3    0  502  0.16450663963E+04 -0.13214732178E+03  0.23166034659E+03  0.16665451957E+04  0.10100000352E+00 0. -1.
</event>
<event>
 5   0  0.8452742E-07  0.2182626E+04  0.7818609E-02  0.8525694E-01
       -1   -1    0    0    0  501  0.00000000000E+00  0.00000000000E+00  0.14613019013E+04  0.14613019013E+04  0.50400001928E-02 0. -1.
        1   -1    0    0  501    0  0.00000000000E+00  0.00000000000E+00 -0.81500243129E+03  0.81500243131E+03  0.50400001928E-02 0.  1.
    10030    2    1    2    0    0  0.00000000000E+00  0.00000000000E+00  0.64629947001E+03  0.22763043326E+04  0.21826264934E+04 0.  0.
        1    1    3    3  502    0 -0.93097262462E+03 -0.34951218109E+01 -0.27071259451E+03  0.96953986639E+03  0.50400001928E-02 0.  1.
       -1    1    3    3    0  502  0.93097262462E+03  0.34951218109E+01  0.91701206453E+03  0.13067644662E+04  0.50400001928E-02 0. -1.
</event>
<event>
 5   0  0.2422436E-06  0.1982155E+04  0.7818609E-02  0.8615009E-01
        2   -1    0    0  501    0  0.00000000000E+00  0.00000000000E+00  0.65792613627E+03  0.65792613628E+03  0.25500000920E-02 0.  1.
       -2   -1    0    0    0  501  0.00000000000E+00  0.00000000000E+00 -0.14929258724E+04  0.14929258724E+04  0.25500000920E-02 0. -1.
    10030    2    1    2    0    0  0.00000000000E+00  0.00000000000E+00 -0.83499973612E+03  0.21508520087E+04  0.19821553430E+04 0.  0.
        2    1    3    3  502    0  0.52594881738E+03 -0.75344508615E+03 -0.14497686805E+02  0.91897325275E+03  0.25500000920E-02 0.  1.
       -2    1    3    3    0  502 -0.52594881738E+03  0.75344508615E+03 -0.82050204932E+03  0.12318787559E+04  0.25500000920E-02 0. -1.
</event>
<event>
 5   0  0.1513502E-06  0.3502967E+04  0.7818609E-02  0.8113087E-01
        2   -1    0    0  501    0  0.00000000000E+00  0.00000000000E+00  0.26948219850E+04  0.26948219850E+04  0.25500000920E-02 0.  1.
       -2   -1    0    0    0  501  0.00000000000E+00  0.00000000000E+00 -0.11383665350E+04  0.11383665350E+04  0.25500000920E-02 0. -1.
    10030    2    1    2    0    0  0.00000000000E+00  0.00000000000E+00  0.15564554501E+04  0.38331885200E+04  0.35029674080E+04 0.  0.
        3    1    3    3  502    0  0.61775784527E+02  0.15941702640E+04  0.15692109289E+04  0.22377707719E+04  0.10100000352E+00 0.  1.
       -3    1    3    3    0  502 -0.61775784527E+02 -0.15941702640E+04 -0.12755478817E+02  0.15954177480E+04  0.10100000352E+00 0. -1.
</event>
<event>
 5   0  0.7754556E-07  0.3592102E+04  0.7818609E-02  0.8092303E-01
        1   -1    0    0  501    0  0.00000000000E+00  0.00000000000E+00  0.14312641656E+04  0.14312641656E+04  0.50400001928E-02 0. -1.
       -1   -1    0    0    0  501  0.00000000000E+00  0.00000000000E+00 -0.22538106864E+04  0.22538106864E+04  0.50400001928E-02 0.  1.
    10030    2    1    2    0    0  0.00000000000E+00  0.00000000000E+00 -0.82254652085E+03  0.36850748520E+04  0.35921015974E+04 0.  0.
        4    1    3    3  502    0 -0.25041552697E+03  0.89901603329E+03 -0.19855466884E+04  0.21939314093E+04  0.12699999809E+01 0.  1.
       -4    1    3    3    0  502  0.25041552697E+03 -0.89901603329E+03  0.11630001675E+04  0.14911434427E+04  0.12699999809E+01 0. -1.
</event>
<event>
 5   0  0.8423692E-07  0.3679036E+04  0.7818609E-02  0.8072624E-01
        1   -1    0    0  501    0  0.00000000000E+00  0.00000000000E+00  0.17922202212E+04  0.17922202213E+04  0.50400001928E-02 0. -1.
       -1   -1    0    0    0  501  0.00000000000E+00  0.00000000000E+00 -0.18880638449E+04  0.18880638449E+04  0.50400001928E-02 0.  1.
    10030    2    1    2    0    0  0.00000000000E+00  0.00000000000E+00 -0.95843623608E+02  0.36802840661E+04  0.36790358529E+04 0.  0.
        2    1    3    3  502    0 -0.10689447246E+04 -0.29376776911E+03 -0.15163721275E+04  0.18783840809E+04  0.25500000920E-02 0.  1.
       -2    1    3    3    0  502  0.10689447246E+04  0.29376776911E+03  0.14205285038E+04  0.18018999852E+04  0.25500000920E-02 0. -1.
</event>
<event>
 5   0  0.1513502E-06  0.3604198E+04  0.7818609E-02  0.8089531E-01
       -2   -1    0    0    0  501  0.00000000000E+00  0.00000000000E+00  0.23837990689E+04  0.23837990689E+04  0.25500000920E-02 0.  1.
        2   -1    0    0  501    0  0.00000000000E+00  0.00000000000E+00 -0.13623468370E+04  0.13623468370E+04  0.25500000920E-02 0. -1.
    10030    2    1    2    0    0  0.00000000000E+00  0.00000000000E+00  0.10214522319E+04  0.37461459059E+04  0.36041981752E+04 0.  0.
        3    1    3    3  502    0  0.82935830816E+03  0.36621673725E+03 -0.11080493790E+04  0.14316854887E+04  0.10100000352E+00 0. -1.
       -3    1    3    3    0  502 -0.82935830816E+03 -0.36621673725E+03  0.21295016109E+04  0.23144604173E+04  0.10100000352E+00 0.  1.
</event>
<event>
 5   0  0.1908273E-06  0.2015060E+04  0.7818609E-02  0.8599612E-01
        1   -1    0    0  501    0  0.00000000000E+00  0.00000000000E+00  0.19907340496E+04  0.19907340496E+04  0.50400001928E-02 0.  1.
       -1   -1    0    0    0  501  0.00000000000E+00  0.00000000000E+00 -0.50992075371E+03  0.50992075373E+03  0.50400001928E-02 0. -1.
    10030    2    1    2    0    0  0.00000000000E+00  0.00000000000E+00  0.14808132959E+04  0.25006548034E+04  0.20150599069E+04 0.  0.
        3    1    3    3  502    0  0.28703433930E+03 -0.71347335911E+02 -0.45483279837E+03  0.54254220016E+03  0.10100000352E+00 0. -1.
       -3    1    3    3    0  502 -0.28703433930E+03  0.71347335911E+02  0.19356460943E+04  0.19581126032E+04  0.10100000352E+00 0.  1.
</event>
<event>
 5   0  0.1566576E-06  0.3568100E+04  0.7818609E-02  0.8097838E-01
       -2   -1    0    0    0  501  0.00000000000E+00  0.00000000000E+00  0.23187430064E+04  0.23187430064E+04  0.25500000920E-02 0.  1.
        2   -1    0    0  501    0  0.00000000000E+00  0.00000000000E+00 -0.13726549345E+04  0.13726549345E+04  0.25500000920E-02 0. -1.
    10030    2    1    2    0    0  0.00000000000E+00  0.00000000000E+00  0.94608807184E+03  0.36913979409E+04  0.35680997909E+04 0.  0.
        4    1    3    3  502    0  0.92577404340E+03 -0.69414800311E+03 -0.93179474506E+03  0.14856453445E+04  0.12699999809E+01 0. -1.
       -4    1    3    3    0  502 -0.92577404340E+03  0.69414800311E+03  0.18778828169E+04  0.22057525964E+04  0.12699999809E+01 0.  1.
</event>
<event>
 5   0  0.7754556E-07  0.2957799E+04  0.7818609E-02  0.8255885E-01
        1   -1    0    0  501    0  0.00000000000E+00  0.00000000000E+00  0.11314003779E+04  0.11314003779E+04  0.50400001928E-02 0. -1.
       -1   -1    0    0    0  501  0.00000000000E+00  0.00000000000E+00 -0.19331296700E+04  0.19331296700E+04  0.50400001928E-02 0.  1.
    10030    2    1    2    0    0  0.00000000000E+00  0.00000000000E+00 -0.80172929215E+03  0.30645300479E+04  0.29577989378E+04 0.  0.
        4    1    3    3  502    0  0.62722202374E+03 -0.42280617340E+03  0.91580673998E+03  0.11878030667E+04  0.12699999809E+01 0. -1.
       -4    1    3    3    0  502 -0.62722202374E+03  0.42280617340E+03 -0.17175360321E+04  0.18767269812E+04  0.12699999809E+01 0.  1.
</event>
<event>
 5   0  0.2422436E-06  0.3650610E+04  0.7818609E-02  0.8078996E-01
        2   -1    0    0  501    0  0.00000000000E+00  0.00000000000E+00  0.26150407463E+04  0.26150407463E+04  0.25500000920E-02 0. -1.
       -2   -1    0    0    0  501  0.00000000000E+00  0.00000000000E+00 -0.12740675300E+04  0.12740675300E+04  0.25500000920E-02 0.  1.
    10030    2    1    2    0    0  0.00000000000E+00  0.00000000000E+00  0.13409732163E+04  0.38891082763E+04  0.36506100884E+04 0.  0.
        2    1    3    3  502    0  0.16014755277E+04 -0.46629876553E+03 -0.11928239421E+03  0.16722400229E+04  0.25500000920E-02 0.  1.
       -2    1    3    3    0  502 -0.16014755277E+04  0.46629876553E+03  0.14602556105E+04  0.22168682533E+04  0.25500000920E-02 0. -1.
</event>
<event>
 5   0  0.8452742E-07  0.3547044E+04  0.7818609E-02  0.8102731E-01
       -1   -1    0    0    0  501  0.00000000000E+00  0.00000000000E+00  0.19254310358E+04  0.19254310358E+04  0.50400001928E-02 0.  1.
        1   -1    0    0  501    0  0.00000000000E+00  0.00000000000E+00 -0.16335982891E+04  0.16335982891E+04  0.50400001928E-02 0. -1.
    10030    2    1    2    0    0  0.00000000000E+00  0.00000000000E+00  0.29183274670E+03  0.35590293249E+04  0.35470443165E+04 0.  0.
        1    1    3    3  502    0  0.12415951093E+04  0.73987060186E+03 -0.88537648430E+03  0.16949508671E+04  0.50400001928E-02 0. -1.
       -1    1    3    3    0  502 -0.12415951093E+04 -0.73987060186E+03  0.11772092310E+04  0.18640784577E+04  0.50400001928E-02 0.  1.
</event>
<event>
 5   0  0.1566576E-06  0.3527151E+04  0.7818609E-02  0.8107385E-01
       -2   -1    0    0    0  501  0.00000000000E+00  0.00000000000E+00  0.20068705517E+04  0.20068705517E+04  0.25500000920E-02 0.  1.
        2   -1    0    0  501    0  0.00000000000E+00  0.00000000000E+00 -0.15497755308E+04  0.15497755309E+04  0.25500000920E-02 0. -1.
    10030    2    1    2    0    0  0.00000000000E+00  0.00000000000E+00  0.45709502085E+03  0.35566460826E+04  0.35271511874E+04 0.  0.
        4    1    3    3  502    0  0.10345099192E+04  0.81511483071E+03 -0.95410893359E+03  0.16263297421E+04  0.12699999809E+01 0. -1.
       -4    1    3    3    0  502 -0.10345099192E+04 -0.81511483071E+03  0.14112039544E+04  0.19303163404E+04  0.12699999809E+01 0.  1.
</event>
<event>
 5   0  0.2536619E-06  0.3483966E+04  0.7818609E-02  0.8117600E-01
       -2   -1    0    0    0  501  0.00000000000E+00  0.00000000000E+00  0.12994425796E+04  0.12994425797E+04  0.25500000920E-02 0.  1.
        2   -1    0    0  501    0  0.00000000000E+00  0.00000000000E+00 -0.23352363094E+04  0.23352363094E+04  0.25500000920E-02 0. -1.
    10030    2    1    2    0    0  0.00000000000E+00  0.00000000000E+00 -0.10357937297E+04  0.36346788890E+04  0.34839664143E+04 0.  0.
        1    1    3    3  502    0 -0.14196527996E+04  0.43407950225E+03 -0.14687324193E+04  0.20883040979E+04  0.50400001928E-02 0.  1.
       -1    1    3    3    0  502  0.14196527996E+04 -0.43407950225E+03  0.43293868959E+03  0.15463747911E+04  0.50400001928E-02 0. -1.
</event>
<event>
 5   0  0.8452742E-07  0.3594315E+04  0.7818609E-02  0.8091795E-01
       -1   -1    0    0    0  501  0.00000000000E+00  0.00000000000E+00  0.15433564709E+04  0.15433564709E+04  0.50400001928E-02 0.  1.
        1   -1    0    0  501    0  0.00000000000E+00  0.00000000000E+00 -0.20926949936E+04  0.20926949936E+04  0.50400001928E-02 0. -1.
    10030    2    1    2    0    0  0.00000000000E+00  0.00000000000E+00 -0.54933852273E+03  0.36360514645E+04  0.35943145995E+04 0.  0.
        1    1    3    3  502    0 -0.17881540935E+04 -0.30109354521E+02 -0.45384947622E+03  0.18450964697E+04  0.50400001928E-02 0.  1.
       -1    1    3    3    0  502  0.17881540935E+04  0.30109354521E+02 -0.95489046507E+02  0.17909549948E+04  0.50400001928E-02 0. -1.
</event>
<event>
 5   0  0.1634374E-06  0.3648662E+04  0.7818609E-02  0.8079435E-01
       -1   -1    0    0    0  501  0.00000000000E+00  0.00000000000E+00  0.18386488391E+04  0.18386488391E+04  0.50400001928E-02 0.  1.
        1   -1    0    0  501    0  0.00000000000E+00  0.00000000000E+00 -0.18101248859E+04  0.18101248859E+04  0.50400001928E-02 0. -1.
    10030    2    1    2    0    0  0.00000000000E+00  0.00000000000E+00  0.28523953148E+02  0.36487737250E+04  0.36486622316E+04 0.  0.
        5    1    3    3  502    0 -0.15812284138E+04 -0.86951882081E+03  0.28225459355E+03  0.18264818702E+04  0.46999998093E+01 0. -1.
       -5    1    3    3    0  502  0.15812284138E+04  0.86951882081E+03 -0.25373064040E+03  0.18222918549E+04  0.46999998093E+01 0.  1.
</event>
<event>
 5   0  0.8452742E-07  0.3540604E+04  0.7818609E-02  0.8104234E-01
       -1   -1    0    0    0  501  0.00000000000E+00  0.00000000000E+00  0.29784469004E+04  0.29784469004E+04  0.50400001928E-02 0. -1.
        1   -1    0    0  501    0  0.00000000000E+00  0.00000000000E+00 -0.10522156333E+04  0.10522156333E+04  0.50400001928E-02 0.  1.
    10030    2    1    2    0    0  0.00000000000E+00  0.00000000000E+00  0.19262312671E+04  0.40306625337E+04  0.35406035595E+04 0.  0.
        1    1    3    3  502    0  0.29539674940E+03  0.12302706851E+04 -0.44646685699E+03  0.13416996134E+04  0.50400001928E-02 0.  1.
       -1    1    3    3    0  502 -0.29539674940E+03 -0.12302706851E+04  0.23726981241E+04  0.26889629202E+04  0.50400001928E-02 0. -1.
</event>
<event>
 5   0  0.7707500E-07  0.3307507E+04  0.7818609E-02  0.8160988E-01
        3   -1    0    0  501    0  0.00000000000E+00  0.00000000000E+00  0.13654686507E+04  0.13654686545E+04  0.10100000352E+00 0.  1.
       -3   -1    0    0    0  501  0.00000000000E+00  0.00000000000E+00 -0.20029031388E+04  0.20029031414E+04  0.10100000352E+00 0. -1.
    10030    2    1    2    0    0  0.00000000000E+00  0.00000000000E+00 -0.63743448808E+03  0.33683717959E+04  0.33075074949E+04 0.  0.
        4    1    3    3  502    0  0.67229747454E+03  0.14464952106E+04 -0.76329084156E+03  0.17683175083E+04  0.12699999809E+01 0. -1.
       -4    1    3    3    0  502 -0.67229747454E+03 -0.14464952106E+04  0.12585635348E+03  0.16000542875E+04  0.12699999809E+01 0.  1.
</event>
<event>
 5   0  0.2422436E-06  0.2415977E+04  0.7818609E-02  0.8433546E-01
        2   -1    0    0  501    0  0.00000000000E+00  0.00000000000E+00  0.76531886206E+03  0.76531886206E+03  0.25500000920E-02 0. -1.
       -2   -1    0    0    0  501  0.00000000000E+00  0.00000000000E+00 -0.19067028753E+04  0.19067028753E+04  0.25500000920E-02 0.  1.
    10030    2    1    2    0    0  0.00000000000E+00  0.00000000000E+00 -0.11413840133E+04  0.26720217374E+04  0.24159765519E+04 0.  0.
        2    1    3    3  502    0 -0.62565304327E+03 -0.99955261636E+03 -0.28083131494E+03  0.12121936276E+04  0.25500000920E-02 0.  1.
       -2    1    3    3    0  502  0.62565304327E+03  0.99955261636E+03 -0.86055269833E+03  0.14598281098E+04  0.25500000920E-02 0. -1.
</event>
<event>
 5   0  0.8452742E-07  0.3558821E+04  0.7818609E-02  0.8099990E-01
       -1   -1    0    0    0  501  0.00000000000E+00  0.00000000000E+00  0.15275870992E+04  0.15275870992E+04  0.50400001928E-02 0.  1.
        1   -1    0    0  501    0  0.00000000000E+00  0.00000000000E+00 -0.20727465408E+04  0.20727465408E+04  0.50400001928E-02 0. -1.
    10030    2    1    2    0    0  0.00000000000E+00  0.00000000000E+00 -0.54515944164E+03  0.36003336400E+04  0.35588205213E+04 0.  0.
        1    1    3    3  502    0  0.23196454804E+03  0.49147101545E+03  0.14415727292E+04  0.15406113215E+04  0.50400001928E-02 0.  1.
       -1    1    3    3    0  502 -0.23196454804E+03 -0.49147101545E+03 -0.19867321708E+04  0.20597223185E+04  0.50400001928E-02 0. -1.
</event>
<event>
 5   0  0.2536619E-06  0.3536494E+04  0.7818609E-02  0.8105195E-01
        2   -1    0    0  501    0  0.00000000000E+00  0.00000000000E+00  0.18310244737E+04  0.18310244737E+04  0.25500000920E-02 0.  1.
       -2   -1    0    0    0  501  0.00000000000E+00  0.00000000000E+00 -0.17076218014E+04  0.17076218014E+04  0.25500000920E-02 0. -1.
    10030    2    1    2    0    0  0.00000000000E+00  0.00000000000E+00  0.12340267236E+03  0.35386462751E+04  0.35364939192E+04 0.  0.
        1    1    3    3  502    0  0.13618326492E+04 -0.92752135969E+03  0.70381868943E+03  0.17917155982E+04  0.50400001928E-02 0. -1.
       -1    1    3    3    0  502 -0.13618326492E+04  0.92752135969E+03 -0.58041601708E+03  0.17469306769E+04  0.50400001928E-02 0.  1.
</event>
<event>
 5   0  0.1566576E-06  0.2159136E+04  0.7818609E-02  0.8535632E-01
       -2   -1    0    0    0  501  0.00000000000E+00  0.00000000000E+00  0.78533644234E+03  0.78533644235E+03  0.25500000920E-02 0.  1.
        2   -1    0    0  501    0  0.00000000000E+00  0.00000000000E+00 -0.14840350003E+04  0.14840350003E+04  0.25500000920E-02 0. -1.
    10030    2    1    2    0    0  0.00000000000E+00  0.00000000000E+00 -0.69869855798E+03  0.22693714427E+04  0.21591357229E+04 0.  0.
        4    1    3    3  502    0  0.62610011048E+03 -0.33400881504E+03  0.50576166024E+03  0.87141247795E+03  0.12699999809E+01 0.  1.
       -4    1    3    3    0  502 -0.62610011048E+03  0.33400881504E+03 -0.12044602182E+04  0.13979589647E+04  0.12699999809E+01 0. -1.
</event>
<event>
 5   0  0.1908273E-06  0.3071931E+04  0.7818609E-02  0.8223484E-01
        1   -1    0    0  501    0  0.00000000000E+00  0.00000000000E+00  0.24919679528E+04  0.24919679528E+04  0.50400001928E-02 0. -1.
       -1   -1    0    0    0  501  0.00000000000E+00  0.00000000000E+00 -0.94671756055E+03  0.94671756056E+03  0.50400001928E-02 0.  1.
    10030    2    1    2    0    0  0.00000000000E+00  0.00000000000E+00  0.15452503922E+04  0.34386855133E+04  0.30719308724E+04 0.  0.
        3    1    3    3  502    0  0.71212125953E+03  0.12287559942E+04  0.14274742734E+04  0.20136138639E+04  0.10100000352E+00 0. -1.
       -3    1    3    3    0  502 -0.71212125953E+03 -0.12287559942E+04  0.11777611880E+03  0.14250716494E+04  0.10100000352E+00 0.  1.
</event>
<event>
 5   0  0.2536619E-06  0.3465989E+04  0.7818609E-02  0.8121898E-01
        2   -1    0    0  501    0  0.00000000000E+00  0.00000000000E+00  0.21224681180E+04  0.21224681180E+04  0.25500000920E-02 0. -1.
       -2   -1    0    0    0  501  0.00000000000E+00  0.00000000000E+00 -0.14149890964E+04  0.14149890964E+04  0.25500000920E-02 0.  1.
    10030    2    1    2    0    0  0.00000000000E+00  0.00000000000E+00  0.70747902160E+03  0.35374572145E+04  0.34659886004E+04 0.  0.
        1    1    3    3  502    0 -0.34528994842E+01 -0.16202183105E+04  0.98135851928E+03  0.18942502051E+04  0.50400001928E-02 0.  1.
       -1    1    3    3    0  502  0.34528994842E+01  0.16202183105E+04 -0.27387949767E+03  0.16432070093E+04  0.50400001928E-02 0. -1.
</event>
<event>
 5   0  0.2536619E-06  0.3567377E+04  0.7818609E-02  0.8098005E-01
       -2   -1    0    0    0  501  0.00000000000E+00  0.00000000000E+00  0.31540581067E+04  0.31540581067E+04  0.25500000920E-02 0.  1.
        2   -1    0    0  501    0  0.00000000000E+00  0.00000000000E+00 -0.10087148917E+04  0.10087148917E+04  0.25500000920E-02 0. -1.
    10030    2    1    2    0    0  0.00000000000E+00  0.00000000000E+00  0.21453432150E+04  0.41627729984E+04  0.35673774016E+04 0.  0.
        1    1    3    3  502    0 -0.54783719878E+03  0.16508263037E+04  0.61149902280E+03  0.18437147655E+04  0.50400001928E-02 0. -1.
       -1    1    3    3    0  502  0.54783719878E+03 -0.16508263037E+04  0.15338441922E+04  0.23190582329E+04  0.50400001928E-02 0.  1.
</event>
<event>
 5   0  0.2382711E-06  0.2116897E+04  0.7818609E-02  0.8553836E-01
        2   -1    0    0  501    0  0.00000000000E+00  0.00000000000E+00  0.10818831479E+04  0.10818831479E+04  0.25500000920E-02 0.  1.
       -2   -1    0    0    0  501  0.00000000000E+00  0.00000000000E+00 -0.10355218043E+04  0.10355218043E+04  0.25500000920E-02 0. -1.
    10030    2    1    2    0    0  0.00000000000E+00  0.00000000000E+00  0.46361343509E+02  0.21174049522E+04  0.21168973422E+04 0.  0.
        5    1    3    3  502    0 -0.33346213041E+03  0.83583375924E+03 -0.53415706226E+03  0.10464993658E+04  0.46999998093E+01 0. -1.
       -5    1    3    3    0  502  0.33346213041E+03 -0.83583375924E+03  0.58051840577E+03  0.10709055864E+04  0.46999998093E+01 0.  1.
</event>
<event>
 5   0  0.1908273E-06  0.1981685E+04  0.7818609E-02  0.8615232E-01
        1   -1    0    0  501    0  0.00000000000E+00  0.00000000000E+00  0.76453862232E+03  0.76453862234E+03  0.50400001928E-02 0. -1.
       -1   -1    0    0    0  501  0.00000000000E+00  0.00000000000E+00 -0.12841320527E+04  0.12841320527E+04  0.50400001928E-02 0.  1.
    10030    2    1    2    0    0  0.00000000000E+00  0.00000000000E+00 -0.51959343038E+03  0.20486706751E+04  0.19816846878E+04 0.  0.
        3    1    3    3  502    0  0.48495314112E+03 -0.49682035413E+03  0.47103553502E+03  0.83897824693E+03  0.10100000352E+00 0. -1.
       -3    1    3    3    0  502 -0.48495314112E+03  0.49682035413E+03 -0.99062896540E+03  0.12096924281E+04  0.10100000352E+00 0.  1.
</event>
<event>
 5   0  0.7754556E-07  0.3630670E+04  0.7818609E-02  0.8083502E-01
        1   -1    0    0  501    0  0.00000000000E+00  0.00000000000E+00  0.16392371197E+04  0.16392371197E+04  0.50400001928E-02 0. -1.
       -1   -1    0    0    0  501  0.00000000000E+00  0.00000000000E+00 -0.20103500463E+04  0.20103500463E+04  0.50400001928E-02 0.  1.
    10030    2    1    2    0    0  0.00000000000E+00  0.00000000000E+00 -0.37111292666E+03  0.36495871660E+04  0.36306695908E+04 0.  0.
        4    1    3    3  502    0 -0.17379545442E+04  0.43348215038E+03 -0.48212939295E+03  0.18549509797E+04  0.12699999809E+01 0.  1.
       -4    1    3    3    0  502  0.17379545442E+04 -0.43348215038E+03  0.11101646630E+03  0.17946361863E+04  0.12699999809E+01 0. -1.
</event>
<event>
 5   0  0.1513502E-06  0.2759671E+04  0.7818609E-02  0.8315899E-01
        2   -1    0    0  501    0  0.00000000000E+00  0.00000000000E+00  0.11199278542E+04  0.11199278542E+04  0.25500000920E-02 0. -1.
       -2   -1    0    0    0  501  0.00000000000E+00  0.00000000000E+00 -0.17000608990E+04  0.17000608990E+04  0.25500000920E-02 0.  1.
    10030    2    1    2    0    0  0.00000000000E+00  0.00000000000E+00 -0.58013304474E+03  0.28199887532E+04  0.27596706722E+04 0.  0.
        3    1    3    3  502    0  0.17301057675E+03  0.46912469791E+03 -0.16042297903E+04  0.16803463548E+04  0.10100000352E+00 0.  1.
       -3    1    3    3    0  502 -0.17301057675E+03 -0.46912469791E+03  0.10240967455E+04  0.11396423984E+04  0.10100000352E+00 0. -1.
</event>
<event>
 5   0  0.1513502E-06  0.3615355E+04  0.7818609E-02  0.8086983E-01
       -2   -1    0    0    0  501  0.00000000000E+00  0.00000000000E+00  0.29154377642E+04  0.29154377642E+04  0.25500000920E-02 0. -1.
        2   -1    0    0  501    0  0.00000000000E+00  0.00000000000E+00 -0.11208261179E+04  0.11208261179E+04  0.25500000920E-02 0.  1.
    10030    2    1    2    0    0  0.00000000000E+00  0.00000000000E+00  0.17946116463E+04  0.40362638821E+04  0.36153554687E+04 0.  0.
        3    1    3    3  502    0  0.16226097424E+03 -0.47078731700E+03  0.28373542252E+04  0.28807201064E+04  0.10100000352E+00 0. -1.
       -3    1    3    3    0  502 -0.16226097424E+03  0.47078731700E+03 -0.10427425789E+04  0.11555437758E+04  0.10100000352E+00 0.  1.
</event>
<event>
 5   0  0.1566576E-06  0.3637607E+04  0.7818609E-02  0.8081931E-01
        2   -1    0    0  501    0  0.00000000000E+00  0.00000000000E+00  0.24838708332E+04  0.24838708332E+04  0.25500000920E-02 0.  1.
       -2   -1    0    0    0  501  0.00000000000E+00  0.00000000000E+00 -0.13318105528E+04  0.13318105528E+04  0.25500000920E-02 0. -1.
    10030    2    1    2    0    0  0.00000000000E+00  0.00000000000E+00  0.11520602804E+04  0.38156813860E+04  0.36376065689E+04 0.  0.
        4    1    3    3  502    0 -0.13753057090E+04  0.11495348100E+04  0.89959066393E+03  0.20055326096E+04  0.12699999809E+01 0. -1.
       -4    1    3    3    0  502  0.13753057090E+04 -0.11495348100E+04  0.25246961648E+03  0.18101487764E+04  0.12699999809E+01 0.  1.
</event>
<event>
 5   0  0.1513502E-06  0.3567616E+04  0.7818609E-02  0.8097950E-01
       -2   -1    0    0    0  501  0.00000000000E+00  0.00000000000E+00  0.14708612434E+04  0.14708612434E+04  0.25500000920E-02 0.  1.
        2   -1    0    0  501    0  0.00000000000E+00  0.00000000000E+00 -0.21633391635E+04  0.21633391635E+04  0.25500000920E-02 0. -1.
    10030    2    1    2    0    0  0.00000000000E+00  0.00000000000E+00 -0.69247792015E+03  0.36342004069E+04  0.35676164211E+04 0.  0.
        3    1    3    3  502    0  0.89684538451E+03 -0.13163265897E+04  0.47182096552E+03  0.16612231542E+04  0.10100000352E+00 0.  1.
       -3    1    3    3    0  502 -0.89684538451E+03  0.13163265897E+04 -0.11642988857E+04  0.19729772527E+04  0.10100000352E+00 0. -1.
</event>
<event>
 5   0  0.1634374E-06  0.3555989E+04  0.7818609E-02  0.8100648E-01
       -1   -1    0    0    0  501  0.00000000000E+00  0.00000000000E+00  0.15030280860E+04  0.15030280860E+04  0.50400001928E-02 0. -1.
        1   -1    0    0  501    0  0.00000000000E+00  0.00000000000E+00 -0.21032641326E+04  0.21032641326E+04  0.50400001928E-02 0.  1.
    10030    2    1    2    0    0  0.00000000000E+00  0.00000000000E+00 -0.60023604660E+03  0.36062922185E+04  0.35559893495E+04 0.  0.
        5    1    3    3  502    0 -0.97832148019E+03  0.17510182945E+03  0.11950060312E+04  0.15542956842E+04  0.46999998093E+01 0. -1.
       -5    1    3    3    0  502  0.97832148019E+03 -0.17510182945E+03 -0.17952420778E+04  0.20519965344E+04  0.46999998093E+01 0.  1.
</event>
<event>
 5   0  0.8423692E-07  0.3403106E+04  0.7818609E-02  0.8137144E-01
       -1   -1    0    0    0  501  0.00000000000E+00  0.00000000000E+00  0.17577259317E+04  0.17577259317E+04  0.50400001928E-02 0. -1.
        1   -1    0    0  501    0  0.00000000000E+00  0.00000000000E+00 -0.16471749796E+04  0.16471749796E+04  0.50400001928E-02 0.  1.
    10030    2    1    2    0    0  0.00000000000E+00  0.00000000000E+00  0.11055095210E+03  0.34049009113E+04  0.34031057437E+04 0.  0.
        2    1    3    3  502    0  0.13056060587E+04  0.20220921321E+03  0.11281220605E+04  0.17372838369E+04  0.25500000920E-02 0. -1.
       -2    1    3    3    0  502 -0.13056060587E+04 -0.20220921321E+03 -0.10175711084E+04  0.16676170745E+04  0.25500000920E-02 0.  1.
</event>
<event>
 5   0  0.1634374E-06  0.2446463E+04  0.7818609E-02  0.8422310E-01
        1   -1    0    0  501    0  0.00000000000E+00  0.00000000000E+00  0.18434835047E+04  0.18434835047E+04  0.50400001928E-02 0.  1.
       -1   -1    0    0    0  501  0.00000000000E+00  0.00000000000E+00 -0.81166759170E+03  0.81166759171E+03  0.50400001928E-02 0. -1.
    10030    2    1    2    0    0  0.00000000000E+00  0.00000000000E+00  0.10318159130E+04  0.26551510964E+04  0.24464634202E+04 0.  0.
        5    1    3    3  502    0 -0.27634998672E+03 -0.88275351731E+03  0.13845906030E+04  0.16651535411E+04  0.46999998093E+01 0.  1.
       -5    1    3    3    0  502  0.27634998672E+03  0.88275351731E+03 -0.35277469007E+03  0.98999755527E+03  0.46999998093E+01 0. -1.
</event>
<event>
 5   0  0.8423692E-07  0.3554453E+04  0.7818609E-02  0.8101005E-01
        1   -1    0    0  501    0  0.00000000000E+00  0.00000000000E+00  0.19034382996E+04  0.19034382997E+04  0.50400001928E-02 0.  1.
       -1   -1    0    0    0  501  0.00000000000E+00  0.00000000000E+00 -0.16593838507E+04  0.16593838507E+04  0.50400001928E-02 0. -1.
    10030    2    1    2    0    0  0.00000000000E+00  0.00000000000E+00  0.24405444894E+03  0.35628221504E+04  0.35544534180E+04 0.  0.
        2    1    3    3  502    0  0.15879890077E+04 -0.77947597946E+03  0.29343535472E+03  0.17931525865E+04  0.25500000920E-02 0.  1.
       -2    1    3    3    0  502 -0.15879890077E+04  0.77947597946E+03 -0.49380905779E+02  0.17696695638E+04  0.25500000920E-02 0. -1.
</event>
<event>
 5   0  0.1513502E-06  0.3631620E+04  0.7818609E-02  0.8083287E-01
        2   -1    0    0  501    0  0.00000000000E+00  0.00000000000E+00  0.26537401369E+04  0.26537401369E+04  0.25500000920E-02 0.  1.
       -2   -1    0    0    0  501  0.00000000000E+00  0.00000000000E+00 -0.12424600091E+04  0.12424600091E+04  0.25500000920E-02 0. -1.
    10030    2    1    2    0    0  0.00000000000E+00  0.00000000000E+00  0.14112801278E+04  0.38962001460E+04  0.36316200212E+04 0.  0.
        3    1    3    3  502    0  0.12130504826E+03  0.16652516833E+04 -0.60071435255E+02  0.16707443464E+04  0.10100000352E+00 0. -1.
       -3    1    3    3    0  502 -0.12130504826E+03 -0.16652516833E+04  0.14713515630E+04  0.22254557995E+04  0.10100000352E+00 0.  1.
</event>
<event>
 5   0  0.8452742E-07  0.3663577E+04  0.7818609E-02  0.8076082E-01
       -1   -1    0    0    0  501  0.00000000000E+00  0.00000000000E+00  0.17868496763E+04  0.17868496763E+04  0.50400001928E-02 0.  1.
        1   -1    0    0  501    0  0.00000000000E+00  0.00000000000E+00 -0.18778577821E+04  0.18778577821E+04  0.50400001928E-02 0. -1.
    10030    2    1    2    0    0  0.00000000000E+00  0.00000000000E+00 -0.91008105781E+02  0.36647074583E+04  0.36635772518E+04 0.  0.
        1    1    3    3  502    0 -0.16014994867E+04 -0.86225143442E+03  0.17175279265E+03  0.18269584461E+04  0.50400001928E-02 0.  1.
       -1    1    3    3    0  502  0.16014994867E+04  0.86225143442E+03 -0.26276089843E+03  0.18377490122E+04  0.50400001928E-02 0. -1.
</event>
<event>
 5   0  0.2382711E-06  0.1967666E+04  0.7818609E-02  0.8621889E-01
       -2   -1    0    0    0  501  0.00000000000E+00  0.00000000000E+00  0.11353625058E+04  0.11353625058E+04  0.25500000920E-02 0. -1.
        2   -1    0    0  501    0  0.00000000000E+00  0.00000000000E+00 -0.85252683944E+03  0.85252683944E+03  0.25500000920E-02 0.  1.
    10030    2    1    2    0    0  0.00000000000E+00  0.00000000000E+00  0.28283566633E+03  0.19878893452E+04  0.19676656308E+04 0.  0.
        5    1    3    3  502    0 -0.59774160431E+03  0.57569864973E+03 -0.39238859899E+03  0.91799502365E+03  0.46999998093E+01 0.  1.
       -5    1    3    3    0  502  0.59774160431E+03 -0.57569864973E+03  0.67522426532E+03  0.10698943216E+04  0.46999998093E+01 0. -1.
</event>
<event>
 5   0  0.1513502E-06  0.3448435E+04  0.7818609E-02  0.8126120E-01
       -2   -1    0    0    0  501  0.00000000000E+00  0.00000000000E+00  0.14349372924E+04  0.14349372924E+04  0.25500000920E-02 0.  1.
        2   -1    0    0  501    0  0.00000000000E+00  0.00000000000E+00 -0.20718159999E+04  0.20718159999E+04  0.25500000920E-02 0. -1.
    10030    2    1    2    0    0  0.00000000000E+00  0.00000000000E+00 -0.63687870749E+03  0.35067532923E+04  0.34484350312E+04 0.  0.
        3    1    3    3  502    0  0.92666676836E+03  0.12550269929E+04 -0.10651058830E+04  0.18889824257E+04  0.10100000352E+00 0. -1.
       -3    1    3    3    0  502 -0.92666676836E+03 -0.12550269929E+04  0.42822717554E+03  0.16177708665E+04  0.10100000352E+00 0.  1.
</event>
<event>
 5   0  0.8452742E-07  0.2185893E+04  0.7818609E-02  0.8524323E-01
       -1   -1    0    0    0  501  0.00000000000E+00  0.00000000000E+00  0.98836434253E+03  0.98836434255E+03  0.50400001928E-02 0.  1.
        1   -1    0    0  501    0  0.00000000000E+00  0.00000000000E+00 -0.12085947981E+04  0.12085947981E+04  0.50400001928E-02 0. -1.
    10030    2    1    2    0    0  0.00000000000E+00  0.00000000000E+00 -0.22023045556E+03  0.21969591407E+04  0.21858929553E+04 0.  0.
        1    1    3    3  502    0  0.70063891155E+03 -0.16036887404E+03 -0.93764184985E+03  0.11814335778E+04  0.50400001928E-02 0. -1.
       -1    1    3    3    0  502 -0.70063891155E+03  0.16036887404E+03  0.71741139429E+03  0.10155255629E+04  0.50400001928E-02 0.  1.
</event>
<event>
 5   0  0.1566576E-06  0.1880590E+04  0.7818609E-02  0.8664579E-01
       -2   -1    0    0    0  501  0.00000000000E+00  0.00000000000E+00  0.34566422308E+03  0.34566422308E+03  0.25500000920E-02 0. -1.
        2   -1    0    0  501    0  0.00000000000E+00  0.00000000000E+00 -0.25578424161E+04  0.25578424161E+04  0.25500000920E-02 0.  1.
    10030    2    1    2    0    0  0.00000000000E+00  0.00000000000E+00 -0.22121781930E+04  0.29035066392E+04  0.18805899197E+04 0.  0.
        4    1    3    3  502    0  0.27545079145E+03  0.21868988857E+03 -0.24524620015E+04  0.24775532058E+04  0.12699999809E+01 0.  1.
       -4    1    3    3    0  502 -0.27545079145E+03 -0.21868988857E+03  0.24028380850E+03  0.42595343337E+03  0.12699999809E+01 0. -1.
</event>
<event>
 5   0  0.2382711E-06  0.3577631E+04  0.7818609E-02  0.8095635E-01
        2   -1    0    0  501    0  0.00000000000E+00  0.00000000000E+00  0.26229749682E+04  0.26229749682E+04  0.25500000920E-02 0. -1.
       -2   -1    0    0    0  501  0.00000000000E+00  0.00000000000E+00 -0.12199360750E+04  0.12199360750E+04  0.25500000920E-02 0.  1.
    10030    2    1    2    0    0  0.00000000000E+00  0.00000000000E+00  0.14030388932E+04  0.38429110431E+04  0.35776315000E+04 0.  0.
        5    1    3    3  502    0 -0.60120954847E+03 -0.12660612927E+04  0.18954575388E+04  0.23573598557E+04  0.46999998093E+01 0. -1.
       -5    1    3    3    0  502  0.60120954847E+03  0.12660612927E+04 -0.49241864557E+03  0.14855511874E+04  0.46999998093E+01 0.  1.
</event>
<event>
 5   0  0.2382711E-06  0.3527505E+04  0.7818609E-02  0.8107302E-01
       -2   -1    0    0    0  501  0.00000000000E+00  0.00000000000E+00  0.12197269581E+04  0.12197269581E+04  0.25500000920E-02 0.  1.
        2   -1    0    0  501    0  0.00000000000E+00  0.00000000000E+00 -0.25504261962E+04  0.25504261962E+04  0.25500000920E-02 0. -1.
    10030    2    1    2    0    0  0.00000000000E+00  0.00000000000E+00 -0.13306992381E+04  0.37701531543E+04  0.35275053997E+04 0.  0.
        5    1    3    3  502    0  0.61755213999E+03  0.15715002919E+04 -0.12101352678E+04  0.20773620940E+04  0.46999998093E+01 0. -1.
       -5    1    3    3    0  502 -0.61755213999E+03 -0.15715002919E+04 -0.12056397024E+03  0.16927910604E+04  0.46999998093E+01 0.  1.
</event>
<event>
 5   0  0.8423692E-07  0.1951284E+04  0.7818609E-02  0.8629742E-01
       -1   -1    0    0    0  501  0.00000000000E+00  0.00000000000E+00  0.58426997385E+03  0.58426997387E+03  0.50400001928E-02 0. -1.
        1   -1    0    0  501    0  0.00000000000E+00  0.00000000000E+00 -0.16291734914E+04  0.16291734915E+04  0.50400001928E-02 0.  1.
    10030    2    1    2    0    0  0.00000000000E+00  0.00000000000E+00 -0.10449035176E+04  0.22134434653E+04  0.19512838371E+04 0.  0.
        2    1    3    3  502    0 -0.40326434526E+03  0.26835473160E+02 -0.15297508465E+04  0.15822388970E+04  0.25500000920E-02 0.  1.
       -2    1    3    3    0  502  0.40326434526E+03 -0.26835473160E+02  0.48484732888E+03  0.63120456835E+03  0.25500000920E-02 0. -1.
</event>
<event>
 5   0  0.8452742E-07  0.2837064E+04  0.7818609E-02  0.8291853E-01
        1   -1    0    0  501    0  0.00000000000E+00  0.00000000000E+00  0.13390732703E+04  0.13390732703E+04  0.50400001928E-02 0.  1.
       -1   -1    0    0    0  501  0.00000000000E+00  0.00000000000E+00 -0.15027057842E+04  0.15027057842E+04  0.50400001928E-02 0. -1.
    10030    2    1    2    0    0  0.00000000000E+00  0.00000000000E+00 -0.16363251391E+03  0.28417790545E+04  0.28370640802E+04 0.  0.
        1    1    3    3  502    0  0.95181980664E+03  0.80378716280E+03  0.59769040119E+03  0.13817628462E+04  0.50400001928E-02 0.  1.
       -1    1    3    3    0  502 -0.95181980664E+03 -0.80378716280E+03 -0.76132291511E+03  0.14600162083E+04  0.50400001928E-02 0. -1.
</event>
<event>
 5   0  0.1634374E-06  0.3668397E+04  0.7818609E-02  0.8075002E-01
       -1   -1    0    0    0  501  0.00000000000E+00  0.00000000000E+00  0.10003689431E+04  0.10003689431E+04  0.50400001928E-02 0.  1.
        1   -1    0    0  501    0  0.00000000000E+00  0.00000000000E+00 -0.33630427050E+04  0.33630427050E+04  0.50400001928E-02 0. -1.
    10030    2    1    2    0    0  0.00000000000E+00  0.00000000000E+00 -0.23626737619E+04  0.43634116481E+04  0.36683966396E+04 0.  0.
        5    1    3    3  502    0 -0.76998392595E+02  0.99037717012E+03 -0.30153771033E+04  0.31747908367E+04  0.46999998093E+01 0. -1.
       -5    1    3    3    0  502  0.76998392595E+02 -0.99037717012E+03  0.65270334138E+03  0.11886208114E+04  0.46999998093E+01 0.  1.
</event>
<event>
 5   0  0.2536619E-06  0.3659644E+04  0.7818609E-02  0.8076964E-01
       -2   -1    0    0    0  501  0.00000000000E+00  0.00000000000E+00  0.16059397058E+04  0.16059397058E+04  0.25500000920E-02 0. -1.
        2   -1    0    0  501    0  0.00000000000E+00  0.00000000000E+00 -0.20849158861E+04  0.20849158861E+04  0.25500000920E-02 0.  1.
    10030    2    1    2    0    0  0.00000000000E+00  0.00000000000E+00 -0.47897618029E+03  0.36908555919E+04  0.36596443569E+04 0.  0.
        1    1    3    3  502    0  0.17831954739E+04  0.41005179128E+03 -0.25754708488E+03  0.18477713795E+04  0.50400001928E-02 0. -1.
       -1    1    3    3    0  502 -0.17831954739E+04 -0.41005179128E+03 -0.22142909541E+03  0.18430842124E+04  0.50400001928E-02 0.  1.
</event>
<event>
 5   0  0.7754556E-07  0.3652243E+04  0.7818609E-02  0.8078629E-01
        1   -1    0    0  501    0  0.00000000000E+00  0.00000000000E+00  0.12427013539E+04  0.12427013539E+04  0.50400001928E-02 0. -1.
       -1   -1    0    0    0  501  0.00000000000E+00  0.00000000000E+00 -0.26834436689E+04  0.26834436689E+04  0.50400001928E-02 0.  1.
    10030    2    1    2    0    0  0.00000000000E+00  0.00000000000E+00 -0.14407423149E+04  0.39261450228E+04  0.36522426428E+04 0.  0.
        4    1    3    3  502    0  0.10981198035E+04  0.11494519541E+04 -0.16864391905E+04  0.23175818549E+04  0.12699999809E+01 0.  1.
       -4    1    3    3    0  502 -0.10981198035E+04 -0.11494519541E+04  0.24569687560E+03  0.16085631679E+04  0.12699999809E+01 0. -1.
</event>
<event>
 5   0  0.2536619E-06  0.3583284E+04  0.7818609E-02  0.8094332E-01
        2   -1    0    0  501    0  0.00000000000E+00  0.00000000000E+00  0.26614682280E+04  0.26614682280E+04  0.25500000920E-02 0.  1.
       -2   -1    0    0    0  501  0.00000000000E+00  0.00000000000E+00 -0.12060938595E+04  0.12060938595E+04  0.25500000920E-02 0. -1.
    10030    2    1    2    0    0  0.00000000000E+00  0.00000000000E+00  0.14553743685E+04  0.38675620874E+04  0.35832836823E+04 0.  0.
        1    1    3    3  502    0 -0.78469850772E+03 -0.11427522970E+04 -0.49741509202E+03  0.14727716504E+04  0.50400001928E-02 0. -1.
       -1    1    3    3    0  502  0.78469850772E+03  0.11427522970E+04  0.19527894605E+04  0.23947904371E+04  0.50400001928E-02 0.  1.
</event>
<event>
 5   0  0.8452742E-07  0.3518140E+04  0.7818609E-02  0.8109504E-01
       -1   -1    0    0    0  501  0.00000000000E+00  0.00000000000E+00  0.32934668789E+04  0.32934668790E+04  0.50400001928E-02 0. -1.
        1   -1    0    0  501    0  0.00000000000E+00  0.00000000000E+00 -0.93953495705E+03  0.93953495706E+03  0.50400001928E-02 0.  1.
    10030    2    1    2    0    0  0.00000000000E+00  0.00000000000E+00  0.23539319219E+04  0.42330018360E+04  0.35181399987E+04 0.  0.
        1    1    3    3  502    0  0.16879723786E+04  0.49400265950E+03  0.11382036400E+04  0.20949455613E+04  0.50400001928E-02 0. -1.
       -1    1    3    3    0  502 -0.16879723786E+04 -0.49400265950E+03  0.12157282819E+04  0.21380562747E+04  0.50400001928E-02 0.  1.
</event>
<event>
 5   0  0.2382711E-06  0.3533487E+04  0.7818609E-02  0.8105900E-01
       -2   -1    0    0    0  501  0.00000000000E+00  0.00000000000E+00  0.14279080593E+04  0.14279080593E+04  0.25500000920E-02 0.  1.
        2   -1    0    0  501    0  0.00000000000E+00  0.00000000000E+00 -0.21859825237E+04  0.21859825237E+04  0.25500000920E-02 0. -1.
    10030    2    1    2    0    0  0.00000000000E+00  0.00000000000E+00 -0.75807446442E+03  0.36138905830E+04  0.35334866991E+04 0.  0.
        5    1    3    3  502    0 -0.12077712336E+03 -0.11691325335E+04 -0.17281055075E+04  0.20899351017E+04  0.46999998093E+01 0. -1.
       -5    1    3    3    0  502  0.12077712336E+03  0.11691325335E+04  0.97003104309E+03  0.15239554813E+04  0.46999998093E+01 0.  1.
</event>
<event>
 5   0  0.1634374E-06  0.3519056E+04  0.7818609E-02  0.8109289E-01
       -1   -1    0    0    0  501  0.00000000000E+00  0.00000000000E+00  0.21389097397E+04  0.21389097397E+04  0.50400001928E-02 0. -1.
        1   -1    0    0  501    0  0.00000000000E+00  0.00000000000E+00 -0.14474375572E+04  0.14474375572E+04  0.50400001928E-02 0.  1.
    10030    2    1    2    0    0  0.00000000000E+00  0.00000000000E+00  0.69147218256E+03  0.35863472969E+04  0.35190557192E+04 0.  0.
        5    1    3    3  502    0  0.12070421866E+03  0.84932993611E+03 -0.12198640575E+04  0.14913152777E+04  0.46999998093E+01 0.  1.
       -5    1    3    3    0  502 -0.12070421866E+03 -0.84932993611E+03  0.19113362401E+04  0.20950320192E+04  0.46999998093E+01 0. -1.
</event>
<event>
 5   0  0.1513502E-06  0.3728762E+04  0.7818609E-02  0.8061618E-01
        2   -1    0    0  501    0  0.00000000000E+00  0.00000000000E+00  0.26099261448E+04  0.26099261448E+04  0.25500000920E-02 0. -1.
       -2   -1    0    0    0  501  0.00000000000E+00  0.00000000000E+00 -0.13318061328E+04  0.13318061328E+04  0.25500000920E-02 0.  1.
    10030    2    1    2    0    0  0.00000000000E+00  0.00000000000E+00  0.12781200120E+04  0.39417322776E+04  0.37287615348E+04 0.  0.
        3    1    3    3  502    0  0.10969009069E+04 -0.54130261920E+02  0.22316930819E+04  0.24872827959E+04  0.10100000352E+00 0. -1.
       -3    1    3    3    0  502 -0.10969009069E+04  0.54130261920E+02 -0.95357306993E+03  0.14544494817E+04  0.10100000352E+00 0.  1.
</event>
<event>
 5   0  0.1513502E-06  0.3201734E+04  0.7818609E-02  0.8188359E-01
       -2   -1    0    0    0  501  0.00000000000E+00  0.00000000000E+00  0.10087219114E+04  0.10087219114E+04  0.25500000920E-02 0. -1.
        2   -1    0    0  501    0  0.00000000000E+00  0.00000000000E+00 -0.25406163070E+04  0.25406163070E+04  0.25500000920E-02 0.  1.
    10030    2    1    2    0    0  0.00000000000E+00  0.00000000000E+00 -0.15318943956E+04  0.35493382183E+04  0.32017341159E+04 0.  0.
        3    1    3    3  502    0  0.14713465816E+04  0.50465916677E+03 -0.11854981496E+04  0.19557473024E+04  0.10100000352E+00 0.  1.
       -3    1    3    3    0  502 -0.14713465816E+04 -0.50465916677E+03 -0.34639624595E+03  0.15935909159E+04  0.10100000352E+00 0. -1.
</event>
<event>
 5   0  0.1513502E-06  0.3735521E+04  0.7818609E-02  0.8060135E-01
       -2   -1    0    0    0  501  0.00000000000E+00  0.00000000000E+00  0.15893926809E+04  0.15893926809E+04  0.25500000920E-02 0. -1.
        2   -1    0    0  501    0  0.00000000000E+00  0.00000000000E+00 -0.21948818588E+04  0.21948818588E+04  0.25500000920E-02 0.  1.
    10030    2    1    2    0    0  0.00000000000E+00  0.00000000000E+00 -0.60548917786E+03  0.37842745397E+04  0.37355209338E+04 0.  0.
        3    1    3    3  502    0 -0.12151500094E+04  0.80172500573E+03 -0.14881344241E+04  0.20818012885E+04  0.10100000352E+00 0.  1.
       -3    1    3    3    0  502  0.12151500094E+04 -0.80172500573E+03  0.88264524626E+03  0.17024732512E+04  0.10100000352E+00 0. -1.
</event>
<event>
 5   0  0.8423692E-07  0.3701116E+04  0.7818609E-02  0.8067715E-01
       -1   -1    0    0    0  501  0.00000000000E+00  0.00000000000E+00  0.25387322671E+04  0.25387322671E+04  0.50400001928E-02 0.  1.
        1   -1    0    0  501    0  0.00000000000E+00  0.00000000000E+00 -0.13489270062E+04  0.13489270062E+04  0.50400001928E-02 0. -1.
    10030    2    1    2    0    0  0.00000000000E+00  0.00000000000E+00  0.11898052609E+04  0.38876592733E+04  0.37011157867E+04 0.  0.
        2    1    3    3  502    0  0.17553843233E+04  0.65582718487E+02  0.12063857215E+04  0.21309720140E+04  0.25500000920E-02 0.  1.
       -2    1    3    3    0  502 -0.17553843233E+04 -0.65582718487E+02 -0.16580460638E+02  0.17566872593E+04  0.25500000920E-02 0. -1.
</event>
<event>
 5   0  0.2422436E-06  0.3592611E+04  0.7818609E-02  0.8092186E-01
       -2   -1    0    0    0  501  0.00000000000E+00  0.00000000000E+00  0.28782061000E+04  0.28782061000E+04  0.25500000920E-02 0.  1.
        2   -1    0    0  501    0  0.00000000000E+00  0.00000000000E+00 -0.11210851673E+04  0.11210851673E+04  0.25500000920E-02 0. -1.
    10030    2    1    2    0    0  0.00000000000E+00  0.00000000000E+00  0.17571209327E+04  0.39992912672E+04  0.35926113996E+04 0.  0.
        2    1    3    3  502    0  0.12881382167E+04 -0.21376499844E+03 -0.49465905820E+03  0.13963105399E+04  0.25500000920E-02 0. -1.
       -2    1    3    3    0  502 -0.12881382167E+04  0.21376499844E+03  0.22517799909E+04  0.26029807274E+04  0.25500000920E-02 0.  1.
</event>
<event>
 5   0  0.1513502E-06  0.3491864E+04  0.7818609E-02  0.8115721E-01
       -2   -1    0    0    0  501  0.00000000000E+00  0.00000000000E+00  0.14403318494E+04  0.14403318494E+04  0.25500000920E-02 0. -1.
        2   -1    0    0  501    0  0.00000000000E+00  0.00000000000E+00 -0.21163728943E+04  0.21163728943E+04  0.25500000920E-02 0.  1.
    10030    2    1    2    0    0  0.00000000000E+00  0.00000000000E+00 -0.67604104489E+03  0.35567047437E+04  0.34918644217E+04 0.  0.
        3    1    3    3  502    0 -0.12128701961E+04 -0.86753153508E+03  0.58692434134E+03  0.16025433752E+04  0.10100000352E+00 0. -1.
       -3    1    3    3    0  502  0.12128701961E+04  0.86753153508E+03 -0.12629653862E+04  0.19541613684E+04  0.10100000352E+00 0.  1.
</event>
<event>
 5   0  0.8452742E-07  0.3618260E+04  0.7818609E-02  0.8086322E-01
        1   -1    0    0  501    0  0.00000000000E+00  0.00000000000E+00  0.14556568519E+04  0.14556568519E+04  0.50400001928E-02 0.  1.
       -1   -1    0    0    0  501  0.00000000000E+00  0.00000000000E+00 -0.22484360900E+04  0.22484360900E+04  0.50400001928E-02 0. -1.
    10030    2    1    2    0    0  0.00000000000E+00  0.00000000000E+00 -0.79277923814E+03  0.37040929420E+04  0.36182600241E+04 0.  0.
        1    1    3    3  502    0 -0.46180036599E+03 -0.13088905572E+04 -0.15843032068E+04  0.21062931229E+04  0.50400001928E-02 0. -1.
       -1    1    3    3    0  502  0.46180036599E+03  0.13088905572E+04  0.79152396866E+03  0.15977998190E+04  0.50400001928E-02 0.  1.
</event>
<event>
 5   0  0.2536619E-06  0.2320182E+04  0.7818609E-02  0.8470006E-01
        2   -1    0    0  501    0  0.00000000000E+00  0.00000000000E+00  0.15963501256E+04  0.15963501256E+04  0.25500000920E-02 0. -1.
       -2   -1    0    0    0  501  0.00000000000E+00  0.00000000000E+00 -0.84305522910E+03  0.84305522910E+03  0.25500000920E-02 0.  1.
    10030    2    1    2    0    0  0.00000000000E+00  0.00000000000E+00  0.75329489654E+03  0.24394053547E+04  0.23201821660E+04 0.  0.
        1    1    3    3  502    0 -0.20876167684E+03  0.92829853588E+03  0.10744471170E+04  0.14351850810E+04  0.50400001928E-02 0. -1.
       -1    1    3    3    0  502  0.20876167684E+03 -0.92829853588E+03 -0.32115222048E+03  0.10042202737E+04  0.50400001928E-02 0.  1.
</event>
<event>
 5   0  0.7754556E-07  0.2336496E+04  0.7818609E-02  0.8463669E-01
        1   -1    0    0  501    0  0.00000000000E+00  0.00000000000E+00  0.23407238442E+04  0.23407238442E+04  0.50400001928E-02 0.  1.
       -1   -1    0    0    0  501  0.00000000000E+00  0.00000000000E+00 -0.58306919720E+03  0.58306919722E+03  0.50400001928E-02 0. -1.
    10030    2    1    2    0    0  0.00000000000E+00  0.00000000000E+00  0.17576546470E+04  0.29237930414E+04  0.23364964992E+04 0.  0.
        4    1    3    3  502    0  0.80077935798E+03  0.73847497570E+03  0.35056832083E+03  0.11443306473E+04  0.12699999809E+01 0. -1.
       -4    1    3    3    0  502 -0.80077935798E+03 -0.73847497570E+03  0.14070863262E+04  0.17794623941E+04  0.12699999809E+01 0.  1.
</event>
<event>
 5   0  0.1591168E-06  0.1941603E+04  0.7818609E-02  0.8634420E-01
       -2   -1    0    0    0  501  0.00000000000E+00  0.00000000000E+00  0.45580130756E+03  0.45580130757E+03  0.25500000920E-02 0. -1.
        2   -1    0    0  501    0  0.00000000000E+00  0.00000000000E+00 -0.20676903527E+04  0.20676903527E+04  0.25500000920E-02 0.  1.
    10030    2    1    2    0    0  0.00000000000E+00  0.00000000000E+00 -0.16118890451E+04  0.25234916602E+04  0.19416034264E+04 0.  0.
        3    1    3    3  502    0 -0.14586778834E+03  0.53721851436E+03 -0.18396511286E+04  0.19220295078E+04  0.10100000352E+00 0.  1.
       -3    1    3    3    0  502  0.14586778834E+03 -0.53721851436E+03  0.22776208352E+03  0.60146215237E+03  0.10100000352E+00 0. -1.
</event>
<event>
 5   0  0.8452742E-07  0.2617974E+04  0.7818609E-02  0.8362121E-01
        1   -1    0    0  501    0  0.00000000000E+00  0.00000000000E+00  0.19018063580E+04  0.19018063580E+04  0.50400001928E-02 0. -1.
       -1   -1    0    0    0  501  0.00000000000E+00  0.00000000000E+00 -0.90095739866E+03  0.90095739867E+03  0.50400001928E-02 0.  1.
    10030    2    1    2    0    0  0.00000000000E+00  0.00000000000E+00  0.10008489594E+04  0.28027637567E+04  0.26179736508E+04 0.  0.
        1    1    3    3  502    0 -0.92412818079E+03  0.87735654678E+03  0.17982201788E+03  0.12868967957E+04  0.50400001928E-02 0. -1.
       -1    1    3    3    0  502  0.92412818079E+03 -0.87735654678E+03  0.82102694148E+03  0.15158669610E+04  0.50400001928E-02 0.  1.
</event>
<event>
 5   0  0.2422436E-06  0.2224237E+04  0.7818609E-02  0.8508407E-01
        2   -1    0    0  501    0  0.00000000000E+00  0.00000000000E+00  0.15116072773E+04  0.15116072773E+04  0.25500000920E-02 0. -1.
       -2   -1    0    0    0  501  0.00000000000E+00  0.00000000000E+00 -0.81820683218E+03  0.81820683219E+03  0.25500000920E-02 0.  1.
    10030    2    1    2    0    0  0.00000000000E+00  0.00000000000E+00  0.69340044511E+03  0.23298141095E+04  0.22242368596E+04 0.  0.
        2    1    3    3  502    0  0.83106313503E+03 -0.53153020964E+03 -0.19110749448E+03  0.10048444520E+04  0.25500000920E-02 0.  1.
       -2    1    3    3    0  502 -0.83106313503E+03  0.53153020964E+03  0.88450793960E+03  0.13249696575E+04  0.25500000920E-02 0. -1.
</event>
<event>
 5   0  0.1634374E-06  0.3620996E+04  0.7818609E-02  0.8085699E-01
        1   -1    0    0  501    0  0.00000000000E+00  0.00000000000E+00  0.23440642479E+04  0.23440642479E+04  0.50400001928E-02 0.  1.
       -1   -1    0    0    0  501  0.00000000000E+00  0.00000000000E+00 -0.13983846160E+04  0.13983846160E+04  0.50400001928E-02 0. -1.
    10030    2    1    2    0    0  0.00000000000E+00  0.00000000000E+00  0.94567963189E+03  0.37424488639E+04  0.36209962072E+04 0.  0.
        5    1    3    3  502    0 -0.68363363697E+03  0.14064131208E+04 -0.47019419039E+03  0.16329291113E+04  0.46999998093E+01 0. -1.
       -5    1    3    3    0  502  0.68363363697E+03 -0.14064131208E+04  0.14158738223E+04  0.21095197526E+04  0.46999998093E+01 0.  1.
</event>
<event>
 5   0  0.2382711E-06  0.3611322E+04  0.7818609E-02  0.8087903E-01
       -2   -1    0    0    0  501  0.00000000000E+00  0.00000000000E+00  0.16010191703E+04  0.16010191703E+04  0.25500000920E-02 0. -1.
        2   -1    0    0  501    0  0.00000000000E+00  0.00000000000E+00 -0.20364598961E+04  0.20364598961E+04  0.25500000920E-02 0.  1.
    10030    2    1    2    0    0  0.00000000000E+00  0.00000000000E+00 -0.43544072579E+03  0.36374790665E+04  0.36113218263E+04 0.  0.
        5    1    3    3  502    0  0.16299394746E+04  0.33268152966E+03 -0.92495248356E+03  0.19034019223E+04  0.46999998093E+01 0.  1.
       -5    1    3    3    0  502 -0.16299394746E+04 -0.33268152966E+03  0.48951175777E+03  0.17340771442E+04  0.46999998093E+01 0. -1.
</event>
<event>
 5   0  0.1634374E-06  0.2392242E+04  0.7818609E-02  0.8442414E-01
       -1   -1    0    0    0  501  0.00000000000E+00  0.00000000000E+00  0.68113630904E+03  0.68113630906E+03  0.50400001928E-02 0. -1.
        1   -1    0    0  501    0  0.00000000000E+00  0.00000000000E+00 -0.21004692776E+04  0.21004692776E+04  0.50400001928E-02 0.  1.
    10030    2    1    2    0    0  0.00000000000E+00  0.00000000000E+00 -0.14193329685E+04  0.27816055866E+04  0.23922423715E+04 0.  0.
        5    1    3    3  502    0 -0.30940184633E+02  0.89972818549E+03 -0.16253844794E+04  0.18580540624E+04  0.46999998093E+01 0.  1.
       -5    1    3    3    0  502  0.30940184633E+02 -0.89972818549E+03  0.20605151090E+03  0.92355152424E+03  0.46999998093E+01 0. -1.
</event>
<event>
 5   0  0.1513502E-06  0.3531433E+04  0.7818609E-02  0.8106381E-01
       -2   -1    0    0    0  501  0.00000000000E+00  0.00000000000E+00  0.12929978127E+04  0.12929978127E+04  0.25500000920E-02 0. -1.
        2   -1    0    0  501    0  0.00000000000E+00  0.00000000000E+00 -0.24112612228E+04  0.24112612228E+04  0.25500000920E-02 0.  1.
    10030    2    1    2    0    0  0.00000000000E+00  0.00000000000E+00 -0.11182634101E+04  0.37042590354E+04  0.35314334125E+04 0.  0.
        3    1    3    3  502    0 -0.16121714990E+04  0.60321428490E+03 -0.97182105883E+03  0.19767145966E+04  0.10100000352E+00 0.  1.
       -3    1    3    3    0  502  0.16121714990E+04 -0.60321428490E+03 -0.14644235129E+03  0.17275444389E+04  0.10100000352E+00 0. -1.
</event>
<event>
 5   0  0.1634374E-06  0.3245604E+04  0.7818609E-02  0.8176876E-01
       -1   -1    0    0    0  501  0.00000000000E+00  0.00000000000E+00  0.17937990079E+04  0.17937990079E+04  0.50400001928E-02 0.  1.
        1   -1    0    0  501    0  0.00000000000E+00  0.00000000000E+00 -0.14681056609E+04  0.14681056609E+04  0.50400001928E-02 0. -1.
    10030    2    1    2    0    0  0.00000000000E+00  0.00000000000E+00  0.32569334698E+03  0.32619046688E+04  0.32456040904E+04 0.  0.
        5    1    3    3  502    0 -0.55482384308E+03 -0.10965222712E+04 -0.90232237161E+03  0.15245977635E+04  0.46999998093E+01 0. -1.
       -5    1    3    3    0  502  0.55482384308E+03  0.10965222712E+04  0.12280157186E+04  0.17373069053E+04  0.46999998093E+01 0.  1.
</event>
<event>
 5   0  0.2536619E-06  0.3646266E+04  0.7818609E-02  0.8079975E-01
        2   -1    0    0  501    0  0.00000000000E+00  0.00000000000E+00  0.18889867391E+04  0.18889867391E+04  0.25500000920E-02 0.  1.
       -2   -1    0    0    0  501  0.00000000000E+00  0.00000000000E+00 -0.17595752470E+04  0.17595752470E+04  0.25500000920E-02 0. -1.
    10030    2    1    2    0    0  0.00000000000E+00  0.00000000000E+00  0.12941149213E+03  0.36485619861E+04  0.36462662042E+04 0.  0.
        1    1    3    3  502    0  0.13714713018E+04 -0.11964969142E+04  0.17096069496E+03  0.18280497687E+04  0.50400001928E-02 0. -1.
       -1    1    3    3    0  502 -0.13714713018E+04  0.11964969142E+04 -0.41549202830E+02  0.18205122174E+04  0.50400001928E-02 0.  1.
</event>
<event>
 5   0  0.1513502E-06  0.2945193E+04  0.7818609E-02  0.8259557E-01
       -2   -1    0    0    0  501  0.00000000000E+00  0.00000000000E+00  0.10951371040E+04  0.10951371040E+04  0.25500000920E-02 0. -1.
        2   -1    0    0  501    0  0.00000000000E+00  0.00000000000E+00 -0.19801543087E+04  0.19801543087E+04  0.25500000920E-02 0.  1.
    10030    2    1    2    0    0  0.00000000000E+00  0.00000000000E+00 -0.88501720474E+03  0.30752914128E+04  0.29451930023E+04 0.  0.
        3    1    3    3  502    0 -0.68428847635E+03  0.42915336508E+03 -0.17282063730E+04  0.19076479255E+04  0.10100000352E+00 0.  1.
       -3    1    3    3    0  502  0.68428847635E+03 -0.42915336508E+03  0.84318916829E+03  0.11676434873E+04  0.10100000352E+00 0. -1.
</event>
<event>
 5   0  0.1513502E-06  0.3665961E+04  0.7818609E-02  0.8075547E-01
       -2   -1    0    0    0  501  0.00000000000E+00  0.00000000000E+00  0.17022471048E+04  0.17022471048E+04  0.25500000920E-02 0. -1.
        2   -1    0    0  501    0  0.00000000000E+00  0.00000000000E+00 -0.19737547262E+04  0.19737547262E+04  0.25500000920E-02 0.  1.
    10030    2    1    2    0    0  0.00000000000E+00  0.00000000000E+00 -0.27150762138E+03  0.36760018310E+04  0.36659614118E+04 0.  0.
        3    1    3    3  502    0  0.13895586653E+04  0.66356519349E+02  0.10610567872E+04  0.17496050948E+04  0.10100000352E+00 0. -1.
       -3    1    3    3    0  502 -0.13895586653E+04 -0.66356519349E+02 -0.13325644085E+04  0.19263967362E+04  0.10100000352E+00 0.  1.
</event>
<event>
 5   0  0.1908273E-06  0.2098349E+04  0.7818609E-02  0.8561971E-01
       -1   -1    0    0    0  501  0.00000000000E+00  0.00000000000E+00  0.66321981644E+03  0.66321981646E+03  0.50400001928E-02 0.  1.
        1   -1    0    0  501    0  0.00000000000E+00  0.00000000000E+00 -0.16597326625E+04  0.16597326625E+04  0.50400001928E-02 0. -1.
    10030    2    1    2    0    0  0.00000000000E+00  0.00000000000E+00 -0.99651284607E+03  0.23229524790E+04  0.20983494388E+04 0.  0.
        3    1    3    3  502    0 -0.14717766995E+03 -0.94803000255E+03 -0.96838330225E+03  0.13631538367E+04  0.10100000352E+00 0. -1.
       -3    1    3    3    0  502  0.14717766995E+03  0.94803000255E+03 -0.28129543818E+02  0.95979864227E+03  0.10100000352E+00 0.  1.
</event>
<event>
 5   0  0.1634374E-06  0.2690602E+04  0.7818609E-02  0.8338061E-01
        1   -1    0    0  501    0  0.00000000000E+00  0.00000000000E+00  0.20649882693E+04  0.20649882693E+04  0.50400001928E-02 0.  1.
       -1   -1    0    0    0  501  0.00000000000E+00  0.00000000000E+00 -0.87643806743E+03  0.87643806744E+03  0.50400001928E-02 0. -1.
    10030    2    1    2    0    0  0.00000000000E+00  0.00000000000E+00  0.11885502018E+04  0.29414263367E+04  0.26906016636E+04 0.  0.
        5    1    3    3  502    0  0.78971081799E+03 -0.93867884281E+03  0.11980775390E+04  0.17146932744E+04  0.46999998093E+01 0. -1.
       -5    1    3    3    0  502 -0.78971081799E+03  0.93867884281E+03 -0.95273371191E+01  0.12267330623E+04  0.46999998093E+01 0.  1.
</event>
<event>
 5   0  0.1513502E-06  0.3547176E+04  0.7818609E-02  0.8102700E-01
        2   -1    0    0  501    0  0.00000000000E+00  0.00000000000E+00  0.19322201893E+04  0.19322201893E+04  0.25500000920E-02 0.  1.
       -2   -1    0    0    0  501  0.00000000000E+00  0.00000000000E+00 -0.16279788776E+04  0.16279788777E+04  0.25500000920E-02 0. -1.
    10030    2    1    2    0    0  0.00000000000E+00  0.00000000000E+00  0.30424131162E+03  0.35601990669E+04  0.35471755835E+04 0.  0.
        3    1    3    3  502    0  0.40514421018E+03  0.16577370605E+04  0.63698817214E+03  0.18215345000E+04  0.10100000352E+00 0.  1.
       -3    1    3    3    0  502 -0.40514421018E+03 -0.16577370605E+04 -0.33274686052E+03  0.17386645669E+04  0.10100000352E+00 0. -1.
</event>
<event>
 5   0  0.8423692E-07  0.3278234E+04  0.7818609E-02  0.8168456E-01
       -1   -1    0    0    0  501  0.00000000000E+00  0.00000000000E+00  0.83422059482E+03  0.83422059484E+03  0.50400001928E-02 0.  1.
        1   -1    0    0  501    0  0.00000000000E+00  0.00000000000E+00 -0.32206162418E+04  0.32206162418E+04  0.50400001928E-02 0. -1.
    10030    2    1    2    0    0  0.00000000000E+00  0.00000000000E+00 -0.23863956470E+04  0.40548368366E+04  0.32782339129E+04 0.  0.
        2    1    3    3  502    0  0.49033436431E+03 -0.15174237482E+04 -0.16620808516E+04  0.23033704387E+04  0.25500000920E-02 0. -1.
       -2    1    3    3    0  502 -0.49033436431E+03  0.15174237482E+04 -0.72431479536E+03  0.17514663980E+04  0.25500000920E-02 0.  1.
</event>
<event>
 5   0  0.1566576E-06  0.3609198E+04  0.7818609E-02  0.8088388E-01
       -2   -1    0    0    0  501  0.00000000000E+00  0.00000000000E+00  0.14947227109E+04  0.14947227109E+04  0.25500000920E-02 0. -1.
        2   -1    0    0  501    0  0.00000000000E+00  0.00000000000E+00 -0.21787174122E+04  0.21787174122E+04  0.25500000920E-02 0.  1.
    10030    2    1    2    0    0  0.00000000000E+00  0.00000000000E+00 -0.68399470129E+03  0.36734401230E+04  0.36091984687E+04 0.  0.
        4    1    3    3  502    0 -0.10865515467E+04  0.81891731719E+03 -0.15485756866E+04  0.20613849971E+04  0.12699999809E+01 0.  1.
       -4    1    3    3    0  502  0.10865515467E+04 -0.81891731719E+03  0.86458098533E+03  0.16120551260E+04  0.12699999809E+01 0. -1.
</event>
<event>
 5   0  0.1634374E-06  0.3594933E+04  0.7818609E-02  0.8091653E-01
       -1   -1    0    0    0  501  0.00000000000E+00  0.00000000000E+00  0.18632791934E+04  0.18632791934E+04  0.50400001928E-02 0.  1.
        1   -1    0    0  501    0  0.00000000000E+00  0.00000000000E+00 -0.17339786951E+04  0.17339786951E+04  0.50400001928E-02 0. -1.
    10030    2    1    2    0    0  0.00000000000E+00  0.00000000000E+00  0.12930049827E+03  0.35972578885E+04  0.35949333370E+04 0.  0.
        5    1    3    3  502    0 -0.50642483282E+03  0.40392057982E+03  0.17424116068E+04  0.18589347067E+04  0.46999998093E+01 0.  1.
       -5    1    3    3    0  502  0.50642483282E+03 -0.40392057982E+03 -0.16131111085E+04  0.17383231819E+04  0.46999998093E+01 0. -1.
</event>
<event>
 5   0  0.7754556E-07  0.3470139E+04  0.7818609E-02  0.8120903E-01
        1   -1    0    0  501    0  0.00000000000E+00  0.00000000000E+00  0.14235044877E+04  0.14235044877E+04  0.50400001928E-02 0.  1.
       -1   -1    0    0    0  501  0.00000000000E+00  0.00000000000E+00 -0.21148267533E+04  0.21148267533E+04  0.50400001928E-02 0. -1.
    10030    2    1    2    0    0  0.00000000000E+00  0.00000000000E+00 -0.69132226562E+03  0.35383312410E+04  0.34701385414E+04 0.  0.
        4    1    3    3  502    0 -0.81798822978E+03  0.69576818276E+03  0.10439352878E+04  0.14976650514E+04  0.12699999809E+01 0.  1.
       -4    1    3    3    0  502  0.81798822978E+03 -0.69576818276E+03 -0.17352575534E+04  0.20406661897E+04  0.12699999809E+01 0. -1.
</event>
<event>
 5   0  0.7754556E-07  0.1777901E+04  0.7818609E-02  0.8718141E-01
       -1   -1    0    0    0  501  0.00000000000E+00  0.00000000000E+00  0.12687428671E+04  0.12687428671E+04  0.50400001928E-02 0. -1.
        1   -1    0    0  501    0  0.00000000000E+00  0.00000000000E+00 -0.62284724424E+03  0.62284724426E+03  0.50400001928E-02 0.  1.
    10030    2    1    2    0    0  0.00000000000E+00  0.00000000000E+00  0.64589562287E+03  0.18915901114E+04  0.17779010079E+04 0.  0.
        4    1    3    3  502    0 -0.60382865231E+03  0.63266636091E+03  0.49236465100E+03  0.10036435264E+04  0.12699999809E+01 0.  1.
       -4    1    3    3    0  502  0.60382865231E+03 -0.63266636091E+03  0.15353097186E+03  0.88794658499E+03  0.12699999809E+01 0. -1.
</event>
<event>
 5   0  0.8423692E-07  0.3684744E+04  0.7818609E-02  0.8071351E-01
       -1   -1    0    0    0  501  0.00000000000E+00  0.00000000000E+00  0.19983123787E+04  0.19983123787E+04  0.50400001928E-02 0. -1.
        1   -1    0    0  501    0  0.00000000000E+00  0.00000000000E+00 -0.16986009788E+04  0.16986009788E+04  0.50400001928E-02 0.  1.
    10030    2    1    2    0    0  0.00000000000E+00  0.00000000000E+00  0.29971139993E+03  0.36969133575E+04  0.36847444212E+04 0.  0.
        2    1    3    3  502    0  0.17048823138E+04  0.66684334239E+03 -0.58270006702E+02  0.18315837794E+04  0.25500000920E-02 0.  1.
       -2    1    3    3    0  502 -0.17048823138E+04 -0.66684334239E+03  0.35798140663E+03  0.18653295781E+04  0.25500000920E-02 0. -1.
</event>
<event>
 5   0  0.1566576E-06  0.2278284E+04  0.7818609E-02  0.8486533E-01
       -2   -1    0    0    0  501  0.00000000000E+00  0.00000000000E+00  0.90853072694E+03  0.90853072694E+03  0.25500000920E-02 0.  1.
        2   -1    0    0  501    0  0.00000000000E+00  0.00000000000E+00 -0.14282895886E+04  0.14282895886E+04  0.25500000920E-02 0. -1.
    10030    2    1    2    0    0  0.00000000000E+00  0.00000000000E+00 -0.51975886170E+03  0.23368203156E+04  0.22782844232E+04 0.  0.
        4    1    3    3  502    0 -0.42840760756E+03  0.41302932032E+03 -0.12561843144E+04  0.13900096915E+04  0.12699999809E+01 0. -1.
       -4    1    3    3    0  502  0.42840760756E+03 -0.41302932032E+03  0.73642545271E+03  0.94681062413E+03  0.12699999809E+01 0.  1.
</event>
<event>
 5   0  0.2536619E-06  0.3712101E+04  0.7818609E-02  0.8065285E-01
       -2   -1    0    0    0  501  0.00000000000E+00  0.00000000000E+00  0.14755262568E+04  0.14755262568E+04  0.25500000920E-02 0.  1.
        2   -1    0    0  501    0  0.00000000000E+00  0.00000000000E+00 -0.23347081153E+04  0.23347081153E+04  0.25500000920E-02 0. -1.
    10030    2    1    2    0    0  0.00000000000E+00  0.00000000000E+00 -0.85918185847E+03  0.38102343721E+04  0.37121008209E+04 0.  0.
        1    1    3    3  502    0  0.16365184551E+04 -0.40317070957E+03 -0.12274321744E+04  0.20850249442E+04  0.50400001928E-02 0. -1.
       -1    1    3    3    0  502 -0.16365184551E+04  0.40317070957E+03  0.36825031596E+03  0.17252094279E+04  0.50400001928E-02 0.  1.
</event>
<event>
 5   0  0.7754556E-07  0.3148016E+04  0.7818609E-02  0.8202683E-01
       -1   -1    0    0    0  501  0.00000000000E+00  0.00000000000E+00  0.10766320115E+04  0.10766320115E+04  0.50400001928E-02 0.  1.
        1   -1    0    0  501    0  0.00000000000E+00  0.00000000000E+00 -0.23011587397E+04  0.23011587397E+04  0.50400001928E-02 0. -1.
    10030    2    1    2    0    0  0.00000000000E+00  0.00000000000E+00 -0.12245267282E+04  0.33777907513E+04  0.31480159865E+04 0.  0.
        4    1    3    3  502    0  0.10993971532E+04 -0.76386139731E+03 -0.15005420435E+04  0.20109167988E+04  0.12699999809E+01 0. -1.
       -4    1    3    3    0  502 -0.10993971532E+04  0.76386139731E+03  0.27601531524E+03  0.13668739524E+04  0.12699999809E+01 0.  1.
</event>
<event>
 5   0  0.1513502E-06  0.2000566E+04  0.7818609E-02  0.8606356E-01
        2   -1    0    0  501    0  0.00000000000E+00  0.00000000000E+00  0.98515889035E+03  0.98515889035E+03  0.25500000920E-02 0.  1.
       -2   -1    0    0    0  501  0.00000000000E+00  0.00000000000E+00 -0.10156396655E+04  0.10156396655E+04  0.25500000920E-02 0. -1.
    10030    2    1    2    0    0  0.00000000000E+00  0.00000000000E+00 -0.30480775164E+02  0.20007985559E+04  0.20005663657E+04 0.  0.
        3    1    3    3  502    0  0.56984992745E+03 -0.57712669715E+03 -0.60076736340E+03  0.10093193744E+04  0.10100000352E+00 0. -1.
       -3    1    3    3    0  502 -0.56984992745E+03  0.57712669715E+03  0.57028658824E+03  0.99147918148E+03  0.10100000352E+00 0.  1.
</event>
<event>
 5   0  0.1513502E-06  0.2449911E+04  0.7818609E-02  0.8421050E-01
       -2   -1    0    0    0  501  0.00000000000E+00  0.00000000000E+00  0.78340116929E+03  0.78340116930E+03  0.25500000920E-02 0. -1.
        2   -1    0    0  501    0  0.00000000000E+00  0.00000000000E+00 -0.19153864803E+04  0.19153864803E+04  0.25500000920E-02 0.  1.
    10030    2    1    2    0    0  0.00000000000E+00  0.00000000000E+00 -0.11319853110E+04  0.26987876496E+04  0.24499110256E+04 0.  0.
        3    1    3    3  502    0 -0.81812534082E+03  0.81752401569E+03 -0.10105224012E+04  0.15358483398E+04  0.10100000352E+00 0.  1.
       -3    1    3    3    0  502  0.81812534082E+03 -0.81752401569E+03 -0.12146290983E+03  0.11629393098E+04  0.10100000352E+00 0. -1.
</event>
<event>
 5   0  0.1566576E-06  0.3601269E+04  0.7818609E-02  0.8090201E-01
       -2   -1    0    0    0  501  0.00000000000E+00  0.00000000000E+00  0.11705128422E+04  0.11705128422E+04  0.25500000920E-02 0. -1.
        2   -1    0    0  501    0  0.00000000000E+00  0.00000000000E+00 -0.27699693791E+04  0.27699693791E+04  0.25500000920E-02 0.  1.
    10030    2    1    2    0    0  0.00000000000E+00  0.00000000000E+00 -0.15994565369E+04  0.39404822213E+04  0.36012690712E+04 0.  0.
        4    1    3    3  502    0 -0.70046071554E+03  0.89552198433E+03  0.72810259162E+03  0.13500888250E+04  0.12699999809E+01 0. -1.
       -4    1    3    3    0  502  0.70046071554E+03 -0.89552198433E+03 -0.23275591285E+04  0.25903933964E+04  0.12699999809E+01 0.  1.
</event>
<event>
 5   0  0.2422436E-06  0.3325123E+04  0.7818609E-02  0.8156532E-01
        2   -1    0    0  501    0  0.00000000000E+00  0.00000000000E+00  0.23607608199E+04  0.23607608199E+04  0.25500000920E-02 0.  1.
       -2   -1    0    0    0  501  0.00000000000E+00  0.00000000000E+00 -0.11708560106E+04  0.11708560106E+04  0.25500000920E-02 0. -1.
    10030    2    1    2    0    0  0.00000000000E+00  0.00000000000E+00  0.11899048092E+04  0.35316168305E+04  0.33251231529E+04 0.  0.
        2    1    3    3  502    0 -0.14321062453E+04 -0.44058351053E+03 -0.17025353775E+03  0.15079881945E+04  0.25500000920E-02 0. -1.
       -2    1    3    3    0  502  0.14321062453E+04  0.44058351053E+03  0.13601583470E+04  0.20236286360E+04  0.25500000920E-02 0.  1.
</event>
<event>
 5   0  0.2422436E-06  0.2552203E+04  0.7818609E-02  0.8384620E-01
        2   -1    0    0  501    0  0.00000000000E+00  0.00000000000E+00  0.17709057486E+04  0.17709057486E+04  0.25500000920E-02 0.  1.
       -2   -1    0    0    0  501  0.00000000000E+00  0.00000000000E+00 -0.91954919877E+03  0.91954919877E+03  0.25500000920E-02 0. -1.
    10030    2    1    2    0    0  0.00000000000E+00  0.00000000000E+00  0.85135654985E+03  0.26904549474E+04  0.25522029404E+04 0.  0.
        2    1    3    3  502    0  0.96044299971E+03  0.20571109388E+03 -0.43310915873E+03  0.10734762937E+04  0.25500000920E-02 0.  1.
       -2    1    3    3    0  502 -0.96044299971E+03 -0.20571109388E+03  0.12844657086E+04  0.16169786536E+04  0.25500000920E-02 0. -1.
</event>
<event>
 5   0  0.2422436E-06  0.3468337E+04  0.7818609E-02  0.8121335E-01
       -2   -1    0    0    0  501  0.00000000000E+00  0.00000000000E+00  0.23158102619E+04  0.23158102619E+04  0.25500000920E-02 0.  1.
        2   -1    0    0  501    0  0.00000000000E+00  0.00000000000E+00 -0.12986125716E+04  0.12986125716E+04  0.25500000920E-02 0. -1.
    10030    2    1    2    0    0  0.00000000000E+00  0.00000000000E+00  0.10171976903E+04  0.36144228335E+04  0.34683369614E+04 0.  0.
        2    1    3    3  502    0 -0.12170739286E+04  0.24592815238E+03  0.17702056581E+04  0.21622621663E+04  0.25500000920E-02 0.  1.
       -2    1    3    3    0  502  0.12170739286E+04 -0.24592815238E+03 -0.75300796779E+03  0.14521606672E+04  0.25500000920E-02 0. -1.
</event>
<event>
 5   0  0.2536619E-06  0.3589958E+04  0.7818609E-02  0.8092796E-01
        2   -1    0    0  501    0  0.00000000000E+00  0.00000000000E+00  0.31409778841E+04  0.31409778841E+04  0.25500000920E-02 0.  1.
       -2   -1    0    0    0  501  0.00000000000E+00  0.00000000000E+00 -0.10257791348E+04  0.10257791348E+04  0.25500000920E-02 0. -1.
    10030    2    1    2    0    0  0.00000000000E+00  0.00000000000E+00  0.21151987493E+04  0.41667570189E+04  0.35899579811E+04 0.  0.
        1    1    3    3  502    0  0.82784081876E+03 -0.29035067437E+03  0.28751975574E+04  0.30060580383E+04  0.50400001928E-02 0.  1.
       -1    1    3    3    0  502 -0.82784081876E+03  0.29035067437E+03 -0.75999880811E+03  0.11606989806E+04  0.50400001928E-02 0. -1.
</event>
<event>
 5   0  0.1566576E-06  0.3338795E+04  0.7818609E-02  0.8153094E-01
       -2   -1    0    0    0  501  0.00000000000E+00  0.00000000000E+00  0.13411199344E+04  0.13411199344E+04  0.25500000920E-02 0. -1.
        2   -1    0    0  501    0  0.00000000000E+00  0.00000000000E+00 -0.20780298999E+04  0.20780298999E+04  0.25500000920E-02 0.  1.
    10030    2    1    2    0    0  0.00000000000E+00  0.00000000000E+00 -0.73690996543E+03  0.34191498343E+04  0.33387945867E+04 0.  0.
        4    1    3    3  502    0 -0.16455337138E+04  0.13880979507E+03 -0.11795311344E+03  0.16555856705E+04  0.12699999809E+01 0.  1.
       -4    1    3    3    0  502  0.16455337138E+04 -0.13880979507E+03 -0.61895685199E+03  0.17635641638E+04  0.12699999809E+01 0. -1.
</event>
<event>
 5   0  0.1566576E-06  0.1820868E+04  0.7818609E-02  0.8695280E-01
        2   -1    0    0  501    0  0.00000000000E+00  0.00000000000E+00  0.96912502987E+03  0.96912502987E+03  0.25500000920E-02 0. -1.
       -2   -1    0    0    0  501  0.00000000000E+00  0.00000000000E+00 -0.85529705651E+03  0.85529705652E+03  0.25500000920E-02 0.  1.
    10030    2    1    2    0    0  0.00000000000E+00  0.00000000000E+00  0.11382797336E+03  0.18244220864E+04  0.18208676893E+04 0.  0.
        4    1    3    3  502    0 -0.82181985528E+02  0.39876823856E+03  0.87282425875E+03  0.96311670445E+03  0.12699999809E+01 0. -1.
       -4    1    3    3    0  502  0.82181985528E+02 -0.39876823856E+03 -0.75899628539E+03  0.86130538194E+03  0.12699999809E+01 0.  1.
</event>
<event>
 5   0  0.7798974E-07  0.1964649E+04  0.7818609E-02  0.8623329E-01
       -1   -1    0    0    0  501  0.00000000000E+00  0.00000000000E+00  0.10843328426E+04  0.10843328427E+04  0.50400001928E-02 0. -1.
        1   -1    0    0  501    0  0.00000000000E+00  0.00000000000E+00 -0.88991258712E+03  0.88991258713E+03  0.50400001928E-02 0.  1.
    10030    2    1    2    0    0  0.00000000000E+00  0.00000000000E+00  0.19442025553E+03  0.19742454298E+04  0.19646490224E+04 0.  0.
        4    1    3    3  502    0 -0.45464632303E+03 -0.48131052980E+03  0.82642453870E+03  0.10589344815E+04  0.12699999809E+01 0. -1.
       -4    1    3    3    0  502  0.45464632303E+03  0.48131052980E+03 -0.63200428317E+03  0.91531094825E+03  0.12699999809E+01 0.  1.
</event>
<event>
 5   0  0.8452742E-07  0.3820466E+04  0.7818609E-02  0.8041777E-01
        1   -1    0    0  501    0  0.00000000000E+00  0.00000000000E+00  0.26610251572E+04  0.26610251572E+04  0.50400001928E-02 0.  1.
       -1   -1    0    0    0  501  0.00000000000E+00  0.00000000000E+00 -0.13712719939E+04  0.13712719939E+04  0.50400001928E-02 0. -1.
    10030    2    1    2    0    0  0.00000000000E+00  0.00000000000E+00  0.12897531633E+04  0.40322971512E+04  0.38204655597E+04 0.  0.
        1    1    3    3  502    0  0.58480922473E+03 -0.15906675827E+04  0.15750861630E+04  0.23136813975E+04  0.50400001928E-02 0.  1.
       -1    1    3    3    0  502 -0.58480922473E+03  0.15906675827E+04 -0.28533299970E+03  0.17186157537E+04  0.50400001928E-02 0. -1.
</event>
<event>
 5   0  0.7754556E-07  0.2712220E+04  0.7818609E-02  0.8331051E-01
       -1   -1    0    0    0  501  0.00000000000E+00  0.00000000000E+00  0.77758251545E+03  0.77758251547E+03  0.50400001928E-02 0. -1.
        1   -1    0    0  501    0  0.00000000000E+00  0.00000000000E+00 -0.23650673364E+04  0.23650673364E+04  0.50400001928E-02 0.  1.
    10030    2    1    2    0    0  0.00000000000E+00  0.00000000000E+00 -0.15874848209E+04  0.31426498518E+04  0.27122204989E+04 0.  0.
        4    1    3    3  502    0 -0.27058908071E+02  0.66098018768E+03  0.57793835926E+03  0.87843118855E+03  0.12699999809E+01 0. -1.
       -4    1    3    3    0  502  0.27058908071E+02 -0.66098018768E+03 -0.21654231802E+04  0.22642186633E+04  0.12699999809E+01 0.  1.
</event>
<event>
 5   0  0.1566576E-06  0.2898413E+04  0.7818609E-02  0.8273350E-01
       -2   -1    0    0    0  501  0.00000000000E+00  0.00000000000E+00  0.10907095742E+04  0.10907095742E+04  0.25500000920E-02 0. -1.
        2   -1    0    0  501    0  0.00000000000E+00  0.00000000000E+00 -0.19255354897E+04  0.19255354897E+04  0.25500000920E-02 0.  1.
    10030    2    1    2    0    0  0.00000000000E+00  0.00000000000E+00 -0.83482591551E+03  0.30162450639E+04  0.28984133550E+04 0.  0.
        4    1    3    3  502    0  0.14030165064E+03 -0.13227181791E+04 -0.10160652708E+04  0.16738154564E+04  0.12699999809E+01 0. -1.
       -4    1    3    3    0  502 -0.14030165064E+03  0.13227181791E+04  0.18123935530E+03  0.13424296076E+04  0.12699999809E+01 0.  1.
</event>
<event>
 5   0  0.2422436E-06  0.3086240E+04  0.7818609E-02  0.8219524E-01
       -2   -1    0    0    0  501  0.00000000000E+00  0.00000000000E+00  0.13717272702E+04  0.13717272702E+04  0.25500000920E-02 0. -1.
        2   -1    0    0  501    0  0.00000000000E+00  0.00000000000E+00 -0.17359279712E+04  0.17359279712E+04  0.25500000920E-02 0.  1.
    10030    2    1    2    0    0  0.00000000000E+00  0.00000000000E+00 -0.36420070095E+03  0.31076552414E+04  0.30862402610E+04 0.  0.
        2    1    3    3  502    0 -0.48549219630E+03 -0.78784934670E+03  0.10613001368E+04  0.14081076827E+04  0.25500000920E-02 0. -1.
       -2    1    3    3    0  502  0.48549219630E+03  0.78784934670E+03 -0.14255008377E+04  0.16995475587E+04  0.25500000920E-02 0.  1.
</event>
<event>
 5   0  0.2422436E-06  0.3715124E+04  0.7818609E-02  0.8064618E-01
       -2   -1    0    0    0  501  0.00000000000E+00  0.00000000000E+00  0.15700901190E+04  0.15700901190E+04  0.25500000920E-02 0.  1.
        2   -1    0    0  501    0  0.00000000000E+00  0.00000000000E+00 -0.21976678888E+04  0.21976678888E+04  0.25500000920E-02 0. -1.
    10030    2    1    2    0    0  0.00000000000E+00  0.00000000000E+00 -0.62757776984E+03  0.37677580078E+04  0.37151240286E+04 0.  0.
        2    1    3    3  502    0  0.15469938771E+04 -0.32956750799E+03 -0.13016170896E+04  0.20484169122E+04  0.25500000920E-02 0. -1.
       -2    1    3    3    0  502 -0.15469938771E+04  0.32956750799E+03  0.67403931980E+03  0.17193410956E+04  0.25500000920E-02 0.  1.
</event>
<event>
 5   0  0.2536619E-06  0.3586175E+04  0.7818609E-02  0.8093666E-01
       -2   -1    0    0    0  501  0.00000000000E+00  0.00000000000E+00  0.20769103833E+04  0.20769103833E+04  0.25500000920E-02 0.  1.
        2   -1    0    0  501    0  0.00000000000E+00  0.00000000000E+00 -0.15480510532E+04  0.15480510532E+04  0.25500000920E-02 0. -1.
    10030    2    1    2    0    0  0.00000000000E+00  0.00000000000E+00  0.52885933014E+03  0.36249614365E+04  0.35861752920E+04 0.  0.
        1    1    3    3  502    0 -0.16116279089E+03 -0.76898286281E+03 -0.13647888934E+04  0.15747878626E+04  0.50400001928E-02 0. -1.
       -1    1    3    3    0  502  0.16116279089E+03  0.76898286281E+03  0.18936482236E+04  0.20501735739E+04  0.50400001928E-02 0.  1.
</event>
<event>
 5   0  0.1513502E-06  0.3322685E+04  0.7818609E-02  0.8157147E-01
        2   -1    0    0  501    0  0.00000000000E+00  0.00000000000E+00  0.21568568174E+04  0.21568568174E+04  0.25500000920E-02 0. -1.
       -2   -1    0    0    0  501  0.00000000000E+00  0.00000000000E+00 -0.12796672368E+04  0.12796672368E+04  0.25500000920E-02 0.  1.
    10030    2    1    2    0    0  0.00000000000E+00  0.00000000000E+00  0.87718958056E+03  0.34365240542E+04  0.33226850610E+04 0.  0.
        3    1    3    3  502    0 -0.63483839310E+03 -0.41237086639E+03 -0.10909195598E+04  0.13278460050E+04  0.10100000352E+00 0.  1.
       -3    1    3    3    0  502  0.63483839310E+03  0.41237086639E+03  0.19681091403E+04  0.21086780492E+04  0.10100000352E+00 0. -1.
</event>
<event>
 5   0  0.2382711E-06  0.3612353E+04  0.7818609E-02  0.8087668E-01
       -2   -1    0    0    0  501  0.00000000000E+00  0.00000000000E+00  0.15156406436E+04  0.15156406436E+04  0.25500000920E-02 0. -1.
        2   -1    0    0  501    0  0.00000000000E+00  0.00000000000E+00 -0.21524060771E+04  0.21524060771E+04  0.25500000920E-02 0.  1.
    10030    2    1    2    0    0  0.00000000000E+00  0.00000000000E+00 -0.63676543353E+03  0.36680467207E+04  0.36123533227E+04 0.  0.
        5    1    3    3  502    0 -0.37284192413E+03  0.15278410072E+04  0.58353599049E+03  0.16774521113E+04  0.46999998093E+01 0. -1.
       -5    1    3    3    0  502  0.37284192413E+03 -0.15278410072E+04 -0.12203014240E+04  0.19905946094E+04  0.46999998093E+01 0.  1.
</event>
<event>
 5   0  0.8452742E-07  0.3644118E+04  0.7818609E-02  0.8080460E-01
        1   -1    0    0  501    0  0.00000000000E+00  0.00000000000E+00  0.22871293585E+04  0.22871293585E+04  0.50400001928E-02 0.  1.
       -1   -1    0    0    0  501  0.00000000000E+00  0.00000000000E+00 -0.14515571342E+04  0.14515571342E+04  0.50400001928E-02 0. -1.
    10030    2    1    2    0    0  0.00000000000E+00  0.00000000000E+00  0.83557222431E+03  0.37386864927E+04  0.36441179658E+04 0.  0.
        1    1    3    3  502    0 -0.93341373471E+03  0.70397180767E+03  0.18515728979E+04  0.21897853097E+04  0.50400001928E-02 0.  1.
       -1    1    3    3    0  502  0.93341373471E+03 -0.70397180767E+03 -0.10160006736E+04  0.15489011831E+04  0.50400001928E-02 0. -1.
</event>
<event>
 5   0  0.7754556E-07  0.3604357E+04  0.7818609E-02  0.8089494E-01
        1   -1    0    0  501    0  0.00000000000E+00  0.00000000000E+00  0.22474805677E+04  0.22474805677E+04  0.50400001928E-02 0.  1.
       -1   -1    0    0    0  501  0.00000000000E+00  0.00000000000E+00 -0.14451058894E+04  0.14451058895E+04  0.50400001928E-02 0. -1.
    10030    2    1    2    0    0  0.00000000000E+00  0.00000000000E+00  0.80237467821E+03  0.36925864571E+04  0.36043570327E+04 0.  0.
        4    1    3    3  502    0  0.21393247274E+03  0.13966368541E+04 -0.74489429195E+03  0.15972572505E+04  0.12699999809E+01 0. -1.
       -4    1    3    3    0  502 -0.21393247274E+03 -0.13966368541E+04  0.15472689702E+04  0.20953292066E+04  0.12699999809E+01 0.  1.
</event>
<event>
 5   0  0.2382711E-06  0.3876020E+04  0.7818609E-02  0.8030035E-01
        2   -1    0    0  501    0  0.00000000000E+00  0.00000000000E+00  0.25395075119E+04  0.25395075119E+04  0.25500000920E-02 0.  1.
       -2   -1    0    0    0  501  0.00000000000E+00  0.00000000000E+00 -0.14789807911E+04  0.14789807911E+04  0.25500000920E-02 0. -1.
    10030    2    1    2    0    0  0.00000000000E+00  0.00000000000E+00  0.10605267208E+04  0.40184883030E+04  0.38760200356E+04 0.  0.
        5    1    3    3  502    0  0.18489980416E+04 -0.58031024595E+03  0.54842878904E+03  0.20140382236E+04  0.46999998093E+01 0. -1.
       -5    1    3    3    0  502 -0.18489980416E+04  0.58031024595E+03  0.51209793172E+03  0.20044500795E+04  0.46999998093E+01 0.  1.
</event>
<event>
 5   0  0.1513502E-06  0.3593620E+04  0.7818609E-02  0.8091955E-01
       -2   -1    0    0    0  501  0.00000000000E+00  0.00000000000E+00  0.12691478428E+04  0.12691478428E+04  0.25500000920E-02 0.  1.
        2   -1    0    0  501    0  0.00000000000E+00  0.00000000000E+00 -0.25438528863E+04  0.25438528863E+04  0.25500000920E-02 0. -1.
    10030    2    1    2    0    0  0.00000000000E+00  0.00000000000E+00 -0.12747050436E+04  0.38130007291E+04  0.35936195698E+04 0.  0.
        3    1    3    3  502    0 -0.21342744083E+03 -0.10220312774E+03  0.12525419927E+04  0.12746992608E+04  0.10100000352E+00 0.  1.
       -3    1    3    3    0  502  0.21342744083E+03  0.10220312774E+03 -0.25272470362E+04  0.25383014683E+04  0.10100000352E+00 0. -1.
</event>
<event>
 5   0  0.2382711E-06  0.2228529E+04  0.7818609E-02  0.8506647E-01
       -2   -1    0    0    0  501  0.00000000000E+00  0.00000000000E+00  0.12817686921E+04  0.12817686921E+04  0.25500000920E-02 0. -1.
        2   -1    0    0  501    0  0.00000000000E+00  0.00000000000E+00 -0.96864978775E+03  0.96864978775E+03  0.25500000920E-02 0.  1.
    10030    2    1    2    0    0  0.00000000000E+00  0.00000000000E+00  0.31311890431E+03  0.22504184798E+04  0.22285286370E+04 0.  0.
        5    1    3    3  502    0  0.96792541779E+03 -0.38544419115E+01  0.71394894737E+03  0.12027633435E+04  0.46999998093E+01 0.  1.
       -5    1    3    3    0  502 -0.96792541779E+03  0.38544419115E+01 -0.40083004306E+03  0.10476551363E+04  0.46999998093E+01 0. -1.
</event>
<event>
 5   0  0.1646326E-06  0.1969100E+04  0.7818609E-02  0.8621205E-01
       -2   -1    0    0    0  501  0.00000000000E+00  0.00000000000E+00  0.11644541151E+04  0.11644541151E+04  0.25500000920E-02 0.  1.
        2   -1    0    0  501    0  0.00000000000E+00  0.00000000000E+00 -0.83244031041E+03  0.83244031042E+03  0.25500000920E-02 0. -1.
    10030    2    1    2    0    0  0.00000000000E+00  0.00000000000E+00  0.33201380465E+03  0.19968944255E+04  0.19690998400E+04 0.  0.
        3    1    3    3  502    0 -0.17126809567E+03 -0.19895196357E+03  0.11283077589E+04  0.11584442384E+04  0.10100000352E+00 0.  1.
       -3    1    3    3    0  502  0.17126809567E+03  0.19895196357E+03 -0.79629395428E+03  0.83845018709E+03  0.10100000352E+00 0. -1.
</event>
<event>
 5   0  0.1566576E-06  0.2127409E+04  0.7818609E-02  0.8549265E-01
       -2   -1    0    0    0  501  0.00000000000E+00  0.00000000000E+00  0.56239074383E+03  0.56239074383E+03  0.25500000920E-02 0.  1.
        2   -1    0    0  501    0  0.00000000000E+00  0.00000000000E+00 -0.20118881764E+04  0.20118881764E+04  0.25500000920E-02 0. -1.
    10030    2    1    2    0    0  0.00000000000E+00  0.00000000000E+00 -0.14494974326E+04  0.25742789202E+04  0.21274090232E+04 0.  0.
        4    1    3    3  502    0 -0.30064505613E+03  0.92044642467E+03 -0.19197240766E+03  0.98714947635E+03  0.12699999809E+01 0.  1.
       -4    1    3    3    0  502  0.30064505613E+03 -0.92044642467E+03 -0.12575250249E+04  0.15871294439E+04  0.12699999809E+01 0. -1.
</event>
<event>
 5   0  0.1634374E-06  0.3744885E+04  0.7818609E-02  0.8058087E-01
        1   -1    0    0  501    0  0.00000000000E+00  0.00000000000E+00  0.12052788779E+04  0.12052788779E+04  0.50400001928E-02 0.  1.
       -1   -1    0    0    0  501  0.00000000000E+00  0.00000000000E+00 -0.29089040758E+04  0.29089040758E+04  0.50400001928E-02 0. -1.
    10030    2    1    2    0    0  0.00000000000E+00  0.00000000000E+00 -0.17036251979E+04  0.41141829537E+04  0.37448848529E+04 0.  0.
        5    1    3    3  502    0  0.17897548365E+03  0.12084636421E+04 -0.24107617277E+04  0.27026303476E+04  0.46999998093E+01 0. -1.
       -5    1    3    3    0  502 -0.17897548365E+03 -0.12084636421E+04  0.70713652980E+03  0.14115526061E+04  0.46999998093E+01 0.  1.
</event>
<event>
 5   0  0.8452742E-07  0.3496195E+04  0.7818609E-02  0.8114692E-01
       -1   -1    0    0    0  501  0.00000000000E+00  0.00000000000E+00  0.17225993456E+04  0.17225993456E+04  0.50400001928E-02 0. -1.
        1   -1    0    0  501    0  0.00000000000E+00  0.00000000000E+00 -0.17739733374E+04  0.17739733374E+04  0.50400001928E-02 0.  1.
    10030    2    1    2    0    0  0.00000000000E+00  0.00000000000E+00 -0.51373991792E+02  0.34965726831E+04  0.34961952521E+04 0.  0.
        1    1    3    3  502    0 -0.48947063511E+03 -0.16724352748E+04 -0.16435281783E+03  0.17503237128E+04  0.50400001928E-02 0.  1.
       -1    1    3    3    0  502  0.48947063511E+03  0.16724352748E+04  0.11297882604E+03  0.17462489703E+04  0.50400001928E-02 0. -1.
</event>
<event>
 5   0  0.7754556E-07  0.2260709E+04  0.7818609E-02  0.8493576E-01
       -1   -1    0    0    0  501  0.00000000000E+00  0.00000000000E+00  0.90575950006E+03  0.90575950008E+03  0.50400001928E-02 0. -1.
        1   -1    0    0  501    0  0.00000000000E+00  0.00000000000E+00 -0.14106411704E+04  0.14106411705E+04  0.50400001928E-02 0.  1.
    10030    2    1    2    0    0  0.00000000000E+00  0.00000000000E+00 -0.50488167038E+03  0.23164006705E+04  0.22607093058E+04 0.  0.
        4    1    3    3  502    0 -0.88834523138E+03 -0.25990512826E+02  0.46324068324E+03  0.10022107066E+04  0.12699999809E+01 0. -1.
       -4    1    3    3    0  502  0.88834523138E+03  0.25990512826E+02 -0.96812235362E+03  0.13141899640E+04  0.12699999809E+01 0.  1.
</event>
<event>
 5   0  0.1634374E-06  0.2987780E+04  0.7818609E-02  0.8247229E-01
        1   -1    0    0  501    0  0.00000000000E+00  0.00000000000E+00  0.27721675752E+04  0.27721675752E+04  0.50400001928E-02 0.  1.
       -1   -1    0    0    0  501  0.00000000000E+00  0.00000000000E+00 -0.80504061668E+03  0.80504061669E+03  0.50400001928E-02 0. -1.
    10030    2    1    2    0    0  0.00000000000E+00  0.00000000000E+00  0.19671269585E+04  0.35772081919E+04  0.29877801086E+04 0.  0.
        5    1    3    3  502    0 -0.12030844281E+04  0.84902298047E+03  0.68201715559E+03  0.16227820720E+04  0.46999998093E+01 0.  1.
       -5    1    3    3    0  502  0.12030844281E+04 -0.84902298047E+03  0.12851098029E+04  0.19544261199E+04  0.46999998093E+01 0. -1.
</event>
<event>
 5   0  0.2422436E-06  0.3488088E+04  0.7818609E-02  0.8116619E-01
       -2   -1    0    0    0  501  0.00000000000E+00  0.00000000000E+00  0.20826337590E+04  0.20826337590E+04  0.25500000920E-02 0.  1.
        2   -1    0    0  501    0  0.00000000000E+00  0.00000000000E+00 -0.14605014305E+04  0.14605014305E+04  0.25500000920E-02 0. -1.
    10030    2    1    2    0    0  0.00000000000E+00  0.00000000000E+00  0.62213232845E+03  0.35431351895E+04  0.34880880632E+04 0.  0.
        2    1    3    3  502    0  0.94578111195E+03 -0.56473683620E+01  0.17995086554E+04  0.20329203638E+04  0.25500000920E-02 0.  1.
       -2    1    3    3    0  502 -0.94578111195E+03  0.56473683620E+01 -0.11773763270E+04  0.15102148257E+04  0.25500000920E-02 0. -1.
</event>
<event>
 5   0  0.2382711E-06  0.2433956E+04  0.7818609E-02  0.8426899E-01
        2   -1    0    0  501    0  0.00000000000E+00  0.00000000000E+00  0.14382348527E+04  0.14382348527E+04  0.25500000920E-02 0.  1.
       -2   -1    0    0    0  501  0.00000000000E+00  0.00000000000E+00 -0.10297593644E+04  0.10297593644E+04  0.25500000920E-02 0. -1.
    10030    2    1    2    0    0  0.00000000000E+00  0.00000000000E+00  0.40847548826E+03  0.24679942171E+04  0.24339562920E+04 0.  0.
        5    1    3    3  502    0 -0.41896698069E+03 -0.12667511669E+03  0.13556501066E+04  0.14245663262E+04  0.46999998093E+01 0.  1.
       -5    1    3    3    0  502  0.41896698069E+03  0.12667511669E+03 -0.94717461833E+03  0.10434278910E+04  0.46999998093E+01 0. -1.
</event>
<event>
 5   0  0.1513502E-06  0.3339216E+04  0.7818609E-02  0.8152988E-01
        2   -1    0    0  501    0  0.00000000000E+00  0.00000000000E+00  0.18233333139E+04  0.18233333139E+04  0.25500000920E-02 0.  1.
       -2   -1    0    0    0  501  0.00000000000E+00  0.00000000000E+00 -0.15288434132E+04  0.15288434132E+04  0.25500000920E-02 0. -1.
    10030    2    1    2    0    0  0.00000000000E+00  0.00000000000E+00  0.29448990068E+03  0.33521767271E+04  0.33392161518E+04 0.  0.
        3    1    3    3  502    0  0.14729147016E+04 -0.52623545351E+03  0.73362649865E+03  0.17276021882E+04  0.10100000352E+00 0.  1.
       -3    1    3    3    0  502 -0.14729147016E+04  0.52623545351E+03 -0.43913659798E+03  0.16245745390E+04  0.10100000352E+00 0. -1.
</event>
<event>
 5   0  0.7754556E-07  0.3579776E+04  0.7818609E-02  0.8095140E-01
       -1   -1    0    0    0  501  0.00000000000E+00  0.00000000000E+00  0.17697830913E+04  0.17697830913E+04  0.50400001928E-02 0. -1.
        1   -1    0    0  501    0  0.00000000000E+00  0.00000000000E+00 -0.18102217146E+04  0.18102217146E+04  0.50400001928E-02 0.  1.
    10030    2    1    2    0    0  0.00000000000E+00  0.00000000000E+00 -0.40438623293E+02  0.35800048059E+04  0.35797764076E+04 0.  0.
        4    1    3    3  502    0  0.10621094991E+04 -0.12341903871E+04  0.72306136224E+03  0.17816065351E+04  0.12699999809E+01 0. -1.
       -4    1    3    3    0  502 -0.10621094991E+04  0.12341903871E+04 -0.76349998553E+03  0.17983982708E+04  0.12699999809E+01 0.  1.
</event>
<event>
 5   0  0.1513502E-06  0.3660991E+04  0.7818609E-02  0.8076662E-01
       -2   -1    0    0    0  501  0.00000000000E+00  0.00000000000E+00  0.18843274343E+04  0.18843274343E+04  0.25500000920E-02 0.  1.
        2   -1    0    0  501    0  0.00000000000E+00  0.00000000000E+00 -0.17782015487E+04  0.17782015487E+04  0.25500000920E-02 0. -1.
    10030    2    1    2    0    0  0.00000000000E+00  0.00000000000E+00  0.10612588564E+03  0.36625289830E+04  0.36609911019E+04 0.  0.
        3    1    3    3  502    0  0.15755723839E+04  0.26467890871E+03  0.94687582054E+03  0.18571637223E+04  0.10100000352E+00 0.  1.
       -3    1    3    3    0  502 -0.15755723839E+04 -0.26467890871E+03 -0.84074993491E+03  0.18053652608E+04  0.10100000352E+00 0. -1.
</event>
<event>
 5   0  0.1513502E-06  0.3476909E+04  0.7818609E-02  0.8119284E-01
       -2   -1    0    0    0  501  0.00000000000E+00  0.00000000000E+00  0.19308990755E+04  0.19308990755E+04  0.25500000920E-02 0.  1.
        2   -1    0    0  501    0  0.00000000000E+00  0.00000000000E+00 -0.15651896752E+04  0.15651896752E+04  0.25500000920E-02 0. -1.
    10030    2    1    2    0    0  0.00000000000E+00  0.00000000000E+00  0.36570940028E+03  0.34960887507E+04  0.34769085676E+04 0.  0.
        3    1    3    3  502    0  0.11865892767E+04  0.12524865175E+04  0.39735447624E+03  0.17704821880E+04  0.10100000352E+00 0.  1.
       -3    1    3    3    0  502 -0.11865892767E+04 -0.12524865175E+04 -0.31645075957E+02  0.17256065627E+04  0.10100000352E+00 0. -1.
</event>
<event>
 5   0  0.1513502E-06  0.3575187E+04  0.7818609E-02  0.8096199E-01
        2   -1    0    0  501    0  0.00000000000E+00  0.00000000000E+00  0.17859429544E+04  0.17859429544E+04  0.25500000920E-02 0.  1.
       -2   -1    0    0    0  501  0.00000000000E+00  0.00000000000E+00 -0.17892454762E+04  0.17892454762E+04  0.25500000920E-02 0. -1.
    10030    2    1    2    0    0  0.00000000000E+00  0.00000000000E+00 -0.33025218769E+01  0.35751884306E+04  0.35751869053E+04 0.  0.
        3    1    3    3  502    0  0.98257676044E+03  0.10913841281E+04 -0.10209229729E+04  0.17885357509E+04  0.10100000352E+00 0. -1.
       -3    1    3    3    0  502 -0.98257676044E+03 -0.10913841281E+04  0.10176204511E+04  0.17866526797E+04  0.10100000352E+00 0.  1.
</event>
<event>
 5   0  0.2536619E-06  0.3506655E+04  0.7818609E-02  0.8112215E-01
       -2   -1    0    0    0  501  0.00000000000E+00  0.00000000000E+00  0.19460030330E+04  0.19460030330E+04  0.25500000920E-02 0.  1.
        2   -1    0    0  501    0  0.00000000000E+00  0.00000000000E+00 -0.15797290325E+04  0.15797290325E+04  0.25500000920E-02 0. -1.
    10030    2    1    2    0    0  0.00000000000E+00  0.00000000000E+00  0.36627400048E+03  0.35257320656E+04  0.35066550949E+04 0.  0.
        1    1    3    3  502    0 -0.17287935508E+04  0.20272747340E+03 -0.28559909224E+02  0.17408736997E+04  0.50400001928E-02 0.  1.
       -1    1    3    3    0  502  0.17287935508E+04 -0.20272747340E+03  0.39483390970E+03  0.17848583659E+04  0.50400001928E-02 0. -1.
</event>
<event>
 5   0  0.7754556E-07  0.3491299E+04  0.7818609E-02  0.8115855E-01
        1   -1    0    0  501    0  0.00000000000E+00  0.00000000000E+00  0.19633303646E+04  0.19633303647E+04  0.50400001928E-02 0.  1.
       -1   -1    0    0    0  501  0.00000000000E+00  0.00000000000E+00 -0.15521037997E+04  0.15521037997E+04  0.50400001928E-02 0. -1.
    10030    2    1    2    0    0  0.00000000000E+00  0.00000000000E+00  0.41122656494E+03  0.35154341644E+04  0.34912991960E+04 0.  0.
        4    1    3    3  502    0  0.40313091094E+03 -0.16183330275E+04  0.72471041119E+03  0.18184397466E+04  0.12699999809E+01 0.  1.
       -4    1    3    3    0  502 -0.40313091094E+03  0.16183330275E+04 -0.31348384625E+03  0.16969944177E+04  0.12699999809E+01 0. -1.
</event>
<event>
 5   0  0.8423692E-07  0.3689329E+04  0.7818609E-02  0.8070331E-01
        1   -1    0    0  501    0  0.00000000000E+00  0.00000000000E+00  0.13314266452E+04  0.13314266452E+04  0.50400001928E-02 0.  1.
       -1   -1    0    0    0  501  0.00000000000E+00  0.00000000000E+00 -0.25557444501E+04  0.25557444501E+04  0.50400001928E-02 0. -1.
    10030    2    1    2    0    0  0.00000000000E+00  0.00000000000E+00 -0.12243178049E+04  0.38871710953E+04  0.36893285347E+04 0.  0.
        2    1    3    3  502    0  0.42421298086E+03  0.51743409391E+03 -0.24233813705E+04  0.25140548843E+04  0.25500000920E-02 0. -1.
       -2    1    3    3    0  502 -0.42421298086E+03 -0.51743409391E+03  0.11990635655E+04  0.13731162110E+04  0.25500000920E-02 0.  1.
</event>
<event>
 5   0  0.1634374E-06  0.3258857E+04  0.7818609E-02  0.8173444E-01
       -1   -1    0    0    0  501  0.00000000000E+00  0.00000000000E+00  0.26020238943E+04  0.26020238943E+04  0.50400001928E-02 0.  1.
        1   -1    0    0  501    0  0.00000000000E+00  0.00000000000E+00 -0.10203741494E+04  0.10203741494E+04  0.50400001928E-02 0. -1.
    10030    2    1    2    0    0  0.00000000000E+00  0.00000000000E+00  0.15816497448E+04  0.36223980437E+04  0.32588574181E+04 0.  0.
        5    1    3    3  502    0  0.14828938727E+04  0.43267750669E+03  0.21449503653E+03  0.15595557936E+04  0.46999998093E+01 0. -1.
       -5    1    3    3    0  502 -0.14828938727E+04 -0.43267750669E+03  0.13671547083E+04  0.20628422501E+04  0.46999998093E+01 0.  1.
</event>
<event>
 5   0  0.2422436E-06  0.2106934E+04  0.7818609E-02  0.8558195E-01
        2   -1    0    0  501    0  0.00000000000E+00  0.00000000000E+00  0.13525993201E+04  0.13525993201E+04  0.25500000920E-02 0. -1.
       -2   -1    0    0    0  501  0.00000000000E+00  0.00000000000E+00 -0.82048913611E+03  0.82048913611E+03  0.25500000920E-02 0.  1.
    10030    2    1    2    0    0  0.00000000000E+00  0.00000000000E+00  0.53211018398E+03  0.21730884562E+04  0.21069343109E+04 0.  0.
        2    1    3    3  502    0  0.72810479686E+03  0.18145128371E+03 -0.49657442448E+03  0.89980404679E+03  0.25500000920E-02 0.  1.
       -2    1    3    3    0  502 -0.72810479686E+03 -0.18145128371E+03  0.10286846085E+04  0.12732844094E+04  0.25500000920E-02 0. -1.
</event>
<event>
 5   0  0.8452742E-07  0.2684647E+04  0.7818609E-02  0.8340004E-01
        1   -1    0    0  501    0  0.00000000000E+00  0.00000000000E+00  0.19382388407E+04  0.19382388407E+04  0.50400001928E-02 0.  1.
       -1   -1    0    0    0  501  0.00000000000E+00  0.00000000000E+00 -0.92962333804E+03  0.92962333805E+03  0.50400001928E-02 0. -1.
    10030    2    1    2    0    0  0.00000000000E+00  0.00000000000E+00  0.10086155027E+04  0.28678621788E+04  0.26846467634E+04 0.  0.
        1    1    3    3  502    0 -0.24396453171E+03  0.21290067804E+03 -0.88727917866E+03  0.94451560725E+03  0.50400001928E-02 0. -1.
       -1    1    3    3    0  502  0.24396453171E+03 -0.21290067804E+03  0.18958946813E+04  0.19233465715E+04  0.50400001928E-02 0.  1.
</event>
<event>
 5   0  0.8423692E-07  0.3215512E+04  0.7818609E-02  0.8184732E-01
       -1   -1    0    0    0  501  0.00000000000E+00  0.00000000000E+00  0.11849979238E+04  0.11849979238E+04  0.50400001928E-02 0.  1.
        1   -1    0    0  501    0  0.00000000000E+00  0.00000000000E+00 -0.21813371010E+04  0.21813371010E+04  0.50400001928E-02 0. -1.
    10030    2    1    2    0    0  0.00000000000E+00  0.00000000000E+00 -0.99633917719E+03  0.33663350247E+04  0.32155123609E+04 0.  0.
        2    1    3    3  502    0  0.15755988153E+03 -0.21181134277E+03 -0.21584927181E+04  0.21745758150E+04  0.25500000920E-02 0. -1.
       -2    1    3    3    0  502 -0.15755988153E+03  0.21181134277E+03  0.11621535409E+04  0.11917592097E+04  0.25500000920E-02 0.  1.
</event>
<event>
 5   0  0.1566576E-06  0.3647271E+04  0.7818609E-02  0.8079749E-01
       -2   -1    0    0    0  501  0.00000000000E+00  0.00000000000E+00  0.11475782128E+04  0.11475782128E+04  0.25500000920E-02 0. -1.
        2   -1    0    0  501    0  0.00000000000E+00  0.00000000000E+00 -0.28979689212E+04  0.28979689212E+04  0.25500000920E-02 0.  1.
    10030    2    1    2    0    0  0.00000000000E+00  0.00000000000E+00 -0.17503907083E+04  0.40455471340E+04  0.36472707579E+04 0.  0.
        4    1    3    3  502    0 -0.89868854321E+03 -0.13818587321E+04 -0.17404197364E+04  0.23971310196E+04  0.12699999809E+01 0.  1.
       -4    1    3    3    0  502  0.89868854321E+03  0.13818587321E+04 -0.99709719232E+01  0.16484161144E+04  0.12699999809E+01 0. -1.
</event>
<event>
 5   0  0.8423692E-07  0.2459644E+04  0.7818609E-02  0.8417505E-01
       -1   -1    0    0    0  501  0.00000000000E+00  0.00000000000E+00  0.55968843654E+03  0.55968843656E+03  0.50400001928E-02 0.  1.
        1   -1    0    0  501    0  0.00000000000E+00  0.00000000000E+00 -0.27023284547E+04  0.27023284547E+04  0.50400001928E-02 0. -1.
    10030    2    1    2    0    0  0.00000000000E+00  0.00000000000E+00 -0.21426400181E+04  0.32620168912E+04  0.24596438668E+04 0.  0.
        2    1    3    3  502    0  0.21561283304E+03  0.60155340279E+02 -0.26750834090E+04  0.26844326782E+04  0.25500000920E-02 0. -1.
       -2    1    3    3    0  502 -0.21561283304E+03 -0.60155340279E+02  0.53244339083E+03  0.57758421306E+03  0.25500000920E-02 0.  1.
</event>
<event>
 5   0  0.8423692E-07  0.2539242E+04  0.7818609E-02  0.8389137E-01
        1   -1    0    0  501    0  0.00000000000E+00  0.00000000000E+00  0.16119391688E+04  0.16119391688E+04  0.50400001928E-02 0.  1.
       -1   -1    0    0    0  501  0.00000000000E+00  0.00000000000E+00 -0.99999923418E+03  0.99999923420E+03  0.50400001928E-02 0. -1.
    10030    2    1    2    0    0  0.00000000000E+00  0.00000000000E+00  0.61193993458E+03  0.26119384030E+04  0.25392423550E+04 0.  0.
        2    1    3    3  502    0 -0.10444359554E+04  0.53671873550E+03 -0.19057609265E+03  0.11896355379E+04  0.25500000920E-02 0. -1.
       -2    1    3    3    0  502  0.10444359554E+04 -0.53671873550E+03  0.80251602723E+03  0.14223028651E+04  0.25500000920E-02 0.  1.
</event>
<event>
 5   0  0.7754556E-07  0.3534788E+04  0.7818609E-02  0.8105595E-01
        1   -1    0    0  501    0  0.00000000000E+00  0.00000000000E+00  0.29589685129E+04  0.29589685129E+04  0.50400001928E-02 0.  1.
       -1   -1    0    0    0  501  0.00000000000E+00  0.00000000000E+00 -0.10556655593E+04  0.10556655593E+04  0.50400001928E-02 0. -1.
    10030    2    1    2    0    0  0.00000000000E+00  0.00000000000E+00  0.19033029536E+04  0.40146340722E+04  0.35347877731E+04 0.  0.
        4    1    3    3  502    0 -0.86448668260E+03 -0.12435437276E+04 -0.83029139591E+02  0.15167839918E+04  0.12699999809E+01 0. -1.
       -4    1    3    3    0  502  0.86448668260E+03  0.12435437276E+04  0.19863320931E+04  0.24978500804E+04  0.12699999809E+01 0.  1.
</event>
<event>
 5   0  0.2536619E-06  0.3048462E+04  0.7818609E-02  0.8230026E-01
        2   -1    0    0  501    0  0.00000000000E+00  0.00000000000E+00  0.23550932341E+04  0.23550932341E+04  0.25500000920E-02 0.  1.
       -2   -1    0    0    0  501  0.00000000000E+00  0.00000000000E+00 -0.98649175393E+03  0.98649175393E+03  0.25500000920E-02 0. -1.
    10030    2    1    2    0    0  0.00000000000E+00  0.00000000000E+00  0.13686014802E+04  0.33415849880E+04  0.30484619434E+04 0.  0.
        1    1    3    3  502    0  0.42766828107E+03 -0.79949029107E+03  0.20273449623E+04  0.22208585007E+04  0.50400001928E-02 0.  1.
       -1    1    3    3    0  502 -0.42766828107E+03  0.79949029107E+03 -0.65874348209E+03  0.11207264873E+04  0.50400001928E-02 0. -1.
</event>
<event>
 5   0  0.8452742E-07  0.3298432E+04  0.7818609E-02  0.8163294E-01
        1   -1    0    0  501    0  0.00000000000E+00  0.00000000000E+00  0.22085786374E+04  0.22085786374E+04  0.50400001928E-02 0.  1.
       -1   -1    0    0    0  501  0.00000000000E+00  0.00000000000E+00 -0.12315221288E+04  0.12315221288E+04  0.50400001928E-02 0. -1.
    10030    2    1    2    0    0  0.00000000000E+00  0.00000000000E+00  0.97705650864E+03  0.34401007662E+04  0.32984320306E+04 0.  0.
        1    1    3    3  502    0  0.14253364313E+04  0.31721302593E+03  0.12880742865E+04  0.19471372354E+04  0.50400001928E-02 0.  1.
       -1    1    3    3    0  502 -0.14253364313E+04 -0.31721302593E+03 -0.31101777784E+03  0.14929635308E+04  0.50400001928E-02 0. -1.
</event>
<event>
 5   0  0.2422436E-06  0.3598891E+04  0.7818609E-02  0.8090746E-01
        2   -1    0    0  501    0  0.00000000000E+00  0.00000000000E+00  0.25001649517E+04  0.25001649517E+04  0.25500000920E-02 0. -1.
       -2   -1    0    0    0  501  0.00000000000E+00  0.00000000000E+00 -0.12951158990E+04  0.12951158990E+04  0.25500000920E-02 0.  1.
    10030    2    1    2    0    0  0.00000000000E+00  0.00000000000E+00  0.12050490527E+04  0.37952808508E+04  0.35988905953E+04 0.  0.
        2    1    3    3  502    0 -0.12836088901E+04 -0.77767535849E+02 -0.72485314434E+03  0.14761814432E+04  0.25500000920E-02 0.  1.
       -2    1    3    3    0  502  0.12836088901E+04  0.77767535849E+02  0.19299021970E+04  0.23190994076E+04  0.25500000920E-02 0. -1.
</event>
<event>
 5   0  0.1513502E-06  0.3579835E+04  0.7818609E-02  0.8095126E-01
        2   -1    0    0  501    0  0.00000000000E+00  0.00000000000E+00  0.23365273681E+04  0.23365273681E+04  0.25500000920E-02 0.  1.
       -2   -1    0    0    0  501  0.00000000000E+00  0.00000000000E+00 -0.13711824123E+04  0.13711824123E+04  0.25500000920E-02 0. -1.
    10030    2    1    2    0    0  0.00000000000E+00  0.00000000000E+00  0.96534495578E+03  0.37077097805E+04  0.35798353220E+04 0.  0.
        3    1    3    3  502    0 -0.26292859366E+03 -0.15386294450E+04 -0.42456996810E+03  0.16176438676E+04  0.10100000352E+00 0.  1.
       -3    1    3    3    0  502  0.26292859366E+03  0.15386294450E+04  0.13899149239E+04  0.20900659129E+04  0.10100000352E+00 0. -1.
</event>
<event>
 5   0  0.1634374E-06  0.2563375E+04  0.7818609E-02  0.8380749E-01
        1   -1    0    0  501    0  0.00000000000E+00  0.00000000000E+00  0.14783405251E+04  0.14783405251E+04  0.50400001928E-02 0. -1.
       -1   -1    0    0    0  501  0.00000000000E+00  0.00000000000E+00 -0.11111938581E+04  0.11111938581E+04  0.50400001928E-02 0.  1.
    10030    2    1    2    0    0  0.00000000000E+00  0.00000000000E+00  0.36714666699E+03  0.25895343832E+04  0.25633750500E+04 0.  0.
        5    1    3    3  502    0  0.78389966182E+03 -0.10068881847E+04  0.62439995800E+02  0.12775927909E+04  0.46999998093E+01 0.  1.
       -5    1    3    3    0  502 -0.78389966182E+03  0.10068881847E+04  0.30470667119E+03  0.13119415923E+04  0.46999998093E+01 0. -1.
</event>
<event>
 5   0  0.1566576E-06  0.2535274E+04  0.7818609E-02  0.8390526E-01
        2   -1    0    0  501    0  0.00000000000E+00  0.00000000000E+00  0.11178270283E+04  0.11178270283E+04  0.25500000920E-02 0. -1.
       -2   -1    0    0    0  501  0.00000000000E+00  0.00000000000E+00 -0.14375238532E+04  0.14375238532E+04  0.25500000920E-02 0.  1.
    10030    2    1    2    0    0  0.00000000000E+00  0.00000000000E+00 -0.31969682486E+03  0.25553508815E+04  0.25352735687E+04 0.  0.
        4    1    3    3  502    0 -0.51325725868E+03 -0.62190379747E+03 -0.11457067683E+04  0.14010149744E+04  0.12699999809E+01 0.  1.
       -4    1    3    3    0  502  0.51325725868E+03  0.62190379747E+03  0.82600994340E+03  0.11543359071E+04  0.12699999809E+01 0. -1.
</event>
<event>
 5   0  0.1566576E-06  0.2104990E+04  0.7818609E-02  0.8559049E-01
        2   -1    0    0  501    0  0.00000000000E+00  0.00000000000E+00  0.91722872397E+03  0.91722872397E+03  0.25500000920E-02 0.  1.
       -2   -1    0    0    0  501  0.00000000000E+00  0.00000000000E+00 -0.12077089056E+04  0.12077089056E+04  0.25500000920E-02 0. -1.
    10030    2    1    2    0    0  0.00000000000E+00  0.00000000000E+00 -0.29048018165E+03  0.21249376296E+04  0.21049895947E+04 0.  0.
        4    1    3    3  502    0  0.54519582876E+02  0.33320238932E+03 -0.11515557982E+04  0.12000327439E+04  0.12699999809E+01 0. -1.
       -4    1    3    3    0  502 -0.54519582876E+02 -0.33320238932E+03  0.86107561658E+03  0.92490488566E+03  0.12699999809E+01 0.  1.
</event>
<event>
 5   0  0.2422436E-06  0.3549228E+04  0.7818609E-02  0.8102222E-01
        2   -1    0    0  501    0  0.00000000000E+00  0.00000000000E+00  0.14835134671E+04  0.14835134671E+04  0.25500000920E-02 0.  1.
       -2   -1    0    0    0  501  0.00000000000E+00  0.00000000000E+00 -0.21228347783E+04  0.21228347783E+04  0.25500000920E-02 0. -1.
    10030    2    1    2    0    0  0.00000000000E+00  0.00000000000E+00 -0.63932131119E+03  0.36063482454E+04  0.35492275114E+04 0.  0.
        2    1    3    3  502    0 -0.77168721645E+03 -0.10627251340E+04  0.89301579437E+03  0.15881949123E+04  0.25500000920E-02 0.  1.
       -2    1    3    3    0  502  0.77168721645E+03  0.10627251340E+04 -0.15323371056E+04  0.20181533330E+04  0.25500000920E-02 0. -1.
</event>
<event>
 5   0  0.1908273E-06  0.3490597E+04  0.7818609E-02  0.8116022E-01
       -1   -1    0    0    0  501  0.00000000000E+00  0.00000000000E+00  0.12165531464E+04  0.12165531465E+04  0.50400001928E-02 0.  1.
        1   -1    0    0  501    0  0.00000000000E+00  0.00000000000E+00 -0.25038505163E+04  0.25038505163E+04  0.50400001928E-02 0. -1.
    10030    2    1    2    0    0  0.00000000000E+00  0.00000000000E+00 -0.12872973699E+04  0.37204036628E+04  0.34905972119E+04 0.  0.
        3    1    3    3  502    0  0.41439928580E+03 -0.16816134042E+04 -0.87352554771E+03  0.19397415555E+04  0.10100000352E+00 0. -1.
       -3    1    3    3    0  502 -0.41439928580E+03  0.16816134042E+04 -0.41377182217E+03  0.17806621073E+04  0.10100000352E+00 0.  1.
</event>
<event>
 5   0  0.2536619E-06  0.2141626E+04  0.7818609E-02  0.8543125E-01
        2   -1    0    0  501    0  0.00000000000E+00  0.00000000000E+00  0.19802837845E+04  0.19802837845E+04  0.25500000920E-02 0.  1.
       -2   -1    0    0    0  501  0.00000000000E+00  0.00000000000E+00 -0.57902818846E+03  0.57902818846E+03  0.25500000920E-02 0. -1.
    10030    2    1    2    0    0  0.00000000000E+00  0.00000000000E+00  0.14012555960E+04  0.25593119729E+04  0.21416256744E+04 0.  0.
        1    1    3    3  502    0 -0.70338621303E+03 -0.51054227169E+03 -0.46849948378E+02  0.87040248939E+03  0.50400001928E-02 0. -1.
       -1    1    3    3    0  502  0.70338621303E+03  0.51054227169E+03  0.14481055444E+04  0.16889094835E+04  0.50400001928E-02 0.  1.
</event>
<event>
 5   0  0.8452742E-07  0.3702564E+04  0.7818609E-02  0.8067394E-01
       -1   -1    0    0    0  501  0.00000000000E+00  0.00000000000E+00  0.16392004340E+04  0.16392004340E+04  0.50400001928E-02 0.  1.
        1   -1    0    0  501    0  0.00000000000E+00  0.00000000000E+00 -0.20908026706E+04  0.20908026706E+04  0.50400001928E-02 0. -1.
    10030    2    1    2    0    0  0.00000000000E+00  0.00000000000E+00 -0.45160223663E+03  0.37300031046E+04  0.37025637847E+04 0.  0.
        1    1    3    3  502    0  0.13119288914E+04 -0.86432152593E+02  0.10871674839E+04  0.17060366558E+04  0.50400001928E-02 0.  1.
       -1    1    3    3    0  502 -0.13119288914E+04  0.86432152593E+02 -0.15387697205E+04  0.20239664488E+04  0.50400001928E-02 0. -1.
</event>
<event>
 5   0  0.1566576E-06  0.3579082E+04  0.7818609E-02  0.8095300E-01
       -2   -1    0    0    0  501  0.00000000000E+00  0.00000000000E+00  0.17379698654E+04  0.17379698654E+04  0.25500000920E-02 0. -1.
        2   -1    0    0  501    0  0.00000000000E+00  0.00000000000E+00 -0.18426422372E+04  0.18426422372E+04  0.25500000920E-02 0.  1.
    10030    2    1    2    0    0  0.00000000000E+00  0.00000000000E+00 -0.10467237175E+03  0.35806121026E+04  0.35790818269E+04 0.  0.
        4    1    3    3  502    0  0.80223450991E+03  0.14706628773E+04 -0.68191087008E+03  0.18087104675E+04  0.12699999809E+01 0.  1.
       -4    1    3    3    0  502 -0.80223450991E+03 -0.14706628773E+04  0.57723849833E+03  0.17719016351E+04  0.12699999809E+01 0. -1.
</event>
<event>
 5   0  0.8423692E-07  0.3245171E+04  0.7818609E-02  0.8176988E-01
        1   -1    0    0  501    0  0.00000000000E+00  0.00000000000E+00  0.10366263468E+04  0.10366263468E+04  0.50400001928E-02 0. -1.
       -1   -1    0    0    0  501  0.00000000000E+00  0.00000000000E+00 -0.25397619177E+04  0.25397619177E+04  0.50400001928E-02 0.  1.
    10030    2    1    2    0    0  0.00000000000E+00  0.00000000000E+00 -0.15031355710E+04  0.35763882645E+04  0.32451712549E+04 0.  0.
        2    1    3    3  502    0  0.87660260960E+03  0.82581523254E+03 -0.19499236231E+04  0.22918562497E+04  0.25500000920E-02 0.  1.
       -2    1    3    3    0  502 -0.87660260960E+03 -0.82581523254E+03  0.44678805215E+03  0.12845320148E+04  0.25500000920E-02 0. -1.
</event>
<event>
 5   0  0.8452742E-07  0.3222339E+04  0.7818609E-02  0.8182942E-01
       -1   -1    0    0    0  501  0.00000000000E+00  0.00000000000E+00  0.18790373345E+04  0.18790373345E+04  0.50400001928E-02 0. -1.
        1   -1    0    0  501    0  0.00000000000E+00  0.00000000000E+00 -0.13814882308E+04  0.13814882308E+04  0.50400001928E-02 0.  1.
    10030    2    1    2    0    0  0.00000000000E+00  0.00000000000E+00  0.49754910370E+03  0.32605255653E+04  0.32223394997E+04 0.  0.
        1    1    3    3  502    0 -0.63168720159E+03  0.11983238673E+04  0.11313837498E+04  0.17649470250E+04  0.50400001928E-02 0. -1.
       -1    1    3    3    0  502  0.63168720159E+03 -0.11983238673E+04 -0.63383464609E+03  0.14955785403E+04  0.50400001928E-02 0.  1.
</event>
<event>
 5   0  0.2422436E-06  0.2380720E+04  0.7818609E-02  0.8446757E-01
        2   -1    0    0  501    0  0.00000000000E+00  0.00000000000E+00  0.13099581639E+04  0.13099581639E+04  0.25500000920E-02 0.  1.
       -2   -1    0    0    0  501  0.00000000000E+00  0.00000000000E+00 -0.10816811679E+04  0.10816811679E+04  0.25500000920E-02 0. -1.
    10030    2    1    2    0    0  0.00000000000E+00  0.00000000000E+00  0.22827699591E+03  0.23916393318E+04  0.23807201235E+04 0.  0.
        2    1    3    3  502    0  0.47661805381E+03  0.69888224529E+03 -0.72717251893E+03  0.11155182806E+04  0.25500000920E-02 0.  1.
       -2    1    3    3    0  502 -0.47661805381E+03 -0.69888224529E+03  0.95544951484E+03  0.12761210512E+04  0.25500000920E-02 0. -1.
</event>
<event>
 5   0  0.8452742E-07  0.2365821E+04  0.7818609E-02  0.8452412E-01
       -1   -1    0    0    0  501  0.00000000000E+00  0.00000000000E+00  0.14429283097E+04  0.14429283097E+04  0.50400001928E-02 0. -1.
        1   -1    0    0  501    0  0.00000000000E+00  0.00000000000E+00 -0.96974852668E+03  0.96974852669E+03  0.50400001928E-02 0.  1.
    10030    2    1    2    0    0  0.00000000000E+00  0.00000000000E+00  0.47317978299E+03  0.24126768364E+04  0.23658212971E+04 0.  0.
        1    1    3    3  502    0  0.85648733812E+02 -0.51684022077E+03  0.13181691806E+04  0.14184602596E+04  0.50400001928E-02 0. -1.
       -1    1    3    3    0  502 -0.85648733812E+02  0.51684022077E+03 -0.84498939761E+03  0.99421657676E+03  0.50400001928E-02 0.  1.
</event>
<event>
 5   0  0.1566576E-06  0.3658296E+04  0.7818609E-02  0.8077267E-01
       -2   -1    0    0    0  501  0.00000000000E+00  0.00000000000E+00  0.14252450819E+04  0.14252450819E+04  0.25500000920E-02 0. -1.
        2   -1    0    0  501    0  0.00000000000E+00  0.00000000000E+00 -0.23475133367E+04  0.23475133367E+04  0.25500000920E-02 0.  1.
    10030    2    1    2    0    0  0.00000000000E+00  0.00000000000E+00 -0.92226825480E+03  0.37727584187E+04  0.36582956895E+04 0.  0.
        4    1    3    3  502    0  0.78222729386E+02 -0.72360157249E+03 -0.21917525106E+04  0.23094368820E+04  0.12699999809E+01 0.  1.
       -4    1    3    3    0  502 -0.78222729386E+02  0.72360157249E+03  0.12694842558E+04  0.14633215367E+04  0.12699999809E+01 0. -1.
</event>
<event>
 5   0  0.2536619E-06  0.2836405E+04  0.7818609E-02  0.8292054E-01
       -2   -1    0    0    0  501  0.00000000000E+00  0.00000000000E+00  0.12776745965E+04  0.12776745966E+04  0.25500000920E-02 0.  1.
        2   -1    0    0  501    0  0.00000000000E+00  0.00000000000E+00 -0.15741866572E+04  0.15741866572E+04  0.25500000920E-02 0. -1.
    10030    2    1    2    0    0  0.00000000000E+00  0.00000000000E+00 -0.29651206070E+03  0.28518612538E+04  0.28364049797E+04 0.  0.
        1    1    3    3  502    0 -0.95986830579E+03 -0.72362338611E+03 -0.90489940019E+03  0.15045999116E+04  0.50400001928E-02 0. -1.
       -1    1    3    3    0  502  0.95986830579E+03  0.72362338611E+03  0.60838733950E+03  0.13472613422E+04  0.50400001928E-02 0.  1.
</event>
<event>
 5   0  0.2536619E-06  0.3717368E+04  0.7818609E-02  0.8064124E-01
       -2   -1    0    0    0  501  0.00000000000E+00  0.00000000000E+00  0.18091652270E+04  0.18091652270E+04  0.25500000920E-02 0.  1.
        2   -1    0    0  501    0  0.00000000000E+00  0.00000000000E+00 -0.19095578392E+04  0.19095578392E+04  0.25500000920E-02 0. -1.
    10030    2    1    2    0    0  0.00000000000E+00  0.00000000000E+00 -0.10039261218E+03  0.37187230662E+04  0.37173676933E+04 0.  0.
        1    1    3    3  502    0 -0.73918251875E+03 -0.10191924507E+04 -0.14180139649E+04  0.18962878611E+04  0.50400001928E-02 0. -1.
       -1    1    3    3    0  502  0.73918251875E+03  0.10191924507E+04  0.13176213527E+04  0.18224352051E+04  0.50400001928E-02 0.  1.
</event>
<event>
 5   0  0.1513502E-06  0.3663400E+04  0.7818609E-02  0.8076122E-01
       -2   -1    0    0    0  501  0.00000000000E+00  0.00000000000E+00  0.12717967696E+04  0.12717967696E+04  0.25500000920E-02 0.  1.
        2   -1    0    0  501    0  0.00000000000E+00  0.00000000000E+00 -0.26380978220E+04  0.26380978220E+04  0.25500000920E-02 0. -1.
    10030    2    1    2    0    0  0.00000000000E+00  0.00000000000E+00 -0.13663010524E+04  0.39098945915E+04  0.36633996712E+04 0.  0.
        3    1    3    3  502    0 -0.46760904987E+03 -0.51817102278E+03 -0.24906062145E+04  0.25865573178E+04  0.10100000352E+00 0. -1.
       -3    1    3    3    0  502  0.46760904987E+03  0.51817102278E+03  0.11243051621E+04  0.13233372737E+04  0.10100000352E+00 0.  1.
</event>
<event>
 5   0  0.1513502E-06  0.2727640E+04  0.7818609E-02  0.8326092E-01
        2   -1    0    0  501    0  0.00000000000E+00  0.00000000000E+00  0.15414976930E+04  0.15414976930E+04  0.25500000920E-02 0. -1.
       -2   -1    0    0    0  501  0.00000000000E+00  0.00000000000E+00 -0.12066216834E+04  0.12066216834E+04  0.25500000920E-02 0.  1.
    10030    2    1    2    0    0  0.00000000000E+00  0.00000000000E+00  0.33487600956E+03  0.27481193764E+04  0.27276396692E+04 0.  0.
        3    1    3    3  502    0 -0.72487803287E+02  0.36033088105E+03 -0.11557819176E+04  0.12128168356E+04  0.10100000352E+00 0.  1.
       -3    1    3    3    0  502  0.72487803287E+02 -0.36033088105E+03  0.14906579272E+04  0.15353025407E+04  0.10100000352E+00 0. -1.
</event>
<event>
 5   0  0.8452742E-07  0.2551096E+04  0.7818609E-02  0.8385005E-01
       -1   -1    0    0    0  501  0.00000000000E+00  0.00000000000E+00  0.68253011452E+03  0.68253011454E+03  0.50400001928E-02 0.  1.
        1   -1    0    0  501    0  0.00000000000E+00  0.00000000000E+00 -0.23838112308E+04  0.23838112308E+04  0.50400001928E-02 0. -1.
    10030    2    1    2    0    0  0.00000000000E+00  0.00000000000E+00 -0.17012811163E+04  0.30663413453E+04  0.25510961976E+04 0.  0.
        1    1    3    3  502    0 -0.39836088967E+03  0.53550236730E+03  0.45590080987E+03  0.80826959133E+03  0.50400001928E-02 0.  1.
       -1    1    3    3    0  502  0.39836088967E+03 -0.53550236730E+03 -0.21571819261E+04  0.22580717540E+04  0.50400001928E-02 0. -1.
</event>
<event>
 5   0  0.8423692E-07  0.3142279E+04  0.7818609E-02  0.8204230E-01
       -1   -1    0    0    0  501  0.00000000000E+00  0.00000000000E+00  0.15180743616E+04  0.15180743616E+04  0.50400001928E-02 0.  1.
        1   -1    0    0  501    0  0.00000000000E+00  0.00000000000E+00 -0.16260599669E+04  0.16260599669E+04  0.50400001928E-02 0. -1.
    10030    2    1    2    0    0  0.00000000000E+00  0.00000000000E+00 -0.10798560529E+03  0.31441343284E+04  0.31422793931E+04 0.  0.
        2    1    3    3  502    0  0.14647070647E+04 -0.51840078864E+03 -0.28731232027E+03  0.15800805462E+04  0.25500000920E-02 0. -1.
       -2    1    3    3    0  502 -0.14647070647E+04  0.51840078864E+03  0.17932671498E+03  0.15640537822E+04  0.25500000920E-02 0.  1.
</event>
<event>
 5   0  0.1566576E-06  0.3521476E+04  0.7818609E-02  0.8108719E-01
       -2   -1    0    0    0  501  0.00000000000E+00  0.00000000000E+00  0.13756894586E+04  0.13756894587E+04  0.25500000920E-02 0. -1.
        2   -1    0    0  501    0  0.00000000000E+00  0.00000000000E+00 -0.22535600480E+04  0.22535600480E+04  0.25500000920E-02 0.  1.
    10030    2    1    2    0    0  0.00000000000E+00  0.00000000000E+00 -0.87787058933E+03  0.36292495066E+04  0.35214762827E+04 0.  0.
        4    1    3    3  502    0  0.92354270624E+03  0.79347443718E+03 -0.17497348025E+04  0.21316909496E+04  0.12699999809E+01 0.  1.
       -4    1    3    3    0  502 -0.92354270624E+03 -0.79347443718E+03  0.87186421314E+03  0.14975585570E+04  0.12699999809E+01 0. -1.
</event>
<event>
 5   0  0.8452742E-07  0.2124692E+04  0.7818609E-02  0.8550444E-01
        1   -1    0    0  501    0  0.00000000000E+00  0.00000000000E+00  0.16246992616E+04  0.16246992616E+04  0.50400001928E-02 0. -1.
       -1   -1    0    0    0  501  0.00000000000E+00  0.00000000000E+00 -0.69463849658E+03  0.69463849659E+03  0.50400001928E-02 0.  1.
    10030    2    1    2    0    0  0.00000000000E+00  0.00000000000E+00  0.93006076506E+03  0.23193377582E+04  0.21246916506E+04 0.  0.
        1    1    3    3  502    0  0.98864787454E+03  0.31126318636E+03  0.21073115393E+03  0.10576941951E+04  0.50400001928E-02 0.  1.
       -1    1    3    3    0  502 -0.98864787454E+03 -0.31126318636E+03  0.71932961113E+03  0.12616435632E+04  0.50400001928E-02 0. -1.
</event>
<event>
 5   0  0.8423692E-07  0.1897438E+04  0.7818609E-02  0.8656133E-01
       -1   -1    0    0    0  501  0.00000000000E+00  0.00000000000E+00  0.77189476722E+03  0.77189476724E+03  0.50400001928E-02 0. -1.
        1   -1    0    0  501    0  0.00000000000E+00  0.00000000000E+00 -0.11660502710E+04  0.11660502710E+04  0.50400001928E-02 0.  1.
    10030    2    1    2    0    0  0.00000000000E+00  0.00000000000E+00 -0.39415550373E+03  0.19379450382E+04  0.18974383811E+04 0.  0.
        2    1    3    3  502    0 -0.72210013007E+03 -0.43601196873E+03  0.24639561383E+03  0.87877518925E+03  0.25500000920E-02 0. -1.
       -2    1    3    3    0  502  0.72210013007E+03  0.43601196873E+03 -0.64055111757E+03  0.10591698490E+04  0.25500000920E-02 0.  1.
</event>
<event>
 5   0  0.8452742E-07  0.3646253E+04  0.7818609E-02  0.8079978E-01
        1   -1    0    0  501    0  0.00000000000E+00  0.00000000000E+00  0.24940343984E+04  0.24940343984E+04  0.50400001928E-02 0.  1.
       -1   -1    0    0    0  501  0.00000000000E+00  0.00000000000E+00 -0.13326958867E+04  0.13326958867E+04  0.50400001928E-02 0. -1.
    10030    2    1    2    0    0  0.00000000000E+00  0.00000000000E+00  0.11613385117E+04  0.38267302851E+04  0.36462525332E+04 0.  0.
        1    1    3    3  502    0 -0.31982805062E+03 -0.16746010380E+04 -0.97220174867E+02  0.17076388321E+04  0.50400001928E-02 0. -1.
       -1    1    3    3    0  502  0.31982805062E+03  0.16746010380E+04  0.12585586865E+04  0.21190914530E+04  0.50400001928E-02 0.  1.
</event>
<event>
 5   0  0.8452742E-07  0.3611385E+04  0.7818609E-02  0.8087889E-01
        1   -1    0    0  501    0  0.00000000000E+00  0.00000000000E+00  0.18711055659E+04  0.18711055659E+04  0.50400001928E-02 0.  1.
       -1   -1    0    0    0  501  0.00000000000E+00  0.00000000000E+00 -0.17425662996E+04  0.17425662996E+04  0.50400001928E-02 0. -1.
    10030    2    1    2    0    0  0.00000000000E+00  0.00000000000E+00  0.12853926631E+03  0.36136718655E+04  0.36113850541E+04 0.  0.
        1    1    3    3  502    0 -0.13978155288E+04  0.54060157705E+03 -0.94353603144E+03  0.17709880181E+04  0.50400001928E-02 0. -1.
       -1    1    3    3    0  502  0.13978155288E+04 -0.54060157705E+03  0.10720752977E+04  0.18426838474E+04  0.50400001928E-02 0.  1.
</event>
<event>
 5   0  0.1634374E-06  0.3518862E+04  0.7818609E-02  0.8109334E-01
       -1   -1    0    0    0  501  0.00000000000E+00  0.00000000000E+00  0.15055669288E+04  0.15055669288E+04  0.50400001928E-02 0.  1.
        1   -1    0    0  501    0  0.00000000000E+00  0.00000000000E+00 -0.20561008841E+04  0.20561008841E+04  0.50400001928E-02 0. -1.
    10030    2    1    2    0    0  0.00000000000E+00  0.00000000000E+00 -0.55053395536E+03  0.35616678129E+04  0.35188620282E+04 0.  0.
        5    1    3    3  502    0 -0.14357776883E+04  0.86424174328E+03 -0.81770040724E+03  0.18646789019E+04  0.46999998093E+01 0. -1.
       -5    1    3    3    0  502  0.14357776883E+04 -0.86424174328E+03  0.26716645187E+03  0.16969889110E+04  0.46999998093E+01 0.  1.
</event>
<event>
 5   0  0.2382711E-06  0.3620575E+04  0.7818609E-02  0.8085795E-01
       -2   -1    0    0    0  501  0.00000000000E+00  0.00000000000E+00  0.13113353589E+04  0.13113353589E+04  0.25500000920E-02 0.  1.
        2   -1    0    0  501    0  0.00000000000E+00  0.00000000000E+00 -0.24990868895E+04  0.24990868895E+04  0.25500000920E-02 0. -1.
    10030    2    1    2    0    0  0.00000000000E+00  0.00000000000E+00 -0.11877515306E+04  0.38104222484E+04  0.36205750942E+04 0.  0.
        5    1    3    3  502    0 -0.11552583954E+02 -0.95541790713E+03  0.10243315783E+04  0.14007976698E+04  0.46999998093E+01 0.  1.
       -5    1    3    3    0  502  0.11552583954E+02  0.95541790713E+03 -0.22120831088E+04  0.24096245786E+04  0.46999998093E+01 0. -1.
</event>
<event>
 5   0  0.2382711E-06  0.3539335E+04  0.7818609E-02  0.8104531E-01
       -2   -1    0    0    0  501  0.00000000000E+00  0.00000000000E+00  0.22583108043E+04  0.22583108043E+04  0.25500000920E-02 0.  1.
        2   -1    0    0  501    0  0.00000000000E+00  0.00000000000E+00 -0.13867548439E+04  0.13867548439E+04  0.25500000920E-02 0. -1.
    10030    2    1    2    0    0  0.00000000000E+00  0.00000000000E+00  0.87155596044E+03  0.36450656483E+04  0.35393352184E+04 0.  0.
        5    1    3    3  502    0  0.64749691250E+03  0.10231097752E+04  0.17649508317E+04  0.21403456245E+04  0.46999998093E+01 0.  1.
       -5    1    3    3    0  502 -0.64749691250E+03 -0.10231097752E+04 -0.89339487129E+03  0.15047200238E+04  0.46999998093E+01 0. -1.
</event>
<event>
 5   0  0.1513502E-06  0.3599684E+04  0.7818609E-02  0.8090564E-01
       -2   -1    0    0    0  501  0.00000000000E+00  0.00000000000E+00  0.13459173106E+04  0.13459173107E+04  0.25500000920E-02 0. -1.
        2   -1    0    0  501    0  0.00000000000E+00  0.00000000000E+00 -0.24068579642E+04  0.24068579642E+04  0.25500000920E-02 0.  1.
    10030    2    1    2    0    0  0.00000000000E+00  0.00000000000E+00 -0.10609406535E+04  0.37527752748E+04  0.35996843185E+04 0.  0.
        3    1    3    3  502    0  0.12514535343E+04  0.12350898215E+04 -0.93133455001E+03  0.19897152736E+04  0.10100000352E+00 0.  1.
       -3    1    3    3    0  502 -0.12514535343E+04 -0.12350898215E+04 -0.12960610352E+03  0.17630600012E+04  0.10100000352E+00 0. -1.
</event>
<event>
 5   0  0.8452742E-07  0.3589265E+04  0.7818609E-02  0.8092955E-01
       -1   -1    0    0    0  501  0.00000000000E+00  0.00000000000E+00  0.18287387588E+04  0.18287387588E+04  0.50400001928E-02 0.  1.
        1   -1    0    0  501    0  0.00000000000E+00  0.00000000000E+00 -0.17611620359E+04  0.17611620359E+04  0.50400001928E-02 0. -1.
    10030    2    1    2    0    0  0.00000000000E+00  0.00000000000E+00  0.67576722906E+02  0.35899007947E+04  0.35892647021E+04 0.  0.
        1    1    3    3  502    0  0.68866980889E+03  0.16458446516E+04  0.22781901158E+03  0.17986028535E+04  0.50400001928E-02 0. -1.
       -1    1    3    3    0  502 -0.68866980889E+03 -0.16458446516E+04 -0.16024228867E+03  0.17912979411E+04  0.50400001928E-02 0.  1.
</event>
<event>
 5   0  0.1513502E-06  0.3076495E+04  0.7818609E-02  0.8222218E-01
       -2   -1    0    0    0  501  0.00000000000E+00  0.00000000000E+00  0.28706323445E+04  0.28706323445E+04  0.25500000920E-02 0. -1.
        2   -1    0    0  501    0  0.00000000000E+00  0.00000000000E+00 -0.82428039542E+03  0.82428039543E+03  0.25500000920E-02 0.  1.
    10030    2    1    2    0    0  0.00000000000E+00  0.00000000000E+00  0.20463519491E+04  0.36949127400E+04  0.30764953854E+04 0.  0.
        3    1    3    3  502    0 -0.88408072882E+03  0.12490154651E+03  0.25275656162E+04  0.26806318445E+04  0.10100000352E+00 0. -1.
       -3    1    3    3    0  502  0.88408072882E+03 -0.12490154651E+03 -0.48121366706E+03  0.10142808955E+04  0.10100000352E+00 0.  1.
</event>
<event>
 5   0  0.8452742E-07  0.2409302E+04  0.7818609E-02  0.8436029E-01
       -1   -1    0    0    0  501  0.00000000000E+00  0.00000000000E+00  0.11556758945E+04  0.11556758946E+04  0.50400001928E-02 0.  1.
        1   -1    0    0  501    0  0.00000000000E+00  0.00000000000E+00 -0.12557018341E+04  0.12557018341E+04  0.50400001928E-02 0. -1.
    10030    2    1    2    0    0  0.00000000000E+00  0.00000000000E+00 -0.10002593953E+03  0.24113777286E+04  0.24093022562E+04 0.  0.
        1    1    3    3  502    0  0.59847133739E+03 -0.20487003104E+03 -0.10761008196E+04  0.12482518357E+04  0.50400001928E-02 0. -1.
       -1    1    3    3    0  502 -0.59847133739E+03  0.20487003104E+03  0.97607488008E+03  0.11631258929E+04  0.50400001928E-02 0.  1.
</event>
<event>
 5   0  0.1566576E-06  0.3189490E+04  0.7818609E-02  0.8191598E-01
       -2   -1    0    0    0  501  0.00000000000E+00  0.00000000000E+00  0.10499910504E+04  0.10499910504E+04  0.25500000920E-02 0.  1.
        2   -1    0    0  501    0  0.00000000000E+00  0.00000000000E+00 -0.24221266584E+04  0.24221266584E+04  0.25500000920E-02 0. -1.
    10030    2    1    2    0    0  0.00000000000E+00  0.00000000000E+00 -0.13721356080E+04  0.34721177088E+04  0.31894898114E+04 0.  0.
        4    1    3    3  502    0  0.70345846277E+03 -0.11225380565E+04 -0.16525839719E+04  0.21180134311E+04  0.12699999809E+01 0. -1.
       -4    1    3    3    0  502 -0.70345846277E+03  0.11225380565E+04  0.28044836391E+03  0.13541042777E+04  0.12699999809E+01 0.  1.
</event>
<event>
 5   0  0.8423692E-07  0.3428426E+04  0.7818609E-02  0.8130965E-01
        1   -1    0    0  501    0  0.00000000000E+00  0.00000000000E+00  0.13702607244E+04  0.13702607244E+04  0.50400001928E-02 0. -1.
       -1   -1    0    0    0  501  0.00000000000E+00  0.00000000000E+00 -0.21445018256E+04  0.21445018256E+04  0.50400001928E-02 0.  1.
    10030    2    1    2    0    0  0.00000000000E+00  0.00000000000E+00 -0.77424110115E+03  0.35147625500E+04  0.34284262425E+04 0.  0.
        2    1    3    3  502    0  0.68378658800E+03 -0.10634876070E+04 -0.15738358780E+04  0.20187940358E+04  0.25500000920E-02 0.  1.
       -2    1    3    3    0  502 -0.68378658800E+03  0.10634876070E+04  0.79959477689E+03  0.14959685141E+04  0.25500000920E-02 0. -1.
</event>
<event>
 5   0  0.1566576E-06  0.3373245E+04  0.7818609E-02  0.8144504E-01
        2   -1    0    0  501    0  0.00000000000E+00  0.00000000000E+00  0.11347208739E+04  0.11347208739E+04  0.25500000920E-02 0.  1.
       -2   -1    0    0    0  501  0.00000000000E+00  0.00000000000E+00 -0.25069565201E+04  0.25069565201E+04  0.25500000920E-02 0. -1.
    10030    2    1    2    0    0  0.00000000000E+00  0.00000000000E+00 -0.13722356463E+04  0.36416773940E+04  0.33732452583E+04 0.  0.
        4    1    3    3  502    0 -0.27710571967E+03 -0.88498868550E+03  0.83478398241E+03  0.12477413448E+04  0.12699999809E+01 0.  1.
       -4    1    3    3    0  502  0.27710571967E+03  0.88498868550E+03 -0.22070196287E+04  0.23939360492E+04  0.12699999809E+01 0. -1.
</event>
<event>
 5   0  0.2422436E-06  0.3607973E+04  0.7818609E-02  0.8088668E-01
       -2   -1    0    0    0  501  0.00000000000E+00  0.00000000000E+00  0.13286433425E+04  0.13286433425E+04  0.25500000920E-02 0.  1.
        2   -1    0    0  501    0  0.00000000000E+00  0.00000000000E+00 -0.24493906434E+04  0.24493906434E+04  0.25500000920E-02 0. -1.
    10030    2    1    2    0    0  0.00000000000E+00  0.00000000000E+00 -0.11207473009E+04  0.37780339859E+04  0.36079726005E+04 0.  0.
        2    1    3    3  502    0  0.33791654391E+03  0.64694861865E+03 -0.22878721832E+04  0.24014764692E+04  0.25500000920E-02 0. -1.
       -2    1    3    3    0  502 -0.33791654391E+03 -0.64694861865E+03  0.11671248823E+04  0.13765575167E+04  0.25500000920E-02 0.  1.
</event>
<event>
 5   0  0.7754556E-07  0.3612462E+04  0.7818609E-02  0.8087643E-01
        1   -1    0    0  501    0  0.00000000000E+00  0.00000000000E+00  0.19758945196E+04  0.19758945196E+04  0.50400001928E-02 0. -1.
       -1   -1    0    0    0  501  0.00000000000E+00  0.00000000000E+00 -0.16511356306E+04  0.16511356306E+04  0.50400001928E-02 0.  1.
    10030    2    1    2    0    0  0.00000000000E+00  0.00000000000E+00  0.32475888900E+03  0.36270301501E+04  0.36124616779E+04 0.  0.
        4    1    3    3  502    0  0.11007124247E+04  0.14298274803E+04  0.24328832780E+03  0.18207595362E+04  0.12699999809E+01 0.  1.
       -4    1    3    3    0  502 -0.11007124247E+04 -0.14298274803E+04  0.81470561204E+02  0.18062706139E+04  0.12699999809E+01 0. -1.
</event>
<event>
 5   0  0.7754556E-07  0.3659912E+04  0.7818609E-02  0.8076904E-01
       -1   -1    0    0    0  501  0.00000000000E+00  0.00000000000E+00  0.15530916026E+04  0.15530916026E+04  0.50400001928E-02 0. -1.
        1   -1    0    0  501    0  0.00000000000E+00  0.00000000000E+00 -0.21561764100E+04  0.21561764100E+04  0.50400001928E-02 0.  1.
    10030    2    1    2    0    0  0.00000000000E+00  0.00000000000E+00 -0.60308480745E+03  0.37092680126E+04  0.36599122810E+04 0.  0.
        4    1    3    3  502    0 -0.76739347678E+03 -0.20377585398E+03  0.13694245816E+04  0.15829537721E+04  0.12699999809E+01 0. -1.
       -4    1    3    3    0  502  0.76739347678E+03  0.20377585398E+03 -0.19725093891E+04  0.21263142406E+04  0.12699999809E+01 0.  1.
</event>
<event>
 5   0  0.1513502E-06  0.3600893E+04  0.7818609E-02  0.8090287E-01
       -2   -1    0    0    0  501  0.00000000000E+00  0.00000000000E+00  0.30043891255E+04  0.30043891255E+04  0.25500000920E-02 0. -1.
        2   -1    0    0  501    0  0.00000000000E+00  0.00000000000E+00 -0.10789573141E+04  0.10789573141E+04  0.25500000920E-02 0.  1.
    10030    2    1    2    0    0  0.00000000000E+00  0.00000000000E+00  0.19254318114E+04  0.40833464396E+04  0.36008930122E+04 0.  0.
        3    1    3    3  502    0  0.19695449648E+03  0.16169789299E+04  0.93021003883E+02  0.16315835409E+04  0.10100000352E+00 0.  1.
       -3    1    3    3    0  502 -0.19695449648E+03 -0.16169789299E+04  0.18324108075E+04  0.24517628987E+04  0.10100000352E+00 0. -1.
</event>
<event>
 5   0  0.1513502E-06  0.3592325E+04  0.7818609E-02  0.8092252E-01
       -2   -1    0    0    0  501  0.00000000000E+00  0.00000000000E+00  0.14251745140E+04  0.14251745140E+04  0.25500000920E-02 0.  1.
        2   -1    0    0  501    0  0.00000000000E+00  0.00000000000E+00 -0.22637220875E+04  0.22637220875E+04  0.25500000920E-02 0. -1.
    10030    2    1    2    0    0  0.00000000000E+00  0.00000000000E+00 -0.83854757349E+03  0.36888966015E+04  0.35923246100E+04 0.  0.
        3    1    3    3  502    0  0.16602277441E+04 -0.95614661209E+02 -0.11162698741E+04  0.20028871081E+04  0.10100000352E+00 0. -1.
       -3    1    3    3    0  502 -0.16602277441E+04  0.95614661209E+02  0.27772230066E+03  0.16860094935E+04  0.10100000352E+00 0.  1.
</event>
<event>
 5   0  0.1513502E-06  0.3477195E+04  0.7818609E-02  0.8119216E-01
        2   -1    0    0  501    0  0.00000000000E+00  0.00000000000E+00  0.29032930473E+04  0.29032930473E+04  0.25500000920E-02 0.  1.
       -2   -1    0    0    0  501  0.00000000000E+00  0.00000000000E+00 -0.10411353714E+04  0.10411353714E+04  0.25500000920E-02 0. -1.
    10030    2    1    2    0    0  0.00000000000E+00  0.00000000000E+00  0.18621576759E+04  0.39444284187E+04  0.34771948953E+04 0.  0.
        3    1    3    3  502    0  0.55130418778E+03 -0.11607907325E+04  0.22594796872E+04  0.25993498994E+04  0.10100000352E+00 0.  1.
       -3    1    3    3    0  502 -0.55130418778E+03  0.11607907325E+04 -0.39732201129E+03  0.13450785193E+04  0.10100000352E+00 0. -1.
</event>
<event>
 5   0  0.2382711E-06  0.2176219E+04  0.7818609E-02  0.8528392E-01
       -2   -1    0    0    0  501  0.00000000000E+00  0.00000000000E+00  0.73527835223E+03  0.73527835224E+03  0.25500000920E-02 0. -1.
        2   -1    0    0  501    0  0.00000000000E+00  0.00000000000E+00 -0.16102502400E+04  0.16102502400E+04  0.25500000920E-02 0.  1.
    10030    2    1    2    0    0  0.00000000000E+00  0.00000000000E+00 -0.87497188773E+03  0.23455285922E+04  0.21762188705E+04 0.  0.
        5    1    3    3  502    0 -0.64333846480E+03 -0.75294755673E+03 -0.92326850781E+03  0.13539797750E+04  0.46999998093E+01 0. -1.
       -5    1    3    3    0  502  0.64333846480E+03  0.75294755673E+03  0.48296620081E+02  0.99154881725E+03  0.46999998093E+01 0.  1.
</event>
<event>
 5   0  0.1566576E-06  0.3620217E+04  0.7818609E-02  0.8085876E-01
       -2   -1    0    0    0  501  0.00000000000E+00  0.00000000000E+00  0.12346707013E+04  0.12346707013E+04  0.25500000920E-02 0.  1.
        2   -1    0    0  501    0  0.00000000000E+00  0.00000000000E+00 -0.26537378893E+04  0.26537378893E+04  0.25500000920E-02 0. -1.
    10030    2    1    2    0    0  0.00000000000E+00  0.00000000000E+00 -0.14190671880E+04  0.38884085907E+04  0.36202168007E+04 0.  0.
        4    1    3    3  502    0 -0.12856761758E+04  0.16551909269E+03 -0.20665077671E+04  0.24394293930E+04  0.12699999809E+01 0.  1.
       -4    1    3    3    0  502  0.12856761758E+04 -0.16551909269E+03  0.64744057903E+03  0.14489791977E+04  0.12699999809E+01 0. -1.
</event>
<event>
 5   0  0.7754556E-07  0.3538968E+04  0.7818609E-02  0.8104617E-01
        1   -1    0    0  501    0  0.00000000000E+00  0.00000000000E+00  0.15274170877E+04  0.15274170877E+04  0.50400001928E-02 0. -1.
       -1   -1    0    0    0  501  0.00000000000E+00  0.00000000000E+00 -0.20499136916E+04  0.20499136917E+04  0.50400001928E-02 0.  1.
    10030    2    1    2    0    0  0.00000000000E+00  0.00000000000E+00 -0.52249660392E+03  0.35773307794E+04  0.35389677597E+04 0.  0.
        4    1    3    3  502    0  0.97060418411E+03 -0.84030553712E+03 -0.14921867390E+04  0.19684533916E+04  0.12699999809E+01 0.  1.
       -4    1    3    3    0  502 -0.97060418411E+03  0.84030553712E+03  0.96969013509E+03  0.16088773878E+04  0.12699999809E+01 0. -1.
</event>
<event>
 5   0  0.2536619E-06  0.3634842E+04  0.7818609E-02  0.8082557E-01
        2   -1    0    0  501    0  0.00000000000E+00  0.00000000000E+00  0.25401417674E+04  0.25401417674E+04  0.25500000920E-02 0.  1.
       -2   -1    0    0    0  501  0.00000000000E+00  0.00000000000E+00 -0.13003287355E+04  0.13003287355E+04  0.25500000920E-02 0. -1.
    10030    2    1    2    0    0  0.00000000000E+00  0.00000000000E+00  0.12398130319E+04  0.38404705029E+04  0.36348421327E+04 0.  0.
        1    1    3    3  502    0 -0.15030471955E+04  0.89256218086E+03  0.11452268114E+04  0.20898235734E+04  0.50400001928E-02 0.  1.
       -1    1    3    3    0  502  0.15030471955E+04 -0.89256218086E+03  0.94586220476E+02  0.17506469295E+04  0.50400001928E-02 0. -1.
</event>
<event>
 5   0  0.7754556E-07  0.3604379E+04  0.7818609E-02  0.8089489E-01
       -1   -1    0    0    0  501  0.00000000000E+00  0.00000000000E+00  0.12444311537E+04  0.12444311537E+04  0.50400001928E-02 0.  1.
        1   -1    0    0  501    0  0.00000000000E+00  0.00000000000E+00 -0.26099367654E+04  0.26099367654E+04  0.50400001928E-02 0. -1.
    10030    2    1    2    0    0  0.00000000000E+00  0.00000000000E+00 -0.13655056117E+04  0.38543679190E+04  0.36043787925E+04 0.  0.
        4    1    3    3  502    0  0.15578253376E+04 -0.27356394364E+03  0.24100582818E+03  0.15999195091E+04  0.12699999809E+01 0.  1.
       -4    1    3    3    0  502 -0.15578253376E+04  0.27356394364E+03 -0.16065114399E+04  0.22544484099E+04  0.12699999809E+01 0. -1.
</event>
<event>
 5   0  0.1513502E-06  0.3576370E+04  0.7818609E-02  0.8095926E-01
       -2   -1    0    0    0  501  0.00000000000E+00  0.00000000000E+00  0.19317808637E+04  0.19317808637E+04  0.25500000920E-02 0. -1.
        2   -1    0    0  501    0  0.00000000000E+00  0.00000000000E+00 -0.16552629865E+04  0.16552629865E+04  0.25500000920E-02 0.  1.
    10030    2    1    2    0    0  0.00000000000E+00  0.00000000000E+00  0.27651787712E+03  0.35870438502E+04  0.35763698700E+04 0.  0.
        3    1    3    3  502    0  0.71035395832E+03  0.54767568331E+03  0.16898258286E+04  0.19131290447E+04  0.10100000352E+00 0. -1.
       -3    1    3    3    0  502 -0.71035395832E+03 -0.54767568331E+03 -0.14133079515E+04  0.16739148055E+04  0.10100000352E+00 0.  1.
</event>
<event>
 5   0  0.8423692E-07  0.2545764E+04  0.7818609E-02  0.8386861E-01
       -1   -1    0    0    0  501  0.00000000000E+00  0.00000000000E+00  0.15254341611E+04  0.15254341611E+04  0.50400001928E-02 0.  1.
        1   -1    0    0  501    0  0.00000000000E+00  0.00000000000E+00 -0.10621427110E+04  0.10621427110E+04  0.50400001928E-02 0. -1.
    10030    2    1    2    0    0  0.00000000000E+00  0.00000000000E+00  0.46329145011E+03  0.25875768720E+04  0.25457641487E+04 0.  0.
        2    1    3    3  502    0  0.12387014082E+04 -0.22406268636E+03  0.42354145992E+03  0.13281463151E+04  0.25500000920E-02 0.  1.
       -2    1    3    3    0  502 -0.12387014082E+04  0.22406268636E+03  0.39749990190E+02  0.12594305569E+04  0.25500000920E-02 0. -1.
</event>
<event>
 5   0  0.2422436E-06  0.3254911E+04  0.7818609E-02  0.8174464E-01
        2   -1    0    0  501    0  0.00000000000E+00  0.00000000000E+00  0.19745624351E+04  0.19745624351E+04  0.25500000920E-02 0.  1.
       -2   -1    0    0    0  501  0.00000000000E+00  0.00000000000E+00 -0.13413660490E+04  0.13413660490E+04  0.25500000920E-02 0. -1.
    10030    2    1    2    0    0  0.00000000000E+00  0.00000000000E+00  0.63319638610E+03  0.33159284841E+04  0.32549107589E+04 0.  0.
        2    1    3    3  502    0  0.71975122478E+03 -0.14591845845E+04  0.35402287644E+03  0.16651107093E+04  0.25500000920E-02 0.  1.
       -2    1    3    3    0  502 -0.71975122478E+03  0.14591845845E+04  0.27917350967E+03  0.16508177748E+04  0.25500000920E-02 0. -1.
</event>
<event>
 5   0  0.2536619E-06  0.3153519E+04  0.7818609E-02  0.8201202E-01
       -2   -1    0    0    0  501  0.00000000000E+00  0.00000000000E+00  0.18609138665E+04  0.18609138665E+04  0.25500000920E-02 0. -1.
        2   -1    0    0  501    0  0.00000000000E+00  0.00000000000E+00 -0.13359941862E+04  0.13359941862E+04  0.25500000920E-02 0.  1.
    10030    2    1    2    0    0  0.00000000000E+00  0.00000000000E+00  0.52491968032E+03  0.31969080527E+04  0.31535187373E+04 0.  0.
        1    1    3    3  502    0 -0.15190933038E+04  0.39627501959E+03  0.11384211227E+03  0.15740515822E+04  0.50400001928E-02 0. -1.
       -1    1    3    3    0  502  0.15190933038E+04 -0.39627501959E+03  0.41107756804E+03  0.16228564705E+04  0.50400001928E-02 0.  1.
</event>
<event>
 5   0  0.1908273E-06  0.2018503E+04  0.7818609E-02  0.8598018E-01
        1   -1    0    0  501    0  0.00000000000E+00  0.00000000000E+00  0.17365565931E+04  0.17365565931E+04  0.50400001928E-02 0.  1.
       -1   -1    0    0    0  501  0.00000000000E+00  0.00000000000E+00 -0.58655676659E+03  0.58655676661E+03  0.50400001928E-02 0. -1.
    10030    2    1    2    0    0  0.00000000000E+00  0.00000000000E+00  0.11499998265E+04  0.23231133597E+04  0.20185034261E+04 0.  0.
        3    1    3    3  502    0  0.46597849899E+03 -0.52257471886E+03 -0.26158390047E+03  0.74742654857E+03  0.10100000352E+00 0. -1.
       -3    1    3    3    0  502 -0.46597849899E+03  0.52257471886E+03  0.14115837270E+04  0.15756868111E+04  0.10100000352E+00 0.  1.
</event>
<event>
 5   0  0.2382711E-06  0.2239629E+04  0.7818609E-02  0.8502112E-01
        2   -1    0    0  501    0  0.00000000000E+00  0.00000000000E+00  0.14435808322E+04  0.14435808322E+04  0.25500000920E-02 0.  1.
       -2   -1    0    0    0  501  0.00000000000E+00  0.00000000000E+00 -0.86866272024E+03  0.86866272024E+03  0.25500000920E-02 0. -1.
    10030    2    1    2    0    0  0.00000000000E+00  0.00000000000E+00  0.57491811194E+03  0.23122435524E+04  0.22396293020E+04 0.  0.
        5    1    3    3  502    0 -0.65005458294E+03  0.77186180932E+03 -0.21368729335E+03  0.10315163415E+04  0.46999998093E+01 0. -1.
       -5    1    3    3    0  502  0.65005458294E+03 -0.77186180932E+03  0.78860540529E+03  0.12807272109E+04  0.46999998093E+01 0.  1.
</event>
<event>
 5   0  0.1579354E-06  0.1914355E+04  0.7818609E-02  0.8647744E-01
        2   -1    0    0  501    0  0.00000000000E+00  0.00000000000E+00  0.18551664748E+04  0.18551664748E+04  0.25500000920E-02 0. -1.
       -2   -1    0    0    0  501  0.00000000000E+00  0.00000000000E+00 -0.49385791968E+03  0.49385791969E+03  0.25500000920E-02 0.  1.
    10030    2    1    2    0    0  0.00000000000E+00  0.00000000000E+00  0.13613085551E+04  0.23490243945E+04  0.19143548845E+04 0.  0.
        4    1    3    3  502    0  0.60793497165E+03  0.70223414705E+03  0.96439220391E+03  0.13389442344E+04  0.12699999809E+01 0. -1.
       -4    1    3    3    0  502 -0.60793497165E+03 -0.70223414705E+03  0.39691635124E+03  0.10100801601E+04  0.12699999809E+01 0.  1.
</event>
<event>
 5   0  0.2422436E-06  0.2221297E+04  0.7818609E-02  0.8509616E-01
       -2   -1    0    0    0  501  0.00000000000E+00  0.00000000000E+00  0.63579553007E+03  0.63579553007E+03  0.25500000920E-02 0.  1.
        2   -1    0    0  501    0  0.00000000000E+00  0.00000000000E+00 -0.19401514106E+04  0.19401514106E+04  0.25500000920E-02 0. -1.
    10030    2    1    2    0    0  0.00000000000E+00  0.00000000000E+00 -0.13043558806E+04  0.25759469407E+04  0.22212965534E+04 0.  0.
        2    1    3    3  502    0 -0.48016141241E+03 -0.31959517960E+03 -0.17528426783E+04  0.18453058055E+04  0.25500000920E-02 0. -1.
       -2    1    3    3    0  502  0.48016141241E+03  0.31959517960E+03  0.44848679772E+03  0.73064113526E+03  0.25500000920E-02 0.  1.
</event>
<event>
 5   0  0.2382711E-06  0.3630282E+04  0.7818609E-02  0.8083590E-01
        2   -1    0    0  501    0  0.00000000000E+00  0.00000000000E+00  0.24917192545E+04  0.24917192545E+04  0.25500000920E-02 0. -1.
       -2   -1    0    0    0  501  0.00000000000E+00  0.00000000000E+00 -0.13222745114E+04  0.13222745114E+04  0.25500000920E-02 0.  1.
    10030    2    1    2    0    0  0.00000000000E+00  0.00000000000E+00  0.11694447431E+04  0.38139937659E+04  0.36302820054E+04 0.  0.
        5    1    3    3  502    0  0.29547615042E+03  0.17000546004E+04 -0.70053684222E+01  0.17255616375E+04  0.46999998093E+01 0.  1.
       -5    1    3    3    0  502 -0.29547615042E+03 -0.17000546004E+04  0.11764501115E+04  0.20884321283E+04  0.46999998093E+01 0. -1.
</event>
<event>
 5   0  0.1566576E-06  0.3608908E+04  0.7818609E-02  0.8088454E-01
       -2   -1    0    0    0  501  0.00000000000E+00  0.00000000000E+00  0.13711455812E+04  0.13711455812E+04  0.25500000920E-02 0. -1.
        2   -1    0    0  501    0  0.00000000000E+00  0.00000000000E+00 -0.23746955962E+04  0.23746955962E+04  0.25500000920E-02 0.  1.
    10030    2    1    2    0    0  0.00000000000E+00  0.00000000000E+00 -0.10035500150E+04  0.37458411774E+04  0.36089075208E+04 0.  0.
        4    1    3    3  502    0 -0.58525943569E+03  0.45037248901E+03  0.12071120268E+04  0.14150918854E+04  0.12699999809E+01 0. -1.
       -4    1    3    3    0  502  0.58525943569E+03 -0.45037248901E+03 -0.22106620419E+04  0.23307492920E+04  0.12699999809E+01 0.  1.
</event>
<event>
 5   0  0.1513502E-06  0.3140533E+04  0.7818609E-02  0.8204701E-01
        2   -1    0    0  501    0  0.00000000000E+00  0.00000000000E+00  0.17155503622E+04  0.17155503622E+04  0.25500000920E-02 0.  1.
       -2   -1    0    0    0  501  0.00000000000E+00  0.00000000000E+00 -0.14372860227E+04  0.14372860227E+04  0.25500000920E-02 0. -1.
    10030    2    1    2    0    0  0.00000000000E+00  0.00000000000E+00  0.27826433948E+03  0.31528363848E+04  0.31405327935E+04 0.  0.
        3    1    3    3  502    0 -0.11225237273E+04  0.10256934815E+03  0.12366472603E+04  0.16732831338E+04  0.10100000352E+00 0.  1.
       -3    1    3    3    0  502  0.11225237273E+04 -0.10256934815E+03 -0.95838292079E+03  0.14795532510E+04  0.10100000352E+00 0. -1.
</event>
<event>
 5   0  0.1566576E-06  0.3761473E+04  0.7818609E-02  0.8054474E-01
        2   -1    0    0  501    0  0.00000000000E+00  0.00000000000E+00  0.23717865737E+04  0.23717865737E+04  0.25500000920E-02 0.  1.
       -2   -1    0    0    0  501  0.00000000000E+00  0.00000000000E+00 -0.14913523551E+04  0.14913523551E+04  0.25500000920E-02 0. -1.
    10030    2    1    2    0    0  0.00000000000E+00  0.00000000000E+00  0.88043421859E+03  0.38631389288E+04  0.37614728459E+04 0.  0.
        4    1    3    3  502    0  0.24492438928E+03 -0.18421096565E+04  0.73754478383E+03  0.19993323545E+04  0.12699999809E+01 0.  1.
       -4    1    3    3    0  502 -0.24492438928E+03  0.18421096565E+04  0.14288943476E+03  0.18638065743E+04  0.12699999809E+01 0. -1.
</event>
<event>
 5   0  0.2422436E-06  0.1798782E+04  0.7818609E-02  0.8706947E-01
        2   -1    0    0  501    0  0.00000000000E+00  0.00000000000E+00  0.76855660038E+03  0.76855660038E+03  0.25500000920E-02 0. -1.
       -2   -1    0    0    0  501  0.00000000000E+00  0.00000000000E+00 -0.10524983813E+04  0.10524983813E+04  0.25500000920E-02 0.  1.
    10030    2    1    2    0    0  0.00000000000E+00  0.00000000000E+00 -0.28394178095E+03  0.18210549817E+04  0.17987824525E+04 0.  0.
        2    1    3    3  502    0 -0.73521746091E+03  0.35842122308E+03  0.23668446153E+03  0.85148694782E+03  0.25500000920E-02 0.  1.
       -2    1    3    3    0  502  0.73521746091E+03 -0.35842122308E+03 -0.52062624248E+03  0.96956803389E+03  0.25500000920E-02 0. -1.
</event>
<event>
 5   0  0.1513502E-06  0.3642856E+04  0.7818609E-02  0.8080745E-01
        2   -1    0    0  501    0  0.00000000000E+00  0.00000000000E+00  0.22623143029E+04  0.22623143029E+04  0.25500000920E-02 0.  1.
       -2   -1    0    0    0  501  0.00000000000E+00  0.00000000000E+00 -0.14664627137E+04  0.14664627137E+04  0.25500000920E-02 0. -1.
    10030    2    1    2    0    0  0.00000000000E+00  0.00000000000E+00  0.79585158917E+03  0.37287770167E+04  0.36428557874E+04 0.  0.
        3    1    3    3  502    0 -0.24229115693E+03  0.16339958141E+04  0.11834588625E+04  0.20320487727E+04  0.10100000352E+00 0.  1.
       -3    1    3    3    0  502  0.24229115693E+03 -0.16339958141E+04 -0.38760727330E+03  0.16967282440E+04  0.10100000352E+00 0. -1.
</event>
<event>
 5   0  0.7754556E-07  0.3667956E+04  0.7818609E-02  0.8075100E-01
        1   -1    0    0  501    0  0.00000000000E+00  0.00000000000E+00  0.18238187820E+04  0.18238187820E+04  0.50400001928E-02 0. -1.
       -1   -1    0    0    0  501  0.00000000000E+00  0.00000000000E+00 -0.18441939682E+04  0.18441939682E+04  0.50400001928E-02 0.  1.
    10030    2    1    2    0    0  0.00000000000E+00  0.00000000000E+00 -0.20375186164E+02  0.36680127503E+04  0.36679561595E+04 0.  0.
        4    1    3    3  502    0  0.30641658103E+03 -0.12892443159E+04 -0.12780525534E+04  0.18410491491E+04  0.12699999809E+01 0.  1.
       -4    1    3    3    0  502 -0.30641658103E+03  0.12892443159E+04  0.12576773672E+04  0.18269636012E+04  0.12699999809E+01 0. -1.
</event>
<event>
 5   0  0.1682871E-06  0.1986555E+04  0.7818609E-02  0.8612933E-01
        2   -1    0    0  501    0  0.00000000000E+00  0.00000000000E+00  0.17053641647E+04  0.17053641647E+04  0.25500000920E-02 0. -1.
       -2   -1    0    0    0  501  0.00000000000E+00  0.00000000000E+00 -0.57852755300E+03  0.57852755300E+03  0.25500000920E-02 0.  1.
    10030    2    1    2    0    0  0.00000000000E+00  0.00000000000E+00  0.11268366117E+04  0.22838917177E+04  0.19865549649E+04 0.  0.
        3    1    3    3  502    0 -0.81351713353E+03  0.34766691549E+03  0.10825797412E+04  0.13980920273E+04  0.10100000352E+00 0.  1.
       -3    1    3    3    0  502  0.81351713353E+03 -0.34766691549E+03  0.44256870518E+02  0.88579969037E+03  0.10100000352E+00 0. -1.
</event>
<event>
 5   0  0.7754556E-07  0.2988818E+04  0.7818609E-02  0.8246931E-01
        1   -1    0    0  501    0  0.00000000000E+00  0.00000000000E+00  0.19188312875E+04  0.19188312875E+04  0.50400001928E-02 0.  1.
       -1   -1    0    0    0  501  0.00000000000E+00  0.00000000000E+00 -0.11638640104E+04  0.11638640104E+04  0.50400001928E-02 0. -1.
    10030    2    1    2    0    0  0.00000000000E+00  0.00000000000E+00  0.75496727704E+03  0.30826952979E+04  0.29888182799E+04 0.  0.
        4    1    3    3  502    0 -0.10669920038E+04 -0.19577545872E+03 -0.68264122903E+03  0.12817178422E+04  0.12699999809E+01 0. -1.
       -4    1    3    3    0  502  0.10669920038E+04  0.19577545872E+03  0.14376085061E+04  0.18009774557E+04  0.12699999809E+01 0.  1.
</event>
<event>
 5   0  0.2422436E-06  0.2742143E+04  0.7818609E-02  0.8321459E-01
        2   -1    0    0  501    0  0.00000000000E+00  0.00000000000E+00  0.15509972598E+04  0.15509972598E+04  0.25500000920E-02 0. -1.
       -2   -1    0    0    0  501  0.00000000000E+00  0.00000000000E+00 -0.12120178658E+04  0.12120178658E+04  0.25500000920E-02 0.  1.
    10030    2    1    2    0    0  0.00000000000E+00  0.00000000000E+00  0.33897939400E+03  0.27630151257E+04  0.27421425118E+04 0.  0.
        2    1    3    3  502    0 -0.49714142527E+03  0.10113047422E+04 -0.61744769953E+03  0.12849624664E+04  0.25500000920E-02 0.  1.
       -2    1    3    3    0  502  0.49714142527E+03 -0.10113047422E+04  0.95642709353E+03  0.14780526593E+04  0.25500000920E-02 0. -1.
</event>
<event>
 5   0  0.1513502E-06  0.3564952E+04  0.7818609E-02  0.8098567E-01
       -2   -1    0    0    0  501  0.00000000000E+00  0.00000000000E+00  0.20444368587E+04  0.20444368587E+04  0.25500000920E-02 0.  1.
        2   -1    0    0  501    0  0.00000000000E+00  0.00000000000E+00 -0.15540812138E+04  0.15540812138E+04  0.25500000920E-02 0. -1.
    10030    2    1    2    0    0  0.00000000000E+00  0.00000000000E+00  0.49035564495E+03  0.35985180725E+04  0.35649521258E+04 0.  0.
        3    1    3    3  502    0  0.70261021606E+03  0.91497834265E+03 -0.11264297484E+04  0.16123555661E+04  0.10100000352E+00 0. -1.
       -3    1    3    3    0  502 -0.70261021606E+03 -0.91497834265E+03  0.16167853934E+04  0.19861625064E+04  0.10100000352E+00 0.  1.
</event>
<event>
 5   0  0.8452742E-07  0.1904954E+04  0.7818609E-02  0.8652394E-01
        1   -1    0    0  501    0  0.00000000000E+00  0.00000000000E+00  0.11918824412E+04  0.11918824412E+04  0.50400001928E-02 0.  1.
       -1   -1    0    0    0  501  0.00000000000E+00  0.00000000000E+00 -0.76115919251E+03  0.76115919253E+03  0.50400001928E-02 0. -1.
    10030    2    1    2    0    0  0.00000000000E+00  0.00000000000E+00  0.43072324872E+03  0.19530416338E+04  0.19049538331E+04 0.  0.
        1    1    3    3  502    0 -0.71132254959E+03  0.42895051905E+03 -0.26248762181E+03  0.87113607948E+03  0.50400001928E-02 0. -1.
       -1    1    3    3    0  502  0.71132254959E+03 -0.42895051905E+03  0.69321087052E+03  0.10819055543E+04  0.50400001928E-02 0.  1.
</event>
<event>
 5   0  0.7754556E-07  0.3517663E+04  0.7818609E-02  0.8109617E-01
       -1   -1    0    0    0  501  0.00000000000E+00  0.00000000000E+00  0.17108493446E+04  0.17108493446E+04  0.50400001928E-02 0. -1.
        1   -1    0    0  501    0  0.00000000000E+00  0.00000000000E+00 -0.18081598204E+04  0.18081598204E+04  0.50400001928E-02 0.  1.
    10030    2    1    2    0    0  0.00000000000E+00  0.00000000000E+00 -0.97310475817E+02  0.35190091651E+04  0.35176634539E+04 0.  0.
        4    1    3    3  502    0 -0.55685712326E+03  0.11160888521E+04  0.11918769169E+04  0.17252003882E+04  0.12699999809E+01 0. -1.
       -4    1    3    3    0  502  0.55685712326E+03 -0.11160888521E+04 -0.12891873927E+04  0.17938087769E+04  0.12699999809E+01 0.  1.
</event>
<event>
 5   0  0.1908273E-06  0.3556172E+04  0.7818609E-02  0.8100605E-01
        1   -1    0    0  501    0  0.00000000000E+00  0.00000000000E+00  0.11572473008E+04  0.11572473008E+04  0.50400001928E-02 0. -1.
       -1   -1    0    0    0  501  0.00000000000E+00  0.00000000000E+00 -0.27319916108E+04  0.27319916108E+04  0.50400001928E-02 0.  1.
    10030    2    1    2    0    0  0.00000000000E+00  0.00000000000E+00 -0.15747443101E+04  0.38892389116E+04  0.35561720529E+04 0.  0.
        3    1    3    3  502    0 -0.77734451782E+03  0.15081402048E+04 -0.20573633633E+03  0.17091163878E+04  0.10100000352E+00 0.  1.
       -3    1    3    3    0  502  0.77734451782E+03 -0.15081402048E+04 -0.13690079737E+04  0.21801225239E+04  0.10100000352E+00 0. -1.
</event>
<event>
 5   0  0.7707500E-07  0.3307142E+04  0.7818609E-02  0.8161080E-01
       -3   -1    0    0    0  501  0.00000000000E+00  0.00000000000E+00  0.23576017212E+04  0.23576017233E+04  0.10100000352E+00 0. -1.
        3   -1    0    0  501    0  0.00000000000E+00  0.00000000000E+00 -0.11597791706E+04  0.11597791750E+04  0.10100000352E+00 0.  1.
    10030    2    1    2    0    0  0.00000000000E+00  0.00000000000E+00  0.11978225506E+04  0.35173808983E+04  0.33071421985E+04 0.  0.
        5    1    3    3  502    0  0.75447612873E+03  0.61420675024E+03 -0.82317164668E+03  0.12744088083E+04  0.46999998093E+01 0.  1.
       -5    1    3    3    0  502 -0.75447612873E+03 -0.61420675024E+03  0.20209941973E+04  0.22429720900E+04  0.46999998093E+01 0. -1.
</event>
<event>
 5   0  0.8452742E-07  0.2454658E+04  0.7818609E-02  0.8419319E-01
        1   -1    0    0  501    0  0.00000000000E+00  0.00000000000E+00  0.21296514530E+04  0.21296514530E+04  0.50400001928E-02 0.  1.
       -1   -1    0    0    0  501  0.00000000000E+00  0.00000000000E+00 -0.70731568271E+03  0.70731568272E+03  0.50400001928E-02 0. -1.
    10030    2    1    2    0    0  0.00000000000E+00  0.00000000000E+00  0.14223357703E+04  0.28369671357E+04  0.24546575088E+04 0.  0.
        1    1    3    3  502    0  0.12728173060E+03 -0.35489984565E+03 -0.63872544369E+03  0.74170393813E+03  0.50400001928E-02 0. -1.
       -1    1    3    3    0  502 -0.12728173060E+03  0.35489984565E+03  0.20610612140E+04  0.20952631976E+04  0.50400001928E-02 0.  1.
</event>
<event>
 5   0  0.1513502E-06  0.3630098E+04  0.7818609E-02  0.8083632E-01
       -2   -1    0    0    0  501  0.00000000000E+00  0.00000000000E+00  0.17876245963E+04  0.17876245963E+04  0.25500000920E-02 0.  1.
        2   -1    0    0  501    0  0.00000000000E+00  0.00000000000E+00 -0.18428939071E+04  0.18428939071E+04  0.25500000920E-02 0. -1.
    10030    2    1    2    0    0  0.00000000000E+00  0.00000000000E+00 -0.55269310864E+02  0.36305185034E+04  0.36300977820E+04 0.  0.
        3    1    3    3  502    0  0.11874211147E+04 -0.11470524615E+04 -0.78184685671E+03  0.18267410245E+04  0.10100000352E+00 0. -1.
       -3    1    3    3    0  502 -0.11874211147E+04  0.11470524615E+04  0.72657754585E+03  0.18037774789E+04  0.10100000352E+00 0.  1.
</event>
<event>
 5   0  0.7707500E-07  0.2688496E+04  0.7818609E-02  0.8338747E-01
       -3   -1    0    0    0  501  0.00000000000E+00  0.00000000000E+00  0.14216793977E+04  0.14216794013E+04  0.10100000352E+00 0.  1.
        3   -1    0    0  501    0  0.00000000000E+00  0.00000000000E+00 -0.12710334396E+04  0.12710334436E+04  0.10100000352E+00 0. -1.
    10030    2    1    2    0    0  0.00000000000E+00  0.00000000000E+00  0.15064595812E+03  0.26927128449E+04  0.26884955384E+04 0.  0.
        5    1    3    3  502    0 -0.93122099473E+03  0.32257134016E+03 -0.84030753290E+03  0.12951307464E+04  0.46999998093E+01 0. -1.
       -5    1    3    3    0  502  0.93122099473E+03 -0.32257134016E+03  0.99095349102E+03  0.13975820984E+04  0.46999998093E+01 0.  1.
</event>
<event>
 5   0  0.1513502E-06  0.2909407E+04  0.7818609E-02  0.8270084E-01
        2   -1    0    0  501    0  0.00000000000E+00  0.00000000000E+00  0.16288852264E+04  0.16288852264E+04  0.25500000920E-02 0.  1.
       -2   -1    0    0    0  501  0.00000000000E+00  0.00000000000E+00 -0.12991471689E+04  0.12991471689E+04  0.25500000920E-02 0. -1.
    10030    2    1    2    0    0  0.00000000000E+00  0.00000000000E+00  0.32973805748E+03  0.29280323953E+04  0.29094065583E+04 0.  0.
        3    1    3    3  502    0 -0.12066174846E+04 -0.61245787347E+03 -0.37252625357E+03  0.14034978520E+04  0.10100000352E+00 0. -1.
       -3    1    3    3    0  502  0.12066174846E+04  0.61245787347E+03  0.70226431105E+03  0.15245345433E+04  0.10100000352E+00 0.  1.
</event>
<event>
 5   0  0.7754556E-07  0.2775783E+04  0.7818609E-02  0.8310826E-01
        1   -1    0    0  501    0  0.00000000000E+00  0.00000000000E+00  0.14644974368E+04  0.14644974368E+04  0.50400001928E-02 0.  1.
       -1   -1    0    0    0  501  0.00000000000E+00  0.00000000000E+00 -0.13152925278E+04  0.13152925278E+04  0.50400001928E-02 0. -1.
    10030    2    1    2    0    0  0.00000000000E+00  0.00000000000E+00  0.14920490897E+03  0.27797899647E+04  0.27757827982E+04 0.  0.
        4    1    3    3  502    0 -0.61911868199E+03 -0.79258407992E+03 -0.88320046936E+03  0.13384850198E+04  0.12699999809E+01 0. -1.
       -4    1    3    3    0  502  0.61911868199E+03  0.79258407992E+03  0.10324053783E+04  0.14413049449E+04  0.12699999809E+01 0.  1.
</event>
<event>
 5   0  0.1634374E-06  0.2775051E+04  0.7818609E-02  0.8311056E-01
       -1   -1    0    0    0  501  0.00000000000E+00  0.00000000000E+00  0.15409272991E+04  0.15409272991E+04  0.50400001928E-02 0.  1.
        1   -1    0    0  501    0  0.00000000000E+00  0.00000000000E+00 -0.12493949775E+04  0.12493949775E+04  0.50400001928E-02 0. -1.
    10030    2    1    2    0    0  0.00000000000E+00  0.00000000000E+00  0.29153232165E+03  0.27903222766E+04  0.27750508667E+04 0.  0.
        5    1    3    3  502    0 -0.70640314882E+03 -0.40736687962E+03  0.12745532649E+04  0.15130965925E+04  0.46999998093E+01 0.  1.
       -5    1    3    3    0  502  0.70640314882E+03  0.40736687962E+03 -0.98302094325E+03  0.12772256841E+04  0.46999998093E+01 0. -1.
</event>
<event>
 5   0  0.2536619E-06  0.3591606E+04  0.7818609E-02  0.8092417E-01
       -2   -1    0    0    0  501  0.00000000000E+00  0.00000000000E+00  0.15440573628E+04  0.15440573628E+04  0.25500000920E-02 0.  1.
        2   -1    0    0  501    0  0.00000000000E+00  0.00000000000E+00 -0.20885937227E+04  0.20885937227E+04  0.25500000920E-02 0. -1.
    10030    2    1    2    0    0  0.00000000000E+00  0.00000000000E+00 -0.54453635991E+03  0.36326510854E+04  0.35916060559E+04 0.  0.
        1    1    3    3  502    0 -0.50327808196E+03  0.14580695674E+04 -0.12023711745E+04  0.19557484840E+04  0.50400001928E-02 0. -1.
       -1    1    3    3    0  502  0.50327808196E+03 -0.14580695674E+04  0.65783481462E+03  0.16769026014E+04  0.50400001928E-02 0.  1.
</event>
<event>
 5   0  0.1513502E-06  0.2339208E+04  0.7818609E-02  0.8462621E-01
        2   -1    0    0  501    0  0.00000000000E+00  0.00000000000E+00  0.10724775663E+04  0.10724775663E+04  0.25500000920E-02 0.  1.
       -2   -1    0    0    0  501  0.00000000000E+00  0.00000000000E+00 -0.12755259740E+04  0.12755259740E+04  0.25500000920E-02 0. -1.
    10030    2    1    2    0    0  0.00000000000E+00  0.00000000000E+00 -0.20304840772E+03  0.23480035404E+04  0.23392075517E+04 0.  0.
        3    1    3    3  502    0  0.10628377769E+04 -0.37063242924E+03 -0.42049331596E+03  0.12015852764E+04  0.10100000352E+00 0. -1.
       -3    1    3    3    0  502 -0.10628377769E+04  0.37063242924E+03  0.21744490824E+03  0.11464182639E+04  0.10100000352E+00 0.  1.
</event>
<event>
 5   0  0.1566576E-06  0.3563233E+04  0.7818609E-02  0.8098966E-01
       -2   -1    0    0    0  501  0.00000000000E+00  0.00000000000E+00  0.17397347007E+04  0.17397347007E+04  0.25500000920E-02 0.  1.
        2   -1    0    0  501    0  0.00000000000E+00  0.00000000000E+00 -0.18245061313E+04  0.18245061313E+04  0.25500000920E-02 0. -1.
    10030    2    1    2    0    0  0.00000000000E+00  0.00000000000E+00 -0.84771430597E+02  0.35642408320E+04  0.35632325932E+04 0.  0.
        4    1    3    3  502    0 -0.91797106462E+03  0.63418365194E+03 -0.14317694644E+04  0.18151653346E+04  0.12699999809E+01 0. -1.
       -4    1    3    3    0  502  0.91797106462E+03 -0.63418365194E+03  0.13469980338E+04  0.17490754974E+04  0.12699999809E+01 0.  1.
</event>
<event>
 5   0  0.8452742E-07  0.1889564E+04  0.7818609E-02  0.8660069E-01
       -1   -1    0    0    0  501  0.00000000000E+00  0.00000000000E+00  0.99009575362E+03  0.99009575363E+03  0.50400001928E-02 0.  1.
        1   -1    0    0  501    0  0.00000000000E+00  0.00000000000E+00 -0.90154203050E+03  0.90154203051E+03  0.50400001928E-02 0. -1.
    10030    2    1    2    0    0  0.00000000000E+00  0.00000000000E+00  0.88553723118E+02  0.18916377841E+04  0.18895639033E+04 0.  0.
        1    1    3    3  502    0 -0.49553816538E+03  0.71317822558E+03 -0.32819557768E+03  0.92838224457E+03  0.50400001928E-02 0. -1.
       -1    1    3    3    0  502  0.49553816538E+03 -0.71317822558E+03  0.41674930080E+03  0.96325553958E+03  0.50400001928E-02 0.  1.
</event>
<event>
 5   0  0.8423692E-07  0.2193833E+04  0.7818609E-02  0.8520999E-01
       -1   -1    0    0    0  501  0.00000000000E+00  0.00000000000E+00  0.71566244525E+03  0.71566244527E+03  0.50400001928E-02 0.  1.
        1   -1    0    0  501    0  0.00000000000E+00  0.00000000000E+00 -0.16812751109E+04  0.16812751109E+04  0.50400001928E-02 0. -1.
    10030    2    1    2    0    0  0.00000000000E+00  0.00000000000E+00 -0.96561266567E+03  0.23969375562E+04  0.21938326801E+04 0.  0.
        2    1    3    3  502    0 -0.60246308601E+03  0.19659198893E+03 -0.14610255970E+04  0.15925470088E+04  0.25500000920E-02 0. -1.
       -2    1    3    3    0  502  0.60246308601E+03 -0.19659198893E+03  0.49541293137E+03  0.80439054736E+03  0.25500000920E-02 0.  1.
</event>
<event>
 5   0  0.8423692E-07  0.2896782E+04  0.7818609E-02  0.8273835E-01
        1   -1    0    0  501    0  0.00000000000E+00  0.00000000000E+00  0.23733261507E+04  0.23733261507E+04  0.50400001928E-02 0. -1.
       -1   -1    0    0    0  501  0.00000000000E+00  0.00000000000E+00 -0.88392276605E+03  0.88392276607E+03  0.50400001928E-02 0.  1.
    10030    2    1    2    0    0  0.00000000000E+00  0.00000000000E+00  0.14894033846E+04  0.32572489167E+04  0.28967823638E+04 0.  0.
        2    1    3    3  502    0 -0.97695256674E+03 -0.39792453601E+03  0.18607055834E+04  0.21389262545E+04  0.25500000920E-02 0. -1.
       -2    1    3    3    0  502  0.97695256674E+03  0.39792453601E+03 -0.37130219880E+03  0.11183226622E+04  0.25500000920E-02 0.  1.
</event>
<event>
 5   0  0.8423692E-07  0.2081762E+04  0.7818609E-02  0.8569320E-01
       -1   -1    0    0    0  501  0.00000000000E+00  0.00000000000E+00  0.76584733526E+03  0.76584733528E+03  0.50400001928E-02 0. -1.
        1   -1    0    0  501    0  0.00000000000E+00  0.00000000000E+00 -0.14146850633E+04  0.14146850633E+04  0.50400001928E-02 0.  1.
    10030    2    1    2    0    0  0.00000000000E+00  0.00000000000E+00 -0.64883772804E+03  0.21805323986E+04  0.20817615483E+04 0.  0.
        2    1    3    3  502    0  0.20261197993E+03 -0.47221195117E+03  0.62373486616E+03  0.80813422432E+03  0.25500000920E-02 0. -1.
       -2    1    3    3    0  502 -0.20261197993E+03  0.47221195117E+03 -0.12725725942E+04  0.13723981743E+04  0.25500000920E-02 0.  1.
</event>
<event>
 5   0  0.7754556E-07  0.3607052E+04  0.7818609E-02  0.8088878E-01
        1   -1    0    0  501    0  0.00000000000E+00  0.00000000000E+00  0.21857227071E+04  0.21857227071E+04  0.50400001928E-02 0.  1.
       -1   -1    0    0    0  501  0.00000000000E+00  0.00000000000E+00 -0.14881604012E+04  0.14881604012E+04  0.50400001928E-02 0. -1.
    10030    2    1    2    0    0  0.00000000000E+00  0.00000000000E+00  0.69756230590E+03  0.36738831083E+04  0.36070519711E+04 0.  0.
        4    1    3    3  502    0  0.95679766696E+03 -0.13145673053E+04 -0.44616366188E+03  0.16860049234E+04  0.12699999809E+01 0. -1.
       -4    1    3    3    0  502 -0.95679766696E+03  0.13145673053E+04  0.11437259678E+04  0.19878781849E+04  0.12699999809E+01 0.  1.
</event>
<event>
 5   0  0.1634374E-06  0.1897326E+04  0.7818609E-02  0.8656188E-01
       -1   -1    0    0    0  501  0.00000000000E+00  0.00000000000E+00  0.76817160358E+03  0.76817160360E+03  0.50400001928E-02 0.  1.
        1   -1    0    0  501    0  0.00000000000E+00  0.00000000000E+00 -0.11715632021E+04  0.11715632021E+04  0.50400001928E-02 0. -1.
    10030    2    1    2    0    0  0.00000000000E+00  0.00000000000E+00 -0.40339159853E+03  0.19397348057E+04  0.18973261013E+04 0.  0.
        5    1    3    3  502    0 -0.12633928440E+03 -0.81100390981E+03  0.28459403049E+03  0.86873747974E+03  0.46999998093E+01 0. -1.
       -5    1    3    3    0  502  0.12633928440E+03  0.81100390981E+03 -0.68798562901E+03  0.10709973260E+04  0.46999998093E+01 0.  1.
</event>
<event>
 5   0  0.1566576E-06  0.3640520E+04  0.7818609E-02  0.8081273E-01
        2   -1    0    0  501    0  0.00000000000E+00  0.00000000000E+00  0.10438113657E+04  0.10438113657E+04  0.25500000920E-02 0.  1.
       -2   -1    0    0    0  501  0.00000000000E+00  0.00000000000E+00 -0.31742767881E+04  0.31742767881E+04  0.25500000920E-02 0. -1.
    10030    2    1    2    0    0  0.00000000000E+00  0.00000000000E+00 -0.21304654224E+04  0.42180881538E+04  0.36405198470E+04 0.  0.
        4    1    3    3  502    0  0.64976093793E+03 -0.93213182578E+03  0.58244963701E+03  0.12768352320E+04  0.12699999809E+01 0.  1.
       -4    1    3    3    0  502 -0.64976093793E+03  0.93213182578E+03 -0.27129150595E+04  0.29412529218E+04  0.12699999809E+01 0. -1.
</event>
<event>
 5   0  0.1634374E-06  0.3542780E+04  0.7818609E-02  0.8103726E-01
       -1   -1    0    0    0  501  0.00000000000E+00  0.00000000000E+00  0.14210911692E+04  0.14210911692E+04  0.50400001928E-02 0. -1.
        1   -1    0    0  501    0  0.00000000000E+00  0.00000000000E+00 -0.22080369266E+04  0.22080369266E+04  0.50400001928E-02 0.  1.
    10030    2    1    2    0    0  0.00000000000E+00  0.00000000000E+00 -0.78694575734E+03  0.36291280958E+04  0.35427795741E+04 0.  0.
        5    1    3    3  502    0 -0.94337435392E+03 -0.10293598917E+04 -0.15101160212E+04  0.20566986764E+04  0.46999998093E+01 0.  1.
       -5    1    3    3    0  502  0.94337435392E+03  0.10293598917E+04  0.72317026382E+03  0.15724294193E+04  0.46999998093E+01 0. -1.
</event>
<event>
 5   0  0.1566576E-06  0.3590874E+04  0.7818609E-02  0.8092585E-01
        2   -1    0    0  501    0  0.00000000000E+00  0.00000000000E+00  0.14397418008E+04  0.14397418008E+04  0.25500000920E-02 0. -1.
       -2   -1    0    0    0  501  0.00000000000E+00  0.00000000000E+00 -0.22390089349E+04  0.22390089349E+04  0.25500000920E-02 0.  1.
    10030    2    1    2    0    0  0.00000000000E+00  0.00000000000E+00 -0.79926713418E+03  0.36787507357E+04  0.35908744093E+04 0.  0.
        4    1    3    3  502    0  0.24584197804E+03 -0.35981136670E+01 -0.22216801865E+04  0.22352439886E+04  0.12699999809E+01 0.  1.
       -4    1    3    3    0  502 -0.24584197804E+03  0.35981136670E+01  0.14224130523E+04  0.14435067471E+04  0.12699999809E+01 0. -1.
</event>
<event>
 5   0  0.7754556E-07  0.3495781E+04  0.7818609E-02  0.8114790E-01
       -1   -1    0    0    0  501  0.00000000000E+00  0.00000000000E+00  0.16180516069E+04  0.16180516069E+04  0.50400001928E-02 0. -1.
        1   -1    0    0  501    0  0.00000000000E+00  0.00000000000E+00 -0.18881486045E+04  0.18881486045E+04  0.50400001928E-02 0.  1.
    10030    2    1    2    0    0  0.00000000000E+00  0.00000000000E+00 -0.27009699755E+03  0.35062002114E+04  0.34957813911E+04 0.  0.
        4    1    3    3  502    0 -0.54133495863E+03 -0.33224303031E+03  0.14982062419E+04  0.16272837874E+04  0.12699999809E+01 0. -1.
       -4    1    3    3    0  502  0.54133495863E+03  0.33224303031E+03 -0.17683032395E+04  0.18789164240E+04  0.12699999809E+01 0.  1.
</event>
<event>
 5   0  0.2536619E-06  0.2207815E+04  0.7818609E-02  0.8515182E-01
        2   -1    0    0  501    0  0.00000000000E+00  0.00000000000E+00  0.65141696131E+03  0.65141696131E+03  0.25500000920E-02 0. -1.
       -2   -1    0    0    0  501  0.00000000000E+00  0.00000000000E+00 -0.18707092090E+04  0.18707092090E+04  0.25500000920E-02 0.  1.
    10030    2    1    2    0    0  0.00000000000E+00  0.00000000000E+00 -0.12192922477E+04  0.25221261703E+04  0.22078149455E+04 0.  0.
        1    1    3    3  502    0  0.58794118163E+03 -0.32038933333E+03 -0.16122527695E+04  0.17457614817E+04  0.50400001928E-02 0.  1.
       -1    1    3    3    0  502 -0.58794118163E+03  0.32038933333E+03  0.39296052187E+03  0.77636468862E+03  0.50400001928E-02 0. -1.
</event>
<event>
 5   0  0.8452742E-07  0.3699173E+04  0.7818609E-02  0.8068145E-01
       -1   -1    0    0    0  501  0.00000000000E+00  0.00000000000E+00  0.14990460223E+04  0.14990460223E+04  0.50400001928E-02 0. -1.
        1   -1    0    0  501    0  0.00000000000E+00  0.00000000000E+00 -0.22820987618E+04  0.22820987618E+04  0.50400001928E-02 0.  1.
    10030    2    1    2    0    0  0.00000000000E+00  0.00000000000E+00 -0.78305273947E+03  0.37811447841E+04  0.36991734598E+04 0.  0.
        1    1    3    3  502    0 -0.58659139954E+03 -0.17528709636E+04 -0.45874829929E+03  0.19044936564E+04  0.50400001928E-02 0.  1.
       -1    1    3    3    0  502  0.58659139954E+03  0.17528709636E+04 -0.32430444018E+03  0.18766511277E+04  0.50400001928E-02 0. -1.
</event>
<event>
 5   0  0.2422436E-06  0.3548791E+04  0.7818609E-02  0.8102324E-01
       -2   -1    0    0    0  501  0.00000000000E+00  0.00000000000E+00  0.14695740286E+04  0.14695740286E+04  0.25500000920E-02 0.  1.
        2   -1    0    0  501    0  0.00000000000E+00  0.00000000000E+00 -0.21424432208E+04  0.21424432208E+04  0.25500000920E-02 0. -1.
    10030    2    1    2    0    0  0.00000000000E+00  0.00000000000E+00 -0.67286919225E+03  0.36120172494E+04  0.35487907321E+04 0.  0.
        2    1    3    3  502    0  0.34886827053E+03  0.16047484802E+04 -0.10203830742E+04  0.19334188302E+04  0.25500000920E-02 0.  1.
       -2    1    3    3    0  502 -0.34886827053E+03 -0.16047484802E+04  0.34751388190E+03  0.16785984192E+04  0.25500000920E-02 0. -1.
</event>
<event>
 5   0  0.1038775E-06  0.2014231E+04  0.7818609E-02  0.8599996E-01
       -1   -1    0    0    0  501  0.00000000000E+00  0.00000000000E+00  0.82895787403E+03  0.82895787404E+03  0.50400001928E-02 0.  1.
        1   -1    0    0  501    0  0.00000000000E+00  0.00000000000E+00 -0.12235627727E+04  0.12235627727E+04  0.50400001928E-02 0. -1.
    10030    2    1    2    0    0  0.00000000000E+00  0.00000000000E+00 -0.39460489862E+03  0.20525206467E+04  0.20142313619E+04 0.  0.
        4    1    3    3  502    0 -0.65326500045E+02 -0.18770126487E+02 -0.12212220732E+04  0.12231127643E+04  0.12699999809E+01 0. -1.
       -4    1    3    3    0  502  0.65326500045E+02  0.18770126487E+02  0.82661717455E+03  0.82940788242E+03  0.12699999809E+01 0.  1.
</event>
<event>
 5   0  0.8452742E-07  0.3473876E+04  0.7818609E-02  0.8120009E-01
       -1   -1    0    0    0  501  0.00000000000E+00  0.00000000000E+00  0.11964310448E+04  0.11964310448E+04  0.50400001928E-02 0.  1.
        1   -1    0    0  501    0  0.00000000000E+00  0.00000000000E+00 -0.25216277588E+04  0.25216277588E+04  0.50400001928E-02 0. -1.
    10030    2    1    2    0    0  0.00000000000E+00  0.00000000000E+00 -0.13251967140E+04  0.37180588036E+04  0.34738760680E+04 0.  0.
        1    1    3    3  502    0  0.49032679977E+03 -0.13134178697E+04 -0.17600862264E+04  0.22501978569E+04  0.50400001928E-02 0. -1.
       -1    1    3    3    0  502 -0.49032679977E+03  0.13134178697E+04  0.43488951233E+03  0.14678609467E+04  0.50400001928E-02 0.  1.
</event>
<event>
 5   0  0.7754556E-07  0.3223070E+04  0.7818609E-02  0.8182751E-01
       -1   -1    0    0    0  501  0.00000000000E+00  0.00000000000E+00  0.12746515273E+04  0.12746515273E+04  0.50400001928E-02 0. -1.
        1   -1    0    0  501    0  0.00000000000E+00  0.00000000000E+00 -0.20374553640E+04  0.20374553640E+04  0.50400001928E-02 0.  1.
    10030    2    1    2    0    0  0.00000000000E+00  0.00000000000E+00 -0.76280383669E+03  0.33121068913E+04  0.32230703322E+04 0.  0.
        4    1    3    3  502    0  0.15835029315E+03 -0.39726009707E+02 -0.20289350551E+04  0.20354930710E+04  0.12699999809E+01 0.  1.
       -4    1    3    3    0  502 -0.15835029315E+03  0.39726009707E+02  0.12661312184E+04  0.12766138203E+04  0.12699999809E+01 0. -1.
</event>
<event>
 5   0  0.1513502E-06  0.1987832E+04  0.7818609E-02  0.8612331E-01
        2   -1    0    0  501    0  0.00000000000E+00  0.00000000000E+00  0.23808994887E+04  0.23808994887E+04  0.25500000920E-02 0.  1.
       -2   -1    0    0    0  501  0.00000000000E+00  0.00000000000E+00 -0.41491399700E+03  0.41491399701E+03  0.25500000920E-02 0. -1.
    10030    2    1    2    0    0  0.00000000000E+00  0.00000000000E+00  0.19659854917E+04  0.27958134858E+04  0.19878315053E+04 0.  0.
        3    1    3    3  502    0  0.89567643386E+03 -0.43076158712E+03  0.97067562042E+03  0.13892454749E+04  0.10100000352E+00 0. -1.
       -3    1    3    3    0  502 -0.89567643386E+03  0.43076158712E+03  0.99530987132E+03  0.14065680109E+04  0.10100000352E+00 0.  1.
</event>
<event>
 5   0  0.2536619E-06  0.3648113E+04  0.7818609E-02  0.8079559E-01
        2   -1    0    0  501    0  0.00000000000E+00  0.00000000000E+00  0.27285915637E+04  0.27285915637E+04  0.25500000920E-02 0. -1.
       -2   -1    0    0    0  501  0.00000000000E+00  0.00000000000E+00 -0.12193769976E+04  0.12193769976E+04  0.25500000920E-02 0.  1.
    10030    2    1    2    0    0  0.00000000000E+00  0.00000000000E+00  0.15092145661E+04  0.39479685614E+04  0.36481128210E+04 0.  0.
        1    1    3    3  502    0 -0.10036115627E+03  0.27767848563E+02 -0.12161577267E+04  0.12206076484E+04  0.50400001928E-02 0.  1.
       -1    1    3    3    0  502  0.10036115627E+03 -0.27767848563E+02  0.27253722928E+04  0.27273609130E+04  0.50400001928E-02 0. -1.
</event>
<event>
 5   0  0.1566576E-06  0.3558946E+04  0.7818609E-02  0.8099961E-01
        2   -1    0    0  501    0  0.00000000000E+00  0.00000000000E+00  0.18840169818E+04  0.18840169818E+04  0.25500000920E-02 0.  1.
       -2   -1    0    0    0  501  0.00000000000E+00  0.00000000000E+00 -0.16807305925E+04  0.16807305925E+04  0.25500000920E-02 0. -1.
    10030    2    1    2    0    0  0.00000000000E+00  0.00000000000E+00  0.20328638927E+03  0.35647475743E+04  0.35589464610E+04 0.  0.
        4    1    3    3  502    0  0.36910784738E+02 -0.70009446028E+03 -0.15365742673E+04  0.16889513762E+04  0.12699999809E+01 0. -1.
       -4    1    3    3    0  502 -0.36910784738E+02  0.70009446028E+03  0.17398606566E+04  0.18757961981E+04  0.12699999809E+01 0.  1.
</event>
<event>
 5   0  0.2382711E-06  0.2605215E+04  0.7818609E-02  0.8366432E-01
       -2   -1    0    0    0  501  0.00000000000E+00  0.00000000000E+00  0.10115787448E+04  0.10115787448E+04  0.25500000920E-02 0.  1.
        2   -1    0    0  501    0  0.00000000000E+00  0.00000000000E+00 -0.16773647002E+04  0.16773647002E+04  0.25500000920E-02 0. -1.
    10030    2    1    2    0    0  0.00000000000E+00  0.00000000000E+00 -0.66578595544E+03  0.26889434450E+04  0.26052151373E+04 0.  0.
        5    1    3    3  502    0 -0.16759479892E+03  0.12916604558E+04 -0.35045869833E+03  0.13488210181E+04  0.46999998093E+01 0. -1.
       -5    1    3    3    0  502  0.16759479892E+03 -0.12916604558E+04 -0.31532725712E+03  0.13401224268E+04  0.46999998093E+01 0.  1.
</event>
<event>
 5   0  0.7754556E-07  0.3558225E+04  0.7818609E-02  0.8100128E-01
       -1   -1    0    0    0  501  0.00000000000E+00  0.00000000000E+00  0.15167969460E+04  0.15167969460E+04  0.50400001928E-02 0.  1.
        1   -1    0    0  501    0  0.00000000000E+00  0.00000000000E+00 -0.20867930583E+04  0.20867930583E+04  0.50400001928E-02 0. -1.
    10030    2    1    2    0    0  0.00000000000E+00  0.00000000000E+00 -0.56999611234E+03  0.36035900043E+04  0.35582250282E+04 0.  0.
        4    1    3    3  502    0 -0.64161915538E+03 -0.13176949541E+04  0.73644617108E+03  0.16402285537E+04  0.12699999809E+01 0.  1.
       -4    1    3    3    0  502  0.64161915538E+03  0.13176949541E+04 -0.13064422834E+04  0.19633614506E+04  0.12699999809E+01 0. -1.
</event>
<event>
 5   0  0.1694968E-06  0.1804679E+04  0.7818609E-02  0.8703815E-01
        2   -1    0    0  501    0  0.00000000000E+00  0.00000000000E+00  0.20890414876E+04  0.20890414876E+04  0.25500000920E-02 0.  1.
       -2   -1    0    0    0  501  0.00000000000E+00  0.00000000000E+00 -0.38975619579E+03  0.38975619579E+03  0.25500000920E-02 0. -1.
    10030    2    1    2    0    0  0.00000000000E+00  0.00000000000E+00  0.16992852918E+04  0.24787976834E+04  0.18046793212E+04 0.  0.
        3    1    3    3  502    0  0.85736668621E+03  0.25546523194E+03  0.68784035608E+03  0.11284788368E+04  0.10100000352E+00 0.  1.
       -3    1    3    3    0  502 -0.85736668621E+03 -0.25546523194E+03  0.10114449357E+04  0.13503188466E+04  0.10100000352E+00 0. -1.
</event>
<event>
 5   0  0.1908273E-06  0.3495549E+04  0.7818609E-02  0.8114846E-01
       -1   -1    0    0    0  501  0.00000000000E+00  0.00000000000E+00  0.12959388964E+04  0.12959388964E+04  0.50400001928E-02 0.  1.
        1   -1    0    0  501    0  0.00000000000E+00  0.00000000000E+00 -0.23571443529E+04  0.23571443529E+04  0.50400001928E-02 0. -1.
    10030    2    1    2    0    0  0.00000000000E+00  0.00000000000E+00 -0.10612054565E+04  0.36530832493E+04  0.34955486273E+04 0.  0.
        3    1    3    3  502    0 -0.13402954259E+04  0.96003010291E+03  0.75775322817E+02  0.16503913284E+04  0.10100000352E+00 0. -1.
       -3    1    3    3    0  502  0.13402954259E+04 -0.96003010291E+03 -0.11369807793E+04  0.20026919209E+04  0.10100000352E+00 0.  1.
</event>
<event>
 5   0  0.8423692E-07  0.2044527E+04  0.7818609E-02  0.8586081E-01
        1   -1    0    0  501    0  0.00000000000E+00  0.00000000000E+00  0.13071040010E+04  0.13071040010E+04  0.50400001928E-02 0. -1.
       -1   -1    0    0    0  501  0.00000000000E+00  0.00000000000E+00 -0.79949477562E+03  0.79949477563E+03  0.50400001928E-02 0.  1.
    10030    2    1    2    0    0  0.00000000000E+00  0.00000000000E+00  0.50760922540E+03  0.21065987767E+04  0.20445271532E+04 0.  0.
        2    1    3    3  502    0  0.34995744844E+03  0.21042925348E+02  0.12432236530E+04  0.12917112958E+04  0.25500000920E-02 0. -1.
       -2    1    3    3    0  502 -0.34995744844E+03 -0.21042925348E+02 -0.73561442755E+03  0.81488748086E+03  0.25500000920E-02 0.  1.
</event>
<event>
 5   0  0.1513502E-06  0.3571391E+04  0.7818609E-02  0.8097076E-01
       -2   -1    0    0    0  501  0.00000000000E+00  0.00000000000E+00  0.12485159547E+04  0.12485159547E+04  0.25500000920E-02 0.  1.
        2   -1    0    0  501    0  0.00000000000E+00  0.00000000000E+00 -0.25539991164E+04  0.25539991164E+04  0.25500000920E-02 0. -1.
    10030    2    1    2    0    0  0.00000000000E+00  0.00000000000E+00 -0.13054831617E+04  0.38025150711E+04  0.35713911268E+04 0.  0.
        3    1    3    3  502    0 -0.17821079038E+04  0.59015690422E+02 -0.75551393282E+03  0.19365414391E+04  0.10100000352E+00 0. -1.
       -3    1    3    3    0  502  0.17821079038E+04 -0.59015690422E+02 -0.54996922887E+03  0.18659736320E+04  0.10100000352E+00 0.  1.
</event>
<event>
 5   0  0.7707500E-07  0.2601212E+04  0.7818609E-02  0.8367790E-01
        3   -1    0    0  501    0  0.00000000000E+00  0.00000000000E+00  0.11290497654E+04  0.11290497699E+04  0.10100000352E+00 0. -1.
       -3   -1    0    0    0  501  0.00000000000E+00  0.00000000000E+00 -0.14982294993E+04  0.14982295027E+04  0.10100000352E+00 0.  1.
    10030    2    1    2    0    0  0.00000000000E+00  0.00000000000E+00 -0.36917973391E+03  0.26272792726E+04  0.26012117753E+04 0.  0.
        1    1    3    3  502    0 -0.10679995488E+04 -0.15462975667E+03  0.54866213118E+03  0.12106046143E+04  0.50400001928E-02 0. -1.
       -1    1    3    3    0  502  0.10679995488E+04  0.15462975667E+03 -0.91784186509E+03  0.14166746582E+04  0.50400001928E-02 0.  1.
</event>
<event>
 5   0  0.1513502E-06  0.2194985E+04  0.7818609E-02  0.8520519E-01
        2   -1    0    0  501    0  0.00000000000E+00  0.00000000000E+00  0.15469725475E+04  0.15469725475E+04  0.25500000920E-02 0.  1.
       -2   -1    0    0    0  501  0.00000000000E+00  0.00000000000E+00 -0.77861067848E+03  0.77861067848E+03  0.25500000920E-02 0. -1.
    10030    2    1    2    0    0  0.00000000000E+00  0.00000000000E+00  0.76836186900E+03  0.23255832260E+04  0.21949845966E+04 0.  0.
        3    1    3    3  502    0  0.70299194454E+03  0.84275509171E+03  0.39207515216E+03  0.11653998257E+04  0.10100000352E+00 0. -1.
       -3    1    3    3    0  502 -0.70299194454E+03 -0.84275509171E+03  0.37628671685E+03  0.11601834002E+04  0.10100000352E+00 0.  1.
</event>
<event>
 5   0  0.1566576E-06  0.2644649E+04  0.7818609E-02  0.8353191E-01
        2   -1    0    0  501    0  0.00000000000E+00  0.00000000000E+00  0.16562937477E+04  0.16562937477E+04  0.25500000920E-02 0.  1.
       -2   -1    0    0    0  501  0.00000000000E+00  0.00000000000E+00 -0.10556960303E+04  0.10556960303E+04  0.25500000920E-02 0. -1.
    10030    2    1    2    0    0  0.00000000000E+00  0.00000000000E+00  0.60059771736E+03  0.27119897780E+04  0.26446494925E+04 0.  0.
        4    1    3    3  502    0  0.84361242056E+03 -0.36946991120E+03 -0.67273039790E+03  0.11405076644E+04  0.12699999809E+01 0.  1.
       -4    1    3    3    0  502 -0.84361242056E+03  0.36946991120E+03  0.12733281153E+04  0.15714821136E+04  0.12699999809E+01 0. -1.
</event>
<event>
 5   0  0.1566576E-06  0.3588786E+04  0.7818609E-02  0.8093065E-01
       -2   -1    0    0    0  501  0.00000000000E+00  0.00000000000E+00  0.11790619926E+04  0.11790619926E+04  0.25500000920E-02 0. -1.
        2   -1    0    0  501    0  0.00000000000E+00  0.00000000000E+00 -0.27308539564E+04  0.27308539564E+04  0.25500000920E-02 0.  1.
    10030    2    1    2    0    0  0.00000000000E+00  0.00000000000E+00 -0.15517919638E+04  0.39099159489E+04  0.35887859269E+04 0.  0.
        4    1    3    3  502    0 -0.52617205437E+03  0.13573948700E+04 -0.19187961781E+04  0.24085593723E+04  0.12699999809E+01 0.  1.
       -4    1    3    3    0  502  0.52617205437E+03 -0.13573948700E+04  0.36700421436E+03  0.15013565766E+04  0.12699999809E+01 0. -1.
</event>
<event>
 5   0  0.2536619E-06  0.3265109E+04  0.7818609E-02  0.8171830E-01
        2   -1    0    0  501    0  0.00000000000E+00  0.00000000000E+00  0.11283930138E+04  0.11283930138E+04  0.25500000920E-02 0.  1.
       -2   -1    0    0    0  501  0.00000000000E+00  0.00000000000E+00 -0.23619737663E+04  0.23619737663E+04  0.25500000920E-02 0. -1.
    10030    2    1    2    0    0  0.00000000000E+00  0.00000000000E+00 -0.12335807525E+04  0.34903667801E+04  0.32651093070E+04 0.  0.
        1    1    3    3  502    0 -0.28380727593E+03 -0.15058974034E+04 -0.14956887842E+02  0.15324807561E+04  0.50400001928E-02 0.  1.
       -1    1    3    3    0  502  0.28380727593E+03  0.15058974034E+04 -0.12186238646E+04  0.19578860240E+04  0.50400001928E-02 0. -1.
</event>
<event>
 5   0  0.2382711E-06  0.2173762E+04  0.7818609E-02  0.8529429E-01
       -2   -1    0    0    0  501  0.00000000000E+00  0.00000000000E+00  0.78191041464E+03  0.78191041464E+03  0.25500000920E-02 0.  1.
        2   -1    0    0  501    0  0.00000000000E+00  0.00000000000E+00 -0.15107995447E+04  0.15107995447E+04  0.25500000920E-02 0. -1.
    10030    2    1    2    0    0  0.00000000000E+00  0.00000000000E+00 -0.72888913010E+03  0.22927099594E+04  0.21737616231E+04 0.  0.
        5    1    3    3  502    0  0.58733675547E+03  0.70399480406E+03  0.25120363002E+03  0.95063058136E+03  0.46999998093E+01 0. -1.
       -5    1    3    3    0  502 -0.58733675547E+03 -0.70399480406E+03 -0.98009276012E+03  0.13420793780E+04  0.46999998093E+01 0.  1.
</event>
<event>
 5   0  0.1566576E-06  0.3542933E+04  0.7818609E-02  0.8103690E-01
        2   -1    0    0  501    0  0.00000000000E+00  0.00000000000E+00  0.21611496304E+04  0.21611496304E+04  0.25500000920E-02 0. -1.
       -2   -1    0    0    0  501  0.00000000000E+00  0.00000000000E+00 -0.14520480530E+04  0.14520480530E+04  0.25500000920E-02 0.  1.
    10030    2    1    2    0    0  0.00000000000E+00  0.00000000000E+00  0.70910157742E+03  0.36131976835E+04  0.35429327474E+04 0.  0.
        4    1    3    3  502    0 -0.16272669367E+04 -0.58921488918E+03 -0.30993929651E+02  0.17309344602E+04  0.12699999809E+01 0. -1.
       -4    1    3    3    0  502  0.16272669367E+04  0.58921488918E+03  0.74009550707E+03  0.18822632232E+04  0.12699999809E+01 0.  1.
</event>
<event>
 5   0  0.1984593E-06  0.1821493E+04  0.7818609E-02  0.8694953E-01
        1   -1    0    0  501    0  0.00000000000E+00  0.00000000000E+00  0.78432404192E+03  0.78432404193E+03  0.50400001928E-02 0. -1.
       -1   -1    0    0    0  501  0.00000000000E+00  0.00000000000E+00 -0.10575462086E+04  0.10575462087E+04  0.50400001928E-02 0.  1.
    10030    2    1    2    0    0  0.00000000000E+00  0.00000000000E+00 -0.27322216673E+03  0.18418702506E+04  0.18214927031E+04 0.  0.
        5    1    3    3  502    0  0.47315067492E+03 -0.44931966746E+03  0.50585270656E+03  0.82563234885E+03  0.46999998093E+01 0. -1.
       -5    1    3    3    0  502 -0.47315067492E+03  0.44931966746E+03 -0.77907487329E+03  0.10162379017E+04  0.46999998093E+01 0.  1.
</event>
<event>
 5   0  0.8452742E-07  0.3395344E+04  0.7818609E-02  0.8139050E-01
        1   -1    0    0  501    0  0.00000000000E+00  0.00000000000E+00  0.19514150999E+04  0.19514151000E+04  0.50400001928E-02 0.  1.
       -1   -1    0    0    0  501  0.00000000000E+00  0.00000000000E+00 -0.14769235574E+04  0.14769235574E+04  0.50400001928E-02 0. -1.
    10030    2    1    2    0    0  0.00000000000E+00  0.00000000000E+00  0.47449154259E+03  0.34283386573E+04  0.33953444192E+04 0.  0.
        1    1    3    3  502    0  0.91505265218E+03 -0.13265464237E+04  0.77632916673E+03  0.17887799601E+04  0.50400001928E-02 0.  1.
       -1    1    3    3    0  502 -0.91505265218E+03  0.13265464237E+04 -0.30183762414E+03  0.16395586973E+04  0.50400001928E-02 0. -1.
</event>
<event>
 5   0  0.1566576E-06  0.3589512E+04  0.7818609E-02  0.8092898E-01
        2   -1    0    0  501    0  0.00000000000E+00  0.00000000000E+00  0.19447475126E+04  0.19447475126E+04  0.25500000920E-02 0.  1.
       -2   -1    0    0    0  501  0.00000000000E+00  0.00000000000E+00 -0.16563326529E+04  0.16563326529E+04  0.25500000920E-02 0. -1.
    10030    2    1    2    0    0  0.00000000000E+00  0.00000000000E+00  0.28841485972E+03  0.36010801655E+04  0.35895118369E+04 0.  0.
        4    1    3    3  502    0 -0.13113095663E+04 -0.11931376049E+04  0.42445888748E+03  0.18229857605E+04  0.12699999809E+01 0.  1.
       -4    1    3    3    0  502  0.13113095663E+04  0.11931376049E+04 -0.13604402776E+03  0.17780944050E+04  0.12699999809E+01 0. -1.
</event>
<event>
 5   0  0.7754556E-07  0.2215355E+04  0.7818609E-02  0.8512064E-01
        1   -1    0    0  501    0  0.00000000000E+00  0.00000000000E+00  0.13554700457E+04  0.13554700457E+04  0.50400001928E-02 0.  1.
       -1   -1    0    0    0  501  0.00000000000E+00  0.00000000000E+00 -0.90518396841E+03  0.90518396843E+03  0.50400001928E-02 0. -1.
    10030    2    1    2    0    0  0.00000000000E+00  0.00000000000E+00  0.45028607731E+03  0.22606540142E+04  0.22153552808E+04 0.  0.
        4    1    3    3  502    0  0.66437413142E+03  0.47598474665E+03 -0.53780359801E+03  0.97836025495E+03  0.12699999809E+01 0. -1.
       -4    1    3    3    0  502 -0.66437413142E+03 -0.47598474665E+03  0.98808967532E+03  0.12822937592E+04  0.12699999809E+01 0.  1.
</event>
<event>
 5   0  0.2536619E-06  0.2512459E+04  0.7818609E-02  0.8398560E-01
       -2   -1    0    0    0  501  0.00000000000E+00  0.00000000000E+00  0.14707373197E+04  0.14707373197E+04  0.25500000920E-02 0.  1.
        2   -1    0    0  501    0  0.00000000000E+00  0.00000000000E+00 -0.10730080747E+04  0.10730080747E+04  0.25500000920E-02 0. -1.
    10030    2    1    2    0    0  0.00000000000E+00  0.00000000000E+00  0.39772924502E+03  0.25437453944E+04  0.25124593687E+04 0.  0.
        1    1    3    3  502    0  0.11984723744E+03 -0.11486125625E+04 -0.30169947938E+03  0.11936066165E+04  0.50400001928E-02 0. -1.
       -1    1    3    3    0  502 -0.11984723744E+03  0.11486125625E+04  0.69942872440E+03  0.13501387779E+04  0.50400001928E-02 0.  1.
</event>
<event>
 5   0  0.2536619E-06  0.3564312E+04  0.7818609E-02  0.8098716E-01
        2   -1    0    0  501    0  0.00000000000E+00  0.00000000000E+00  0.17277979518E+04  0.17277979518E+04  0.25500000920E-02 0.  1.
       -2   -1    0    0    0  501  0.00000000000E+00  0.00000000000E+00 -0.18382241827E+04  0.18382241827E+04  0.25500000920E-02 0. -1.
    10030    2    1    2    0    0  0.00000000000E+00  0.00000000000E+00 -0.11042623093E+03  0.35660221344E+04  0.35643119828E+04 0.  0.
        1    1    3    3  502    0 -0.16349087920E+04 -0.43339673330E+03 -0.61701659040E+03  0.18004079980E+04  0.50400001928E-02 0. -1.
       -1    1    3    3    0  502  0.16349087920E+04  0.43339673330E+03  0.50659035948E+03  0.17656141364E+04  0.50400001928E-02 0.  1.
</event>
<event>
 5   0  0.2536619E-06  0.3622231E+04  0.7818609E-02  0.8085418E-01
        2   -1    0    0  501    0  0.00000000000E+00  0.00000000000E+00  0.27057517012E+04  0.27057517012E+04  0.25500000920E-02 0.  1.
       -2   -1    0    0    0  501  0.00000000000E+00  0.00000000000E+00 -0.12122841739E+04  0.12122841739E+04  0.25500000920E-02 0. -1.
    10030    2    1    2    0    0  0.00000000000E+00  0.00000000000E+00  0.14934675273E+04  0.39180358751E+04  0.36222313377E+04 0.  0.
        1    1    3    3  502    0 -0.82893318545E+03  0.41090074820E+03  0.24308566941E+04  0.26009678811E+04  0.50400001928E-02 0.  1.
       -1    1    3    3    0  502  0.82893318545E+03 -0.41090074820E+03 -0.93738916685E+03  0.13170679941E+04  0.50400001928E-02 0. -1.
</event>
<event>
 5   0  0.2382711E-06  0.3613547E+04  0.7818609E-02  0.8087396E-01
        2   -1    0    0  501    0  0.00000000000E+00  0.00000000000E+00  0.21626493899E+04  0.21626493899E+04  0.25500000920E-02 0. -1.
       -2   -1    0    0    0  501  0.00000000000E+00  0.00000000000E+00 -0.15094589034E+04  0.15094589034E+04  0.25500000920E-02 0.  1.
    10030    2    1    2    0    0  0.00000000000E+00  0.00000000000E+00  0.65319048656E+03  0.36721082933E+04  0.36135469426E+04 0.  0.
        5    1    3    3  502    0  0.49967089024E+03  0.15167567573E+04  0.11853863034E+04  0.19888149330E+04  0.46999998093E+01 0. -1.
       -5    1    3    3    0  502 -0.49967089024E+03 -0.15167567573E+04 -0.53219581685E+03  0.16832933603E+04  0.46999998093E+01 0.  1.
</event>
<event>
 5   0  0.1513502E-06  0.3743145E+04  0.7818609E-02  0.8058467E-01
        2   -1    0    0  501    0  0.00000000000E+00  0.00000000000E+00  0.20204642430E+04  0.20204642430E+04  0.25500000920E-02 0.  1.
       -2   -1    0    0    0  501  0.00000000000E+00  0.00000000000E+00 -0.17336528546E+04  0.17336528546E+04  0.25500000920E-02 0. -1.
    10030    2    1    2    0    0  0.00000000000E+00  0.00000000000E+00  0.28681138837E+03  0.37541170976E+04  0.37431449892E+04 0.  0.
        3    1    3    3  502    0  0.13713493212E+04  0.56771259321E+03 -0.10000621934E+04  0.17896985640E+04  0.10100000352E+00 0. -1.
       -3    1    3    3    0  502 -0.13713493212E+04 -0.56771259321E+03  0.12868735817E+04  0.19644185335E+04  0.10100000352E+00 0.  1.
</event>
<event>
 5   0  0.1513502E-06  0.3558386E+04  0.7818609E-02  0.8100091E-01
        2   -1    0    0  501    0  0.00000000000E+00  0.00000000000E+00  0.18220650975E+04  0.18220650975E+04  0.25500000920E-02 0. -1.
       -2   -1    0    0    0  501  0.00000000000E+00  0.00000000000E+00 -0.17373296667E+04  0.17373296667E+04  0.25500000920E-02 0.  1.
    10030    2    1    2    0    0  0.00000000000E+00  0.00000000000E+00  0.84735430771E+02  0.35593947642E+04  0.35583860097E+04 0.  0.
        3    1    3    3  502    0 -0.13277034448E+04  0.11532463974E+04  0.31217376326E+03  0.17861204212E+04  0.10100000352E+00 0. -1.
       -3    1    3    3    0  502  0.13277034448E+04 -0.11532463974E+04 -0.22743833249E+03  0.17732743430E+04  0.10100000352E+00 0.  1.
</event>
<event>
 5   0  0.1566576E-06  0.3363126E+04  0.7818609E-02  0.8147016E-01
       -2   -1    0    0    0  501  0.00000000000E+00  0.00000000000E+00  0.16886282819E+04  0.16886282819E+04  0.25500000920E-02 0. -1.
        2   -1    0    0  501    0  0.00000000000E+00  0.00000000000E+00 -0.16745270075E+04  0.16745270075E+04  0.25500000920E-02 0.  1.
    10030    2    1    2    0    0  0.00000000000E+00  0.00000000000E+00  0.14101274339E+02  0.33631552894E+04  0.33631257268E+04 0.  0.
        4    1    3    3  502    0  0.46823653742E+03 -0.12320576220E+04 -0.10372001863E+04  0.16771992363E+04  0.12699999809E+01 0.  1.
       -4    1    3    3    0  502 -0.46823653742E+03  0.12320576220E+04  0.10513014606E+04  0.16859560531E+04  0.12699999809E+01 0. -1.
</event>
<event>
 5   0  0.1566576E-06  0.3255737E+04  0.7818609E-02  0.8174250E-01
       -2   -1    0    0    0  501  0.00000000000E+00  0.00000000000E+00  0.15208597660E+04  0.15208597660E+04  0.25500000920E-02 0.  1.
        2   -1    0    0  501    0  0.00000000000E+00  0.00000000000E+00 -0.17424059609E+04  0.17424059609E+04  0.25500000920E-02 0. -1.
    10030    2    1    2    0    0  0.00000000000E+00  0.00000000000E+00 -0.22154619488E+03  0.32632657269E+04  0.32557365508E+04 0.  0.
        4    1    3    3  502    0  0.48700837145E+03 -0.40886416947E+03  0.13912271620E+04  0.15296606461E+04  0.12699999809E+01 0.  1.
       -4    1    3    3    0  502 -0.48700837145E+03  0.40886416947E+03 -0.16127733569E+04  0.17336050809E+04  0.12699999809E+01 0. -1.
</event>
<event>
 5   0  0.8423692E-07  0.3605082E+04  0.7818609E-02  0.8089329E-01
       -1   -1    0    0    0  501  0.00000000000E+00  0.00000000000E+00  0.24344888349E+04  0.24344888349E+04  0.50400001928E-02 0. -1.
        1   -1    0    0  501    0  0.00000000000E+00  0.00000000000E+00 -0.13346349542E+04  0.13346349542E+04  0.50400001928E-02 0.  1.
    10030    2    1    2    0    0  0.00000000000E+00  0.00000000000E+00  0.10998538807E+04  0.37691237891E+04  0.36050819101E+04 0.  0.
        2    1    3    3  502    0  0.72127577748E+03  0.15552447101E+04 -0.32305609675E+02  0.17146627972E+04  0.25500000920E-02 0.  1.
       -2    1    3    3    0  502 -0.72127577748E+03 -0.15552447101E+04  0.11321594904E+04  0.20544609919E+04  0.25500000920E-02 0. -1.
</event>
<event>
 5   0  0.1513502E-06  0.2135563E+04  0.7818609E-02  0.8545737E-01
        2   -1    0    0  501    0  0.00000000000E+00  0.00000000000E+00  0.20793156324E+04  0.20793156324E+04  0.25500000920E-02 0. -1.
       -2   -1    0    0    0  501  0.00000000000E+00  0.00000000000E+00 -0.54833309243E+03  0.54833309244E+03  0.25500000920E-02 0.  1.
    10030    2    1    2    0    0  0.00000000000E+00  0.00000000000E+00  0.15309825400E+04  0.26276487248E+04  0.21355632239E+04 0.  0.
        3    1    3    3  502    0 -0.30109930950E+03  0.85128857207E+03  0.64252508084E+02  0.90525213179E+03  0.10100000352E+00 0.  1.
       -3    1    3    3    0  502  0.30109930950E+03 -0.85128857207E+03  0.14667300319E+04  0.17223965930E+04  0.10100000352E+00 0. -1.
</event>
<event>
 5   0  0.8423692E-07  0.3263769E+04  0.7818609E-02  0.8172176E-01
       -1   -1    0    0    0  501  0.00000000000E+00  0.00000000000E+00  0.17626417364E+04  0.17626417364E+04  0.50400001928E-02 0. -1.
        1   -1    0    0  501    0  0.00000000000E+00  0.00000000000E+00 -0.15108276226E+04  0.15108276226E+04  0.50400001928E-02 0.  1.
    10030    2    1    2    0    0  0.00000000000E+00  0.00000000000E+00  0.25181411374E+03  0.32734693590E+04  0.32637694920E+04 0.  0.
        2    1    3    3  502    0  0.66253922168E+03 -0.36671323370E+03  0.15757518904E+04  0.17482650932E+04  0.25500000920E-02 0. -1.
       -2    1    3    3    0  502 -0.66253922168E+03  0.36671323370E+03 -0.13239377767E+04  0.15252042658E+04  0.25500000920E-02 0.  1.
</event>
<event>
 5   0  0.1566576E-06  0.2075732E+04  0.7818609E-02  0.8572010E-01
       -2   -1    0    0    0  501  0.00000000000E+00  0.00000000000E+00  0.64141001282E+03  0.64141001283E+03  0.25500000920E-02 0.  1.
        2   -1    0    0  501    0  0.00000000000E+00  0.00000000000E+00 -0.16793713433E+04  0.16793713433E+04  0.25500000920E-02 0. -1.
    10030    2    1    2    0    0  0.00000000000E+00  0.00000000000E+00 -0.10379613305E+04  0.23207813561E+04  0.20757317696E+04 0.  0.
        4    1    3    3  502    0 -0.15032922614E+03  0.24744122466E+03  0.59534339446E+03  0.66201314649E+03  0.12699999809E+01 0.  1.
       -4    1    3    3    0  502  0.15032922614E+03 -0.24744122466E+03 -0.16333047249E+04  0.16587682096E+04  0.12699999809E+01 0. -1.
</event>
<event>
 5   0  0.2422436E-06  0.3591775E+04  0.7818609E-02  0.8092378E-01
       -2   -1    0    0    0  501  0.00000000000E+00  0.00000000000E+00  0.13804726506E+04  0.13804726506E+04  0.25500000920E-02 0.  1.
        2   -1    0    0  501    0  0.00000000000E+00  0.00000000000E+00 -0.23363103553E+04  0.23363103553E+04  0.25500000920E-02 0. -1.
    10030    2    1    2    0    0  0.00000000000E+00  0.00000000000E+00 -0.95583770470E+03  0.37167830059E+04  0.35917753542E+04 0.  0.
        2    1    3    3  502    0 -0.15834607522E+03  0.17527888182E+04 -0.84795410468E+03  0.19535527339E+04  0.25500000920E-02 0.  1.
       -2    1    3    3    0  502  0.15834607522E+03 -0.17527888182E+04 -0.10788360002E+03  0.17632302719E+04  0.25500000920E-02 0. -1.
</event>
<event>
 5   0  0.7754556E-07  0.3579670E+04  0.7818609E-02  0.8095164E-01
        1   -1    0    0  501    0  0.00000000000E+00  0.00000000000E+00  0.16229840361E+04  0.16229840361E+04  0.50400001928E-02 0.  1.
       -1   -1    0    0    0  501  0.00000000000E+00  0.00000000000E+00 -0.19738392154E+04  0.19738392154E+04  0.50400001928E-02 0. -1.
    10030    2    1    2    0    0  0.00000000000E+00  0.00000000000E+00 -0.35085517930E+03  0.35968232515E+04  0.35796701169E+04 0.  0.
        4    1    3    3  502    0 -0.74840790896E+03  0.60286415842E+02  0.14570913801E+04  0.16391661761E+04  0.12699999809E+01 0.  1.
       -4    1    3    3    0  502  0.74840790896E+03 -0.60286415842E+02 -0.18079465594E+04  0.19576570754E+04  0.12699999809E+01 0. -1.
</event>
<event>
 5   0  0.2382711E-06  0.3232789E+04  0.7818609E-02  0.8180211E-01
        2   -1    0    0  501    0  0.00000000000E+00  0.00000000000E+00  0.10473664983E+04  0.10473664983E+04  0.25500000920E-02 0.  1.
       -2   -1    0    0    0  501  0.00000000000E+00  0.00000000000E+00 -0.24945715579E+04  0.24945715579E+04  0.25500000920E-02 0. -1.
    10030    2    1    2    0    0  0.00000000000E+00  0.00000000000E+00 -0.14472050596E+04  0.35419380562E+04  0.32327886893E+04 0.  0.
        5    1    3    3  502    0 -0.11353164600E+04  0.49037320579E+03  0.41674667331E+03  0.13050322697E+04  0.46999998093E+01 0.  1.
       -5    1    3    3    0  502  0.11353164600E+04 -0.49037320579E+03 -0.18639517329E+04  0.22369057865E+04  0.46999998093E+01 0. -1.
</event>
<event>
 5   0  0.1566576E-06  0.3598141E+04  0.7818609E-02  0.8090918E-01
       -2   -1    0    0    0  501  0.00000000000E+00  0.00000000000E+00  0.25886285955E+04  0.25886285955E+04  0.25500000920E-02 0. -1.
        2   -1    0    0  501    0  0.00000000000E+00  0.00000000000E+00 -0.12503355976E+04  0.12503355976E+04  0.25500000920E-02 0.  1.
    10030    2    1    2    0    0  0.00000000000E+00  0.00000000000E+00  0.13382929979E+04  0.38389641932E+04  0.35981408989E+04 0.  0.
        4    1    3    3  502    0 -0.95717432537E+03 -0.79495106790E+03 -0.71725616218E+03  0.14361712658E+04  0.12699999809E+01 0.  1.
       -4    1    3    3    0  502  0.95717432537E+03  0.79495106790E+03  0.20555491601E+04  0.24027929274E+04  0.12699999809E+01 0. -1.
</event>
<event>
 5   0  0.1566576E-06  0.1911136E+04  0.7818609E-02  0.8649333E-01
       -2   -1    0    0    0  501  0.00000000000E+00  0.00000000000E+00  0.86126530318E+03  0.86126530319E+03  0.25500000920E-02 0. -1.
        2   -1    0    0  501    0  0.00000000000E+00  0.00000000000E+00 -0.10601965062E+04  0.10601965062E+04  0.25500000920E-02 0.  1.
    10030    2    1    2    0    0  0.00000000000E+00  0.00000000000E+00 -0.19893120306E+03  0.19214618094E+04  0.19111362750E+04 0.  0.
        4    1    3    3  502    0  0.89578569501E+03  0.99824723781E+02  0.21960032049E+03  0.92769763421E+03  0.12699999809E+01 0. -1.
       -4    1    3    3    0  502 -0.89578569501E+03 -0.99824723781E+02 -0.41853152355E+03  0.99376417523E+03  0.12699999809E+01 0.  1.
</event>
<event>
 5   0  0.8423692E-07  0.3475706E+04  0.7818609E-02  0.8119572E-01
       -1   -1    0    0    0  501  0.00000000000E+00  0.00000000000E+00  0.10602172639E+04  0.10602172639E+04  0.50400001928E-02 0. -1.
        1   -1    0    0  501    0  0.00000000000E+00  0.00000000000E+00 -0.28485981044E+04  0.28485981044E+04  0.50400001928E-02 0.  1.
    10030    2    1    2    0    0  0.00000000000E+00  0.00000000000E+00 -0.17883808405E+04  0.39088153683E+04  0.34757059071E+04 0.  0.
        2    1    3    3  502    0 -0.59854994068E+03 -0.80762330897E+03  0.70006761790E+03  0.12249947389E+04  0.25500000920E-02 0. -1.
       -2    1    3    3    0  502  0.59854994068E+03  0.80762330897E+03 -0.24884484584E+04  0.26838206294E+04  0.25500000920E-02 0.  1.
</event>
<event>
 5   0  0.2382711E-06  0.1912528E+04  0.7818609E-02  0.8648646E-01
        2   -1    0    0  501    0  0.00000000000E+00  0.00000000000E+00  0.18426534037E+04  0.18426534037E+04  0.25500000920E-02 0.  1.
       -2   -1    0    0    0  501  0.00000000000E+00  0.00000000000E+00 -0.49626284715E+03  0.49626284716E+03  0.25500000920E-02 0. -1.
    10030    2    1    2    0    0  0.00000000000E+00  0.00000000000E+00  0.13463905566E+04  0.23389162509E+04  0.19125275679E+04 0.  0.
        5    1    3    3  502    0 -0.44459357700E+03 -0.38612224443E+03 -0.24821453760E+03  0.63905115838E+03  0.46999998093E+01 0. -1.
       -5    1    3    3    0  502  0.44459357700E+03  0.38612224443E+03  0.15946050942E+04  0.16998650925E+04  0.46999998093E+01 0.  1.
</event>
<event>
 5   0  0.1513502E-06  0.3544683E+04  0.7818609E-02  0.8103282E-01
        2   -1    0    0  501    0  0.00000000000E+00  0.00000000000E+00  0.23838460978E+04  0.23838460978E+04  0.25500000920E-02 0. -1.
       -2   -1    0    0    0  501  0.00000000000E+00  0.00000000000E+00 -0.13177001865E+04  0.13177001865E+04  0.25500000920E-02 0.  1.
    10030    2    1    2    0    0  0.00000000000E+00  0.00000000000E+00  0.10661459113E+04  0.37015462842E+04  0.35446830310E+04 0.  0.
        3    1    3    3  502    0 -0.98029060425E+03  0.66902927420E+02 -0.10072441946E+04  0.14071199481E+04  0.10100000352E+00 0.  1.
       -3    1    3    3    0  502  0.98029060425E+03 -0.66902927420E+02  0.20733901059E+04  0.22944263361E+04  0.10100000352E+00 0. -1.
</event>
<event>
 5   0  0.1513502E-06  0.3953254E+04  0.7818609E-02  0.8014044E-01
        2   -1    0    0  501    0  0.00000000000E+00  0.00000000000E+00  0.27216436785E+04  0.27216436785E+04  0.25500000920E-02 0. -1.
       -2   -1    0    0    0  501  0.00000000000E+00  0.00000000000E+00 -0.14355492239E+04  0.14355492239E+04  0.25500000920E-02 0.  1.
    10030    2    1    2    0    0  0.00000000000E+00  0.00000000000E+00  0.12860944546E+04  0.41571929024E+04  0.39532535818E+04 0.  0.
        3    1    3    3  502    0 -0.12721932025E+04 -0.11051401406E+04  0.17294158144E+04  0.24146820379E+04  0.10100000352E+00 0.  1.
       -3    1    3    3    0  502  0.12721932025E+04  0.11051401406E+04 -0.44332135978E+03  0.17425108645E+04  0.10100000352E+00 0. -1.
</event>
<event>
 5   0  0.1908273E-06  0.3587803E+04  0.7818609E-02  0.8093291E-01
       -1   -1    0    0    0  501  0.00000000000E+00  0.00000000000E+00  0.16475482391E+04  0.16475482391E+04  0.50400001928E-02 0. -1.
        1   -1    0    0  501    0  0.00000000000E+00  0.00000000000E+00 -0.19532554989E+04  0.19532554989E+04  0.50400001928E-02 0.  1.
    10030    2    1    2    0    0  0.00000000000E+00  0.00000000000E+00 -0.30570725979E+03  0.36008037379E+04  0.35878030367E+04 0.  0.
        3    1    3    3  502    0 -0.61629225795E+03  0.79177748944E+03 -0.16453046335E+04  0.19271105540E+04  0.10100000352E+00 0.  1.
       -3    1    3    3    0  502  0.61629225795E+03 -0.79177748944E+03  0.13395973737E+04  0.16736931839E+04  0.10100000352E+00 0. -1.
</event>
<event>
 5   0  0.2422436E-06  0.3651852E+04  0.7818609E-02  0.8078716E-01
        2   -1    0    0  501    0  0.00000000000E+00  0.00000000000E+00  0.14816421582E+04  0.14816421582E+04  0.25500000920E-02 0.  1.
       -2   -1    0    0    0  501  0.00000000000E+00  0.00000000000E+00 -0.22502104031E+04  0.22502104031E+04  0.25500000920E-02 0. -1.
    10030    2    1    2    0    0  0.00000000000E+00  0.00000000000E+00 -0.76856824491E+03  0.37318525613E+04  0.36518524603E+04 0.  0.
        2    1    3    3  502    0  0.16903246971E+04  0.65623107239E+03 -0.60386283351E+03  0.19111481167E+04  0.25500000920E-02 0. -1.
       -2    1    3    3    0  502 -0.16903246971E+04 -0.65623107239E+03 -0.16470541140E+03  0.18207044446E+04  0.25500000920E-02 0.  1.
</event>
<event>
 5   0  0.8423692E-07  0.3489451E+04  0.7818609E-02  0.8116295E-01
        1   -1    0    0  501    0  0.00000000000E+00  0.00000000000E+00  0.12827879557E+04  0.12827879557E+04  0.50400001928E-02 0. -1.
       -1   -1    0    0    0  501  0.00000000000E+00  0.00000000000E+00 -0.23730081074E+04  0.23730081074E+04  0.50400001928E-02 0.  1.
    10030    2    1    2    0    0  0.00000000000E+00  0.00000000000E+00 -0.10902201517E+04  0.36557960630E+04  0.34894505119E+04 0.  0.
        2    1    3    3  502    0  0.12671219898E+04 -0.99497882287E+03  0.15650512038E+03  0.16186645260E+04  0.25500000920E-02 0. -1.
       -2    1    3    3    0  502 -0.12671219898E+04  0.99497882287E+03 -0.12467252721E+04  0.20371315370E+04  0.25500000920E-02 0.  1.
</event>
<event>
 5   0  0.2536619E-06  0.3463927E+04  0.7818609E-02  0.8122392E-01
        2   -1    0    0  501    0  0.00000000000E+00  0.00000000000E+00  0.26462469976E+04  0.26462469976E+04  0.25500000920E-02 0. -1.
       -2   -1    0    0    0  501  0.00000000000E+00  0.00000000000E+00 -0.11335664078E+04  0.11335664078E+04  0.25500000920E-02 0.  1.
    10030    2    1    2    0    0  0.00000000000E+00  0.00000000000E+00  0.15126805898E+04  0.37798134053E+04  0.34639265022E+04 0.  0.
        1    1    3    3  502    0 -0.51946098904E+02 -0.94753457531E+03  0.23373195592E+04  0.25226142968E+04  0.50400001928E-02 0. -1.
       -1    1    3    3    0  502  0.51946098904E+02  0.94753457531E+03 -0.82463896940E+03  0.12571991085E+04  0.50400001928E-02 0.  1.
</event>
<event>
 5   0  0.2382711E-06  0.3604638E+04  0.7818609E-02  0.8089430E-01
        2   -1    0    0  501    0  0.00000000000E+00  0.00000000000E+00  0.29113385490E+04  0.29113385490E+04  0.25500000920E-02 0. -1.
       -2   -1    0    0    0  501  0.00000000000E+00  0.00000000000E+00 -0.11157594201E+04  0.11157594201E+04  0.25500000920E-02 0.  1.
    10030    2    1    2    0    0  0.00000000000E+00  0.00000000000E+00  0.17955791289E+04  0.40270979691E+04  0.36046377966E+04 0.  0.
        5    1    3    3  502    0  0.39419077565E+03  0.81470563481E+03 -0.84346461010E+03  0.12371686536E+04  0.46999998093E+01 0.  1.
       -5    1    3    3    0  502 -0.39419077565E+03 -0.81470563481E+03  0.26390437390E+04  0.27899293155E+04  0.46999998093E+01 0. -1.
</event>
<event>
 5   0  0.2422436E-06  0.2065765E+04  0.7818609E-02  0.8576476E-01
       -2   -1    0    0    0  501  0.00000000000E+00  0.00000000000E+00  0.80306329602E+03  0.80306329602E+03  0.25500000920E-02 0. -1.
        2   -1    0    0  501    0  0.00000000000E+00  0.00000000000E+00 -0.13284705391E+04  0.13284705391E+04  0.25500000920E-02 0.  1.
    10030    2    1    2    0    0  0.00000000000E+00  0.00000000000E+00 -0.52540724307E+03  0.21315338351E+04  0.20657646815E+04 0.  0.
        2    1    3    3  502    0  0.21034073987E+03 -0.74952385677E+03 -0.96315095036E+03  0.12384219765E+04  0.25500000920E-02 0.  1.
       -2    1    3    3    0  502 -0.21034073987E+03  0.74952385677E+03  0.43774370729E+03  0.89311185861E+03  0.25500000920E-02 0. -1.
</event>
<event>
 5   0  0.8452742E-07  0.1910616E+04  0.7818609E-02  0.8649590E-01
        1   -1    0    0  501    0  0.00000000000E+00  0.00000000000E+00  0.15192508968E+04  0.15192508968E+04  0.50400001928E-02 0.  1.
       -1   -1    0    0    0  501  0.00000000000E+00  0.00000000000E+00 -0.60069950573E+03  0.60069950575E+03  0.50400001928E-02 0. -1.
    10030    2    1    2    0    0  0.00000000000E+00  0.00000000000E+00  0.91855139106E+03  0.21199504025E+04  0.19106158827E+04 0.  0.
        1    1    3    3  502    0 -0.46235208302E+02 -0.38185976652E+03  0.14295312334E+04  0.14803763450E+04  0.50400001928E-02 0.  1.
       -1    1    3    3    0  502  0.46235208302E+02  0.38185976652E+03 -0.51097984230E+03  0.63957405751E+03  0.50400001928E-02 0. -1.
</event>
<event>
 5   0  0.2422436E-06  0.3610719E+04  0.7818609E-02  0.8088041E-01
        2   -1    0    0  501    0  0.00000000000E+00  0.00000000000E+00  0.16807806259E+04  0.16807806259E+04  0.25500000920E-02 0.  1.
       -2   -1    0    0    0  501  0.00000000000E+00  0.00000000000E+00 -0.19391716737E+04  0.19391716737E+04  0.25500000920E-02 0. -1.
    10030    2    1    2    0    0  0.00000000000E+00  0.00000000000E+00 -0.25839104783E+03  0.36199522996E+04  0.36107185874E+04 0.  0.
        2    1    3    3  502    0  0.38023251499E+03 -0.15159267781E+04  0.77683644044E+03  0.17453038753E+04  0.25500000920E-02 0.  1.
       -2    1    3    3    0  502 -0.38023251499E+03  0.15159267781E+04 -0.10352274883E+04  0.18746484242E+04  0.25500000920E-02 0. -1.
</event>
<event>
 5   0  0.1908273E-06  0.3635806E+04  0.7818609E-02  0.8082339E-01
       -1   -1    0    0    0  501  0.00000000000E+00  0.00000000000E+00  0.19577935684E+04  0.19577935684E+04  0.50400001928E-02 0.  1.
        1   -1    0    0  501    0  0.00000000000E+00  0.00000000000E+00 -0.16880084613E+04  0.16880084613E+04  0.50400001928E-02 0. -1.
    10030    2    1    2    0    0  0.00000000000E+00  0.00000000000E+00  0.26978510713E+03  0.36458020296E+04  0.36358064353E+04 0.  0.
        3    1    3    3  502    0  0.68650992734E+03  0.12879360196E+04  0.12217066514E+04  0.19033239932E+04  0.10100000352E+00 0.  1.
       -3    1    3    3    0  502 -0.68650992734E+03 -0.12879360196E+04 -0.95192154423E+03  0.17424780364E+04  0.10100000352E+00 0. -1.
</event>
<event>
 5   0  0.8423692E-07  0.3600515E+04  0.7818609E-02  0.8090374E-01
        1   -1    0    0  501    0  0.00000000000E+00  0.00000000000E+00  0.15545215286E+04  0.15545215286E+04  0.50400001928E-02 0. -1.
       -1   -1    0    0    0  501  0.00000000000E+00  0.00000000000E+00 -0.20848384953E+04  0.20848384953E+04  0.50400001928E-02 0.  1.
    10030    2    1    2    0    0  0.00000000000E+00  0.00000000000E+00 -0.53031696673E+03  0.36393600240E+04  0.36005145880E+04 0.  0.
        2    1    3    3  502    0  0.93221035077E+03  0.73772687246E+03  0.11013402949E+04  0.16205577810E+04  0.25500000920E-02 0. -1.
       -2    1    3    3    0  502 -0.93221035077E+03 -0.73772687246E+03 -0.16316572617E+04  0.20188022429E+04  0.25500000920E-02 0.  1.
</event>
<event>
 5   0  0.1513502E-06  0.3534682E+04  0.7818609E-02  0.8105620E-01
        2   -1    0    0  501    0  0.00000000000E+00  0.00000000000E+00  0.20499844896E+04  0.20499844896E+04  0.25500000920E-02 0. -1.
       -2   -1    0    0    0  501  0.00000000000E+00  0.00000000000E+00 -0.15236673652E+04  0.15236673652E+04  0.25500000920E-02 0.  1.
    10030    2    1    2    0    0  0.00000000000E+00  0.00000000000E+00  0.52631712437E+03  0.35736518547E+04  0.35346821446E+04 0.  0.
        3    1    3    3  502    0 -0.21268153100E+03 -0.71923349591E+03  0.18811030954E+04  0.20251121256E+04  0.10100000352E+00 0. -1.
       -3    1    3    3    0  502  0.21268153100E+03  0.71923349591E+03 -0.13547859711E+04  0.15485397292E+04  0.10100000352E+00 0.  1.
</event>
<event>
 5   0  0.8452742E-07  0.3037367E+04  0.7818609E-02  0.8233140E-01
        1   -1    0    0  501    0  0.00000000000E+00  0.00000000000E+00  0.21922926635E+04  0.21922926635E+04  0.50400001928E-02 0.  1.
       -1   -1    0    0    0  501  0.00000000000E+00  0.00000000000E+00 -0.10520490534E+04  0.10520490535E+04  0.50400001928E-02 0. -1.
    10030    2    1    2    0    0  0.00000000000E+00  0.00000000000E+00  0.11402436100E+04  0.32443417169E+04  0.30373669001E+04 0.  0.
        1    1    3    3  502    0  0.23243930710E+03 -0.61967928015E+03  0.20301480382E+04  0.21353059497E+04  0.50400001928E-02 0.  1.
       -1    1    3    3    0  502 -0.23243930710E+03  0.61967928015E+03 -0.88990442817E+03  0.11090357672E+04  0.50400001928E-02 0. -1.
</event>
<event>
 5   0  0.2382711E-06  0.2526973E+04  0.7818609E-02  0.8393439E-01
       -2   -1    0    0    0  501  0.00000000000E+00  0.00000000000E+00  0.11175300931E+04  0.11175300931E+04  0.25500000920E-02 0.  1.
        2   -1    0    0  501    0  0.00000000000E+00  0.00000000000E+00 -0.14285051644E+04  0.14285051644E+04  0.25500000920E-02 0. -1.
    10030    2    1    2    0    0  0.00000000000E+00  0.00000000000E+00 -0.31097507132E+03  0.25460352575E+04  0.25269725043E+04 0.  0.
        5    1    3    3  502    0 -0.34564045983E+03  0.11667470692E+04 -0.49806627856E+03  0.13148605093E+04  0.46999998093E+01 0. -1.
       -5    1    3    3    0  502  0.34564045983E+03 -0.11667470692E+04  0.18709120724E+03  0.12311747483E+04  0.46999998093E+01 0.  1.
</event>
<event>
 5   0  0.2382711E-06  0.1864753E+04  0.7818609E-02  0.8672603E-01
        2   -1    0    0  501    0  0.00000000000E+00  0.00000000000E+00  0.13357500843E+04  0.13357500843E+04  0.25500000920E-02 0.  1.
       -2   -1    0    0    0  501  0.00000000000E+00  0.00000000000E+00 -0.65081453365E+03  0.65081453365E+03  0.25500000920E-02 0. -1.
    10030    2    1    2    0    0  0.00000000000E+00  0.00000000000E+00  0.68493555063E+03  0.19865646179E+04  0.18647526036E+04 0.  0.
        5    1    3    3  502    0 -0.53648830871E+03  0.59837863872E+03  0.84602529393E+03  0.11669008478E+04  0.46999998093E+01 0.  1.
       -5    1    3    3    0  502  0.53648830871E+03 -0.59837863872E+03 -0.16108974330E+03  0.81966377012E+03  0.46999998093E+01 0. -1.
</event>
<event>
 5   0  0.1566576E-06  0.2267822E+04  0.7818609E-02  0.8490718E-01
        2   -1    0    0  501    0  0.00000000000E+00  0.00000000000E+00  0.99325083087E+03  0.99325083087E+03  0.25500000920E-02 0. -1.
       -2   -1    0    0    0  501  0.00000000000E+00  0.00000000000E+00 -0.12944906021E+04  0.12944906021E+04  0.25500000920E-02 0.  1.
    10030    2    1    2    0    0  0.00000000000E+00  0.00000000000E+00 -0.30123977125E+03  0.22877414330E+04  0.22678217444E+04 0.  0.
        4    1    3    3  502    0  0.87989463835E+03  0.71491194071E+03 -0.12949325813E+03  0.11410888547E+04  0.12699999809E+01 0. -1.
       -4    1    3    3    0  502 -0.87989463835E+03 -0.71491194071E+03 -0.17174651312E+03  0.11466525783E+04  0.12699999809E+01 0.  1.
</event>
<event>
 5   0  0.7754556E-07  0.3618060E+04  0.7818609E-02  0.8086367E-01
       -1   -1    0    0    0  501  0.00000000000E+00  0.00000000000E+00  0.11578156572E+04  0.11578156572E+04  0.50400001928E-02 0. -1.
        1   -1    0    0  501    0  0.00000000000E+00  0.00000000000E+00 -0.28265205010E+04  0.28265205010E+04  0.50400001928E-02 0.  1.
    10030    2    1    2    0    0  0.00000000000E+00  0.00000000000E+00 -0.16687048438E+04  0.39843361582E+04  0.36180600833E+04 0.  0.
        4    1    3    3  502    0 -0.16721811913E+04 -0.60650814665E+03 -0.11971690063E+04  0.21441215709E+04  0.12699999809E+01 0. -1.
       -4    1    3    3    0  502  0.16721811913E+04  0.60650814665E+03 -0.47153583749E+03  0.18402145873E+04  0.12699999809E+01 0.  1.
</event>
<event>
 5   0  0.7754556E-07  0.3739683E+04  0.7818609E-02  0.8059224E-01
        1   -1    0    0  501    0  0.00000000000E+00  0.00000000000E+00  0.14215845701E+04  0.14215845701E+04  0.50400001928E-02 0.  1.
       -1   -1    0    0    0  501  0.00000000000E+00  0.00000000000E+00 -0.24594432123E+04  0.24594432123E+04  0.50400001928E-02 0. -1.
    10030    2    1    2    0    0  0.00000000000E+00  0.00000000000E+00 -0.10378586423E+04  0.38810277824E+04  0.37396826184E+04 0.  0.
        4    1    3    3  502    0 -0.14690278807E+04  0.73392099012E+03 -0.14469429752E+04  0.21886819139E+04  0.12699999809E+01 0. -1.
       -4    1    3    3    0  502  0.14690278807E+04 -0.73392099012E+03  0.40908433288E+03  0.16923458685E+04  0.12699999809E+01 0.  1.
</event>
<event>
 5   0  0.1513502E-06  0.3394208E+04  0.7818609E-02  0.8139329E-01
        2   -1    0    0  501    0  0.00000000000E+00  0.00000000000E+00  0.95612538850E+03  0.95612538850E+03  0.25500000920E-02 0. -1.
       -2   -1    0    0    0  501  0.00000000000E+00  0.00000000000E+00 -0.30123265853E+04  0.30123265853E+04  0.25500000920E-02 0.  1.
    10030    2    1    2    0    0  0.00000000000E+00  0.00000000000E+00 -0.20562011968E+04  0.39684519738E+04  0.33942079645E+04 0.  0.
        3    1    3    3  502    0 -0.16854797404E+04  0.18846107914E+03 -0.95600469311E+03  0.19468704418E+04  0.10100000352E+00 0.  1.
       -3    1    3    3    0  502  0.16854797404E+04 -0.18846107914E+03 -0.11001965037E+04  0.20215815320E+04  0.10100000352E+00 0. -1.
</event>
<event>
 5   0  0.1566576E-06  0.2616525E+04  0.7818609E-02  0.8362610E-01
       -2   -1    0    0    0  501  0.00000000000E+00  0.00000000000E+00  0.56352215926E+03  0.56352215927E+03  0.25500000920E-02 0. -1.
        2   -1    0    0  501    0  0.00000000000E+00  0.00000000000E+00 -0.30372370694E+04  0.30372370694E+04  0.25500000920E-02 0.  1.
    10030    2    1    2    0    0  0.00000000000E+00  0.00000000000E+00 -0.24737149102E+04  0.36007592287E+04  0.26165247116E+04 0.  0.
        4    1    3    3  502    0  0.18196016580E+03  0.41080576128E+03  0.45401710840E+03  0.63875192607E+03  0.12699999809E+01 0. -1.
       -4    1    3    3    0  502 -0.18196016580E+03 -0.41080576128E+03 -0.29277320186E+04  0.29620073026E+04  0.12699999809E+01 0.  1.
</event>
<event>
 5   0  0.2536619E-06  0.3177874E+04  0.7818609E-02  0.8194685E-01
        2   -1    0    0  501    0  0.00000000000E+00  0.00000000000E+00  0.14667562117E+04  0.14667562117E+04  0.25500000920E-02 0. -1.
       -2   -1    0    0    0  501  0.00000000000E+00  0.00000000000E+00 -0.17212955503E+04  0.17212955503E+04  0.25500000920E-02 0.  1.
    10030    2    1    2    0    0  0.00000000000E+00  0.00000000000E+00 -0.25453933862E+03  0.31880517620E+04  0.31778740947E+04 0.  0.
        1    1    3    3  502    0 -0.93758339734E+03 -0.11495622424E+04  0.44390865067E+03  0.15484220569E+04  0.50400001928E-02 0. -1.
       -1    1    3    3    0  502  0.93758339734E+03  0.11495622424E+04 -0.69844798930E+03  0.16396297051E+04  0.50400001928E-02 0.  1.
</event>
<event>
 5   0  0.8452742E-07  0.3549212E+04  0.7818609E-02  0.8102225E-01
       -1   -1    0    0    0  501  0.00000000000E+00  0.00000000000E+00  0.16440092112E+04  0.16440092112E+04  0.50400001928E-02 0.  1.
        1   -1    0    0  501    0  0.00000000000E+00  0.00000000000E+00 -0.19155775025E+04  0.19155775025E+04  0.50400001928E-02 0. -1.
    10030    2    1    2    0    0  0.00000000000E+00  0.00000000000E+00 -0.27156829130E+03  0.35595867138E+04  0.35492123402E+04 0.  0.
        1    1    3    3  502    0 -0.26762002794E+03 -0.11065832910E+04  0.12294736927E+04  0.16756349902E+04  0.50400001928E-02 0.  1.
       -1    1    3    3    0  502  0.26762002794E+03  0.11065832910E+04 -0.15010419840E+04  0.18839517236E+04  0.50400001928E-02 0. -1.
</event>
<event>
 5   0  0.1513502E-06  0.3035406E+04  0.7818609E-02  0.8233692E-01
       -2   -1    0    0    0  501  0.00000000000E+00  0.00000000000E+00  0.15347194824E+04  0.15347194825E+04  0.25500000920E-02 0.  1.
        2   -1    0    0  501    0  0.00000000000E+00  0.00000000000E+00 -0.15008751737E+04  0.15008751737E+04  0.25500000920E-02 0. -1.
    10030    2    1    2    0    0  0.00000000000E+00  0.00000000000E+00  0.33844308744E+02  0.30355946562E+04  0.30354059826E+04 0.  0.
        3    1    3    3  502    0  0.11938976190E+04 -0.69098215384E+03 -0.61602673538E+03  0.15107404842E+04  0.10100000352E+00 0. -1.
       -3    1    3    3    0  502 -0.11938976190E+04  0.69098215384E+03  0.64987104413E+03  0.15248541720E+04  0.10100000352E+00 0.  1.
</event>
<event>
 5   0  0.2422436E-06  0.3374318E+04  0.7818609E-02  0.8144238E-01
       -2   -1    0    0    0  501  0.00000000000E+00  0.00000000000E+00  0.12059274992E+04  0.12059274992E+04  0.25500000920E-02 0. -1.
        2   -1    0    0  501    0  0.00000000000E+00  0.00000000000E+00 -0.23604287589E+04  0.23604287589E+04  0.25500000920E-02 0.  1.
    10030    2    1    2    0    0  0.00000000000E+00  0.00000000000E+00 -0.11545012596E+04  0.35663562581E+04  0.33743182721E+04 0.  0.
        2    1    3    3  502    0  0.45053629856E+03  0.87934489940E+03 -0.20226620377E+04  0.22510868769E+04  0.25500000920E-02 0.  1.
       -2    1    3    3    0  502 -0.45053629856E+03 -0.87934489940E+03  0.86816077813E+03  0.13152693812E+04  0.25500000920E-02 0. -1.
</event>
<event>
 5   0  0.1634374E-06  0.3301574E+04  0.7818609E-02  0.8162495E-01
       -1   -1    0    0    0  501  0.00000000000E+00  0.00000000000E+00  0.99531884178E+03  0.99531884180E+03  0.50400001928E-02 0. -1.
        1   -1    0    0  501    0  0.00000000000E+00  0.00000000000E+00 -0.27379149507E+04  0.27379149507E+04  0.50400001928E-02 0.  1.
    10030    2    1    2    0    0  0.00000000000E+00  0.00000000000E+00 -0.17425961089E+04  0.37332337925E+04  0.33015743746E+04 0.  0.
        5    1    3    3  502    0  0.52951482551E+03  0.18494689275E+02  0.89655288227E+03  0.10414207433E+04  0.46999998093E+01 0. -1.
       -5    1    3    3    0  502 -0.52951482551E+03 -0.18494689275E+02 -0.26391489912E+04  0.26918130492E+04  0.46999998093E+01 0.  1.
</event>
<event>
 5   0  0.1566576E-06  0.3606367E+04  0.7818609E-02  0.8089035E-01
       -2   -1    0    0    0  501  0.00000000000E+00  0.00000000000E+00  0.15974519704E+04  0.15974519704E+04  0.25500000920E-02 0.  1.
        2   -1    0    0  501    0  0.00000000000E+00  0.00000000000E+00 -0.20354106942E+04  0.20354106942E+04  0.25500000920E-02 0. -1.
    10030    2    1    2    0    0  0.00000000000E+00  0.00000000000E+00 -0.43795872373E+03  0.36328626646E+04  0.36063670496E+04 0.  0.
        4    1    3    3  502    0 -0.10614243637E+04  0.96254494078E+03 -0.13217158831E+04  0.19493714195E+04  0.12699999809E+01 0. -1.
       -4    1    3    3    0  502  0.10614243637E+04 -0.96254494078E+03  0.88375715933E+03  0.16834912451E+04  0.12699999809E+01 0.  1.
</event>
<event>
 5   0  0.1566576E-06  0.2388067E+04  0.7818609E-02  0.8443985E-01
        2   -1    0    0  501    0  0.00000000000E+00  0.00000000000E+00  0.98069681803E+03  0.98069681804E+03  0.25500000920E-02 0.  1.
       -2   -1    0    0    0  501  0.00000000000E+00  0.00000000000E+00 -0.14537785728E+04  0.14537785728E+04  0.25500000920E-02 0. -1.
    10030    2    1    2    0    0  0.00000000000E+00  0.00000000000E+00 -0.47308175472E+03  0.24344753908E+04  0.23880670178E+04 0.  0.
        4    1    3    3  502    0 -0.38490883693E+03  0.76444251080E+03  0.61221766623E+03  0.10523018810E+04  0.12699999809E+01 0.  1.
       -4    1    3    3    0  502  0.38490883693E+03 -0.76444251080E+03 -0.10852994210E+04  0.13821735098E+04  0.12699999809E+01 0. -1.
</event>
<event>
 5   0  0.1566576E-06  0.3561660E+04  0.7818609E-02  0.8099331E-01
       -2   -1    0    0    0  501  0.00000000000E+00  0.00000000000E+00  0.16510897483E+04  0.16510897483E+04  0.25500000920E-02 0. -1.
        2   -1    0    0  501    0  0.00000000000E+00  0.00000000000E+00 -0.19207655877E+04  0.19207655877E+04  0.25500000920E-02 0.  1.
    10030    2    1    2    0    0  0.00000000000E+00  0.00000000000E+00 -0.26967583942E+03  0.35718553360E+04  0.35616604952E+04 0.  0.
        4    1    3    3  502    0 -0.17716665982E+04  0.50542196942E+02  0.38856307624E+02  0.17728137168E+04  0.12699999809E+01 0. -1.
       -4    1    3    3    0  502  0.17716665982E+04 -0.50542196942E+02 -0.30853214704E+03  0.17990416192E+04  0.12699999809E+01 0.  1.
</event>
<event>
 5   0  0.2422436E-06  0.3099508E+04  0.7818609E-02  0.8215873E-01
        2   -1    0    0  501    0  0.00000000000E+00  0.00000000000E+00  0.22901155971E+04  0.22901155971E+04  0.25500000920E-02 0. -1.
       -2   -1    0    0    0  501  0.00000000000E+00  0.00000000000E+00 -0.10487405573E+04  0.10487405573E+04  0.25500000920E-02 0.  1.
    10030    2    1    2    0    0  0.00000000000E+00  0.00000000000E+00  0.12413750398E+04  0.33388561545E+04  0.30995077723E+04 0.  0.
        2    1    3    3  502    0  0.68903911527E+03 -0.47680819893E+03 -0.78367879358E+03  0.11472895940E+04  0.25500000920E-02 0. -1.
       -2    1    3    3    0  502 -0.68903911527E+03  0.47680819893E+03  0.20250538334E+04  0.21915665605E+04  0.25500000920E-02 0.  1.
</event>
<event>
 5   0  0.2382711E-06  0.3549563E+04  0.7818609E-02  0.8102144E-01
        2   -1    0    0  501    0  0.00000000000E+00  0.00000000000E+00  0.20448714548E+04  0.20448714548E+04  0.25500000920E-02 0.  1.
       -2   -1    0    0    0  501  0.00000000000E+00  0.00000000000E+00 -0.15403651030E+04  0.15403651030E+04  0.25500000920E-02 0. -1.
    10030    2    1    2    0    0  0.00000000000E+00  0.00000000000E+00  0.50450635178E+03  0.35852365577E+04  0.35495625809E+04 0.  0.
        5    1    3    3  502    0  0.13094899833E+04  0.83266293325E+03 -0.61764286415E+03  0.16702084823E+04  0.46999998093E+01 0. -1.
       -5    1    3    3    0  502 -0.13094899833E+04 -0.83266293325E+03  0.11221492159E+04  0.19150280754E+04  0.46999998093E+01 0.  1.
</event>
<event>
 5   0  0.2382711E-06  0.3692412E+04  0.7818609E-02  0.8069645E-01
        2   -1    0    0  501    0  0.00000000000E+00  0.00000000000E+00  0.23304503741E+04  0.23304503741E+04  0.25500000920E-02 0. -1.
       -2   -1    0    0    0  501  0.00000000000E+00  0.00000000000E+00 -0.14625830731E+04  0.14625830731E+04  0.25500000920E-02 0.  1.
    10030    2    1    2    0    0  0.00000000000E+00  0.00000000000E+00  0.86786730103E+03  0.37930334472E+04  0.36924123659E+04 0.  0.
        5    1    3    3  502    0 -0.56852092508E+03 -0.44956590425E+03 -0.13103156629E+04  0.14974227095E+04  0.46999998093E+01 0.  1.
       -5    1    3    3    0  502  0.56852092508E+03  0.44956590425E+03  0.21781829640E+04  0.22956107377E+04  0.46999998093E+01 0. -1.
</event>
<event>
 5   0  0.2536619E-06  0.3511032E+04  0.7818609E-02  0.8111181E-01
        2   -1    0    0  501    0  0.00000000000E+00  0.00000000000E+00  0.20469232859E+04  0.20469232859E+04  0.25500000920E-02 0.  1.
       -2   -1    0    0    0  501  0.00000000000E+00  0.00000000000E+00 -0.15055943258E+04  0.15055943258E+04  0.25500000920E-02 0. -1.
    10030    2    1    2    0    0  0.00000000000E+00  0.00000000000E+00  0.54132896012E+03  0.35525176116E+04  0.35110318053E+04 0.  0.
        1    1    3    3  502    0 -0.45780159235E+02  0.12205473863E+04  0.15465174555E+04  0.19706719629E+04  0.50400001928E-02 0.  1.
       -1    1    3    3    0  502  0.45780159235E+02 -0.12205473863E+04 -0.10051884953E+04  0.15818456487E+04  0.50400001928E-02 0. -1.
</event>
<event>
 5   0  0.7754556E-07  0.1815821E+04  0.7818609E-02  0.8697931E-01
       -1   -1    0    0    0  501  0.00000000000E+00  0.00000000000E+00  0.54126588406E+03  0.54126588408E+03  0.50400001928E-02 0.  1.
        1   -1    0    0  501    0  0.00000000000E+00  0.00000000000E+00 -0.15229137308E+04  0.15229137308E+04  0.50400001928E-02 0. -1.
    10030    2    1    2    0    0  0.00000000000E+00  0.00000000000E+00 -0.98164784676E+03  0.20641796149E+04  0.18158207476E+04 0.  0.
        4    1    3    3  502    0 -0.31661951063E+03 -0.62396220029E+03  0.16685998851E+03  0.71931954691E+03  0.12699999809E+01 0.  1.
       -4    1    3    3    0  502  0.31661951063E+03  0.62396220029E+03 -0.11485078353E+04  0.13448600680E+04  0.12699999809E+01 0. -1.
</event>
<event>
 5   0  0.1634374E-06  0.1948854E+04  0.7818609E-02  0.8630914E-01
        1   -1    0    0  501    0  0.00000000000E+00  0.00000000000E+00  0.97461227454E+03  0.97461227455E+03  0.50400001928E-02 0.  1.
       -1   -1    0    0    0  501  0.00000000000E+00  0.00000000000E+00 -0.97424192284E+03  0.97424192285E+03  0.50400001928E-02 0. -1.
    10030    2    1    2    0    0  0.00000000000E+00  0.00000000000E+00  0.37035170049E+00  0.19488541974E+04  0.19488541622E+04 0.  0.
        5    1    3    3  502    0 -0.44883127000E+03  0.33882623364E+03  0.79594477758E+03  0.97457832136E+03  0.46999998093E+01 0.  1.
       -5    1    3    3    0  502  0.44883127000E+03 -0.33882623364E+03 -0.79557442587E+03  0.97427587604E+03  0.46999998093E+01 0. -1.
</event>
<event>
 5   0  0.2536619E-06  0.3535601E+04  0.7818609E-02  0.8105404E-01
       -2   -1    0    0    0  501  0.00000000000E+00  0.00000000000E+00  0.33393540696E+04  0.33393540696E+04  0.25500000920E-02 0.  1.
        2   -1    0    0  501    0  0.00000000000E+00  0.00000000000E+00 -0.93584520638E+03  0.93584520638E+03  0.25500000920E-02 0. -1.
    10030    2    1    2    0    0  0.00000000000E+00  0.00000000000E+00  0.24035088632E+04  0.42751992760E+04  0.35356009381E+04 0.  0.
        1    1    3    3  502    0 -0.13343370906E+04  0.11539410587E+04  0.10634462753E+04  0.20598430568E+04  0.50400001928E-02 0. -1.
       -1    1    3    3    0  502  0.13343370906E+04 -0.11539410587E+04  0.13400625879E+04  0.22153562192E+04  0.50400001928E-02 0.  1.
</event>
<event>
 5   0  0.8423692E-07  0.3695419E+04  0.7818609E-02  0.8068978E-01
        1   -1    0    0  501    0  0.00000000000E+00  0.00000000000E+00  0.17838861516E+04  0.17838861516E+04  0.50400001928E-02 0. -1.
       -1   -1    0    0    0  501  0.00000000000E+00  0.00000000000E+00 -0.19138165995E+04  0.19138165996E+04  0.50400001928E-02 0.  1.
    10030    2    1    2    0    0  0.00000000000E+00  0.00000000000E+00 -0.12993044795E+03  0.36977027512E+04  0.36954192881E+04 0.  0.
        2    1    3    3  502    0  0.61460053296E+03  0.13562014982E+04  0.10297924563E+04  0.18103836118E+04  0.25500000920E-02 0. -1.
       -2    1    3    3    0  502 -0.61460053296E+03 -0.13562014982E+04 -0.11597229043E+04  0.18873191393E+04  0.25500000920E-02 0.  1.
</event>
<event>
 5   0  0.2422436E-06  0.3551231E+04  0.7818609E-02  0.8101755E-01
        2   -1    0    0  501    0  0.00000000000E+00  0.00000000000E+00  0.22785869533E+04  0.22785869533E+04  0.25500000920E-02 0. -1.
       -2   -1    0    0    0  501  0.00000000000E+00  0.00000000000E+00 -0.13836691119E+04  0.13836691119E+04  0.25500000920E-02 0.  1.
    10030    2    1    2    0    0  0.00000000000E+00  0.00000000000E+00  0.89491784134E+03  0.36622560652E+04  0.35512309900E+04 0.  0.
        2    1    3    3  502    0 -0.43213613427E+02 -0.16570876160E+04 -0.20883627966E+03  0.16707541337E+04  0.25500000920E-02 0. -1.
       -2    1    3    3    0  502  0.43213613427E+02  0.16570876160E+04  0.11037541210E+04  0.19915019315E+04  0.25500000920E-02 0.  1.
</event>
<event>
 5   0  0.7754556E-07  0.3763624E+04  0.7818609E-02  0.8054006E-01
       -1   -1    0    0    0  501  0.00000000000E+00  0.00000000000E+00  0.11109569777E+04  0.11109569777E+04  0.50400001928E-02 0. -1.
        1   -1    0    0  501    0  0.00000000000E+00  0.00000000000E+00 -0.31875371597E+04  0.31875371597E+04  0.50400001928E-02 0.  1.
    10030    2    1    2    0    0  0.00000000000E+00  0.00000000000E+00 -0.20765801820E+04  0.42984941374E+04  0.37636241307E+04 0.  0.
        4    1    3    3  502    0  0.11137247475E+04 -0.14639160295E+04 -0.14919589146E+04  0.23684121200E+04  0.12699999809E+01 0.  1.
       -4    1    3    3    0  502 -0.11137247475E+04  0.14639160295E+04 -0.58462126740E+03  0.19300820174E+04  0.12699999809E+01 0. -1.
</event>
<event>
 5   0  0.7754556E-07  0.1924222E+04  0.7818609E-02  0.8642893E-01
       -1   -1    0    0    0  501  0.00000000000E+00  0.00000000000E+00  0.78397973646E+03  0.78397973647E+03  0.50400001928E-02 0.  1.
        1   -1    0    0  501    0  0.00000000000E+00  0.00000000000E+00 -0.11807158026E+04  0.11807158026E+04  0.50400001928E-02 0. -1.
    10030    2    1    2    0    0  0.00000000000E+00  0.00000000000E+00 -0.39673606612E+03  0.19646955391E+04  0.19242216751E+04 0.  0.
        4    1    3    3  502    0 -0.63365516660E+03  0.30882348709E+03 -0.86694242227E+03  0.11173547301E+04  0.12699999809E+01 0. -1.
       -4    1    3    3    0  502  0.63365516660E+03 -0.30882348709E+03  0.47020635615E+03  0.84734080901E+03  0.12699999809E+01 0.  1.
</event>
<event>
 5   0  0.1513502E-06  0.3596703E+04  0.7818609E-02  0.8091247E-01
       -2   -1    0    0    0  501  0.00000000000E+00  0.00000000000E+00  0.15366636081E+04  0.15366636081E+04  0.25500000920E-02 0.  1.
        2   -1    0    0  501    0  0.00000000000E+00  0.00000000000E+00 -0.21046042630E+04  0.21046042630E+04  0.25500000920E-02 0. -1.
    10030    2    1    2    0    0  0.00000000000E+00  0.00000000000E+00 -0.56794065494E+03  0.36412678710E+04  0.35967033685E+04 0.  0.
        3    1    3    3  502    0 -0.40041360730E+03 -0.12154388637E+04  0.99519045236E+03  0.16211189762E+04  0.10100000352E+00 0.  1.
       -3    1    3    3    0  502  0.40041360730E+03  0.12154388637E+04 -0.15631311073E+04  0.20201488948E+04  0.10100000352E+00 0. -1.
</event>
<event>
 5   0  0.8452742E-07  0.2411322E+04  0.7818609E-02  0.8435277E-01
       -1   -1    0    0    0  501  0.00000000000E+00  0.00000000000E+00  0.95173756508E+03  0.95173756510E+03  0.50400001928E-02 0. -1.
        1   -1    0    0  501    0  0.00000000000E+00  0.00000000000E+00 -0.15273312663E+04  0.15273312663E+04  0.50400001928E-02 0.  1.
    10030    2    1    2    0    0  0.00000000000E+00  0.00000000000E+00 -0.57559370121E+03  0.24790688314E+04  0.24113220776E+04 0.  0.
        1    1    3    3  502    0 -0.11309894775E+03 -0.68998926830E+03  0.72201148352E+03  0.10050756910E+04  0.50400001928E-02 0. -1.
       -1    1    3    3    0  502  0.11309894775E+03  0.68998926830E+03 -0.12976051847E+04  0.14739931404E+04  0.50400001928E-02 0.  1.
</event>
<event>
 5   0  0.8452742E-07  0.3597907E+04  0.7818609E-02  0.8090971E-01
        1   -1    0    0  501    0  0.00000000000E+00  0.00000000000E+00  0.14457800533E+04  0.14457800534E+04  0.50400001928E-02 0.  1.
       -1   -1    0    0    0  501  0.00000000000E+00  0.00000000000E+00 -0.22383992871E+04  0.22383992871E+04  0.50400001928E-02 0. -1.
    10030    2    1    2    0    0  0.00000000000E+00  0.00000000000E+00 -0.79261923375E+03  0.36841793405E+04  0.35979066362E+04 0.  0.
        1    1    3    3  502    0  0.14812211460E+04 -0.13826480026E+02  0.64896428320E+03  0.16172080559E+04  0.50400001928E-02 0.  1.
       -1    1    3    3    0  502 -0.14812211460E+04  0.13826480026E+02 -0.14415835169E+04  0.20669712846E+04  0.50400001928E-02 0. -1.
</event>
<event>
 5   0  0.2422436E-06  0.2416751E+04  0.7818609E-02  0.8433259E-01
        2   -1    0    0  501    0  0.00000000000E+00  0.00000000000E+00  0.12050056386E+04  0.12050056386E+04  0.25500000920E-02 0. -1.
       -2   -1    0    0    0  501  0.00000000000E+00  0.00000000000E+00 -0.12117543772E+04  0.12117543772E+04  0.25500000920E-02 0.  1.
    10030    2    1    2    0    0  0.00000000000E+00  0.00000000000E+00 -0.67487386152E+01  0.24167600159E+04  0.24167505930E+04 0.  0.
        2    1    3    3  502    0  0.99572155626E+03 -0.67956992082E+03 -0.86405785489E+02  0.12086118710E+04  0.25500000920E-02 0.  1.
       -2    1    3    3    0  502 -0.99572155626E+03  0.67956992082E+03  0.79657046874E+02  0.12081481449E+04  0.25500000920E-02 0. -1.
</event>
<event>
 5   0  0.1566576E-06  0.2285703E+04  0.7818609E-02  0.8483580E-01
       -2   -1    0    0    0  501  0.00000000000E+00  0.00000000000E+00  0.16487870902E+04  0.16487870902E+04  0.25500000920E-02 0. -1.
        2   -1    0    0  501    0  0.00000000000E+00  0.00000000000E+00 -0.79216406438E+03  0.79216406438E+03  0.25500000920E-02 0.  1.
    10030    2    1    2    0    0  0.00000000000E+00  0.00000000000E+00  0.85662302581E+03  0.24409511546E+04  0.22857032902E+04 0.  0.
        4    1    3    3  502    0 -0.49607107378E+02  0.95878425162E+03  0.10904056148E+04  0.14528296954E+04  0.12699999809E+01 0. -1.
       -4    1    3    3    0  502  0.49607107378E+02 -0.95878425162E+03 -0.23378258895E+03  0.98812145916E+03  0.12699999809E+01 0.  1.
</event>
<event>
 5   0  0.8452742E-07  0.3349509E+04  0.7818609E-02  0.8150411E-01
       -1   -1    0    0    0  501  0.00000000000E+00  0.00000000000E+00  0.15909442123E+04  0.15909442123E+04  0.50400001928E-02 0. -1.
        1   -1    0    0  501    0  0.00000000000E+00  0.00000000000E+00 -0.17629797164E+04  0.17629797164E+04  0.50400001928E-02 0.  1.
    10030    2    1    2    0    0  0.00000000000E+00  0.00000000000E+00 -0.17203550410E+03  0.33539239287E+04  0.33495088453E+04 0.  0.
        1    1    3    3  502    0 -0.15466864597E+03  0.38180657487E+03  0.15394222238E+04  0.15935869709E+04  0.50400001928E-02 0. -1.
       -1    1    3    3    0  502  0.15466864597E+03 -0.38180657487E+03 -0.17114577279E+04  0.17603369578E+04  0.50400001928E-02 0.  1.
</event>
<event>
 5   0  0.2422436E-06  0.3635649E+04  0.7818609E-02  0.8082374E-01
        2   -1    0    0  501    0  0.00000000000E+00  0.00000000000E+00  0.22723467530E+04  0.22723467530E+04  0.25500000920E-02 0.  1.
       -2   -1    0    0    0  501  0.00000000000E+00  0.00000000000E+00 -0.14542171853E+04  0.14542171853E+04  0.25500000920E-02 0. -1.
    10030    2    1    2    0    0  0.00000000000E+00  0.00000000000E+00  0.81812956767E+03  0.37265639383E+04  0.36356488824E+04 0.  0.
        2    1    3    3  502    0 -0.76062909753E+03  0.99790743953E+03  0.17572932057E+04  0.21592719358E+04  0.25500000920E-02 0.  1.
       -2    1    3    3    0  502  0.76062909753E+03 -0.99790743953E+03 -0.93916363805E+03  0.15672920024E+04  0.25500000920E-02 0. -1.
</event>
<event>
 5   0  0.1566576E-06  0.3409074E+04  0.7818609E-02  0.8135683E-01
       -2   -1    0    0    0  501  0.00000000000E+00  0.00000000000E+00  0.17264864294E+04  0.17264864294E+04  0.25500000920E-02 0.  1.
        2   -1    0    0  501    0  0.00000000000E+00  0.00000000000E+00 -0.16828669635E+04  0.16828669635E+04  0.25500000920E-02 0. -1.
    10030    2    1    2    0    0  0.00000000000E+00  0.00000000000E+00  0.43619465926E+02  0.34093533929E+04  0.34090743464E+04 0.  0.
        4    1    3    3  502    0 -0.14989053619E+04 -0.64429542618E+02 -0.78731576773E+03  0.16943246976E+04  0.12699999809E+01 0. -1.
       -4    1    3    3    0  502  0.14989053619E+04  0.64429542618E+02  0.83093523366E+03  0.17150286952E+04  0.12699999809E+01 0.  1.
</event>
<event>
 5   0  0.1513502E-06  0.2703423E+04  0.7818609E-02  0.8333895E-01
       -2   -1    0    0    0  501  0.00000000000E+00  0.00000000000E+00  0.15541411957E+04  0.15541411957E+04  0.25500000920E-02 0.  1.
        2   -1    0    0  501    0  0.00000000000E+00  0.00000000000E+00 -0.11756490279E+04  0.11756490279E+04  0.25500000920E-02 0. -1.
    10030    2    1    2    0    0  0.00000000000E+00  0.00000000000E+00  0.37849216785E+03  0.27297902236E+04  0.27034234488E+04 0.  0.
        3    1    3    3  502    0 -0.13157904750E+04  0.21021747304E+03 -0.40189321821E+02  0.13330833252E+04  0.10100000352E+00 0. -1.
       -3    1    3    3    0  502  0.13157904750E+04 -0.21021747304E+03  0.41868148967E+03  0.13967068984E+04  0.10100000352E+00 0.  1.
</event>
<event>
 5   0  0.1908273E-06  0.2606025E+04  0.7818609E-02  0.8366158E-01
       -1   -1    0    0    0  501  0.00000000000E+00  0.00000000000E+00  0.79116640589E+03  0.79116640590E+03  0.50400001928E-02 0.  1.
        1   -1    0    0  501    0  0.00000000000E+00  0.00000000000E+00 -0.21459981148E+04  0.21459981149E+04  0.50400001928E-02 0. -1.
    10030    2    1    2    0    0  0.00000000000E+00  0.00000000000E+00 -0.13548317090E+04  0.29371645208E+04  0.26060250310E+04 0.  0.
        3    1    3    3  502    0  0.36800707463E+03 -0.11939727049E+04 -0.26049009547E+03  0.12762660879E+04  0.10100000352E+00 0.  1.
       -3    1    3    3    0  502 -0.36800707463E+03  0.11939727049E+04 -0.10943416135E+04  0.16608984329E+04  0.10100000352E+00 0. -1.
</event>
<event>
 5   0  0.2422436E-06  0.3206733E+04  0.7818609E-02  0.8187041E-01
        2   -1    0    0  501    0  0.00000000000E+00  0.00000000000E+00  0.16496605955E+04  0.16496605955E+04  0.25500000920E-02 0.  1.
       -2   -1    0    0    0  501  0.00000000000E+00  0.00000000000E+00 -0.15583719705E+04  0.15583719705E+04  0.25500000920E-02 0. -1.
    10030    2    1    2    0    0  0.00000000000E+00  0.00000000000E+00  0.91288625065E+02  0.32080325660E+04  0.32067334363E+04 0.  0.
        2    1    3    3  502    0  0.65900233346E+03  0.11835605042E+04  0.90371278351E+03  0.16284337068E+04  0.25500000920E-02 0.  1.
       -2    1    3    3    0  502 -0.65900233346E+03 -0.11835605042E+04 -0.81242415845E+03  0.15795988591E+04  0.25500000920E-02 0. -1.
</event>
<event>
 5   0  0.7707500E-07  0.2520002E+04  0.7818609E-02  0.8395894E-01
        3   -1    0    0  501    0  0.00000000000E+00  0.00000000000E+00  0.13780417750E+04  0.13780417787E+04  0.10100000352E+00 0.  1.
       -3   -1    0    0    0  501  0.00000000000E+00  0.00000000000E+00 -0.11520717359E+04  0.11520717403E+04  0.10100000352E+00 0. -1.
    10030    2    1    2    0    0  0.00000000000E+00  0.00000000000E+00  0.22597003919E+03  0.25301135190E+04  0.25200023731E+04 0.  0.
        5    1    3    3  502    0  0.32741128686E+03 -0.69250668402E+03  0.11174075520E+04  0.13547639593E+04  0.46999998093E+01 0.  1.
       -5    1    3    3    0  502 -0.32741128686E+03  0.69250668402E+03 -0.89143751284E+03  0.11753495597E+04  0.46999998093E+01 0. -1.
</event>
<event>
 5   0  0.8423692E-07  0.1918325E+04  0.7818609E-02  0.8645788E-01
       -1   -1    0    0    0  501  0.00000000000E+00  0.00000000000E+00  0.83729027049E+03  0.83729027050E+03  0.50400001928E-02 0.  1.
        1   -1    0    0  501    0  0.00000000000E+00  0.00000000000E+00 -0.10987743833E+04  0.10987743833E+04  0.50400001928E-02 0. -1.
    10030    2    1    2    0    0  0.00000000000E+00  0.00000000000E+00 -0.26148411285E+03  0.19360646539E+04  0.19183254162E+04 0.  0.
        2    1    3    3  502    0 -0.44195529525E+03 -0.83066685705E+03 -0.31863882508E+03  0.99340958887E+03  0.25500000920E-02 0. -1.
       -2    1    3    3    0  502  0.44195529525E+03  0.83066685705E+03  0.57154712233E+02  0.94265506498E+03  0.25500000920E-02 0.  1.
</event>
<event>
 5   0  0.2422436E-06  0.3579603E+04  0.7818609E-02  0.8095180E-01
       -2   -1    0    0    0  501  0.00000000000E+00  0.00000000000E+00  0.28683032452E+04  0.28683032452E+04  0.25500000920E-02 0.  1.
        2   -1    0    0  501    0  0.00000000000E+00  0.00000000000E+00 -0.11168239408E+04  0.11168239408E+04  0.25500000920E-02 0. -1.
    10030    2    1    2    0    0  0.00000000000E+00  0.00000000000E+00  0.17514793044E+04  0.39851271861E+04  0.35796031813E+04 0.  0.
        2    1    3    3  502    0 -0.16395319717E+04  0.69385711534E+03  0.67080115400E+03  0.19024923051E+04  0.25500000920E-02 0.  1.
       -2    1    3    3    0  502  0.16395319717E+04 -0.69385711534E+03  0.10806781504E+04  0.20826348810E+04  0.25500000920E-02 0. -1.
</event>
<event>
 5   0  0.1908273E-06  0.3591160E+04  0.7818609E-02  0.8092520E-01
        1   -1    0    0  501    0  0.00000000000E+00  0.00000000000E+00  0.16664797661E+04  0.16664797662E+04  0.50400001928E-02 0. -1.
       -1   -1    0    0    0  501  0.00000000000E+00  0.00000000000E+00 -0.19346816110E+04  0.19346816110E+04  0.50400001928E-02 0.  1.
    10030    2    1    2    0    0  0.00000000000E+00  0.00000000000E+00 -0.26820184482E+03  0.36011613771E+04  0.35911601238E+04 0.  0.
        3    1    3    3  502    0 -0.85011832420E+02 -0.18695251351E+03 -0.19228651033E+04  0.19338015590E+04  0.10100000352E+00 0.  1.
       -3    1    3    3    0  502  0.85011832420E+02  0.18695251351E+03  0.16546632585E+04  0.16673598181E+04  0.10100000352E+00 0. -1.
</event>
<event>
 5   0  0.1908273E-06  0.3650518E+04  0.7818609E-02  0.8079017E-01
        1   -1    0    0  501    0  0.00000000000E+00  0.00000000000E+00  0.27804307995E+04  0.27804307995E+04  0.50400001928E-02 0.  1.
       -1   -1    0    0    0  501  0.00000000000E+00  0.00000000000E+00 -0.11982207352E+04  0.11982207352E+04  0.50400001928E-02 0. -1.
    10030    2    1    2    0    0  0.00000000000E+00  0.00000000000E+00  0.15822100644E+04  0.39786515347E+04  0.36505176820E+04 0.  0.
        3    1    3    3  502    0  0.16622448034E+03 -0.18135792861E+04  0.92400610466E+03  0.20421771952E+04  0.10100000352E+00 0.  1.
       -3    1    3    3    0  502 -0.16622448034E+03  0.18135792861E+04  0.65820395970E+03  0.19364743395E+04  0.10100000352E+00 0. -1.
</event>
<event>
 5   0  0.8452742E-07  0.3889213E+04  0.7818609E-02  0.8027277E-01
        1   -1    0    0  501    0  0.00000000000E+00  0.00000000000E+00  0.18764085358E+04  0.18764085358E+04  0.50400001928E-02 0.  1.
       -1   -1    0    0    0  501  0.00000000000E+00  0.00000000000E+00 -0.20152827742E+04  0.20152827742E+04  0.50400001928E-02 0. -1.
    10030    2    1    2    0    0  0.00000000000E+00  0.00000000000E+00 -0.13887423840E+03  0.38916913099E+04  0.38892126707E+04 0.  0.
        1    1    3    3  502    0 -0.12254219781E+04 -0.22798050287E+02  0.14412651070E+04  0.18919365434E+04  0.50400001928E-02 0.  1.
       -1    1    3    3    0  502  0.12254219781E+04  0.22798050287E+02 -0.15801393454E+04  0.19997547666E+04  0.50400001928E-02 0. -1.
</event>
<event>
 5   0  0.2382711E-06  0.3537621E+04  0.7818609E-02  0.8104932E-01
        2   -1    0    0  501    0  0.00000000000E+00  0.00000000000E+00  0.19670460104E+04  0.19670460104E+04  0.25500000920E-02 0.  1.
       -2   -1    0    0    0  501  0.00000000000E+00  0.00000000000E+00 -0.15905530736E+04  0.15905530736E+04  0.25500000920E-02 0. -1.
    10030    2    1    2    0    0  0.00000000000E+00  0.00000000000E+00  0.37649293681E+03  0.35575990841E+04  0.35376212787E+04 0.  0.
        5    1    3    3  502    0  0.58051817822E+02 -0.16470326713E+04  0.83419957595E+03  0.18471593478E+04  0.46999998093E+01 0. -1.
       -5    1    3    3    0  502 -0.58051817822E+02  0.16470326713E+04 -0.45770663913E+03  0.17104397362E+04  0.46999998093E+01 0.  1.
</event>
<event>
 5   0  0.1513502E-06  0.3614000E+04  0.7818609E-02  0.8087292E-01
       -2   -1    0    0    0  501  0.00000000000E+00  0.00000000000E+00  0.16294751911E+04  0.16294751911E+04  0.25500000920E-02 0.  1.
        2   -1    0    0  501    0  0.00000000000E+00  0.00000000000E+00 -0.20038648767E+04  0.20038648767E+04  0.25500000920E-02 0. -1.
    10030    2    1    2    0    0  0.00000000000E+00  0.00000000000E+00 -0.37438968561E+03  0.36333400677E+04  0.36139995035E+04 0.  0.
        3    1    3    3  502    0  0.47468945482E+03  0.10760427143E+03  0.15623304620E+04  0.16363939747E+04  0.10100000352E+00 0.  1.
       -3    1    3    3    0  502 -0.47468945482E+03 -0.10760427143E+03 -0.19367201477E+04  0.19969460930E+04  0.10100000352E+00 0. -1.
</event>
<event>
 5   0  0.8423692E-07  0.3580964E+04  0.7818609E-02  0.8094866E-01
       -1   -1    0    0    0  501  0.00000000000E+00  0.00000000000E+00  0.22664595151E+04  0.22664595151E+04  0.50400001928E-02 0. -1.
        1   -1    0    0  501    0  0.00000000000E+00  0.00000000000E+00 -0.14144643072E+04  0.14144643072E+04  0.50400001928E-02 0.  1.
    10030    2    1    2    0    0  0.00000000000E+00  0.00000000000E+00  0.85199520788E+03  0.36809238223E+04  0.35809641650E+04 0.  0.
        2    1    3    3  502    0  0.14938577087E+04  0.77694381306E+03 -0.19974260210E+03  0.16956266245E+04  0.25500000920E-02 0.  1.
       -2    1    3    3    0  502 -0.14938577087E+04 -0.77694381306E+03  0.10517378100E+04  0.19852971978E+04  0.25500000920E-02 0. -1.
</event>
<event>
 5   0  0.1908273E-06  0.3540948E+04  0.7818609E-02  0.8104154E-01
       -1   -1    0    0    0  501  0.00000000000E+00  0.00000000000E+00  0.24028862844E+04  0.24028862844E+04  0.50400001928E-02 0. -1.
        1   -1    0    0  501    0  0.00000000000E+00  0.00000000000E+00 -0.13045053838E+04  0.13045053838E+04  0.50400001928E-02 0.  1.
    10030    2    1    2    0    0  0.00000000000E+00  0.00000000000E+00  0.10983809006E+04  0.37073916683E+04  0.35409479492E+04 0.  0.
        3    1    3    3  502    0  0.15031214981E+04 -0.70365974053E+03  0.11946646730E+04  0.20449290842E+04  0.10100000352E+00 0. -1.
       -3    1    3    3    0  502 -0.15031214981E+04  0.70365974053E+03 -0.96283772375E+02  0.16624625841E+04  0.10100000352E+00 0.  1.
</event>
<event>
 5   0  0.2422436E-06  0.3647583E+04  0.7818609E-02  0.8079678E-01
       -2   -1    0    0    0  501  0.00000000000E+00  0.00000000000E+00  0.16207288537E+04  0.16207288537E+04  0.25500000920E-02 0.  1.
        2   -1    0    0  501    0  0.00000000000E+00  0.00000000000E+00 -0.20522958652E+04  0.20522958652E+04  0.25500000920E-02 0. -1.
    10030    2    1    2    0    0  0.00000000000E+00  0.00000000000E+00 -0.43156701151E+03  0.36730247190E+04  0.36475828299E+04 0.  0.
        2    1    3    3  502    0  0.34024939066E+03  0.12607019661E+04 -0.14978790193E+04  0.19871539074E+04  0.25500000920E-02 0. -1.
       -2    1    3    3    0  502 -0.34024939066E+03 -0.12607019661E+04  0.10663120078E+04  0.16858708116E+04  0.25500000920E-02 0.  1.
</event>
<event>
 5   0  0.2382711E-06  0.3555243E+04  0.7818609E-02  0.8100822E-01
       -2   -1    0    0    0  501  0.00000000000E+00  0.00000000000E+00  0.18469444973E+04  0.18469444973E+04  0.25500000920E-02 0.  1.
        2   -1    0    0  501    0  0.00000000000E+00  0.00000000000E+00 -0.17108999940E+04  0.17108999940E+04  0.25500000920E-02 0. -1.
    10030    2    1    2    0    0  0.00000000000E+00  0.00000000000E+00  0.13604450325E+03  0.35578444913E+04  0.35552425118E+04 0.  0.
        5    1    3    3  502    0 -0.15128418930E+04  0.89925443557E+03 -0.18229299064E+03  0.17693507163E+04  0.46999998093E+01 0. -1.
       -5    1    3    3    0  502  0.15128418930E+04 -0.89925443557E+03  0.31833749389E+03  0.17884937749E+04  0.46999998093E+01 0.  1.
</event>
<event>
 5   0  0.1513502E-06  0.2570722E+04  0.7818609E-02  0.8378215E-01
        2   -1    0    0  501    0  0.00000000000E+00  0.00000000000E+00  0.27076702380E+04  0.27076702380E+04  0.25500000920E-02 0.  1.
       -2   -1    0    0    0  501  0.00000000000E+00  0.00000000000E+00 -0.61017514941E+03  0.61017514942E+03  0.25500000920E-02 0. -1.
    10030    2    1    2    0    0  0.00000000000E+00  0.00000000000E+00  0.20974950886E+04  0.33178453874E+04  0.25707221491E+04 0.  0.
        3    1    3    3  502    0 -0.12523174853E+04 -0.22749158894E+03  0.81750689866E+03  0.15127356169E+04  0.10100000352E+00 0. -1.
       -3    1    3    3    0  502  0.12523174853E+04  0.22749158894E+03  0.12799881899E+04  0.18051097705E+04  0.10100000352E+00 0.  1.
</event>
<event>
 5   0  0.7754556E-07  0.3557855E+04  0.7818609E-02  0.8100214E-01
        1   -1    0    0  501    0  0.00000000000E+00  0.00000000000E+00  0.24178491991E+04  0.24178491992E+04  0.50400001928E-02 0.  1.
       -1   -1    0    0    0  501  0.00000000000E+00  0.00000000000E+00 -0.13088424336E+04  0.13088424336E+04  0.50400001928E-02 0. -1.
    10030    2    1    2    0    0  0.00000000000E+00  0.00000000000E+00  0.11090067656E+04  0.37266916327E+04  0.35578553258E+04 0.  0.
        4    1    3    3  502    0 -0.51534641665E+01 -0.17783459395E+04  0.50718001672E+03  0.18492631022E+04  0.12699999809E+01 0.  1.
       -4    1    3    3    0  502  0.51534641665E+01  0.17783459395E+04  0.60182674885E+03  0.18774285306E+04  0.12699999809E+01 0. -1.
</event>
<event>
 5   0  0.2536619E-06  0.3097525E+04  0.7818609E-02  0.8216418E-01
        2   -1    0    0  501    0  0.00000000000E+00  0.00000000000E+00  0.27784703941E+04  0.27784703941E+04  0.25500000920E-02 0. -1.
       -2   -1    0    0    0  501  0.00000000000E+00  0.00000000000E+00 -0.86330413186E+03  0.86330413187E+03  0.25500000920E-02 0.  1.
    10030    2    1    2    0    0  0.00000000000E+00  0.00000000000E+00  0.19151662622E+04  0.36417745260E+04  0.30975247999E+04 0.  0.
        1    1    3    3  502    0 -0.56293549382E+03  0.53408113089E+03 -0.61826734965E+03  0.99216608501E+03  0.50400001928E-02 0.  1.
       -1    1    3    3    0  502  0.56293549382E+03 -0.53408113089E+03  0.25334336119E+04  0.26496084409E+04  0.50400001928E-02 0. -1.
</event>
<event>
 5   0  0.1513502E-06  0.2440306E+04  0.7818609E-02  0.8424566E-01
       -2   -1    0    0    0  501  0.00000000000E+00  0.00000000000E+00  0.92397983271E+03  0.92397983271E+03  0.25500000920E-02 0.  1.
        2   -1    0    0  501    0  0.00000000000E+00  0.00000000000E+00 -0.16112620752E+04  0.16112620752E+04  0.25500000920E-02 0. -1.
    10030    2    1    2    0    0  0.00000000000E+00  0.00000000000E+00 -0.68728224245E+03  0.25352419079E+04  0.24403062616E+04 0.  0.
        3    1    3    3  502    0 -0.79625869433E+03 -0.85143744701E+03 -0.71793476088E+03  0.13690887355E+04  0.10100000352E+00 0. -1.
       -3    1    3    3    0  502  0.79625869433E+03  0.85143744701E+03  0.30652518432E+02  0.11661531724E+04  0.10100000352E+00 0.  1.
</event>
<event>
 5   0  0.7754556E-07  0.2428314E+04  0.7818609E-02  0.8428979E-01
        1   -1    0    0  501    0  0.00000000000E+00  0.00000000000E+00  0.11748512764E+04  0.11748512764E+04  0.50400001928E-02 0. -1.
       -1   -1    0    0    0  501  0.00000000000E+00  0.00000000000E+00 -0.12547772430E+04  0.12547772431E+04  0.50400001928E-02 0.  1.
    10030    2    1    2    0    0  0.00000000000E+00  0.00000000000E+00 -0.79925966622E+02  0.24296285195E+04  0.24283135264E+04 0.  0.
        4    1    3    3  502    0 -0.57360659570E+01  0.11551423616E+04  0.33412215873E+03  0.12025082153E+04  0.12699999809E+01 0. -1.
       -4    1    3    3    0  502  0.57360659570E+01 -0.11551423616E+04 -0.41404812536E+03  0.12271203042E+04  0.12699999809E+01 0.  1.
</event>
<event>
 5   0  0.2422436E-06  0.2663746E+04  0.7818609E-02  0.8346865E-01
       -2   -1    0    0    0  501  0.00000000000E+00  0.00000000000E+00  0.14986911138E+04  0.14986911138E+04  0.25500000920E-02 0. -1.
        2   -1    0    0  501    0  0.00000000000E+00  0.00000000000E+00 -0.11836234632E+04  0.11836234632E+04  0.25500000920E-02 0.  1.
    10030    2    1    2    0    0  0.00000000000E+00  0.00000000000E+00  0.31506765058E+03  0.26823145771E+04  0.26637462090E+04 0.  0.
        2    1    3    3  502    0 -0.82978245252E+03 -0.73950089133E+03  0.89646478610E+03  0.14279529402E+04  0.25500000920E-02 0. -1.
       -2    1    3    3    0  502  0.82978245252E+03  0.73950089133E+03 -0.58139713552E+03  0.12543616368E+04  0.25500000920E-02 0.  1.
</event>
<event>
 5   0  0.1513502E-06  0.3224141E+04  0.7818609E-02  0.8182471E-01
        2   -1    0    0  501    0  0.00000000000E+00  0.00000000000E+00  0.27292656531E+04  0.27292656531E+04  0.25500000920E-02 0. -1.
       -2   -1    0    0    0  501  0.00000000000E+00  0.00000000000E+00 -0.95218678874E+03  0.95218678874E+03  0.25500000920E-02 0.  1.
    10030    2    1    2    0    0  0.00000000000E+00  0.00000000000E+00  0.17770788643E+04  0.36814524418E+04  0.32241406283E+04 0.  0.
        3    1    3    3  502    0  0.13938813439E+03 -0.53890388836E+02 -0.94426033409E+03  0.95601297834E+03  0.10100000352E+00 0.  1.
       -3    1    3    3    0  502 -0.13938813439E+03  0.53890388836E+02  0.27213391984E+04  0.27254394635E+04  0.10100000352E+00 0. -1.
</event>
<event>
 5   0  0.8423692E-07  0.3641228E+04  0.7818609E-02  0.8081113E-01
       -1   -1    0    0    0  501  0.00000000000E+00  0.00000000000E+00  0.12576659043E+04  0.12576659043E+04  0.50400001928E-02 0. -1.
        1   -1    0    0  501    0  0.00000000000E+00  0.00000000000E+00 -0.26355457035E+04  0.26355457035E+04  0.50400001928E-02 0.  1.
    10030    2    1    2    0    0  0.00000000000E+00  0.00000000000E+00 -0.13778797992E+04  0.38932116078E+04  0.36412283479E+04 0.  0.
        2    1    3    3  502    0  0.80112027093E+03  0.81790878728E+02  0.10568926672E+04  0.13287232768E+04  0.25500000920E-02 0. -1.
       -2    1    3    3    0  502 -0.80112027093E+03 -0.81790878728E+02 -0.24347724664E+04  0.25644883310E+04  0.25500000920E-02 0.  1.
</event>
<event>
 5   0  0.1513502E-06  0.3696562E+04  0.7818609E-02  0.8068724E-01
       -2   -1    0    0    0  501  0.00000000000E+00  0.00000000000E+00  0.15451964770E+04  0.15451964770E+04  0.25500000920E-02 0. -1.
        2   -1    0    0  501    0  0.00000000000E+00  0.00000000000E+00 -0.22108144083E+04  0.22108144083E+04  0.25500000920E-02 0.  1.
    10030    2    1    2    0    0  0.00000000000E+00  0.00000000000E+00 -0.66561793128E+03  0.37560108852E+04  0.36965619891E+04 0.  0.
        3    1    3    3  502    0 -0.71163417428E+03  0.50844999334E+03 -0.19872448186E+04  0.21711947340E+04  0.10100000352E+00 0.  1.
       -3    1    3    3    0  502  0.71163417428E+03 -0.50844999334E+03  0.13216268873E+04  0.15848161512E+04  0.10100000352E+00 0. -1.
</event>
<event>
 5   0  0.8423692E-07  0.3688735E+04  0.7818609E-02  0.8070463E-01
       -1   -1    0    0    0  501  0.00000000000E+00  0.00000000000E+00  0.12311752113E+04  0.12311752113E+04  0.50400001928E-02 0. -1.
        1   -1    0    0  501    0  0.00000000000E+00  0.00000000000E+00 -0.27629627764E+04  0.27629627764E+04  0.50400001928E-02 0.  1.
    10030    2    1    2    0    0  0.00000000000E+00  0.00000000000E+00 -0.15317875651E+04  0.39941379877E+04  0.36887348943E+04 0.  0.
        2    1    3    3  502    0  0.15537836199E+04 -0.87982201134E+03 -0.12660470497E+04  0.21888822355E+04  0.25500000920E-02 0. -1.
       -2    1    3    3    0  502 -0.15537836199E+04  0.87982201134E+03 -0.26574051547E+03  0.18052557522E+04  0.25500000920E-02 0.  1.
</event>
<event>
 5   0  0.1634374E-06  0.3154540E+04  0.7818609E-02  0.8200927E-01
       -1   -1    0    0    0  501  0.00000000000E+00  0.00000000000E+00  0.21537749902E+04  0.21537749902E+04  0.50400001928E-02 0.  1.
        1   -1    0    0  501    0  0.00000000000E+00  0.00000000000E+00 -0.11550794431E+04  0.11550794431E+04  0.50400001928E-02 0. -1.
    10030    2    1    2    0    0  0.00000000000E+00  0.00000000000E+00  0.99869554714E+03  0.33088544333E+04  0.31545403572E+04 0.  0.
        5    1    3    3  502    0 -0.44453268232E+03 -0.77469258876E+03 -0.86424622768E+03  0.12428602274E+04  0.46999998093E+01 0. -1.
       -5    1    3    3    0  502  0.44453268232E+03  0.77469258876E+03  0.18629417748E+04  0.20659942060E+04  0.46999998093E+01 0.  1.
</event>
<event>
 5   0  0.1908273E-06  0.2025771E+04  0.7818609E-02  0.8594666E-01
       -1   -1    0    0    0  501  0.00000000000E+00  0.00000000000E+00  0.16897197544E+04  0.16897197544E+04  0.50400001928E-02 0.  1.
        1   -1    0    0  501    0  0.00000000000E+00  0.00000000000E+00 -0.60716404357E+03  0.60716404359E+03  0.50400001928E-02 0. -1.
    10030    2    1    2    0    0  0.00000000000E+00  0.00000000000E+00  0.10825557108E+04  0.22968837980E+04  0.20257710420E+04 0.  0.
        3    1    3    3  502    0  0.89804681941E+03 -0.22758006783E+03  0.10055349969E+04  0.13672532382E+04  0.10100000352E+00 0.  1.
       -3    1    3    3    0  502 -0.89804681941E+03  0.22758006783E+03  0.77020713887E+02  0.92963055979E+03  0.10100000352E+00 0. -1.
</event>
<event>
 5   0  0.1513502E-06  0.2293526E+04  0.7818609E-02  0.8480478E-01
       -2   -1    0    0    0  501  0.00000000000E+00  0.00000000000E+00  0.42671223289E+03  0.42671223290E+03  0.25500000920E-02 0. -1.
        2   -1    0    0  501    0  0.00000000000E+00  0.00000000000E+00 -0.30818551940E+04  0.30818551940E+04  0.25500000920E-02 0.  1.
    10030    2    1    2    0    0  0.00000000000E+00  0.00000000000E+00 -0.26551429611E+04  0.35085674269E+04  0.22935259417E+04 0.  0.
        3    1    3    3  502    0 -0.62359172558E+03  0.16430309284E+03  0.12305326392E+03  0.65650914883E+03  0.10100000352E+00 0. -1.
       -3    1    3    3    0  502  0.62359172558E+03 -0.16430309284E+03 -0.27781962250E+04  0.28520582780E+04  0.10100000352E+00 0.  1.
</event>
<event>
 5   0  0.1908273E-06  0.3477993E+04  0.7818609E-02  0.8119025E-01
       -1   -1    0    0    0  501  0.00000000000E+00  0.00000000000E+00  0.33103331735E+04  0.33103331735E+04  0.50400001928E-02 0. -1.
        1   -1    0    0  501    0  0.00000000000E+00  0.00000000000E+00 -0.91353616828E+03  0.91353616829E+03  0.50400001928E-02 0.  1.
    10030    2    1    2    0    0  0.00000000000E+00  0.00000000000E+00  0.23967970052E+04  0.42238693418E+04  0.34779931472E+04 0.  0.
        3    1    3    3  502    0  0.58679909830E+03 -0.61268934622E+03 -0.64517103623E+03  0.10658175702E+04  0.10100000352E+00 0.  1.
       -3    1    3    3    0  502 -0.58679909830E+03  0.61268934622E+03  0.30419680414E+04  0.31580517716E+04  0.10100000352E+00 0. -1.
</event>
<event>
 5   0  0.1634374E-06  0.3580923E+04  0.7818609E-02  0.8094876E-01
        1   -1    0    0  501    0  0.00000000000E+00  0.00000000000E+00  0.10396334341E+04  0.10396334341E+04  0.50400001928E-02 0. -1.
       -1   -1    0    0    0  501  0.00000000000E+00  0.00000000000E+00 -0.30835411862E+04  0.30835411862E+04  0.50400001928E-02 0.  1.
    10030    2    1    2    0    0  0.00000000000E+00  0.00000000000E+00 -0.20439077520E+04  0.41231746203E+04  0.35809230724E+04 0.  0.
        5    1    3    3  502    0  0.94187593383E+03 -0.38988166170E+03  0.67287302277E+03  0.12214410259E+04  0.46999998093E+01 0. -1.
       -5    1    3    3    0  502 -0.94187593383E+03  0.38988166170E+03 -0.27167807748E+04  0.29017335945E+04  0.46999998093E+01 0.  1.
</event>
<event>
 5   0  0.1513502E-06  0.1946048E+04  0.7818609E-02  0.8632269E-01
        2   -1    0    0  501    0  0.00000000000E+00  0.00000000000E+00  0.28706036509E+04  0.28706036509E+04  0.25500000920E-02 0.  1.
       -2   -1    0    0    0  501  0.00000000000E+00  0.00000000000E+00 -0.32981769740E+03  0.32981769741E+03  0.25500000920E-02 0. -1.
    10030    2    1    2    0    0  0.00000000000E+00  0.00000000000E+00  0.25407859535E+04  0.32004213483E+04  0.19460481868E+04 0.  0.
        3    1    3    3  502    0  0.88115227999E+03 -0.41260937363E+03  0.12539439109E+04  0.15871519075E+04  0.10100000352E+00 0.  1.
       -3    1    3    3    0  502 -0.88115227999E+03  0.41260937363E+03  0.12868420426E+04  0.16132694408E+04  0.10100000352E+00 0. -1.
</event>
<event>
 5   0  0.1566576E-06  0.3495701E+04  0.7818609E-02  0.8114809E-01
        2   -1    0    0  501    0  0.00000000000E+00  0.00000000000E+00  0.18282167938E+04  0.18282167938E+04  0.25500000920E-02 0.  1.
       -2   -1    0    0    0  501  0.00000000000E+00  0.00000000000E+00 -0.16710173816E+04  0.16710173816E+04  0.25500000920E-02 0. -1.
    10030    2    1    2    0    0  0.00000000000E+00  0.00000000000E+00  0.15719941220E+03  0.34992341754E+04  0.34957013830E+04 0.  0.
        4    1    3    3  502    0  0.50110374809E+03 -0.14771710791E+04 -0.71076622727E+03  0.17141556540E+04  0.12699999809E+01 0. -1.
       -4    1    3    3    0  502 -0.50110374809E+03  0.14771710791E+04  0.86796563947E+03  0.17850785214E+04  0.12699999809E+01 0.  1.
</event>
<event>
 5   0  0.1566576E-06  0.3619377E+04  0.7818609E-02  0.8086068E-01
        2   -1    0    0  501    0  0.00000000000E+00  0.00000000000E+00  0.17196718785E+04  0.17196718785E+04  0.25500000920E-02 0.  1.
       -2   -1    0    0    0  501  0.00000000000E+00  0.00000000000E+00 -0.19044170351E+04  0.19044170351E+04  0.25500000920E-02 0. -1.
    10030    2    1    2    0    0  0.00000000000E+00  0.00000000000E+00 -0.18474515662E+03  0.36240889136E+04  0.36193769741E+04 0.  0.
        4    1    3    3  502    0 -0.94141424838E+03  0.10435601796E+04 -0.12338971823E+04  0.18702359490E+04  0.12699999809E+01 0. -1.
       -4    1    3    3    0  502  0.94141424838E+03 -0.10435601796E+04  0.10491520257E+04  0.17538529646E+04  0.12699999809E+01 0.  1.
</event>
<event>
 5   0  0.2382711E-06  0.3492033E+04  0.7818609E-02  0.8115681E-01
        2   -1    0    0  501    0  0.00000000000E+00  0.00000000000E+00  0.19197995547E+04  0.19197995547E+04  0.25500000920E-02 0. -1.
       -2   -1    0    0    0  501  0.00000000000E+00  0.00000000000E+00 -0.15879643108E+04  0.15879643108E+04  0.25500000920E-02 0.  1.
    10030    2    1    2    0    0  0.00000000000E+00  0.00000000000E+00  0.33183524394E+03  0.35077638655E+04  0.34920327472E+04 0.  0.
        5    1    3    3  502    0 -0.55537842576E+03 -0.51516300019E+03  0.17461263633E+04  0.19033700321E+04  0.46999998093E+01 0. -1.
       -5    1    3    3    0  502  0.55537842576E+03  0.51516300019E+03 -0.14142911193E+04  0.16043938334E+04  0.46999998093E+01 0.  1.
</event>
<event>
 5   0  0.1642757E-06  0.2002791E+04  0.7818609E-02  0.8605317E-01
        2   -1    0    0  501    0  0.00000000000E+00  0.00000000000E+00  0.15002396783E+04  0.15002396783E+04  0.25500000920E-02 0. -1.
       -2   -1    0    0    0  501  0.00000000000E+00  0.00000000000E+00 -0.66842170718E+03  0.66842170718E+03  0.25500000920E-02 0.  1.
    10030    2    1    2    0    0  0.00000000000E+00  0.00000000000E+00  0.83181797107E+03  0.21686613854E+04  0.20027908197E+04 0.  0.
        3    1    3    3  502    0  0.90373865102E+03  0.41189434039E+03  0.27727312968E+03  0.10311551269E+04  0.10100000352E+00 0.  1.
       -3    1    3    3    0  502 -0.90373865102E+03 -0.41189434039E+03  0.55454484139E+03  0.11375062586E+04  0.10100000352E+00 0. -1.
</event>
<event>
 5   0  0.8423692E-07  0.3605285E+04  0.7818609E-02  0.8089282E-01
        1   -1    0    0  501    0  0.00000000000E+00  0.00000000000E+00  0.13114918178E+04  0.13114918178E+04  0.50400001928E-02 0.  1.
       -1   -1    0    0    0  501  0.00000000000E+00  0.00000000000E+00 -0.24777282489E+04  0.24777282489E+04  0.50400001928E-02 0. -1.
    10030    2    1    2    0    0  0.00000000000E+00  0.00000000000E+00 -0.11662364311E+04  0.37892200667E+04  0.36052851899E+04 0.  0.
        2    1    3    3  502    0 -0.16669380316E+03 -0.34731881216E+03  0.12677193673E+04  0.13249639903E+04  0.25500000920E-02 0.  1.
       -2    1    3    3    0  502  0.16669380316E+03  0.34731881216E+03 -0.24339557984E+04  0.24642560764E+04  0.25500000920E-02 0. -1.
</event>
<event>
 5   0  0.1566576E-06  0.3548249E+04  0.7818609E-02  0.8102450E-01
        2   -1    0    0  501    0  0.00000000000E+00  0.00000000000E+00  0.21168757886E+04  0.21168757886E+04  0.25500000920E-02 0. -1.
       -2   -1    0    0    0  501  0.00000000000E+00  0.00000000000E+00 -0.14868691554E+04  0.14868691554E+04  0.25500000920E-02 0.  1.
    10030    2    1    2    0    0  0.00000000000E+00  0.00000000000E+00  0.63000663319E+03  0.36037449440E+04  0.35482487601E+04 0.  0.
        4    1    3    3  502    0 -0.13340256926E+04 -0.77096500787E+03 -0.57824313474E+03  0.16457151417E+04  0.12699999809E+01 0.  1.
       -4    1    3    3    0  502  0.13340256926E+04  0.77096500787E+03  0.12082497679E+04  0.19580298023E+04  0.12699999809E+01 0. -1.
</event>
<event>
 5   0  0.1513502E-06  0.3205223E+04  0.7818609E-02  0.8187439E-01
        2   -1    0    0  501    0  0.00000000000E+00  0.00000000000E+00  0.13434541304E+04  0.13434541304E+04  0.25500000920E-02 0.  1.
       -2   -1    0    0    0  501  0.00000000000E+00  0.00000000000E+00 -0.19117615600E+04  0.19117615600E+04  0.25500000920E-02 0. -1.
    10030    2    1    2    0    0  0.00000000000E+00  0.00000000000E+00 -0.56830742964E+03  0.32552156904E+04  0.32052232148E+04 0.  0.
        3    1    3    3  502    0  0.15127363167E+04 -0.44349999720E+02 -0.81965940881E+03  0.17210983827E+04  0.10100000352E+00 0. -1.
       -3    1    3    3    0  502 -0.15127363167E+04  0.44349999720E+02  0.25135197917E+03  0.15341173077E+04  0.10100000352E+00 0.  1.
</event>
<event>
 5   0  0.2422436E-06  0.3426268E+04  0.7818609E-02  0.8131489E-01
        2   -1    0    0  501    0  0.00000000000E+00  0.00000000000E+00  0.18163050712E+04  0.18163050712E+04  0.25500000920E-02 0.  1.
       -2   -1    0    0    0  501  0.00000000000E+00  0.00000000000E+00 -0.16158236416E+04  0.16158236416E+04  0.25500000920E-02 0. -1.
    10030    2    1    2    0    0  0.00000000000E+00  0.00000000000E+00  0.20048142962E+03  0.34321287128E+04  0.34262683341E+04 0.  0.
        2    1    3    3  502    0 -0.38589028996E+03 -0.42053444587E+02 -0.15711901611E+04  0.16184308235E+04  0.25500000920E-02 0. -1.
       -2    1    3    3    0  502  0.38589028996E+03  0.42053444587E+02  0.17716715907E+04  0.18136978893E+04  0.25500000920E-02 0.  1.
</event>
<event>
 5   0  0.7754556E-07  0.3649709E+04  0.7818609E-02  0.8079199E-01
       -1   -1    0    0    0  501  0.00000000000E+00  0.00000000000E+00  0.23634526273E+04  0.23634526273E+04  0.50400001928E-02 0.  1.
        1   -1    0    0  501    0  0.00000000000E+00  0.00000000000E+00 -0.14089950687E+04  0.14089950687E+04  0.50400001928E-02 0. -1.
    10030    2    1    2    0    0  0.00000000000E+00  0.00000000000E+00  0.95445755860E+03  0.37724476960E+04  0.36497085347E+04 0.  0.
        4    1    3    3  502    0  0.11773594617E+04  0.53626363997E+03 -0.85304018831E+03  0.15496558228E+04  0.12699999809E+01 0. -1.
       -4    1    3    3    0  502 -0.11773594617E+04 -0.53626363997E+03  0.18074977469E+04  0.22227918732E+04  0.12699999809E+01 0.  1.
</event>
<event>
 5   0  0.8423692E-07  0.3641514E+04  0.7818609E-02  0.8081048E-01
       -1   -1    0    0    0  501  0.00000000000E+00  0.00000000000E+00  0.15900057514E+04  0.15900057514E+04  0.50400001928E-02 0.  1.
        1   -1    0    0  501    0  0.00000000000E+00  0.00000000000E+00 -0.20849966848E+04  0.20849966848E+04  0.50400001928E-02 0. -1.
    10030    2    1    2    0    0  0.00000000000E+00  0.00000000000E+00 -0.49499093338E+03  0.36750024361E+04  0.36415143665E+04 0.  0.
        2    1    3    3  502    0  0.56821264082E+03  0.16643319608E+04  0.22831698218E+03  0.17734134107E+04  0.25500000920E-02 0.  1.
       -2    1    3    3    0  502 -0.56821264082E+03 -0.16643319608E+04 -0.72330791556E+03  0.19015890254E+04  0.25500000920E-02 0. -1.
</event>
<event>
 5   0  0.2422436E-06  0.3324415E+04  0.7818609E-02  0.8156711E-01
       -2   -1    0    0    0  501  0.00000000000E+00  0.00000000000E+00  0.24680920099E+04  0.24680920099E+04  0.25500000920E-02 0. -1.
        2   -1    0    0  501    0  0.00000000000E+00  0.00000000000E+00 -0.11194611368E+04  0.11194611368E+04  0.25500000920E-02 0.  1.
    10030    2    1    2    0    0  0.00000000000E+00  0.00000000000E+00  0.13486308731E+04  0.35875531466E+04  0.33244145873E+04 0.  0.
        2    1    3    3  502    0 -0.11606186420E+03  0.15482125030E+04  0.33602927720E+02  0.15529203031E+04  0.25500000920E-02 0.  1.
       -2    1    3    3    0  502  0.11606186420E+03 -0.15482125030E+04  0.13150279454E+04  0.20346328436E+04  0.25500000920E-02 0. -1.
</event>
<event>
 5   0  0.1513502E-06  0.3683120E+04  0.7818609E-02  0.8071713E-01
       -2   -1    0    0    0  501  0.00000000000E+00  0.00000000000E+00  0.20066757364E+04  0.20066757364E+04  0.25500000920E-02 0.  1.
        2   -1    0    0  501    0  0.00000000000E+00  0.00000000000E+00 -0.16900308702E+04  0.16900308702E+04  0.25500000920E-02 0. -1.
    10030    2    1    2    0    0  0.00000000000E+00  0.00000000000E+00  0.31664486617E+03  0.36967066066E+04  0.36831203841E+04 0.  0.
        3    1    3    3  502    0 -0.81100548497E+03 -0.13771199471E+04 -0.76001423523E+03  0.17696923160E+04  0.10100000352E+00 0. -1.
       -3    1    3    3    0  502  0.81100548497E+03  0.13771199471E+04  0.10766591014E+04  0.19270142906E+04  0.10100000352E+00 0.  1.
</event>
<event>
 5   0  0.7754556E-07  0.2624961E+04  0.7818609E-02  0.8359772E-01
        1   -1    0    0  501    0  0.00000000000E+00  0.00000000000E+00  0.12148365556E+04  0.12148365556E+04  0.50400001928E-02 0.  1.
       -1   -1    0    0    0  501  0.00000000000E+00  0.00000000000E+00 -0.14179721701E+04  0.14179721701E+04  0.50400001928E-02 0. -1.
    10030    2    1    2    0    0  0.00000000000E+00  0.00000000000E+00 -0.20313561452E+03  0.26328087257E+04  0.26249605156E+04 0.  0.
        4    1    3    3  502    0  0.12876780562E+04  0.11205317139E+03 -0.33013536006E+03  0.13340396016E+04  0.12699999809E+01 0.  1.
       -4    1    3    3    0  502 -0.12876780562E+04 -0.11205317139E+03  0.12699974554E+03  0.12987691242E+04  0.12699999809E+01 0. -1.
</event>
<event>
 5   0  0.2382711E-06  0.1839751E+04  0.7818609E-02  0.8685441E-01
       -2   -1    0    0    0  501  0.00000000000E+00  0.00000000000E+00  0.74305500529E+03  0.74305500529E+03  0.25500000920E-02 0.  1.
        2   -1    0    0  501    0  0.00000000000E+00  0.00000000000E+00 -0.11387728124E+04  0.11387728124E+04  0.25500000920E-02 0. -1.
    10030    2    1    2    0    0  0.00000000000E+00  0.00000000000E+00 -0.39571780708E+03  0.18818278177E+04  0.18397508941E+04 0.  0.
        5    1    3    3  502    0  0.78767382770E+03 -0.14652280153E+03  0.26441740504E+03  0.84370471393E+03  0.46999998093E+01 0.  1.
       -5    1    3    3    0  502 -0.78767382770E+03  0.14652280153E+03 -0.66013521212E+03  0.10381231037E+04  0.46999998093E+01 0. -1.
</event>
<event>
 5   0  0.1566576E-06  0.3682350E+04  0.7818609E-02  0.8071885E-01
        2   -1    0    0  501    0  0.00000000000E+00  0.00000000000E+00  0.17238591414E+04  0.17238591414E+04  0.25500000920E-02 0. -1.
       -2   -1    0    0    0  501  0.00000000000E+00  0.00000000000E+00 -0.19664745063E+04  0.19664745063E+04  0.25500000920E-02 0.  1.
    10030    2    1    2    0    0  0.00000000000E+00  0.00000000000E+00 -0.24261536494E+03  0.36903336477E+04  0.36823498226E+04 0.  0.
        4    1    3    3  502    0 -0.97904577085E+03  0.12880686441E+04  0.75938772190E+03  0.17872668459E+04  0.12699999809E+01 0. -1.
       -4    1    3    3    0  502  0.97904577085E+03 -0.12880686441E+04 -0.10020030868E+04  0.19030668018E+04  0.12699999809E+01 0.  1.
</event>
<event>
 5   0  0.7707500E-07  0.2454825E+04  0.7818609E-02  0.8419259E-01
        3   -1    0    0  501    0  0.00000000000E+00  0.00000000000E+00  0.49908893490E+03  0.49908894512E+03  0.10100000352E+00 0. -1.
       -3   -1    0    0    0  501  0.00000000000E+00  0.00000000000E+00 -0.30185825212E+04  0.30185825229E+04  0.10100000352E+00 0.  1.
    10030    2    1    2    0    0  0.00000000000E+00  0.00000000000E+00 -0.25194935863E+04  0.35176714680E+04  0.24548247647E+04 0.  0.
        1    1    3    3  502    0  0.24920834660E+03  0.67906346736E+03 -0.26807001540E+04  0.27765779853E+04  0.50400001928E-02 0.  1.
       -1    1    3    3    0  502 -0.24920834660E+03 -0.67906346736E+03  0.16120656765E+03  0.74109348277E+03  0.50400001928E-02 0. -1.
</event>
<event>
 5   0  0.1566576E-06  0.2834503E+04  0.7818609E-02  0.8292636E-01
       -2   -1    0    0    0  501  0.00000000000E+00  0.00000000000E+00  0.10517344786E+04  0.10517344786E+04  0.25500000920E-02 0. -1.
        2   -1    0    0  501    0  0.00000000000E+00  0.00000000000E+00 -0.19097994215E+04  0.19097994215E+04  0.25500000920E-02 0.  1.
    10030    2    1    2    0    0  0.00000000000E+00  0.00000000000E+00 -0.85806494293E+03  0.29615339001E+04  0.28345030596E+04 0.  0.
        4    1    3    3  502    0 -0.37191009172E+03  0.44920256322E+02 -0.18571339100E+04  0.18945402920E+04  0.12699999809E+01 0.  1.
       -4    1    3    3    0  502  0.37191009172E+03 -0.44920256322E+02  0.99906896703E+03  0.10669936080E+04  0.12699999809E+01 0. -1.
</event>
<event>
 5   0  0.1566576E-06  0.3286311E+04  0.7818609E-02  0.8166387E-01
        2   -1    0    0  501    0  0.00000000000E+00  0.00000000000E+00  0.19625072394E+04  0.19625072394E+04  0.25500000920E-02 0. -1.
       -2   -1    0    0    0  501  0.00000000000E+00  0.00000000000E+00 -0.13757705832E+04  0.13757705832E+04  0.25500000920E-02 0.  1.
    10030    2    1    2    0    0  0.00000000000E+00  0.00000000000E+00  0.58673665626E+03  0.33382778226E+04  0.32863108370E+04 0.  0.
        4    1    3    3  502    0 -0.12757593693E+04 -0.99553240706E+03  0.58302897051E+03  0.17200497479E+04  0.12699999809E+01 0.  1.
       -4    1    3    3    0  502  0.12757593693E+04  0.99553240706E+03  0.37076857474E+01  0.16182280747E+04  0.12699999809E+01 0. -1.
</event>
<event>
 5   0  0.1513502E-06  0.3642884E+04  0.7818609E-02  0.8080739E-01
       -2   -1    0    0    0  501  0.00000000000E+00  0.00000000000E+00  0.21048164853E+04  0.21048164853E+04  0.25500000920E-02 0.  1.
        2   -1    0    0  501    0  0.00000000000E+00  0.00000000000E+00 -0.15762186558E+04  0.15762186558E+04  0.25500000920E-02 0. -1.
    10030    2    1    2    0    0  0.00000000000E+00  0.00000000000E+00  0.52859782951E+03  0.36810351410E+04  0.36428840284E+04 0.  0.
        3    1    3    3  502    0  0.13014917396E+04  0.86733340323E+03  0.12076189663E+04  0.19759786332E+04  0.10100000352E+00 0. -1.
       -3    1    3    3    0  502 -0.13014917396E+04 -0.86733340323E+03 -0.67902113683E+03  0.17050565079E+04  0.10100000352E+00 0.  1.
</event>
<event>
 5   0  0.2382711E-06  0.2621786E+04  0.7818609E-02  0.8360838E-01
       -2   -1    0    0    0  501  0.00000000000E+00  0.00000000000E+00  0.18683391127E+04  0.18683391127E+04  0.25500000920E-02 0. -1.
        2   -1    0    0  501    0  0.00000000000E+00  0.00000000000E+00 -0.91976895754E+03  0.91976895754E+03  0.25500000920E-02 0.  1.
    10030    2    1    2    0    0  0.00000000000E+00  0.00000000000E+00  0.94857015518E+03  0.27881080703E+04  0.26217858937E+04 0.  0.
        5    1    3    3  502    0  0.43510160952E+03 -0.12140055142E+04  0.22421772465E+03  0.13089761178E+04  0.46999998093E+01 0. -1.
       -5    1    3    3    0  502 -0.43510160952E+03  0.12140055142E+04  0.72435243053E+03  0.14791319524E+04  0.46999998093E+01 0.  1.
</event>
<event>
 5   0  0.7754556E-07  0.2784869E+04  0.7818609E-02  0.8307981E-01
        1   -1    0    0  501    0  0.00000000000E+00  0.00000000000E+00  0.16152891238E+04  0.16152891238E+04  0.50400001928E-02 0.  1.
       -1   -1    0    0    0  501  0.00000000000E+00  0.00000000000E+00 -0.12003263188E+04  0.12003263188E+04  0.50400001928E-02 0. -1.
    10030    2    1    2    0    0  0.00000000000E+00  0.00000000000E+00  0.41496280505E+03  0.28156154426E+04  0.27848691515E+04 0.  0.
        4    1    3    3  502    0 -0.17718660003E+03  0.13539211250E+04  0.48321001275E+03  0.14484443494E+04  0.12699999809E+01 0.  1.
       -4    1    3    3    0  502  0.17718660003E+03 -0.13539211250E+04 -0.68247207698E+02  0.13671710932E+04  0.12699999809E+01 0. -1.
</event>
<event>
 5   0  0.7707500E-07  0.3608482E+04  0.7818609E-02  0.8088551E-01
        3   -1    0    0  501    0  0.00000000000E+00  0.00000000000E+00  0.34398932759E+04  0.34398932773E+04  0.10100000352E+00 0. -1.
       -3   -1    0    0    0  501  0.00000000000E+00  0.00000000000E+00 -0.94633342342E+03  0.94633342881E+03  0.10100000352E+00 0.  1.
    10030    2    1    2    0    0  0.00000000000E+00  0.00000000000E+00  0.24935598524E+04  0.43862267062E+04  0.36084822266E+04 0.  0.
        2    1    3    3  502    0 -0.49752485178E+03  0.11247330559E+04 -0.35787490852E+03  0.12808707489E+04  0.25500000920E-02 0.  1.
       -2    1    3    3    0  502  0.49752485178E+03 -0.11247330559E+04  0.28514347610E+04  0.31053559573E+04  0.25500000920E-02 0. -1.
</event>
<event>
 5   0  0.2536619E-06  0.2746149E+04  0.7818609E-02  0.8320185E-01
        2   -1    0    0  501    0  0.00000000000E+00  0.00000000000E+00  0.79510654535E+03  0.79510654536E+03  0.25500000920E-02 0.  1.
       -2   -1    0    0    0  501  0.00000000000E+00  0.00000000000E+00 -0.23711714123E+04  0.23711714123E+04  0.25500000920E-02 0. -1.
    10030    2    1    2    0    0  0.00000000000E+00  0.00000000000E+00 -0.15760648670E+04  0.31662779577E+04  0.27461492386E+04 0.  0.
        1    1    3    3  502    0 -0.52829678714E+03 -0.35710959728E+03 -0.21900914110E+04  0.22810359814E+04  0.50400001928E-02 0. -1.
       -1    1    3    3    0  502  0.52829678714E+03  0.35710959728E+03  0.61402654404E+03  0.88524197629E+03  0.50400001928E-02 0.  1.
</event>
<event>
 5   0  0.1513502E-06  0.3519223E+04  0.7818609E-02  0.8109249E-01
        2   -1    0    0  501    0  0.00000000000E+00  0.00000000000E+00  0.21695675323E+04  0.21695675323E+04  0.25500000920E-02 0. -1.
       -2   -1    0    0    0  501  0.00000000000E+00  0.00000000000E+00 -0.14271194627E+04  0.14271194627E+04  0.25500000920E-02 0.  1.
    10030    2    1    2    0    0  0.00000000000E+00  0.00000000000E+00  0.74244806956E+03  0.35966869951E+04  0.35192226705E+04 0.  0.
        3    1    3    3  502    0  0.13091156362E+04 -0.52429789163E+03  0.14467961435E+04  0.20203690552E+04  0.10100000352E+00 0. -1.
       -3    1    3    3    0  502 -0.13091156362E+04  0.52429789163E+03 -0.70434807389E+03  0.15763179399E+04  0.10100000352E+00 0.  1.
</event>
<event>
 5   0  0.1566576E-06  0.2954814E+04  0.7818609E-02  0.8256753E-01
       -2   -1    0    0    0  501  0.00000000000E+00  0.00000000000E+00  0.13281148821E+04  0.13281148821E+04  0.25500000920E-02 0. -1.
        2   -1    0    0  501    0  0.00000000000E+00  0.00000000000E+00 -0.16434810933E+04  0.16434810933E+04  0.25500000920E-02 0.  1.
    10030    2    1    2    0    0  0.00000000000E+00  0.00000000000E+00 -0.31536621118E+03  0.29715959754E+04  0.29548141724E+04 0.  0.
        4    1    3    3  502    0 -0.19648498447E+03 -0.11435791601E+04 -0.10773990873E+04  0.15834045758E+04  0.12699999809E+01 0.  1.
       -4    1    3    3    0  502  0.19648498447E+03  0.11435791601E+04  0.76203287612E+03  0.13881913995E+04  0.12699999809E+01 0. -1.
</event>
<event>
 5   0  0.1634374E-06  0.2249283E+04  0.7818609E-02  0.8498191E-01
        1   -1    0    0  501    0  0.00000000000E+00  0.00000000000E+00  0.96930838393E+03  0.96930838395E+03  0.50400001928E-02 0. -1.
       -1   -1    0    0    0  501  0.00000000000E+00  0.00000000000E+00 -0.13048668341E+04  0.13048668341E+04  0.50400001928E-02 0.  1.
    10030    2    1    2    0    0  0.00000000000E+00  0.00000000000E+00 -0.33555845017E+03  0.22741752181E+04  0.22492828744E+04 0.  0.
        5    1    3    3  502    0 -0.21548450011E+03 -0.10619107827E+04 -0.47229030627E+03  0.11820187408E+04  0.46999998093E+01 0.  1.
       -5    1    3    3    0  502  0.21548450011E+03  0.10619107827E+04  0.13673185610E+03  0.10921564772E+04  0.46999998093E+01 0. -1.
</event>
<event>
 5   0  0.7754556E-07  0.3606258E+04  0.7818609E-02  0.8089060E-01
        1   -1    0    0  501    0  0.00000000000E+00  0.00000000000E+00  0.10697164693E+04  0.10697164693E+04  0.50400001928E-02 0. -1.
       -1   -1    0    0    0  501  0.00000000000E+00  0.00000000000E+00 -0.30393792202E+04  0.30393792202E+04  0.50400001928E-02 0.  1.
    10030    2    1    2    0    0  0.00000000000E+00  0.00000000000E+00 -0.19696627509E+04  0.41090956895E+04  0.36062578989E+04 0.  0.
        4    1    3    3  502    0 -0.93093782131E+03  0.14782142095E+04 -0.47588535906E+03  0.18105885685E+04  0.12699999809E+01 0. -1.
       -4    1    3    3    0  502  0.93093782131E+03 -0.14782142095E+04 -0.14937773919E+04  0.22985071211E+04  0.12699999809E+01 0.  1.
</event>
<event>
 5   0  0.2382711E-06  0.3037433E+04  0.7818609E-02  0.8233122E-01
        2   -1    0    0  501    0  0.00000000000E+00  0.00000000000E+00  0.15682367546E+04  0.15682367547E+04  0.25500000920E-02 0. -1.
       -2   -1    0    0    0  501  0.00000000000E+00  0.00000000000E+00 -0.14707600829E+04  0.14707600829E+04  0.25500000920E-02 0.  1.
    10030    2    1    2    0    0  0.00000000000E+00  0.00000000000E+00  0.97476671797E+02  0.30389968375E+04  0.30374331395E+04 0.  0.
        5    1    3    3  502    0  0.95460451162E+03 -0.98869463660E+03  0.69536128950E+03  0.15402390305E+04  0.46999998093E+01 0.  1.
       -5    1    3    3    0  502 -0.95460451162E+03  0.98869463660E+03 -0.59788461770E+03  0.14987578070E+04  0.46999998093E+01 0. -1.
</event>
<event>
 5   0  0.2382711E-06  0.2070201E+04  0.7818609E-02  0.8574485E-01
       -2   -1    0    0    0  501  0.00000000000E+00  0.00000000000E+00  0.74146668263E+03  0.74146668263E+03  0.25500000920E-02 0.  1.
        2   -1    0    0  501    0  0.00000000000E+00  0.00000000000E+00 -0.14450182234E+04  0.14450182234E+04  0.25500000920E-02 0. -1.
    10030    2    1    2    0    0  0.00000000000E+00  0.00000000000E+00 -0.70355154073E+03  0.21864849060E+04  0.20702008293E+04 0.  0.
        5    1    3    3  502    0  0.74484901176E+03  0.69859080325E+03 -0.17321855330E+03  0.10357875834E+04  0.46999998093E+01 0. -1.
       -5    1    3    3    0  502 -0.74484901176E+03 -0.69859080325E+03 -0.53033298744E+03  0.11506973226E+04  0.46999998093E+01 0.  1.
</event>
<event>
 5   0  0.1908273E-06  0.1823105E+04  0.7818609E-02  0.8694108E-01
       -1   -1    0    0    0  501  0.00000000000E+00  0.00000000000E+00  0.14962376685E+04  0.14962376685E+04  0.50400001928E-02 0. -1.
        1   -1    0    0  501    0  0.00000000000E+00  0.00000000000E+00 -0.55534492179E+03  0.55534492181E+03  0.50400001928E-02 0.  1.
    10030    2    1    2    0    0  0.00000000000E+00  0.00000000000E+00  0.94089274668E+03  0.20515825903E+04  0.18231050337E+04 0.  0.
        3    1    3    3  502    0 -0.98265196497E+02  0.82667381324E+02  0.14860081315E+04  0.14915462185E+04  0.10100000352E+00 0. -1.
       -3    1    3    3    0  502  0.98265196497E+02 -0.82667381324E+02 -0.54511538482E+03  0.56003637181E+03  0.10100000352E+00 0.  1.
</event>
<event>
 5   0  0.2536619E-06  0.2311022E+04  0.7818609E-02  0.8473588E-01
        2   -1    0    0  501    0  0.00000000000E+00  0.00000000000E+00  0.65051859504E+03  0.65051859505E+03  0.25500000920E-02 0.  1.
       -2   -1    0    0    0  501  0.00000000000E+00  0.00000000000E+00 -0.20525245086E+04  0.20525245086E+04  0.25500000920E-02 0. -1.
    10030    2    1    2    0    0  0.00000000000E+00  0.00000000000E+00 -0.14020059135E+04  0.27030431036E+04  0.23110217304E+04 0.  0.
        1    1    3    3  502    0  0.47805042231E+03  0.61547118499E+03  0.29687026131E+03  0.83394780287E+03  0.50400001928E-02 0.  1.
       -1    1    3    3    0  502 -0.47805042231E+03 -0.61547118499E+03 -0.16988761748E+04  0.18690953008E+04  0.50400001928E-02 0. -1.
</event>
<event>
 5   0  0.8423692E-07  0.3651393E+04  0.7818609E-02  0.8078820E-01
       -1   -1    0    0    0  501  0.00000000000E+00  0.00000000000E+00  0.99064141622E+03  0.99064141623E+03  0.50400001928E-02 0. -1.
        1   -1    0    0  501    0  0.00000000000E+00  0.00000000000E+00 -0.33646566978E+04  0.33646566978E+04  0.50400001928E-02 0.  1.
    10030    2    1    2    0    0  0.00000000000E+00  0.00000000000E+00 -0.23740152816E+04  0.43552981141E+04  0.36513933101E+04 0.  0.
        2    1    3    3  502    0  0.17773851790E+04 -0.31326982721E+03 -0.85832837240E+03  0.19984903438E+04  0.25500000920E-02 0. -1.
       -2    1    3    3    0  502 -0.17773851790E+04  0.31326982721E+03 -0.15156869092E+04  0.23568077703E+04  0.25500000920E-02 0.  1.
</event>
<event>
 5   0  0.7754556E-07  0.3569261E+04  0.7818609E-02  0.8097569E-01
       -1   -1    0    0    0  501  0.00000000000E+00  0.00000000000E+00  0.26730114987E+04  0.26730114987E+04  0.50400001928E-02 0.  1.
        1   -1    0    0  501    0  0.00000000000E+00  0.00000000000E+00 -0.11915048238E+04  0.11915048238E+04  0.50400001928E-02 0. -1.
    10030    2    1    2    0    0  0.00000000000E+00  0.00000000000E+00  0.14815066749E+04  0.38645163225E+04  0.35692610410E+04 0.  0.
        4    1    3    3  502    0  0.12013321738E+04  0.11350937623E+04  0.14696973818E+04  0.22117072248E+04  0.12699999809E+01 0.  1.
       -4    1    3    3    0  502 -0.12013321738E+04 -0.11350937623E+04  0.11809293124E+02  0.16528090977E+04  0.12699999809E+01 0. -1.
</event>
<event>
 5   0  0.1566576E-06  0.4031467E+04  0.7818609E-02  0.7998229E-01
        2   -1    0    0  501    0  0.00000000000E+00  0.00000000000E+00  0.25871266963E+04  0.25871266963E+04  0.25500000920E-02 0. -1.
       -2   -1    0    0    0  501  0.00000000000E+00  0.00000000000E+00 -0.15705385341E+04  0.15705385341E+04  0.25500000920E-02 0.  1.
    10030    2    1    2    0    0  0.00000000000E+00  0.00000000000E+00  0.10165881622E+04  0.41576652304E+04  0.40314673106E+04 0.  0.
        4    1    3    3  502    0 -0.35858330115E+03 -0.10274415807E+04  0.22581583740E+04  0.25066908546E+04  0.12699999809E+01 0. -1.
       -4    1    3    3    0  502  0.35858330115E+03  0.10274415807E+04 -0.12415702118E+04  0.16509743758E+04  0.12699999809E+01 0.  1.
</event>
<event>
 5   0  0.1634374E-06  0.3603670E+04  0.7818609E-02  0.8089652E-01
        1   -1    0    0  501    0  0.00000000000E+00  0.00000000000E+00  0.34227650693E+04  0.34227650693E+04  0.50400001928E-02 0. -1.
       -1   -1    0    0    0  501  0.00000000000E+00  0.00000000000E+00 -0.94853399592E+03  0.94853399594E+03  0.50400001928E-02 0.  1.
    10030    2    1    2    0    0  0.00000000000E+00  0.00000000000E+00  0.24742310734E+04  0.43712990653E+04  0.36036698119E+04 0.  0.
        5    1    3    3  502    0  0.58103430369E+02  0.15268156988E+04  0.23955556906E+04  0.28413467482E+04  0.46999998093E+01 0. -1.
       -5    1    3    3    0  502 -0.58103430369E+02 -0.15268156988E+04  0.78675382809E+02  0.15299523171E+04  0.46999998093E+01 0.  1.
</event>
<event>
 5   0  0.1634374E-06  0.3346773E+04  0.7818609E-02  0.8151095E-01
       -1   -1    0    0    0  501  0.00000000000E+00  0.00000000000E+00  0.30159300985E+04  0.30159300985E+04  0.50400001928E-02 0. -1.
        1   -1    0    0  501    0  0.00000000000E+00  0.00000000000E+00 -0.92847700766E+03  0.92847700768E+03  0.50400001928E-02 0.  1.
    10030    2    1    2    0    0  0.00000000000E+00  0.00000000000E+00  0.20874530909E+04  0.39444071062E+04  0.33467726264E+04 0.  0.
        5    1    3    3  502    0 -0.86322299383E+03 -0.76997329429E+03  0.24688646810E+04  0.27264129757E+04  0.46999998093E+01 0. -1.
       -5    1    3    3    0  502  0.86322299383E+03  0.76997329429E+03 -0.38141159009E+03  0.12179941305E+04  0.46999998093E+01 0.  1.
</event>
<event>
 5   0  0.8423692E-07  0.3622410E+04  0.7818609E-02  0.8085378E-01
       -1   -1    0    0    0  501  0.00000000000E+00  0.00000000000E+00  0.12168904976E+04  0.12168904976E+04  0.50400001928E-02 0. -1.
        1   -1    0    0  501    0  0.00000000000E+00  0.00000000000E+00 -0.26957750402E+04  0.26957750403E+04  0.50400001928E-02 0.  1.
    10030    2    1    2    0    0  0.00000000000E+00  0.00000000000E+00 -0.14788845427E+04  0.39126655379E+04  0.36224097119E+04 0.  0.
        2    1    3    3  502    0  0.34416320319E+03  0.67306796072E+03 -0.25172271031E+04  0.26282886216E+04  0.25500000920E-02 0.  1.
       -2    1    3    3    0  502 -0.34416320319E+03 -0.67306796072E+03  0.10383425604E+04  0.12843769162E+04  0.25500000920E-02 0. -1.
</event>
<event>
 5   0  0.1566576E-06  0.1961680E+04  0.7818609E-02  0.8624749E-01
       -2   -1    0    0    0  501  0.00000000000E+00  0.00000000000E+00  0.43134039570E+03  0.43134039571E+03  0.25500000920E-02 0. -1.
        2   -1    0    0  501    0  0.00000000000E+00  0.00000000000E+00 -0.22303664805E+04  0.22303664805E+04  0.25500000920E-02 0.  1.
    10030    2    1    2    0    0  0.00000000000E+00  0.00000000000E+00 -0.17990260848E+04  0.26617068763E+04  0.19616800558E+04 0.  0.
        4    1    3    3  502    0 -0.30038640086E+03 -0.19678465316E+02 -0.21661360872E+04  0.21869536787E+04  0.12699999809E+01 0.  1.
       -4    1    3    3    0  502  0.30038640086E+03  0.19678465316E+02  0.36711000235E+03  0.47475319751E+03  0.12699999809E+01 0. -1.
</event>
<event>
 5   0  0.8423692E-07  0.2129882E+04  0.7818609E-02  0.8548193E-01
        1   -1    0    0  501    0  0.00000000000E+00  0.00000000000E+00  0.94712185071E+03  0.94712185072E+03  0.50400001928E-02 0. -1.
       -1   -1    0    0    0  501  0.00000000000E+00  0.00000000000E+00 -0.11974165254E+04  0.11974165254E+04  0.50400001928E-02 0.  1.
    10030    2    1    2    0    0  0.00000000000E+00  0.00000000000E+00 -0.25029467466E+03  0.21445383761E+04  0.21298820208E+04 0.  0.
        2    1    3    3  502    0 -0.96666092258E+03 -0.44218473427E+03 -0.18992258000E+03  0.10798292758E+04  0.25500000920E-02 0. -1.
       -2    1    3    3    0  502  0.96666092258E+03  0.44218473427E+03 -0.60372094653E+02  0.10647091003E+04  0.25500000920E-02 0.  1.
</event>
<event>
 5   0  0.2536619E-06  0.3561248E+04  0.7818609E-02  0.8099426E-01
       -2   -1    0    0    0  501  0.00000000000E+00  0.00000000000E+00  0.13630605568E+04  0.13630605568E+04  0.25500000920E-02 0.  1.
        2   -1    0    0  501    0  0.00000000000E+00  0.00000000000E+00 -0.23261050311E+04  0.23261050311E+04  0.25500000920E-02 0. -1.
    10030    2    1    2    0    0  0.00000000000E+00  0.00000000000E+00 -0.96304447432E+03  0.36891655879E+04  0.35612481064E+04 0.  0.
        1    1    3    3  502    0 -0.22006432483E+03 -0.56259939309E+03  0.12536582209E+04  0.13916196747E+04  0.50400001928E-02 0.  1.
       -1    1    3    3    0  502  0.22006432483E+03  0.56259939309E+03 -0.22167026952E+04  0.22975459132E+04  0.50400001928E-02 0. -1.
</event>
<event>
 5   0  0.2536619E-06  0.2532098E+04  0.7818609E-02  0.8391639E-01
        2   -1    0    0  501    0  0.00000000000E+00  0.00000000000E+00  0.20374204178E+04  0.20374204178E+04  0.25500000920E-02 0. -1.
       -2   -1    0    0    0  501  0.00000000000E+00  0.00000000000E+00 -0.78672004751E+03  0.78672004752E+03  0.25500000920E-02 0.  1.
    10030    2    1    2    0    0  0.00000000000E+00  0.00000000000E+00  0.12507003703E+04  0.28241404653E+04  0.25320975399E+04 0.  0.
        1    1    3    3  502    0  0.11886475516E+04 -0.72511693007E+02  0.14596499156E+03  0.11997694472E+04  0.50400001928E-02 0. -1.
       -1    1    3    3    0  502 -0.11886475516E+04  0.72511693007E+02  0.11047353787E+04  0.16243710181E+04  0.50400001928E-02 0.  1.
</event>
<event>
 5   0  0.1513502E-06  0.2598415E+04  0.7818609E-02  0.8368740E-01
       -2   -1    0    0    0  501  0.00000000000E+00  0.00000000000E+00  0.10423643895E+04  0.10423643895E+04  0.25500000920E-02 0.  1.
        2   -1    0    0  501    0  0.00000000000E+00  0.00000000000E+00 -0.16193384880E+04  0.16193384880E+04  0.25500000920E-02 0. -1.
    10030    2    1    2    0    0  0.00000000000E+00  0.00000000000E+00 -0.57697409846E+03  0.26617028775E+04  0.25984154975E+04 0.  0.
        3    1    3    3  502    0  0.60375288779E+03  0.10263210357E+04 -0.82084518955E+03  0.14462500659E+04  0.10100000352E+00 0. -1.
       -3    1    3    3    0  502 -0.60375288779E+03 -0.10263210357E+04  0.24387109108E+03  0.12154528116E+04  0.10100000352E+00 0.  1.
</event>
<event>
 5   0  0.7754556E-07  0.1812744E+04  0.7818609E-02  0.8699551E-01
       -1   -1    0    0    0  501  0.00000000000E+00  0.00000000000E+00  0.49435767157E+03  0.49435767159E+03  0.50400001928E-02 0. -1.
        1   -1    0    0  501    0  0.00000000000E+00  0.00000000000E+00 -0.16617732640E+04  0.16617732640E+04  0.50400001928E-02 0.  1.
    10030    2    1    2    0    0  0.00000000000E+00  0.00000000000E+00 -0.11674155925E+04  0.21561309356E+04  0.18127441756E+04 0.  0.
        4    1    3    3  502    0 -0.86438849742E+03 -0.66287564548E+02 -0.89828256186E+03  0.12483888375E+04  0.12699999809E+01 0.  1.
       -4    1    3    3    0  502  0.86438849742E+03  0.66287564548E+02 -0.26913303060E+03  0.90774209815E+03  0.12699999809E+01 0. -1.
</event>
<event>
 5   0  0.1908273E-06  0.3364933E+04  0.7818609E-02  0.8146567E-01
       -1   -1    0    0    0  501  0.00000000000E+00  0.00000000000E+00  0.10141296045E+04  0.10141296045E+04  0.50400001928E-02 0. -1.
        1   -1    0    0  501    0  0.00000000000E+00  0.00000000000E+00 -0.27912545139E+04  0.27912545139E+04  0.50400001928E-02 0.  1.
    10030    2    1    2    0    0  0.00000000000E+00  0.00000000000E+00 -0.17771249094E+04  0.38053841185E+04  0.33649331859E+04 0.  0.
        3    1    3    3  502    0 -0.65140679339E+03  0.49054740459E+03 -0.25528326561E+04  0.26799108468E+04  0.10100000352E+00 0.  1.
       -3    1    3    3    0  502  0.65140679339E+03 -0.49054740459E+03  0.77570774671E+03  0.11254732716E+04  0.10100000352E+00 0. -1.
</event>
<event>
 5   0  0.2536619E-06  0.3508941E+04  0.7818609E-02  0.8111674E-01
        2   -1    0    0  501    0  0.00000000000E+00  0.00000000000E+00  0.30844368667E+04  0.30844368667E+04  0.25500000920E-02 0.  1.
       -2   -1    0    0    0  501  0.00000000000E+00  0.00000000000E+00 -0.99796741698E+03  0.99796741699E+03  0.25500000920E-02 0. -1.
    10030    2    1    2    0    0  0.00000000000E+00  0.00000000000E+00  0.20864694497E+04  0.40824042837E+04  0.35089414317E+04 0.  0.
        1    1    3    3  502    0  0.41632457537E+03 -0.12244900400E+04 -0.33603747777E+03  0.13362721267E+04  0.50400001928E-02 0. -1.
       -1    1    3    3    0  502 -0.41632457537E+03  0.12244900400E+04  0.24225069275E+04  0.27461321570E+04  0.50400001928E-02 0.  1.
</event>
<event>
 5   0  0.1908273E-06  0.3578756E+04  0.7818609E-02  0.8095375E-01
       -1   -1    0    0    0  501  0.00000000000E+00  0.00000000000E+00  0.14907651147E+04  0.14907651147E+04  0.50400001928E-02 0. -1.
        1   -1    0    0  501    0  0.00000000000E+00  0.00000000000E+00 -0.21478060990E+04  0.21478060991E+04  0.50400001928E-02 0.  1.
    10030    2    1    2    0    0  0.00000000000E+00  0.00000000000E+00 -0.65704098436E+03  0.36385712137E+04  0.35787564352E+04 0.  0.
        3    1    3    3  502    0  0.33223104525E+03  0.41528070073E+03  0.14085549328E+04  0.15056103536E+04  0.10100000352E+00 0. -1.
       -3    1    3    3    0  502 -0.33223104525E+03 -0.41528070073E+03 -0.20655959172E+04  0.21329608602E+04  0.10100000352E+00 0.  1.
</event>
<event>
 5   0  0.2422436E-06  0.3575472E+04  0.7818609E-02  0.8096133E-01
       -2   -1    0    0    0  501  0.00000000000E+00  0.00000000000E+00  0.96412598875E+03  0.96412598875E+03  0.25500000920E-02 0. -1.
        2   -1    0    0  501    0  0.00000000000E+00  0.00000000000E+00 -0.33149187933E+04  0.33149187933E+04  0.25500000920E-02 0.  1.
    10030    2    1    2    0    0  0.00000000000E+00  0.00000000000E+00 -0.23507928045E+04  0.42790447820E+04  0.35754716384E+04 0.  0.
        2    1    3    3  502    0 -0.13311425516E+04  0.10730775450E+04 -0.18002054391E+04  0.24827757718E+04  0.25500000920E-02 0. -1.
       -2    1    3    3    0  502  0.13311425516E+04 -0.10730775450E+04 -0.55058736544E+03  0.17962690102E+04  0.25500000920E-02 0.  1.
</event>
<event>
 5   0  0.8452742E-07  0.1925012E+04  0.7818609E-02  0.8642506E-01
        1   -1    0    0  501    0  0.00000000000E+00  0.00000000000E+00  0.25977246904E+04  0.25977246904E+04  0.50400001928E-02 0.  1.
       -1   -1    0    0    0  501  0.00000000000E+00  0.00000000000E+00 -0.35662649932E+03  0.35662649936E+03  0.50400001928E-02 0. -1.
    10030    2    1    2    0    0  0.00000000000E+00  0.00000000000E+00  0.22410981910E+04  0.29543511897E+04  0.19250116494E+04 0.  0.
        1    1    3    3  502    0  0.65319116562E+03 -0.17132200201E+02  0.22051785574E+04  0.22999488431E+04  0.50400001928E-02 0.  1.
       -1    1    3    3    0  502 -0.65319116562E+03  0.17132200201E+02  0.35919633672E+02  0.65440234660E+03  0.50400001928E-02 0. -1.
</event>
<event>
 5   0  0.7754556E-07  0.3569794E+04  0.7818609E-02  0.8097446E-01
        1   -1    0    0  501    0  0.00000000000E+00  0.00000000000E+00  0.29472328183E+04  0.29472328183E+04  0.50400001928E-02 0.  1.
       -1   -1    0    0    0  501  0.00000000000E+00  0.00000000000E+00 -0.10809653363E+04  0.10809653363E+04  0.50400001928E-02 0. -1.
    10030    2    1    2    0    0  0.00000000000E+00  0.00000000000E+00  0.18662674820E+04  0.40281981546E+04  0.35697935597E+04 0.  0.
        4    1    3    3  502    0  0.52994581575E+03 -0.58106753095E+03 -0.87492359036E+03  0.11764246449E+04  0.12699999809E+01 0. -1.
       -4    1    3    3    0  502 -0.52994581575E+03  0.58106753095E+03  0.27411910723E+04  0.28517735098E+04  0.12699999809E+01 0.  1.
</event>
<event>
 5   0  0.8423692E-07  0.3636191E+04  0.7818609E-02  0.8082252E-01
        1   -1    0    0  501    0  0.00000000000E+00  0.00000000000E+00  0.17726952276E+04  0.17726952276E+04  0.50400001928E-02 0.  1.
       -1   -1    0    0    0  501  0.00000000000E+00  0.00000000000E+00 -0.18646581648E+04  0.18646581649E+04  0.50400001928E-02 0. -1.
    10030    2    1    2    0    0  0.00000000000E+00  0.00000000000E+00 -0.91962937294E+02  0.36373533924E+04  0.36361906605E+04 0.  0.
        2    1    3    3  502    0 -0.36497495332E+03  0.79896788556E+03  0.15463548689E+04  0.17784177741E+04  0.25500000920E-02 0.  1.
       -2    1    3    3    0  502  0.36497495332E+03 -0.79896788556E+03 -0.16383178062E+04  0.18589356183E+04  0.25500000920E-02 0. -1.
</event>
<event>
 5   0  0.1566576E-06  0.3515693E+04  0.7818609E-02  0.8110081E-01
       -2   -1    0    0    0  501  0.00000000000E+00  0.00000000000E+00  0.17687833271E+04  0.17687833271E+04  0.25500000920E-02 0. -1.
        2   -1    0    0  501    0  0.00000000000E+00  0.00000000000E+00 -0.17469771845E+04  0.17469771845E+04  0.25500000920E-02 0.  1.
    10030    2    1    2    0    0  0.00000000000E+00  0.00000000000E+00  0.21806142623E+02  0.35157605116E+04  0.35156928858E+04 0.  0.
        4    1    3    3  502    0  0.11122384964E+04 -0.48869327498E+03  0.12814104547E+04  0.17657604471E+04  0.12699999809E+01 0. -1.
       -4    1    3    3    0  502 -0.11122384964E+04  0.48869327498E+03 -0.12596043121E+04  0.17500000646E+04  0.12699999809E+01 0.  1.
</event>
<event>
 5   0  0.8452742E-07  0.2376616E+04  0.7818609E-02  0.8448311E-01
       -1   -1    0    0    0  501  0.00000000000E+00  0.00000000000E+00  0.14861482992E+04  0.14861482992E+04  0.50400001928E-02 0. -1.
        1   -1    0    0  501    0  0.00000000000E+00  0.00000000000E+00 -0.95015780225E+03  0.95015780227E+03  0.50400001928E-02 0.  1.
    10030    2    1    2    0    0  0.00000000000E+00  0.00000000000E+00  0.53599049698E+03  0.24363061015E+04  0.23766155784E+04 0.  0.
        1    1    3    3  502    0 -0.43930497643E+03  0.11034023402E+04  0.30886916177E+03  0.12271453646E+04  0.50400001928E-02 0. -1.
       -1    1    3    3    0  502  0.43930497643E+03 -0.11034023402E+04  0.22712133521E+03  0.12091607369E+04  0.50400001928E-02 0.  1.
</event>
<event>
 5   0  0.1634374E-06  0.3648482E+04  0.7818609E-02  0.8079476E-01
        1   -1    0    0  501    0  0.00000000000E+00  0.00000000000E+00  0.11626778000E+04  0.11626778000E+04  0.50400001928E-02 0.  1.
       -1   -1    0    0    0  501  0.00000000000E+00  0.00000000000E+00 -0.28622327270E+04  0.28622327270E+04  0.50400001928E-02 0. -1.
    10030    2    1    2    0    0  0.00000000000E+00  0.00000000000E+00 -0.16995549270E+04  0.40249105269E+04  0.36484815746E+04 0.  0.
        5    1    3    3  502    0 -0.73001608608E+03  0.10954326300E+04 -0.22429847415E+04  0.26007496561E+04  0.46999998093E+01 0. -1.
       -5    1    3    3    0  502  0.73001608608E+03 -0.10954326300E+04  0.54342981452E+03  0.14241608709E+04  0.46999998093E+01 0.  1.
</event>
<event>
 5   0  0.8423692E-07  0.3551389E+04  0.7818609E-02  0.8101718E-01
       -1   -1    0    0    0  501  0.00000000000E+00  0.00000000000E+00  0.14134177360E+04  0.14134177360E+04  0.50400001928E-02 0. -1.
        1   -1    0    0  501    0  0.00000000000E+00  0.00000000000E+00 -0.22308269555E+04  0.22308269555E+04  0.50400001928E-02 0.  1.
    10030    2    1    2    0    0  0.00000000000E+00  0.00000000000E+00 -0.81740921954E+03  0.36442446916E+04  0.35513886777E+04 0.  0.
        2    1    3    3  502    0  0.17456166209E+03  0.25668615873E+03 -0.22027685719E+04  0.22245334206E+04  0.25500000920E-02 0.  1.
       -2    1    3    3    0  502 -0.17456166209E+03 -0.25668615873E+03  0.13853593523E+04  0.14197112710E+04  0.25500000920E-02 0. -1.
</event>
<event>
 5   0  0.2422436E-06  0.3451334E+04  0.7818609E-02  0.8125421E-01
       -2   -1    0    0    0  501  0.00000000000E+00  0.00000000000E+00  0.11996866659E+04  0.11996866659E+04  0.25500000920E-02 0. -1.
        2   -1    0    0  501    0  0.00000000000E+00  0.00000000000E+00 -0.24822532588E+04  0.24822532588E+04  0.25500000920E-02 0.  1.
    10030    2    1    2    0    0  0.00000000000E+00  0.00000000000E+00 -0.12825665929E+04  0.36819399247E+04  0.34513337340E+04 0.  0.
        2    1    3    3  502    0  0.96797361770E+02  0.14599717177E+04  0.33474539857E+03  0.15009802223E+04  0.25500000920E-02 0. -1.
       -2    1    3    3    0  502 -0.96797361770E+02 -0.14599717177E+04 -0.16173119915E+04  0.21809597024E+04  0.25500000920E-02 0.  1.
</event>
<event>
 5   0  0.1566576E-06  0.2264468E+04  0.7818609E-02  0.8492064E-01
       -2   -1    0    0    0  501  0.00000000000E+00  0.00000000000E+00  0.71041597056E+03  0.71041597056E+03  0.25500000920E-02 0.  1.
        2   -1    0    0  501    0  0.00000000000E+00  0.00000000000E+00 -0.18045113706E+04  0.18045113706E+04  0.25500000920E-02 0. -1.
    10030    2    1    2    0    0  0.00000000000E+00  0.00000000000E+00 -0.10940954001E+04  0.25149273412E+04  0.22644678816E+04 0.  0.
        4    1    3    3  502    0 -0.41428290235E+03  0.25146302716E+03 -0.16834991590E+04  0.17518661502E+04  0.12699999809E+01 0. -1.
       -4    1    3    3    0  502  0.41428290235E+03 -0.25146302716E+03  0.58940375891E+03  0.76306119094E+03  0.12699999809E+01 0.  1.
</event>
<event>
 5   0  0.1566576E-06  0.3527098E+04  0.7818609E-02  0.8107398E-01
        2   -1    0    0  501    0  0.00000000000E+00  0.00000000000E+00  0.21217617411E+04  0.21217617411E+04  0.25500000920E-02 0. -1.
       -2   -1    0    0    0  501  0.00000000000E+00  0.00000000000E+00 -0.14658125012E+04  0.14658125012E+04  0.25500000920E-02 0.  1.
    10030    2    1    2    0    0  0.00000000000E+00  0.00000000000E+00  0.65594923984E+03  0.35875742423E+04  0.35270978919E+04 0.  0.
        4    1    3    3  502    0  0.77208649836E+03  0.10569826560E+04  0.15300905658E+04  0.20135810509E+04  0.12699999809E+01 0. -1.
       -4    1    3    3    0  502 -0.77208649836E+03 -0.10569826560E+04 -0.87414132594E+03  0.15739931914E+04  0.12699999809E+01 0.  1.
</event>
<event>
 5   0  0.8423692E-07  0.2341292E+04  0.7818609E-02  0.8461816E-01
        1   -1    0    0  501    0  0.00000000000E+00  0.00000000000E+00  0.16209151627E+04  0.16209151627E+04  0.50400001928E-02 0. -1.
       -1   -1    0    0    0  501  0.00000000000E+00  0.00000000000E+00 -0.84545598021E+03  0.84545598023E+03  0.50400001928E-02 0.  1.
    10030    2    1    2    0    0  0.00000000000E+00  0.00000000000E+00  0.77545918246E+03  0.24663711429E+04  0.23412923079E+04 0.  0.
        2    1    3    3  502    0  0.10867394912E+04 -0.26155985176E+02  0.84536345519E+03  0.13770716135E+04  0.25500000920E-02 0. -1.
       -2    1    3    3    0  502 -0.10867394912E+04  0.26155985176E+02 -0.69904272730E+02  0.10892995294E+04  0.25500000920E-02 0.  1.
</event>
<event>
 5   0  0.2422436E-06  0.3608493E+04  0.7818609E-02  0.8088549E-01
        2   -1    0    0  501    0  0.00000000000E+00  0.00000000000E+00  0.16360780843E+04  0.16360780843E+04  0.25500000920E-02 0.  1.
       -2   -1    0    0    0  501  0.00000000000E+00  0.00000000000E+00 -0.19897001630E+04  0.19897001630E+04  0.25500000920E-02 0. -1.
    10030    2    1    2    0    0  0.00000000000E+00  0.00000000000E+00 -0.35362207869E+03  0.36257782472E+04  0.36084926664E+04 0.  0.
        2    1    3    3  502    0 -0.17920714082E+04 -0.86615925833E+02 -0.36820335363E+03  0.18315556121E+04  0.25500000920E-02 0. -1.
       -2    1    3    3    0  502  0.17920714082E+04  0.86615925833E+02  0.14581274942E+02  0.17942226351E+04  0.25500000920E-02 0.  1.
</event>
<event>
 5   0  0.1566576E-06  0.3654988E+04  0.7818609E-02  0.8078011E-01
       -2   -1    0    0    0  501  0.00000000000E+00  0.00000000000E+00  0.17651303173E+04  0.17651303173E+04  0.25500000920E-02 0. -1.
        2   -1    0    0  501    0  0.00000000000E+00  0.00000000000E+00 -0.18920615007E+04  0.18920615007E+04  0.25500000920E-02 0.  1.
    10030    2    1    2    0    0  0.00000000000E+00  0.00000000000E+00 -0.12693118335E+03  0.36571918180E+04  0.36549884361E+04 0.  0.
        4    1    3    3  502    0  0.32648338649E+03 -0.11464909613E+04  0.13225411267E+04  0.17804913846E+04  0.12699999809E+01 0. -1.
       -4    1    3    3    0  502 -0.32648338649E+03  0.11464909613E+04 -0.14494723101E+04  0.18767004333E+04  0.12699999809E+01 0.  1.
</event>
<event>
 5   0  0.1513502E-06  0.3743720E+04  0.7818609E-02  0.8058341E-01
        2   -1    0    0  501    0  0.00000000000E+00  0.00000000000E+00  0.20339636256E+04  0.20339636256E+04  0.25500000920E-02 0.  1.
       -2   -1    0    0    0  501  0.00000000000E+00  0.00000000000E+00 -0.17226762257E+04  0.17226762257E+04  0.25500000920E-02 0. -1.
    10030    2    1    2    0    0  0.00000000000E+00  0.00000000000E+00  0.31128739985E+03  0.37566398513E+04  0.37437204926E+04 0.  0.
        3    1    3    3  502    0  0.57777176367E+03 -0.13132625463E+04 -0.10507455882E+04  0.17783545844E+04  0.10100000352E+00 0. -1.
       -3    1    3    3    0  502 -0.57777176367E+03  0.13132625463E+04  0.13620329880E+04  0.19782852669E+04  0.10100000352E+00 0.  1.
</event>
<event>
 5   0  0.2382711E-06  0.2042319E+04  0.7818609E-02  0.8587087E-01
       -2   -1    0    0    0  501  0.00000000000E+00  0.00000000000E+00  0.60466108988E+03  0.60466108988E+03  0.25500000920E-02 0. -1.
        2   -1    0    0  501    0  0.00000000000E+00  0.00000000000E+00 -0.17245481519E+04  0.17245481519E+04  0.25500000920E-02 0.  1.
    10030    2    1    2    0    0  0.00000000000E+00  0.00000000000E+00 -0.11198870620E+04  0.23292092418E+04  0.20423194315E+04 0.  0.
        5    1    3    3  502    0  0.48176874991E+02  0.39695985109E+03  0.51164373305E+03  0.64938396518E+03  0.46999998093E+01 0. -1.
       -5    1    3    3    0  502 -0.48176874991E+02 -0.39695985109E+03 -0.16315307950E+04  0.16798252766E+04  0.46999998093E+01 0.  1.
</event>
<event>
 5   0  0.1513502E-06  0.3520428E+04  0.7818609E-02  0.8108966E-01
       -2   -1    0    0    0  501  0.00000000000E+00  0.00000000000E+00  0.19526448228E+04  0.19526448228E+04  0.25500000920E-02 0.  1.
        2   -1    0    0  501    0  0.00000000000E+00  0.00000000000E+00 -0.15867470861E+04  0.15867470861E+04  0.25500000920E-02 0. -1.
    10030    2    1    2    0    0  0.00000000000E+00  0.00000000000E+00  0.36589773670E+03  0.35393919089E+04  0.35204280892E+04 0.  0.
        3    1    3    3  502    0 -0.32435557806E+03 -0.16341573871E+04 -0.38815735043E+03  0.17106557356E+04  0.10100000352E+00 0. -1.
       -3    1    3    3    0  502  0.32435557806E+03  0.16341573871E+04  0.75405508714E+03  0.18287361733E+04  0.10100000352E+00 0.  1.
</event>
<event>
 5   0  0.7707500E-07  0.2359079E+04  0.7818609E-02  0.8454985E-01
       -3   -1    0    0    0  501  0.00000000000E+00  0.00000000000E+00  0.12584837515E+04  0.12584837556E+04  0.10100000352E+00 0.  1.
        3   -1    0    0  501    0  0.00000000000E+00  0.00000000000E+00 -0.11055470980E+04  0.11055471027E+04  0.10100000352E+00 0. -1.
    10030    2    1    2    0    0  0.00000000000E+00  0.00000000000E+00  0.15293665348E+03  0.23640308582E+04  0.23590786928E+04 0.  0.
        4    1    3    3  502    0 -0.35047264434E+03  0.77094257791E+03  0.89924481282E+03  0.12352434493E+04  0.12699999809E+01 0.  1.
       -4    1    3    3    0  502  0.35047264434E+03 -0.77094257791E+03 -0.74630815934E+03  0.11287874089E+04  0.12699999809E+01 0. -1.
</event>
<event>
 5   0  0.2382711E-06  0.3329806E+04  0.7818609E-02  0.8155352E-01
        2   -1    0    0  501    0  0.00000000000E+00  0.00000000000E+00  0.21201787393E+04  0.21201787393E+04  0.25500000920E-02 0.  1.
       -2   -1    0    0    0  501  0.00000000000E+00  0.00000000000E+00 -0.13073904080E+04  0.13073904080E+04  0.25500000920E-02 0. -1.
    10030    2    1    2    0    0  0.00000000000E+00  0.00000000000E+00  0.81278833135E+03  0.34275691473E+04  0.33298056081E+04 0.  0.
        5    1    3    3  502    0 -0.13487154548E+04 -0.62399750628E+03  0.11790816833E+04  0.18970139619E+04  0.46999998093E+01 0.  1.
       -5    1    3    3    0  502  0.13487154548E+04  0.62399750628E+03 -0.36629335192E+03  0.15305551854E+04  0.46999998093E+01 0. -1.
</event>
<event>
 5   0  0.1566576E-06  0.2131091E+04  0.7818609E-02  0.8547670E-01
       -2   -1    0    0    0  501  0.00000000000E+00  0.00000000000E+00  0.12853827723E+04  0.12853827723E+04  0.25500000920E-02 0. -1.
        2   -1    0    0  501    0  0.00000000000E+00  0.00000000000E+00 -0.88330690187E+03  0.88330690188E+03  0.25500000920E-02 0.  1.
    10030    2    1    2    0    0  0.00000000000E+00  0.00000000000E+00  0.40207587039E+03  0.21686896741E+04  0.21310912456E+04 0.  0.
        4    1    3    3  502    0 -0.66117817920E+03 -0.32941798967E+03 -0.58043823838E+03  0.93945886448E+03  0.12699999809E+01 0.  1.
       -4    1    3    3    0  502  0.66117817920E+03  0.32941798967E+03  0.98251410877E+03  0.12292308097E+04  0.12699999809E+01 0. -1.
</event>
<event>
 5   0  0.8423692E-07  0.3676458E+04  0.7818609E-02  0.8073199E-01
       -1   -1    0    0    0  501  0.00000000000E+00  0.00000000000E+00  0.19183789763E+04  0.19183789763E+04  0.50400001928E-02 0. -1.
        1   -1    0    0  501    0  0.00000000000E+00  0.00000000000E+00 -0.17614272711E+04  0.17614272711E+04  0.50400001928E-02 0.  1.
    10030    2    1    2    0    0  0.00000000000E+00  0.00000000000E+00  0.15695170518E+03  0.36798062474E+04  0.36764575586E+04 0.  0.
        2    1    3    3  502    0  0.12998599862E+04  0.77366445262E+03 -0.96693342248E+03  0.17953141542E+04  0.25500000920E-02 0.  1.
       -2    1    3    3    0  502 -0.12998599862E+04 -0.77366445262E+03  0.11238851277E+04  0.18844920931E+04  0.25500000920E-02 0. -1.
</event>
<event>
 5   0  0.1513502E-06  0.3695091E+04  0.7818609E-02  0.8069051E-01
        2   -1    0    0  501    0  0.00000000000E+00  0.00000000000E+00  0.20601691014E+04  0.20601691014E+04  0.25500000920E-02 0.  1.
       -2   -1    0    0    0  501  0.00000000000E+00  0.00000000000E+00 -0.16568659141E+04  0.16568659141E+04  0.25500000920E-02 0. -1.
    10030    2    1    2    0    0  0.00000000000E+00  0.00000000000E+00  0.40330318737E+03  0.37170350155E+04  0.36950907764E+04 0.  0.
        3    1    3    3  502    0 -0.17529029252E+04 -0.90355781408E+02  0.78178365047E+03  0.19214625988E+04  0.10100000352E+00 0.  1.
       -3    1    3    3    0  502  0.17529029252E+04  0.90355781408E+02 -0.37848046309E+03  0.17955724167E+04  0.10100000352E+00 0. -1.
</event>
<event>
 5   0  0.1908273E-06  0.2193970E+04  0.7818609E-02  0.8520942E-01
       -1   -1    0    0    0  501  0.00000000000E+00  0.00000000000E+00  0.81962509982E+03  0.81962509984E+03  0.50400001928E-02 0. -1.
        1   -1    0    0  501    0  0.00000000000E+00  0.00000000000E+00 -0.14682028540E+04  0.14682028540E+04  0.50400001928E-02 0.  1.
    10030    2    1    2    0    0  0.00000000000E+00  0.00000000000E+00 -0.64857775420E+03  0.22878279539E+04  0.21939698365E+04 0.  0.
        3    1    3    3  502    0 -0.65726356785E+03 -0.72143705478E+03 -0.84662600632E+03  0.12919916511E+04  0.10100000352E+00 0.  1.
       -3    1    3    3    0  502  0.65726356785E+03  0.72143705478E+03  0.19804825211E+03  0.99583630281E+03  0.10100000352E+00 0. -1.
</event>
<event>
 5   0  0.8452742E-07  0.3039752E+04  0.7818609E-02  0.8232470E-01
        1   -1    0    0  501    0  0.00000000000E+00  0.00000000000E+00  0.16960882646E+04  0.16960882646E+04  0.50400001928E-02 0.  1.
       -1   -1    0    0    0  501  0.00000000000E+00  0.00000000000E+00 -0.13619712312E+04  0.13619712312E+04  0.50400001928E-02 0. -1.
    10030    2    1    2    0    0  0.00000000000E+00  0.00000000000E+00  0.33411703336E+03  0.30580594958E+04  0.30397522412E+04 0.  0.
        1    1    3    3  502    0  0.23031623259E+03  0.79480390779E+03 -0.11154781251E+04  0.13889025403E+04  0.50400001928E-02 0. -1.
       -1    1    3    3    0  502 -0.23031623259E+03 -0.79480390779E+03  0.14495951584E+04  0.16691569555E+04  0.50400001928E-02 0.  1.
</event>
<event>
 5   0  0.2422436E-06  0.1778401E+04  0.7818609E-02  0.8717871E-01
       -2   -1    0    0    0  501  0.00000000000E+00  0.00000000000E+00  0.74265771476E+03  0.74265771477E+03  0.25500000920E-02 0. -1.
        2   -1    0    0  501    0  0.00000000000E+00  0.00000000000E+00 -0.10646595477E+04  0.10646595477E+04  0.25500000920E-02 0.  1.
    10030    2    1    2    0    0  0.00000000000E+00  0.00000000000E+00 -0.32200183298E+03  0.18073172625E+04  0.17784011097E+04 0.  0.
        2    1    3    3  502    0  0.76709154259E+03 -0.22753422151E+03 -0.55522107584E+03  0.97389511742E+03  0.25500000920E-02 0.  1.
       -2    1    3    3    0  502 -0.76709154259E+03  0.22753422151E+03  0.23321924287E+03  0.83342214509E+03  0.25500000920E-02 0. -1.
</event>
<event>
 5   0  0.1513502E-06  0.3596890E+04  0.7818609E-02  0.8091204E-01
        2   -1    0    0  501    0  0.00000000000E+00  0.00000000000E+00  0.14165369147E+04  0.14165369147E+04  0.25500000920E-02 0.  1.
       -2   -1    0    0    0  501  0.00000000000E+00  0.00000000000E+00 -0.22833178581E+04  0.22833178581E+04  0.25500000920E-02 0. -1.
    10030    2    1    2    0    0  0.00000000000E+00  0.00000000000E+00 -0.86678094340E+03  0.36998547729E+04  0.35968897865E+04 0.  0.
        3    1    3    3  502    0 -0.11033648408E+04  0.41043850804E+03  0.96513645205E+03  0.15222884490E+04  0.10100000352E+00 0.  1.
       -3    1    3    3    0  502  0.11033648408E+04 -0.41043850804E+03 -0.18319173954E+04  0.21775663238E+04  0.10100000352E+00 0. -1.
</event>
<event>
 5   0  0.8423692E-07  0.3450214E+04  0.7818609E-02  0.8125691E-01
        1   -1    0    0  501    0  0.00000000000E+00  0.00000000000E+00  0.27140618016E+04  0.27140618016E+04  0.50400001928E-02 0.  1.
       -1   -1    0    0    0  501  0.00000000000E+00  0.00000000000E+00 -0.10965096017E+04  0.10965096017E+04  0.50400001928E-02 0. -1.
    10030    2    1    2    0    0  0.00000000000E+00  0.00000000000E+00  0.16175521999E+04  0.38105714033E+04  0.34502143846E+04 0.  0.
        2    1    3    3  502    0  0.36600498461E+03  0.16810237944E+04  0.94932371820E+03  0.19649468613E+04  0.25500000920E-02 0.  1.
       -2    1    3    3    0  502 -0.36600498461E+03 -0.16810237944E+04  0.66822848171E+03  0.18456245419E+04  0.25500000920E-02 0. -1.
</event>
<event>
 5   0  0.1566576E-06  0.3613404E+04  0.7818609E-02  0.8087428E-01
       -2   -1    0    0    0  501  0.00000000000E+00  0.00000000000E+00  0.18561305730E+04  0.18561305730E+04  0.25500000920E-02 0.  1.
        2   -1    0    0  501    0  0.00000000000E+00  0.00000000000E+00 -0.17585899271E+04  0.17585899271E+04  0.25500000920E-02 0. -1.
    10030    2    1    2    0    0  0.00000000000E+00  0.00000000000E+00  0.97540645872E+02  0.36147205001E+04  0.36134042282E+04 0.  0.
        4    1    3    3  502    0  0.78700789431E+03 -0.31860308603E+03 -0.15465775413E+04  0.17643109296E+04  0.12699999809E+01 0. -1.
       -4    1    3    3    0  502 -0.78700789431E+03  0.31860308603E+03  0.16441181872E+04  0.18504095705E+04  0.12699999809E+01 0.  1.
</event>
<event>
 5   0  0.1634374E-06  0.2664995E+04  0.7818609E-02  0.8346453E-01
       -1   -1    0    0    0  501  0.00000000000E+00  0.00000000000E+00  0.11758174933E+04  0.11758174933E+04  0.50400001928E-02 0.  1.
        1   -1    0    0  501    0  0.00000000000E+00  0.00000000000E+00 -0.15100548878E+04  0.15100548878E+04  0.50400001928E-02 0. -1.
    10030    2    1    2    0    0  0.00000000000E+00  0.00000000000E+00 -0.33423739443E+03  0.26858723811E+04  0.26649945238E+04 0.  0.
        5    1    3    3  502    0 -0.43377636989E+03  0.25281401696E+03  0.10768319618E+04  0.11881355269E+04  0.46999998093E+01 0.  1.
       -5    1    3    3    0  502  0.43377636989E+03 -0.25281401696E+03 -0.14110693563E+04  0.14977368542E+04  0.46999998093E+01 0. -1.
</event>
<event>
 5   0  0.2422436E-06  0.3489021E+04  0.7818609E-02  0.8116397E-01
       -2   -1    0    0    0  501  0.00000000000E+00  0.00000000000E+00  0.14623026500E+04  0.14623026500E+04  0.25500000920E-02 0.  1.
        2   -1    0    0  501    0  0.00000000000E+00  0.00000000000E+00 -0.20811811307E+04  0.20811811307E+04  0.25500000920E-02 0. -1.
    10030    2    1    2    0    0  0.00000000000E+00  0.00000000000E+00 -0.61887848068E+03  0.35434837806E+04  0.34890208841E+04 0.  0.
        2    1    3    3  502    0 -0.42351009816E+03  0.15508530608E+04  0.37848978157E+03  0.16515933319E+04  0.25500000920E-02 0.  1.
       -2    1    3    3    0  502  0.42351009816E+03 -0.15508530608E+04 -0.99736826225E+03  0.18918904487E+04  0.25500000920E-02 0. -1.
</event>
<event>
 5   0  0.1513502E-06  0.3179961E+04  0.7818609E-02  0.8194130E-01
        2   -1    0    0  501    0  0.00000000000E+00  0.00000000000E+00  0.21475636160E+04  0.21475636160E+04  0.25500000920E-02 0. -1.
       -2   -1    0    0    0  501  0.00000000000E+00  0.00000000000E+00 -0.11771656701E+04  0.11771656701E+04  0.25500000920E-02 0.  1.
    10030    2    1    2    0    0  0.00000000000E+00  0.00000000000E+00  0.97039794585E+03  0.33247292861E+04  0.31799611087E+04 0.  0.
        3    1    3    3  502    0  0.15092634520E+04 -0.86567610817E+02  0.10002387440E+04  0.18126907276E+04  0.10100000352E+00 0. -1.
       -3    1    3    3    0  502 -0.15092634520E+04  0.86567610817E+02 -0.29840798177E+02  0.15120385585E+04  0.10100000352E+00 0.  1.
</event>
<event>
 5   0  0.7707500E-07  0.1845410E+04  0.7818609E-02  0.8682517E-01
        4   -1    0    0  501    0  0.00000000000E+00  0.00000000000E+00  0.64197659147E+03  0.64197784767E+03  0.12699999809E+01 0.  1.
       -4   -1    0    0    0  501  0.00000000000E+00  0.00000000000E+00 -0.13261897706E+04  0.13261903787E+04  0.12699999809E+01 0. -1.
    10030    2    1    2    0    0  0.00000000000E+00  0.00000000000E+00 -0.68421317909E+03  0.19681682263E+04  0.18454101150E+04 0.  0.
        5    1    3    3  502    0 -0.26371404780E+03  0.84242246715E+03 -0.55647326747E+02  0.88449953485E+03  0.46999998093E+01 0.  1.
       -5    1    3    3    0  502  0.26371404780E+03 -0.84242246715E+03 -0.62856585234E+03  0.10836686915E+04  0.46999998093E+01 0. -1.
</event>
<event>
 5   0  0.1634374E-06  0.2721942E+04  0.7818609E-02  0.8327920E-01
       -1   -1    0    0    0  501  0.00000000000E+00  0.00000000000E+00  0.10925053087E+04  0.10925053088E+04  0.50400001928E-02 0.  1.
        1   -1    0    0  501    0  0.00000000000E+00  0.00000000000E+00 -0.16954079950E+04  0.16954079950E+04  0.50400001928E-02 0. -1.
    10030    2    1    2    0    0  0.00000000000E+00  0.00000000000E+00 -0.60290268629E+03  0.27879133038E+04  0.27219421266E+04 0.  0.
        5    1    3    3  502    0 -0.25363653788E+02 -0.24933157440E+03  0.10686584786E+04  0.10976623264E+04  0.46999998093E+01 0.  1.
       -5    1    3    3    0  502  0.25363653788E+02  0.24933157440E+03 -0.16715611648E+04  0.16902509774E+04  0.46999998093E+01 0. -1.
</event>
<event>
 5   0  0.1743101E-06  0.1804250E+04  0.7818609E-02  0.8704042E-01
        2   -1    0    0  501    0  0.00000000000E+00  0.00000000000E+00  0.80402475357E+03  0.80402475358E+03  0.25500000920E-02 0.  1.
       -2   -1    0    0    0  501  0.00000000000E+00  0.00000000000E+00 -0.10121949490E+04  0.10121949490E+04  0.25500000920E-02 0. -1.
    10030    2    1    2    0    0  0.00000000000E+00  0.00000000000E+00 -0.20817019544E+03  0.18162197026E+04  0.18042503091E+04 0.  0.
        3    1    3    3  502    0  0.89317713735E+03  0.12674529315E+03 -0.10421332940E+03  0.90812454887E+03  0.10100000352E+00 0.  1.
       -3    1    3    3    0  502 -0.89317713735E+03 -0.12674529315E+03 -0.10395686604E+03  0.90809515373E+03  0.10100000352E+00 0. -1.
</event>
<event>
 5   0  0.1513502E-06  0.3587534E+04  0.7818609E-02  0.8093353E-01
        2   -1    0    0  501    0  0.00000000000E+00  0.00000000000E+00  0.23115800119E+04  0.23115800119E+04  0.25500000920E-02 0.  1.
       -2   -1    0    0    0  501  0.00000000000E+00  0.00000000000E+00 -0.13919483913E+04  0.13919483913E+04  0.25500000920E-02 0. -1.
    10030    2    1    2    0    0  0.00000000000E+00  0.00000000000E+00  0.91963162054E+03  0.37035284032E+04  0.35875340160E+04 0.  0.
        3    1    3    3  502    0 -0.10361567450E+04 -0.39114164779E+03  0.19164614615E+04  0.22134672196E+04  0.10100000352E+00 0.  1.
       -3    1    3    3    0  502  0.10361567450E+04  0.39114164779E+03 -0.99682984095E+03  0.14900611836E+04  0.10100000352E+00 0. -1.
</event>
<event>
 5   0  0.2422436E-06  0.3653001E+04  0.7818609E-02  0.8078458E-01
        2   -1    0    0  501    0  0.00000000000E+00  0.00000000000E+00  0.14860563054E+04  0.14860563054E+04  0.25500000920E-02 0. -1.
       -2   -1    0    0    0  501  0.00000000000E+00  0.00000000000E+00 -0.22449373277E+04  0.22449373277E+04  0.25500000920E-02 0.  1.
    10030    2    1    2    0    0  0.00000000000E+00  0.00000000000E+00 -0.75888102228E+03  0.37309936332E+04  0.36530005591E+04 0.  0.
        2    1    3    3  502    0  0.14502198484E+04  0.10523625340E+04 -0.74126210790E+03  0.19390910304E+04  0.25500000920E-02 0. -1.
       -2    1    3    3    0  502 -0.14502198484E+04 -0.10523625340E+04 -0.17618914386E+02  0.17919026028E+04  0.25500000920E-02 0.  1.
</event>
<event>
 5   0  0.7754556E-07  0.3522631E+04  0.7818609E-02  0.8108447E-01
        1   -1    0    0  501    0  0.00000000000E+00  0.00000000000E+00  0.17186662435E+04  0.17186662435E+04  0.50400001928E-02 0. -1.
       -1   -1    0    0    0  501  0.00000000000E+00  0.00000000000E+00 -0.18050235253E+04  0.18050235253E+04  0.50400001928E-02 0.  1.
    10030    2    1    2    0    0  0.00000000000E+00  0.00000000000E+00 -0.86357281803E+02  0.35236897689E+04  0.35226314038E+04 0.  0.
        4    1    3    3  502    0  0.21542554905E+03 -0.15153733464E+04 -0.91491442133E+03  0.17832090616E+04  0.12699999809E+01 0.  1.
       -4    1    3    3    0  502 -0.21542554905E+03  0.15153733464E+04  0.82855713953E+03  0.17404807073E+04  0.12699999809E+01 0. -1.
</event>
<event>
 5   0  0.1566576E-06  0.2333723E+04  0.7818609E-02  0.8464742E-01
       -2   -1    0    0    0  501  0.00000000000E+00  0.00000000000E+00  0.87840217115E+03  0.87840217116E+03  0.25500000920E-02 0. -1.
        2   -1    0    0  501    0  0.00000000000E+00  0.00000000000E+00 -0.15500482660E+04  0.15500482660E+04  0.25500000920E-02 0.  1.
    10030    2    1    2    0    0  0.00000000000E+00  0.00000000000E+00 -0.67164609481E+03  0.24284504371E+04  0.23337230017E+04 0.  0.
        4    1    3    3  502    0 -0.92106137425E+03  0.57946061211E+03  0.10250593430E+03  0.10929948470E+04  0.12699999809E+01 0. -1.
       -4    1    3    3    0  502  0.92106137425E+03 -0.57946061211E+03 -0.77415202911E+03  0.13354555901E+04  0.12699999809E+01 0.  1.
</event>
<event>
 5   0  0.2536619E-06  0.3551475E+04  0.7818609E-02  0.8101698E-01
       -2   -1    0    0    0  501  0.00000000000E+00  0.00000000000E+00  0.15302069905E+04  0.15302069905E+04  0.25500000920E-02 0. -1.
        2   -1    0    0  501    0  0.00000000000E+00  0.00000000000E+00 -0.20606648713E+04  0.20606648713E+04  0.25500000920E-02 0.  1.
    10030    2    1    2    0    0  0.00000000000E+00  0.00000000000E+00 -0.53045788079E+03  0.35908718618E+04  0.35514750688E+04 0.  0.
        1    1    3    3  502    0  0.69192079504E+03  0.14450392377E+04 -0.10394589036E+04  0.19098082620E+04  0.50400001928E-02 0.  1.
       -1    1    3    3    0  502 -0.69192079504E+03 -0.14450392377E+04  0.50900102283E+03  0.16810635998E+04  0.50400001928E-02 0. -1.
</event>
<event>
 5   0  0.2382711E-06  0.3385825E+04  0.7818609E-02  0.8141394E-01
        2   -1    0    0  501    0  0.00000000000E+00  0.00000000000E+00  0.16334924973E+04  0.16334924973E+04  0.25500000920E-02 0. -1.
       -2   -1    0    0    0  501  0.00000000000E+00  0.00000000000E+00 -0.17544944053E+04  0.17544944053E+04  0.25500000920E-02 0.  1.
    10030    2    1    2    0    0  0.00000000000E+00  0.00000000000E+00 -0.12100190799E+03  0.33879869026E+04  0.33858254224E+04 0.  0.
        5    1    3    3  502    0 -0.68160360847E+03 -0.96723786390E+03 -0.12719756322E+04  0.17372612536E+04  0.46999998093E+01 0.  1.
       -5    1    3    3    0  502  0.68160360847E+03  0.96723786390E+03  0.11509737242E+04  0.16507256490E+04  0.46999998093E+01 0. -1.
</event>
<event>
 5   0  0.7754556E-07  0.2814355E+04  0.7818609E-02  0.8298825E-01
        1   -1    0    0  501    0  0.00000000000E+00  0.00000000000E+00  0.98164594745E+03  0.98164594746E+03  0.50400001928E-02 0. -1.
       -1   -1    0    0    0  501  0.00000000000E+00  0.00000000000E+00 -0.20171721741E+04  0.20171721741E+04  0.50400001928E-02 0.  1.
    10030    2    1    2    0    0  0.00000000000E+00  0.00000000000E+00 -0.10355262267E+04  0.29988181216E+04  0.28143552655E+04 0.  0.
        4    1    3    3  502    0 -0.85749566085E+03  0.11019080033E+04 -0.33122535298E+03  0.14349954367E+04  0.12699999809E+01 0. -1.
       -4    1    3    3    0  502  0.85749566085E+03 -0.11019080033E+04 -0.70430087369E+03  0.15638226849E+04  0.12699999809E+01 0.  1.
</event>
<event>
 5   0  0.1566576E-06  0.2446976E+04  0.7818609E-02  0.8422123E-01
        2   -1    0    0  501    0  0.00000000000E+00  0.00000000000E+00  0.15029760413E+04  0.15029760413E+04  0.25500000920E-02 0. -1.
       -2   -1    0    0    0  501  0.00000000000E+00  0.00000000000E+00 -0.99597294022E+03  0.99597294023E+03  0.25500000920E-02 0.  1.
    10030    2    1    2    0    0  0.00000000000E+00  0.00000000000E+00  0.50700310108E+03  0.24989489815E+04  0.24469764747E+04 0.  0.
        4    1    3    3  502    0 -0.49490893198E+03  0.90527989320E+03  0.92508226581E+03  0.13857291753E+04  0.12699999809E+01 0.  1.
       -4    1    3    3    0  502  0.49490893198E+03 -0.90527989320E+03 -0.41807916474E+03  0.11132198062E+04  0.12699999809E+01 0. -1.
</event>
<event>
 5   0  0.1634374E-06  0.2104426E+04  0.7818609E-02  0.8559296E-01
        1   -1    0    0  501    0  0.00000000000E+00  0.00000000000E+00  0.16309009121E+04  0.16309009121E+04  0.50400001928E-02 0. -1.
       -1   -1    0    0    0  501  0.00000000000E+00  0.00000000000E+00 -0.67885932458E+03  0.67885932460E+03  0.50400001928E-02 0.  1.
    10030    2    1    2    0    0  0.00000000000E+00  0.00000000000E+00  0.95204158756E+03  0.23097602367E+04  0.21044260896E+04 0.  0.
        5    1    3    3  502    0  0.63109130258E+03 -0.75133080113E+03  0.89303479648E+03  0.13267657829E+04  0.46999998093E+01 0. -1.
       -5    1    3    3    0  502 -0.63109130258E+03  0.75133080113E+03  0.59006791081E+02  0.98299445385E+03  0.46999998093E+01 0.  1.
</event>
<event>
 5   0  0.7754556E-07  0.3741972E+04  0.7818609E-02  0.8058724E-01
       -1   -1    0    0    0  501  0.00000000000E+00  0.00000000000E+00  0.30756767655E+04  0.30756767656E+04  0.50400001928E-02 0.  1.
        1   -1    0    0  501    0  0.00000000000E+00  0.00000000000E+00 -0.11381521367E+04  0.11381521367E+04  0.50400001928E-02 0. -1.
    10030    2    1    2    0    0  0.00000000000E+00  0.00000000000E+00  0.19375246288E+04  0.42138289023E+04  0.37419717169E+04 0.  0.
        4    1    3    3  502    0 -0.34607903774E+03 -0.17137963358E+04  0.17188807961E+04  0.24518200148E+04  0.12699999809E+01 0.  1.
       -4    1    3    3    0  502  0.34607903774E+03  0.17137963358E+04  0.21864383279E+03  0.17620088875E+04  0.12699999809E+01 0. -1.
</event>
<event>
 5   0  0.2536619E-06  0.3589528E+04  0.7818609E-02  0.8092895E-01
        2   -1    0    0  501    0  0.00000000000E+00  0.00000000000E+00  0.26415837574E+04  0.26415837574E+04  0.25500000920E-02 0. -1.
       -2   -1    0    0    0  501  0.00000000000E+00  0.00000000000E+00 -0.12194112797E+04  0.12194112797E+04  0.25500000920E-02 0.  1.
    10030    2    1    2    0    0  0.00000000000E+00  0.00000000000E+00  0.14221724777E+04  0.38609950371E+04  0.35895275622E+04 0.  0.
        1    1    3    3  502    0 -0.88334942328E+03 -0.35994107379E+03 -0.92419086259E+03  0.13281538054E+04  0.50400001928E-02 0.  1.
       -1    1    3    3    0  502  0.88334942328E+03  0.35994107379E+03  0.23463633403E+04  0.25328412317E+04  0.50400001928E-02 0. -1.
</event>
<event>
 5   0  0.7754556E-07  0.3487827E+04  0.7818609E-02  0.8116681E-01
        1   -1    0    0  501    0  0.00000000000E+00  0.00000000000E+00  0.16121539672E+04  0.16121539672E+04  0.50400001928E-02 0.  1.
       -1   -1    0    0    0  501  0.00000000000E+00  0.00000000000E+00 -0.18864414346E+04  0.18864414346E+04  0.50400001928E-02 0. -1.
    10030    2    1    2    0    0  0.00000000000E+00  0.00000000000E+00 -0.27428746736E+03  0.34985954018E+04  0.34878268550E+04 0.  0.
        4    1    3    3  502    0  0.13699286489E+04 -0.61733834663E+03 -0.10249873761E+04  0.18189040303E+04  0.12699999809E+01 0. -1.
       -4    1    3    3    0  502 -0.13699286489E+04  0.61733834663E+03  0.75069990878E+03  0.16796913714E+04  0.12699999809E+01 0.  1.
</event>
<event>
 5   0  0.7754556E-07  0.3641067E+04  0.7818609E-02  0.8081149E-01
        1   -1    0    0  501    0  0.00000000000E+00  0.00000000000E+00  0.27861364149E+04  0.27861364149E+04  0.50400001928E-02 0. -1.
       -1   -1    0    0    0  501  0.00000000000E+00  0.00000000000E+00 -0.11895835769E+04  0.11895835770E+04  0.50400001928E-02 0.  1.
    10030    2    1    2    0    0  0.00000000000E+00  0.00000000000E+00  0.15965528379E+04  0.39757199918E+04  0.36410669438E+04 0.  0.
        4    1    3    3  502    0  0.16931693324E+04  0.64789989224E+03  0.98015036826E+03  0.20608961681E+04  0.12699999809E+01 0. -1.
       -4    1    3    3    0  502 -0.16931693324E+04 -0.64789989224E+03  0.61640246967E+03  0.19148238237E+04  0.12699999809E+01 0.  1.
</event>
<event>
 5   0  0.2382711E-06  0.1855845E+04  0.7818609E-02  0.8677153E-01
       -2   -1    0    0    0  501  0.00000000000E+00  0.00000000000E+00  0.46497148488E+03  0.46497148489E+03  0.25500000920E-02 0.  1.
        2   -1    0    0  501    0  0.00000000000E+00  0.00000000000E+00 -0.18518123271E+04  0.18518123271E+04  0.25500000920E-02 0. -1.
    10030    2    1    2    0    0  0.00000000000E+00  0.00000000000E+00 -0.13868408422E+04  0.23167838120E+04  0.18558447429E+04 0.  0.
        5    1    3    3  502    0 -0.17045176004E+03 -0.69562100447E+03 -0.14299336767E+04  0.15992732080E+04  0.46999998093E+01 0. -1.
       -5    1    3    3    0  502  0.17045176004E+03  0.69562100447E+03  0.43092834455E+02  0.71751060392E+03  0.46999998093E+01 0.  1.
</event>
<event>
 5   0  0.2536619E-06  0.3613274E+04  0.7818609E-02  0.8087458E-01
        2   -1    0    0  501    0  0.00000000000E+00  0.00000000000E+00  0.23670661614E+04  0.23670661614E+04  0.25500000920E-02 0.  1.
       -2   -1    0    0    0  501  0.00000000000E+00  0.00000000000E+00 -0.13788953276E+04  0.13788953276E+04  0.25500000920E-02 0. -1.
    10030    2    1    2    0    0  0.00000000000E+00  0.00000000000E+00  0.98817083380E+03  0.37459614890E+04  0.36132735684E+04 0.  0.
        1    1    3    3  502    0  0.15592739172E+04  0.91245803199E+03  0.49891048664E+03  0.18742535801E+04  0.50400001928E-02 0. -1.
       -1    1    3    3    0  502 -0.15592739172E+04 -0.91245803199E+03  0.48926034716E+03  0.18717079089E+04  0.50400001928E-02 0.  1.
</event>
<event>
 5   0  0.2536619E-06  0.3596938E+04  0.7818609E-02  0.8091193E-01
       -2   -1    0    0    0  501  0.00000000000E+00  0.00000000000E+00  0.12910052352E+04  0.12910052352E+04  0.25500000920E-02 0. -1.
        2   -1    0    0  501    0  0.00000000000E+00  0.00000000000E+00 -0.25054052753E+04  0.25054052753E+04  0.25500000920E-02 0.  1.
    10030    2    1    2    0    0  0.00000000000E+00  0.00000000000E+00 -0.12144000401E+04  0.37964105104E+04  0.35969383239E+04 0.  0.
        1    1    3    3  502    0  0.11213066167E+04 -0.10762325955E+04 -0.15623068522E+04  0.22037258969E+04  0.50400001928E-02 0.  1.
       -1    1    3    3    0  502 -0.11213066167E+04  0.10762325955E+04  0.34790681210E+03  0.15926846135E+04  0.50400001928E-02 0. -1.
</event>
<event>
 5   0  0.2422436E-06  0.2662442E+04  0.7818609E-02  0.8347295E-01
       -2   -1    0    0    0  501  0.00000000000E+00  0.00000000000E+00  0.85205039481E+03  0.85205039481E+03  0.25500000920E-02 0.  1.
        2   -1    0    0  501    0  0.00000000000E+00  0.00000000000E+00 -0.20798639191E+04  0.20798639191E+04  0.25500000920E-02 0. -1.
    10030    2    1    2    0    0  0.00000000000E+00  0.00000000000E+00 -0.12278135243E+04  0.29319143140E+04  0.26624416414E+04 0.  0.
        2    1    3    3  502    0  0.13121976451E+04 -0.22424034542E+03 -0.61217214328E+03  0.14652307413E+04  0.25500000920E-02 0. -1.
       -2    1    3    3    0  502 -0.13121976451E+04  0.22424034542E+03 -0.61564138106E+03  0.14666835727E+04  0.25500000920E-02 0.  1.
</event>
<event>
 5   0  0.1566576E-06  0.3130814E+04  0.7818609E-02  0.8207332E-01
       -2   -1    0    0    0  501  0.00000000000E+00  0.00000000000E+00  0.79777795677E+03  0.79777795677E+03  0.25500000920E-02 0. -1.
        2   -1    0    0  501    0  0.00000000000E+00  0.00000000000E+00 -0.30716558248E+04  0.30716558248E+04  0.25500000920E-02 0.  1.
    10030    2    1    2    0    0  0.00000000000E+00  0.00000000000E+00 -0.22738778681E+04  0.38694337816E+04  0.31308141483E+04 0.  0.
        4    1    3    3  502    0  0.14565009785E+04  0.88026302120E+02 -0.43631985089E+03  0.15229971620E+04  0.12699999809E+01 0. -1.
       -4    1    3    3    0  502 -0.14565009785E+04 -0.88026302120E+02 -0.18375580172E+04  0.23464366196E+04  0.12699999809E+01 0.  1.
</event>
<event>
 5   0  0.2536619E-06  0.3383105E+04  0.7818609E-02  0.8142065E-01
       -2   -1    0    0    0  501  0.00000000000E+00  0.00000000000E+00  0.14936054382E+04  0.14936054382E+04  0.25500000920E-02 0. -1.
        2   -1    0    0  501    0  0.00000000000E+00  0.00000000000E+00 -0.19157337794E+04  0.19157337794E+04  0.25500000920E-02 0.  1.
    10030    2    1    2    0    0  0.00000000000E+00  0.00000000000E+00 -0.42212834114E+03  0.34093392176E+04  0.33831053138E+04 0.  0.
        1    1    3    3  502    0 -0.34470830969E+03  0.23703689369E+03  0.14406511345E+04  0.15001619910E+04  0.50400001928E-02 0. -1.
       -1    1    3    3    0  502  0.34470830969E+03 -0.23703689369E+03 -0.18627794757E+04  0.19091772266E+04  0.50400001928E-02 0.  1.
</event>
<event>
 5   0  0.7754556E-07  0.3687981E+04  0.7818609E-02  0.8070631E-01
       -1   -1    0    0    0  501  0.00000000000E+00  0.00000000000E+00  0.28710117930E+04  0.28710117930E+04  0.50400001928E-02 0. -1.
        1   -1    0    0  501    0  0.00000000000E+00  0.00000000000E+00 -0.11843564441E+04  0.11843564441E+04  0.50400001928E-02 0.  1.
    10030    2    1    2    0    0  0.00000000000E+00  0.00000000000E+00  0.16866553489E+04  0.40553682370E+04  0.36879811919E+04 0.  0.
        4    1    3    3  502    0  0.20355255889E+03  0.14748495977E+04  0.20396814358E+04  0.25252558192E+04  0.12699999809E+01 0. -1.
       -4    1    3    3    0  502 -0.20355255889E+03 -0.14748495977E+04 -0.35302608689E+03  0.15301124178E+04  0.12699999809E+01 0.  1.
</event>
<event>
 5   0  0.7707500E-07  0.3594739E+04  0.7818609E-02  0.8091698E-01
       -3   -1    0    0    0  501  0.00000000000E+00  0.00000000000E+00  0.12557913427E+04  0.12557913468E+04  0.10100000352E+00 0.  1.
        3   -1    0    0  501    0  0.00000000000E+00  0.00000000000E+00 -0.25725112484E+04  0.25725112504E+04  0.10100000352E+00 0. -1.
    10030    2    1    2    0    0  0.00000000000E+00  0.00000000000E+00 -0.13167199057E+04  0.38283025971E+04  0.35947391373E+04 0.  0.
        5    1    3    3  502    0  0.13983893061E+04 -0.10835026218E+03  0.53862634058E+03  0.15024556085E+04  0.46999998093E+01 0.  1.
       -5    1    3    3    0  502 -0.13983893061E+04  0.10835026218E+03 -0.18553462463E+04  0.23258469886E+04  0.46999998093E+01 0. -1.
</event>
<event>
 5   0  0.1566576E-06  0.4108911E+04  0.7818609E-02  0.7982929E-01
       -2   -1    0    0    0  501  0.00000000000E+00  0.00000000000E+00  0.21932183557E+04  0.21932183557E+04  0.25500000920E-02 0. -1.
        2   -1    0    0  501    0  0.00000000000E+00  0.00000000000E+00 -0.19244721079E+04  0.19244721079E+04  0.25500000920E-02 0.  1.
    10030    2    1    2    0    0  0.00000000000E+00  0.00000000000E+00  0.26874624775E+03  0.41176904636E+04  0.41089110734E+04 0.  0.
        4    1    3    3  502    0 -0.14617264471E+04  0.36162931887E+03  0.15349880912E+04  0.21502581295E+04  0.12699999809E+01 0. -1.
       -4    1    3    3    0  502  0.14617264471E+04 -0.36162931887E+03 -0.12662418434E+04  0.19674323342E+04  0.12699999809E+01 0.  1.
</event>
<event>
 5   0  0.2422436E-06  0.2693487E+04  0.7818609E-02  0.8337121E-01
       -2   -1    0    0    0  501  0.00000000000E+00  0.00000000000E+00  0.11109705366E+04  0.11109705366E+04  0.25500000920E-02 0. -1.
        2   -1    0    0  501    0  0.00000000000E+00  0.00000000000E+00 -0.16325532003E+04  0.16325532003E+04  0.25500000920E-02 0.  1.
    10030    2    1    2    0    0  0.00000000000E+00  0.00000000000E+00 -0.52158266372E+03  0.27435237368E+04  0.26934873342E+04 0.  0.
        2    1    3    3  502    0  0.12529568032E+04 -0.12049026036E+03  0.22695686322E+03  0.12790340384E+04  0.25500000920E-02 0. -1.
       -2    1    3    3    0  502 -0.12529568032E+04  0.12049026036E+03 -0.74853952694E+03  0.14644896985E+04  0.25500000920E-02 0.  1.
</event>
<event>
 5   0  0.2382711E-06  0.3990472E+04  0.7818609E-02  0.8006471E-01
        2   -1    0    0  501    0  0.00000000000E+00  0.00000000000E+00  0.29679873416E+04  0.29679873416E+04  0.25500000920E-02 0. -1.
       -2   -1    0    0    0  501  0.00000000000E+00  0.00000000000E+00 -0.13413021113E+04  0.13413021113E+04  0.25500000920E-02 0.  1.
    10030    2    1    2    0    0  0.00000000000E+00  0.00000000000E+00  0.16266852303E+04  0.43092894528E+04  0.39904724970E+04 0.  0.
        5    1    3    3  502    0 -0.15414830464E+04  0.63700767532E+03 -0.36912801621E+03  0.17082816932E+04  0.46999998093E+01 0.  1.
       -5    1    3    3    0  502  0.15414830464E+04 -0.63700767532E+03  0.19958132465E+04  0.26010077597E+04  0.46999998093E+01 0. -1.
</event>
<event>
 5   0  0.2382711E-06  0.2147881E+04  0.7818609E-02  0.8540440E-01
       -2   -1    0    0    0  501  0.00000000000E+00  0.00000000000E+00  0.83666003091E+03  0.83666003092E+03  0.25500000920E-02 0. -1.
        2   -1    0    0  501    0  0.00000000000E+00  0.00000000000E+00 -0.13785153535E+04  0.13785153536E+04  0.25500000920E-02 0.  1.
    10030    2    1    2    0    0  0.00000000000E+00  0.00000000000E+00 -0.54185532264E+03  0.22151753845E+04  0.21478814663E+04 0.  0.
        5    1    3    3  502    0 -0.25195580746E+03 -0.31633996682E+03 -0.12969712382E+04  0.13585688007E+04  0.46999998093E+01 0.  1.
       -5    1    3    3    0  502  0.25195580746E+03  0.31633996682E+03  0.75511591553E+03  0.85660658380E+03  0.46999998093E+01 0. -1.
</event>
<event>
 5   0  0.1566576E-06  0.3630453E+04  0.7818609E-02  0.8083551E-01
        2   -1    0    0  501    0  0.00000000000E+00  0.00000000000E+00  0.17376719010E+04  0.17376719010E+04  0.25500000920E-02 0.  1.
       -2   -1    0    0    0  501  0.00000000000E+00  0.00000000000E+00 -0.18962424158E+04  0.18962424158E+04  0.25500000920E-02 0. -1.
    10030    2    1    2    0    0  0.00000000000E+00  0.00000000000E+00 -0.15857051480E+03  0.36339143168E+04  0.36304529544E+04 0.  0.
        4    1    3    3  502    0 -0.56888603449E+03 -0.16757338137E+03  0.16379650329E+04  0.17420227382E+04  0.12699999809E+01 0.  1.
       -4    1    3    3    0  502  0.56888603449E+03  0.16757338137E+03 -0.17965355477E+04  0.18918915787E+04  0.12699999809E+01 0. -1.
</event>
<event>
 5   0  0.7754556E-07  0.3610481E+04  0.7818609E-02  0.8088095E-01
        1   -1    0    0  501    0  0.00000000000E+00  0.00000000000E+00  0.17940068309E+04  0.17940068309E+04  0.50400001928E-02 0. -1.
       -1   -1    0    0    0  501  0.00000000000E+00  0.00000000000E+00 -0.18165441767E+04  0.18165441767E+04  0.50400001928E-02 0.  1.
    10030    2    1    2    0    0  0.00000000000E+00  0.00000000000E+00 -0.22537345830E+02  0.36105510076E+04  0.36104806669E+04 0.  0.
        4    1    3    3  502    0 -0.36051456930E+03 -0.12306489255E+03 -0.17758923310E+04  0.18162904247E+04  0.12699999809E+01 0.  1.
       -4    1    3    3    0  502  0.36051456930E+03  0.12306489255E+03  0.17533549852E+04  0.17942605829E+04  0.12699999809E+01 0. -1.
</event>
<event>
 5   0  0.1864014E-06  0.1790287E+04  0.7818609E-02  0.8711482E-01
       -1   -1    0    0    0  501  0.00000000000E+00  0.00000000000E+00  0.64820852238E+03  0.64820852240E+03  0.50400001928E-02 0.  1.
        1   -1    0    0  501    0  0.00000000000E+00  0.00000000000E+00 -0.12361481542E+04  0.12361481542E+04  0.50400001928E-02 0. -1.
    10030    2    1    2    0    0  0.00000000000E+00  0.00000000000E+00 -0.58793963180E+03  0.18843566766E+04  0.17902868692E+04 0.  0.
        5    1    3    3  502    0  0.47368816014E+03  0.62493645874E+03 -0.74831518341E+03  0.10839389993E+04  0.46999998093E+01 0.  1.
       -5    1    3    3    0  502 -0.47368816014E+03 -0.62493645874E+03  0.16037555162E+03  0.80041767727E+03  0.46999998093E+01 0. -1.
</event>
<event>
 5   0  0.7754556E-07  0.3292780E+04  0.7818609E-02  0.8164735E-01
       -1   -1    0    0    0  501  0.00000000000E+00  0.00000000000E+00  0.13001534954E+04  0.13001534954E+04  0.50400001928E-02 0. -1.
        1   -1    0    0  501    0  0.00000000000E+00  0.00000000000E+00 -0.20848304344E+04  0.20848304344E+04  0.50400001928E-02 0.  1.
    10030    2    1    2    0    0  0.00000000000E+00  0.00000000000E+00 -0.78467693894E+03  0.33849839298E+04  0.32927797234E+04 0.  0.
        4    1    3    3  502    0 -0.85682615209E+03 -0.42581084227E+03  0.98500460967E+03  0.13732085138E+04  0.12699999809E+01 0. -1.
       -4    1    3    3    0  502  0.85682615209E+03  0.42581084227E+03 -0.17696815486E+04  0.20117754161E+04  0.12699999809E+01 0.  1.
</event>
<event>
 5   0  0.8452742E-07  0.2382229E+04  0.7818609E-02  0.8446187E-01
        1   -1    0    0  501    0  0.00000000000E+00  0.00000000000E+00  0.14060052501E+04  0.14060052501E+04  0.50400001928E-02 0. -1.
       -1   -1    0    0    0  501  0.00000000000E+00  0.00000000000E+00 -0.10090672525E+04  0.10090672525E+04  0.50400001928E-02 0.  1.
    10030    2    1    2    0    0  0.00000000000E+00  0.00000000000E+00  0.39693799757E+03  0.24150725026E+04  0.23822290861E+04 0.  0.
        1    1    3    3  502    0  0.56283855326E+03  0.73334941632E+03  0.95993377187E+03  0.13326895549E+04  0.50400001928E-02 0. -1.
       -1    1    3    3    0  502 -0.56283855326E+03 -0.73334941632E+03 -0.56299577429E+03  0.10823829476E+04  0.50400001928E-02 0.  1.
</event>
<event>
 5   0  0.2536619E-06  0.3651703E+04  0.7818609E-02  0.8078750E-01
       -2   -1    0    0    0  501  0.00000000000E+00  0.00000000000E+00  0.13810099888E+04  0.13810099888E+04  0.25500000920E-02 0. -1.
        2   -1    0    0  501    0  0.00000000000E+00  0.00000000000E+00 -0.24139817316E+04  0.24139817316E+04  0.25500000920E-02 0.  1.
    10030    2    1    2    0    0  0.00000000000E+00  0.00000000000E+00 -0.10329717428E+04  0.37949917204E+04  0.36517025532E+04 0.  0.
        1    1    3    3  502    0  0.17260456696E+04  0.17017160070E+03 -0.11094360289E+04  0.20588929864E+04  0.50400001928E-02 0.  1.
       -1    1    3    3    0  502 -0.17260456696E+04 -0.17017160070E+03  0.76464286176E+02  0.17360987340E+04  0.50400001928E-02 0. -1.
</event>
<event>
 5   0  0.1566576E-06  0.3617309E+04  0.7818609E-02  0.8086538E-01
       -2   -1    0    0    0  501  0.00000000000E+00  0.00000000000E+00  0.13668799843E+04  0.13668799843E+04  0.25500000920E-02 0.  1.
        2   -1    0    0  501    0  0.00000000000E+00  0.00000000000E+00 -0.23932101784E+04  0.23932101784E+04  0.25500000920E-02 0. -1.
    10030    2    1    2    0    0  0.00000000000E+00  0.00000000000E+00 -0.10263301941E+04  0.37600901626E+04  0.36173089948E+04 0.  0.
        4    1    3    3  502    0  0.11211704755E+04 -0.32101750324E+03  0.92384722839E+03  0.14878073756E+04  0.12699999809E+01 0.  1.
       -4    1    3    3    0  502 -0.11211704755E+04  0.32101750324E+03 -0.19501774225E+04  0.22722827871E+04  0.12699999809E+01 0. -1.
</event>
<event>
 5   0  0.1566576E-06  0.3173911E+04  0.7818609E-02  0.8195741E-01
       -2   -1    0    0    0  501  0.00000000000E+00  0.00000000000E+00  0.97699158768E+03  0.97699158768E+03  0.25500000920E-02 0. -1.
        2   -1    0    0  501    0  0.00000000000E+00  0.00000000000E+00 -0.25777373957E+04  0.25777373957E+04  0.25500000920E-02 0.  1.
    10030    2    1    2    0    0  0.00000000000E+00  0.00000000000E+00 -0.16007458080E+04  0.35547289833E+04  0.31739109949E+04 0.  0.
        4    1    3    3  502    0  0.53700971935E+03 -0.67735048346E+03 -0.22909375890E+04  0.24485873000E+04  0.12699999809E+01 0.  1.
       -4    1    3    3    0  502 -0.53700971935E+03  0.67735048346E+03  0.69019178103E+03  0.11061416833E+04  0.12699999809E+01 0. -1.
</event>
<event>
 5   0  0.2382711E-06  0.3623644E+04  0.7818609E-02  0.8085097E-01
       -2   -1    0    0    0  501  0.00000000000E+00  0.00000000000E+00  0.32197926538E+04  0.32197926538E+04  0.25500000920E-02 0.  1.
        2   -1    0    0  501    0  0.00000000000E+00  0.00000000000E+00 -0.10195374076E+04  0.10195374076E+04  0.25500000920E-02 0. -1.
    10030    2    1    2    0    0  0.00000000000E+00  0.00000000000E+00  0.22002552462E+04  0.42393300614E+04  0.36236440528E+04 0.  0.
        5    1    3    3  502    0 -0.35517012880E+03 -0.95048076734E+03  0.28562048710E+04  0.30310869114E+04  0.46999998093E+01 0.  1.
       -5    1    3    3    0  502  0.35517012880E+03  0.95048076734E+03 -0.65594962473E+03  0.12082431501E+04  0.46999998093E+01 0. -1.
</event>
<event>
 5   0  0.1513502E-06  0.3586728E+04  0.7818609E-02  0.8093539E-01
        2   -1    0    0  501    0  0.00000000000E+00  0.00000000000E+00  0.31394478419E+04  0.31394478419E+04  0.25500000920E-02 0.  1.
       -2   -1    0    0    0  501  0.00000000000E+00  0.00000000000E+00 -0.10244332912E+04  0.10244332912E+04  0.25500000920E-02 0. -1.
    10030    2    1    2    0    0  0.00000000000E+00  0.00000000000E+00  0.21150145507E+04  0.41638811331E+04  0.35867282502E+04 0.  0.
        3    1    3    3  502    0 -0.28170077342E+03 -0.17493279841E+04  0.73609741450E+03  0.19186826562E+04  0.10100000352E+00 0. -1.
       -3    1    3    3    0  502  0.28170077342E+03  0.17493279841E+04  0.13789171362E+04  0.22451984768E+04  0.10100000352E+00 0.  1.
</event>
<event>
 5   0  0.1513502E-06  0.3613924E+04  0.7818609E-02  0.8087310E-01
        2   -1    0    0  501    0  0.00000000000E+00  0.00000000000E+00  0.20949664619E+04  0.20949664619E+04  0.25500000920E-02 0.  1.
       -2   -1    0    0    0  501  0.00000000000E+00  0.00000000000E+00 -0.15585505838E+04  0.15585505838E+04  0.25500000920E-02 0. -1.
    10030    2    1    2    0    0  0.00000000000E+00  0.00000000000E+00  0.53641587803E+03  0.36535170457E+04  0.36139237415E+04 0.  0.
        3    1    3    3  502    0  0.32504081237E+03 -0.96550930446E+03 -0.12405403080E+04  0.16052414188E+04  0.10100000352E+00 0. -1.
       -3    1    3    3    0  502 -0.32504081237E+03  0.96550930446E+03  0.17769561860E+04  0.20482756269E+04  0.10100000352E+00 0.  1.
</event>
<event>
 5   0  0.1513502E-06  0.3583309E+04  0.7818609E-02  0.8094326E-01
        2   -1    0    0  501    0  0.00000000000E+00  0.00000000000E+00  0.25271933426E+04  0.25271933426E+04  0.25500000920E-02 0. -1.
       -2   -1    0    0    0  501  0.00000000000E+00  0.00000000000E+00 -0.12701938262E+04  0.12701938262E+04  0.25500000920E-02 0.  1.
    10030    2    1    2    0    0  0.00000000000E+00  0.00000000000E+00  0.12569995163E+04  0.37973871688E+04  0.35833087399E+04 0.  0.
        3    1    3    3  502    0 -0.37851449001E+03  0.11914323283E+03  0.24800373922E+04  0.25115839237E+04  0.10100000352E+00 0. -1.
       -3    1    3    3    0  502  0.37851449001E+03 -0.11914323283E+03 -0.12230378759E+04  0.12858032451E+04  0.10100000352E+00 0.  1.
</event>
<event>
 5   0  0.1513502E-06  0.3485471E+04  0.7818609E-02  0.8117242E-01
       -2   -1    0    0    0  501  0.00000000000E+00  0.00000000000E+00  0.17168858718E+04  0.17168858718E+04  0.25500000920E-02 0. -1.
        2   -1    0    0  501    0  0.00000000000E+00  0.00000000000E+00 -0.17689746353E+04  0.17689746353E+04  0.25500000920E-02 0.  1.
    10030    2    1    2    0    0  0.00000000000E+00  0.00000000000E+00 -0.52088763515E+02  0.34858605071E+04  0.34854713076E+04 0.  0.
        3    1    3    3  502    0 -0.45275232645E+03 -0.16766977946E+04 -0.17037745810E+03  0.17450870041E+04  0.10100000352E+00 0.  1.
       -3    1    3    3    0  502  0.45275232645E+03  0.16766977946E+04  0.11828869458E+03  0.17407735030E+04  0.10100000352E+00 0. -1.
</event>
<event>
 5   0  0.2422436E-06  0.3856658E+04  0.7818609E-02  0.8034104E-01
       -2   -1    0    0    0  501  0.00000000000E+00  0.00000000000E+00  0.14326702532E+04  0.14326702532E+04  0.25500000920E-02 0. -1.
        2   -1    0    0  501    0  0.00000000000E+00  0.00000000000E+00 -0.25954701798E+04  0.25954701798E+04  0.25500000920E-02 0.  1.
    10030    2    1    2    0    0  0.00000000000E+00  0.00000000000E+00 -0.11627999266E+04  0.40281404330E+04  0.38566580972E+04 0.  0.
        2    1    3    3  502    0 -0.19606911117E+02  0.19086634751E+04 -0.86757590098E+03  0.20966803848E+04  0.25500000920E-02 0.  1.
       -2    1    3    3    0  502  0.19606911117E+02 -0.19086634751E+04 -0.29522402561E+03  0.19314600481E+04  0.25500000920E-02 0. -1.
</event>
<event>
 5   0  0.1513502E-06  0.3785029E+04  0.7818609E-02  0.8049375E-01
       -2   -1    0    0    0  501  0.00000000000E+00  0.00000000000E+00  0.15137396911E+04  0.15137396911E+04  0.25500000920E-02 0. -1.
        2   -1    0    0  501    0  0.00000000000E+00  0.00000000000E+00 -0.23660677545E+04  0.23660677545E+04  0.25500000920E-02 0.  1.
    10030    2    1    2    0    0  0.00000000000E+00  0.00000000000E+00 -0.85232806337E+03  0.38798074456E+04  0.37850287565E+04 0.  0.
        3    1    3    3  502    0  0.88988775464E+03 -0.54789614026E+03 -0.20434946995E+04  0.22952039111E+04  0.10100000352E+00 0.  1.
       -3    1    3    3    0  502 -0.88988775464E+03  0.54789614026E+03  0.11911666362E+04  0.15846035345E+04  0.10100000352E+00 0. -1.
</event>
<event>
 5   0  0.2422436E-06  0.3314275E+04  0.7818609E-02  0.8159273E-01
       -2   -1    0    0    0  501  0.00000000000E+00  0.00000000000E+00  0.13683929321E+04  0.13683929321E+04  0.25500000920E-02 0.  1.
        2   -1    0    0  501    0  0.00000000000E+00  0.00000000000E+00 -0.20068104674E+04  0.20068104674E+04  0.25500000920E-02 0. -1.
    10030    2    1    2    0    0  0.00000000000E+00  0.00000000000E+00 -0.63841753529E+03  0.33752033995E+04  0.33142753414E+04 0.  0.
        2    1    3    3  502    0 -0.23661603518E+03 -0.13600470406E+04 -0.12527894209E+04  0.18641878752E+04  0.25500000920E-02 0. -1.
       -2    1    3    3    0  502  0.23661603518E+03  0.13600470406E+04  0.61437188559E+03  0.15110155243E+04  0.25500000920E-02 0.  1.
</event>
<event>
 5   0  0.1566576E-06  0.2828844E+04  0.7818609E-02  0.8294369E-01
       -2   -1    0    0    0  501  0.00000000000E+00  0.00000000000E+00  0.80648745736E+03  0.80648745736E+03  0.25500000920E-02 0.  1.
        2   -1    0    0  501    0  0.00000000000E+00  0.00000000000E+00 -0.24806204655E+04  0.24806204655E+04  0.25500000920E-02 0. -1.
    10030    2    1    2    0    0  0.00000000000E+00  0.00000000000E+00 -0.16741330082E+04  0.32871079229E+04  0.28288437864E+04 0.  0.
        4    1    3    3  502    0  0.84048407306E+03 -0.90892587789E+03 -0.16320184786E+04  0.20484251648E+04  0.12699999809E+01 0. -1.
       -4    1    3    3    0  502 -0.84048407306E+03  0.90892587789E+03 -0.42114529551E+02  0.12386827580E+04  0.12699999809E+01 0.  1.
</event>
<event>
 5   0  0.1566576E-06  0.3599756E+04  0.7818609E-02  0.8090548E-01
        2   -1    0    0  501    0  0.00000000000E+00  0.00000000000E+00  0.27735897619E+04  0.27735897619E+04  0.25500000920E-02 0.  1.
       -2   -1    0    0    0  501  0.00000000000E+00  0.00000000000E+00 -0.11680028589E+04  0.11680028589E+04  0.25500000920E-02 0. -1.
    10030    2    1    2    0    0  0.00000000000E+00  0.00000000000E+00  0.16055869030E+04  0.39415926207E+04  0.35997559757E+04 0.  0.
        4    1    3    3  502    0 -0.63028745614E+03 -0.11338279100E+04 -0.56337887182E+03  0.14142932415E+04  0.12699999809E+01 0. -1.
       -4    1    3    3    0  502  0.63028745614E+03  0.11338279100E+04  0.21689657748E+04  0.25272993792E+04  0.12699999809E+01 0.  1.
</event>
<event>
 5   0  0.7754556E-07  0.1821007E+04  0.7818609E-02  0.8695207E-01
       -1   -1    0    0    0  501  0.00000000000E+00  0.00000000000E+00  0.90517439187E+03  0.90517439188E+03  0.50400001928E-02 0. -1.
        1   -1    0    0  501    0  0.00000000000E+00  0.00000000000E+00 -0.91586395268E+03  0.91586395269E+03  0.50400001928E-02 0.  1.
    10030    2    1    2    0    0  0.00000000000E+00  0.00000000000E+00 -0.10689560813E+02  0.18210383446E+04  0.18210069702E+04 0.  0.
        4    1    3    3  502    0  0.19272811229E+03  0.55331476700E+03 -0.70228836768E+03  0.91461025630E+03  0.12699999809E+01 0.  1.
       -4    1    3    3    0  502 -0.19272811229E+03 -0.55331476700E+03  0.69159880687E+03  0.90642808827E+03  0.12699999809E+01 0. -1.
</event>
<event>
 5   0  0.1908273E-06  0.3589213E+04  0.7818609E-02  0.8092967E-01
       -1   -1    0    0    0  501  0.00000000000E+00  0.00000000000E+00  0.14279394343E+04  0.14279394343E+04  0.50400001928E-02 0.  1.
        1   -1    0    0  501    0  0.00000000000E+00  0.00000000000E+00 -0.22554263129E+04  0.22554263129E+04  0.50400001928E-02 0. -1.
    10030    2    1    2    0    0  0.00000000000E+00  0.00000000000E+00 -0.82748687858E+03  0.36833657472E+04  0.35892128236E+04 0.  0.
        3    1    3    3  502    0  0.13728092992E+04 -0.47072721570E+03 -0.14970979733E+04  0.20850639884E+04  0.10100000352E+00 0. -1.
       -3    1    3    3    0  502 -0.13728092992E+04  0.47072721570E+03  0.66961109477E+03  0.15983017588E+04  0.10100000352E+00 0.  1.
</event>
<event>
 5   0  0.2382711E-06  0.3533821E+04  0.7818609E-02  0.8105821E-01
        2   -1    0    0  501    0  0.00000000000E+00  0.00000000000E+00  0.14907094179E+04  0.14907094179E+04  0.25500000920E-02 0.  1.
       -2   -1    0    0    0  501  0.00000000000E+00  0.00000000000E+00 -0.20942863913E+04  0.20942863913E+04  0.25500000920E-02 0. -1.
    10030    2    1    2    0    0  0.00000000000E+00  0.00000000000E+00 -0.60357697338E+03  0.35849958092E+04  0.35338208485E+04 0.  0.
        5    1    3    3  502    0 -0.39355080497E+03 -0.95877370026E+03  0.11499558210E+04  0.15480793664E+04  0.46999998093E+01 0.  1.
       -5    1    3    3    0  502  0.39355080497E+03  0.95877370026E+03 -0.17535327944E+04  0.20369164429E+04  0.46999998093E+01 0. -1.
</event>
<event>
 5   0  0.1634374E-06  0.3583364E+04  0.7818609E-02  0.8094313E-01
       -1   -1    0    0    0  501  0.00000000000E+00  0.00000000000E+00  0.15372102724E+04  0.15372102724E+04  0.50400001928E-02 0. -1.
        1   -1    0    0  501    0  0.00000000000E+00  0.00000000000E+00 -0.20882789549E+04  0.20882789549E+04  0.50400001928E-02 0.  1.
    10030    2    1    2    0    0  0.00000000000E+00  0.00000000000E+00 -0.55106868249E+03  0.36254892273E+04  0.35833637053E+04 0.  0.
        5    1    3    3  502    0 -0.92793954075E+03 -0.24408429683E+03 -0.18064158562E+04  0.20454362055E+04  0.46999998093E+01 0.  1.
       -5    1    3    3    0  502  0.92793954075E+03  0.24408429683E+03  0.12553471737E+04  0.15800530218E+04  0.46999998093E+01 0. -1.
</event>
<event>
 5   0  0.2536619E-06  0.1930188E+04  0.7818609E-02  0.8639974E-01
        2   -1    0    0  501    0  0.00000000000E+00  0.00000000000E+00  0.11310070110E+04  0.11310070110E+04  0.25500000920E-02 0. -1.
       -2   -1    0    0    0  501  0.00000000000E+00  0.00000000000E+00 -0.82351989937E+03  0.82351989938E+03  0.25500000920E-02 0.  1.
    10030    2    1    2    0    0  0.00000000000E+00  0.00000000000E+00  0.30748711160E+03  0.19545269104E+04  0.19301883637E+04 0.  0.
        1    1    3    3  502    0  0.50095726131E+03  0.20557100286E+03 -0.65519712173E+03  0.85000051954E+03  0.50400001928E-02 0.  1.
       -1    1    3    3    0  502 -0.50095726131E+03 -0.20557100286E+03  0.96268423333E+03  0.11045263908E+04  0.50400001928E-02 0. -1.
</event>
<event>
 5   0  0.1831263E-06  0.1817547E+04  0.7818609E-02  0.8697024E-01
       -2   -1    0    0    0  501  0.00000000000E+00  0.00000000000E+00  0.51648387801E+03  0.51648387802E+03  0.25500000920E-02 0.  1.
        2   -1    0    0  501    0  0.00000000000E+00  0.00000000000E+00 -0.15990215666E+04  0.15990215666E+04  0.25500000920E-02 0. -1.
    10030    2    1    2    0    0  0.00000000000E+00  0.00000000000E+00 -0.10825376886E+04  0.21155054446E+04  0.18175465438E+04 0.  0.
        4    1    3    3  502    0  0.28766936281E+03  0.82953576768E+03 -0.26834168762E+03  0.91809156753E+03  0.12699999809E+01 0. -1.
       -4    1    3    3    0  502 -0.28766936281E+03 -0.82953576768E+03 -0.81419600099E+03  0.11974138771E+04  0.12699999809E+01 0.  1.
</event>
<event>
 5   0  0.8423692E-07  0.3459424E+04  0.7818609E-02  0.8123474E-01
       -1   -1    0    0    0  501  0.00000000000E+00  0.00000000000E+00  0.19266877423E+04  0.19266877423E+04  0.50400001928E-02 0. -1.
        1   -1    0    0  501    0  0.00000000000E+00  0.00000000000E+00 -0.15528739039E+04  0.15528739039E+04  0.50400001928E-02 0.  1.
    10030    2    1    2    0    0  0.00000000000E+00  0.00000000000E+00  0.37381383843E+03  0.34795616463E+04  0.34594237185E+04 0.  0.
        2    1    3    3  502    0  0.16481058351E+04 -0.50118591522E+03  0.34422375354E+03  0.17566815755E+04  0.25500000920E-02 0.  1.
       -2    1    3    3    0  502 -0.16481058351E+04  0.50118591522E+03  0.29590084891E+02  0.17228800708E+04  0.25500000920E-02 0. -1.
</event>
<event>
 5   0  0.2382711E-06  0.3524413E+04  0.7818609E-02  0.8108029E-01
       -2   -1    0    0    0  501  0.00000000000E+00  0.00000000000E+00  0.13779788290E+04  0.13779788290E+04  0.25500000920E-02 0.  1.
        2   -1    0    0  501    0  0.00000000000E+00  0.00000000000E+00 -0.22535703652E+04  0.22535703652E+04  0.25500000920E-02 0. -1.
    10030    2    1    2    0    0  0.00000000000E+00  0.00000000000E+00 -0.87559153620E+03  0.36315491942E+04  0.35244132862E+04 0.  0.
        5    1    3    3  502    0  0.16869759640E+04 -0.51922255053E+02 -0.95992035713E+03  0.19416624336E+04  0.46999998093E+01 0. -1.
       -5    1    3    3    0  502 -0.16869759640E+04  0.51922255053E+02  0.84328820929E+02  0.16898867607E+04  0.46999998093E+01 0.  1.
</event>
<event>
 5   0  0.2382711E-06  0.3255050E+04  0.7818609E-02  0.8174428E-01
        2   -1    0    0  501    0  0.00000000000E+00  0.00000000000E+00  0.17232756927E+04  0.17232756927E+04  0.25500000920E-02 0. -1.
       -2   -1    0    0    0  501  0.00000000000E+00  0.00000000000E+00 -0.15370946182E+04  0.15370946182E+04  0.25500000920E-02 0.  1.
    10030    2    1    2    0    0  0.00000000000E+00  0.00000000000E+00  0.18618107451E+03  0.32603703109E+04  0.32550501028E+04 0.  0.
        5    1    3    3  502    0 -0.28922795092E+03 -0.70721724478E+03  0.15324523646E+04  0.17123788654E+04  0.46999998093E+01 0. -1.
       -5    1    3    3    0  502  0.28922795092E+03  0.70721724478E+03 -0.13462712901E+04  0.15479914455E+04  0.46999998093E+01 0.  1.
</event>
<event>
 5   0  0.2422436E-06  0.3604343E+04  0.7818609E-02  0.8089498E-01
       -2   -1    0    0    0  501  0.00000000000E+00  0.00000000000E+00  0.27097234160E+04  0.27097234160E+04  0.25500000920E-02 0. -1.
        2   -1    0    0  501    0  0.00000000000E+00  0.00000000000E+00 -0.11985806988E+04  0.11985806988E+04  0.25500000920E-02 0.  1.
    10030    2    1    2    0    0  0.00000000000E+00  0.00000000000E+00  0.15111427172E+04  0.39083041148E+04  0.36043430388E+04 0.  0.
        2    1    3    3  502    0  0.62058424773E+03 -0.79609388051E+03 -0.86329363911E+03  0.13282191771E+04  0.25500000920E-02 0.  1.
       -2    1    3    3    0  502 -0.62058424773E+03  0.79609388051E+03  0.23744363563E+04  0.25800849376E+04  0.25500000920E-02 0. -1.
</event>
<event>
 5   0  0.7754556E-07  0.2761912E+04  0.7818609E-02  0.8315191E-01
        1   -1    0    0  501    0  0.00000000000E+00  0.00000000000E+00  0.19642648077E+04  0.19642648077E+04  0.50400001928E-02 0. -1.
       -1   -1    0    0    0  501  0.00000000000E+00  0.00000000000E+00 -0.97086712939E+03  0.97086712940E+03  0.50400001928E-02 0.  1.
    10030    2    1    2    0    0  0.00000000000E+00  0.00000000000E+00  0.99339767828E+03  0.29351319371E+04  0.27619124788E+04 0.  0.
        4    1    3    3  502    0 -0.16856477052E+02 -0.51600632359E+03 -0.86444729805E+03  0.10068850038E+04  0.12699999809E+01 0.  1.
       -4    1    3    3    0  502  0.16856477052E+02  0.51600632359E+03  0.18578449763E+04  0.19282469333E+04  0.12699999809E+01 0. -1.
</event>
<event>
 5   0  0.8423692E-07  0.3578539E+04  0.7818609E-02  0.8095425E-01
        1   -1    0    0  501    0  0.00000000000E+00  0.00000000000E+00  0.13261328898E+04  0.13261328898E+04  0.50400001928E-02 0. -1.
       -1   -1    0    0    0  501  0.00000000000E+00  0.00000000000E+00 -0.24141509495E+04  0.24141509495E+04  0.50400001928E-02 0.  1.
    10030    2    1    2    0    0  0.00000000000E+00  0.00000000000E+00 -0.10880180597E+04  0.37402838393E+04  0.35785387940E+04 0.  0.
        2    1    3    3  502    0  0.68331968122E+03  0.11121284360E+04  0.73512345226E+03  0.14980527144E+04  0.25500000920E-02 0.  1.
       -2    1    3    3    0  502 -0.68331968122E+03 -0.11121284360E+04 -0.18231415120E+04  0.22422311249E+04  0.25500000920E-02 0. -1.
</event>
<event>
 5   0  0.8452742E-07  0.1797395E+04  0.7818609E-02  0.8707686E-01
       -1   -1    0    0    0  501  0.00000000000E+00  0.00000000000E+00  0.64279415831E+03  0.64279415832E+03  0.50400001928E-02 0. -1.
        1   -1    0    0  501    0  0.00000000000E+00  0.00000000000E+00 -0.12564789856E+04  0.12564789856E+04  0.50400001928E-02 0.  1.
    10030    2    1    2    0    0  0.00000000000E+00  0.00000000000E+00 -0.61368482729E+03  0.18992731439E+04  0.17973951730E+04 0.  0.
        1    1    3    3  502    0  0.33799416743E+03  0.10234914377E+03 -0.11800866957E+04  0.12317954432E+04  0.50400001928E-02 0.  1.
       -1    1    3    3    0  502 -0.33799416743E+03 -0.10234914377E+03  0.56640186841E+03  0.66747770075E+03  0.50400001928E-02 0. -1.
</event>
<event>
 5   0  0.8423692E-07  0.3715726E+04  0.7818609E-02  0.8064486E-01
        1   -1    0    0  501    0  0.00000000000E+00  0.00000000000E+00  0.18021502813E+04  0.18021502813E+04  0.50400001928E-02 0. -1.
       -1   -1    0    0    0  501  0.00000000000E+00  0.00000000000E+00 -0.19152981034E+04  0.19152981034E+04  0.50400001928E-02 0.  1.
    10030    2    1    2    0    0  0.00000000000E+00  0.00000000000E+00 -0.11314782207E+03  0.37174483848E+04  0.37157260480E+04 0.  0.
        2    1    3    3  502    0 -0.15513745860E+04  0.88741003055E+02  0.96223840546E+03  0.18277146442E+04  0.25500000920E-02 0. -1.
       -2    1    3    3    0  502  0.15513745860E+04 -0.88741003055E+02 -0.10753862275E+04  0.18897337405E+04  0.25500000920E-02 0.  1.
</event>
<event>
 5   0  0.1566576E-06  0.3587958E+04  0.7818609E-02  0.8093256E-01
        2   -1    0    0  501    0  0.00000000000E+00  0.00000000000E+00  0.23860637518E+04  0.23860637518E+04  0.25500000920E-02 0. -1.
       -2   -1    0    0    0  501  0.00000000000E+00  0.00000000000E+00 -0.13488160314E+04  0.13488160314E+04  0.25500000920E-02 0.  1.
    10030    2    1    2    0    0  0.00000000000E+00  0.00000000000E+00  0.10372477204E+04  0.37348797833E+04  0.35879582163E+04 0.  0.
        4    1    3    3  502    0 -0.35076847717E+02 -0.44456409045E+03  0.23274473066E+04  0.23697848412E+04  0.12699999809E+01 0. -1.
       -4    1    3    3    0  502  0.35076847717E+02  0.44456409045E+03 -0.12901995862E+04  0.13650949421E+04  0.12699999809E+01 0.  1.
</event>
<event>
 5   0  0.2422436E-06  0.3501926E+04  0.7818609E-02  0.8113334E-01
       -2   -1    0    0    0  501  0.00000000000E+00  0.00000000000E+00  0.18849796712E+04  0.18849796712E+04  0.25500000920E-02 0.  1.
        2   -1    0    0  501    0  0.00000000000E+00  0.00000000000E+00 -0.16264745946E+04  0.16264745946E+04  0.25500000920E-02 0. -1.
    10030    2    1    2    0    0  0.00000000000E+00  0.00000000000E+00  0.25850507658E+03  0.35114542659E+04  0.35019260681E+04 0.  0.
        2    1    3    3  502    0 -0.26876241184E+02 -0.96825942901E+02 -0.16235809241E+04  0.16266876199E+04  0.25500000920E-02 0. -1.
       -2    1    3    3    0  502  0.26876241184E+02  0.96825942901E+02  0.18820860007E+04  0.18847666460E+04  0.25500000920E-02 0.  1.
</event>
<event>
 5   0  0.1513502E-06  0.2372865E+04  0.7818609E-02  0.8449733E-01
       -2   -1    0    0    0  501  0.00000000000E+00  0.00000000000E+00  0.10020860863E+04  0.10020860863E+04  0.25500000920E-02 0. -1.
        2   -1    0    0  501    0  0.00000000000E+00  0.00000000000E+00 -0.14046915412E+04  0.14046915412E+04  0.25500000920E-02 0.  1.
    10030    2    1    2    0    0  0.00000000000E+00  0.00000000000E+00 -0.40260545495E+03  0.24067776275E+04  0.23728648077E+04 0.  0.
        3    1    3    3  502    0 -0.85133632103E+03  0.39589241650E+03 -0.93700880742E+03  0.13264576331E+04  0.10100000352E+00 0.  1.
       -3    1    3    3    0  502  0.85133632103E+03 -0.39589241650E+03  0.53440335247E+03  0.10803199944E+04  0.10100000352E+00 0. -1.
</event>
<event>
 5   0  0.1513502E-06  0.2304892E+04  0.7818609E-02  0.8475995E-01
        2   -1    0    0  501    0  0.00000000000E+00  0.00000000000E+00  0.17134628635E+04  0.17134628635E+04  0.25500000920E-02 0.  1.
       -2   -1    0    0    0  501  0.00000000000E+00  0.00000000000E+00 -0.77511588634E+03  0.77511588634E+03  0.25500000920E-02 0. -1.
    10030    2    1    2    0    0  0.00000000000E+00  0.00000000000E+00  0.93834697720E+03  0.24885787499E+04  0.23048924367E+04 0.  0.
        3    1    3    3  502    0 -0.69463571557E+03 -0.91409302735E+03  0.57739867681E+03  0.12850969155E+04  0.10100000352E+00 0.  1.
       -3    1    3    3    0  502  0.69463571557E+03  0.91409302735E+03  0.36094830039E+03  0.12034818344E+04  0.10100000352E+00 0. -1.
</event>
<event>
 5   0  0.1566576E-06  0.3515603E+04  0.7818609E-02  0.8110102E-01
        2   -1    0    0  501    0  0.00000000000E+00  0.00000000000E+00  0.22035242295E+04  0.22035242295E+04  0.25500000920E-02 0.  1.
       -2   -1    0    0    0  501  0.00000000000E+00  0.00000000000E+00 -0.14022387148E+04  0.14022387148E+04  0.25500000920E-02 0. -1.
    10030    2    1    2    0    0  0.00000000000E+00  0.00000000000E+00  0.80128551470E+03  0.36057629444E+04  0.35156034951E+04 0.  0.
        4    1    3    3  502    0  0.94304903941E+03 -0.10184763643E+03  0.19185118116E+04  0.21401877525E+04  0.12699999809E+01 0. -1.
       -4    1    3    3    0  502 -0.94304903941E+03  0.10184763643E+03 -0.11172262969E+04  0.14655751919E+04  0.12699999809E+01 0.  1.
</event>
<event>
 5   0  0.8452742E-07  0.3353218E+04  0.7818609E-02  0.8149485E-01
       -1   -1    0    0    0  501  0.00000000000E+00  0.00000000000E+00  0.12756008384E+04  0.12756008384E+04  0.50400001928E-02 0.  1.
        1   -1    0    0  501    0  0.00000000000E+00  0.00000000000E+00 -0.22036812488E+04  0.22036812488E+04  0.50400001928E-02 0. -1.
    10030    2    1    2    0    0  0.00000000000E+00  0.00000000000E+00 -0.92808041040E+03  0.34792820872E+04  0.33532179461E+04 0.  0.
        1    1    3    3  502    0 -0.11802425466E+04 -0.79803729632E+03 -0.13811131408E+04  0.19842654819E+04  0.50400001928E-02 0. -1.
       -1    1    3    3    0  502  0.11802425466E+04  0.79803729632E+03  0.45303273041E+03  0.14950166052E+04  0.50400001928E-02 0.  1.
</event>
<event>
 5   0  0.8452742E-07  0.3444337E+04  0.7818609E-02  0.8127110E-01
       -1   -1    0    0    0  501  0.00000000000E+00  0.00000000000E+00  0.32416015458E+04  0.32416015458E+04  0.50400001928E-02 0.  1.
        1   -1    0    0  501    0  0.00000000000E+00  0.00000000000E+00 -0.91493797771E+03  0.91493797772E+03  0.50400001928E-02 0. -1.
    10030    2    1    2    0    0  0.00000000000E+00  0.00000000000E+00  0.23266635681E+04  0.41565395235E+04  0.34443370119E+04 0.  0.
        1    1    3    3  502    0 -0.14734590217E+04  0.23848920971E+02  0.22387937929E+04  0.26802701182E+04  0.50400001928E-02 0.  1.
       -1    1    3    3    0  502  0.14734590217E+04 -0.23848920971E+02  0.87869775183E+02  0.14762694053E+04  0.50400001928E-02 0. -1.
</event>
<event>
 5   0  0.1513502E-06  0.3327686E+04  0.7818609E-02  0.8155886E-01
       -2   -1    0    0    0  501  0.00000000000E+00  0.00000000000E+00  0.12407921816E+04  0.12407921816E+04  0.25500000920E-02 0. -1.
        2   -1    0    0  501    0  0.00000000000E+00  0.00000000000E+00 -0.22311341054E+04  0.22311341054E+04  0.25500000920E-02 0.  1.
    10030    2    1    2    0    0  0.00000000000E+00  0.00000000000E+00 -0.99034192387E+03  0.34719262870E+04  0.33276861355E+04 0.  0.
        3    1    3    3  502    0  0.23215263552E+03 -0.15010573807E+04  0.21346390944E+03  0.15338301592E+04  0.10100000352E+00 0. -1.
       -3    1    3    3    0  502 -0.23215263552E+03  0.15010573807E+04 -0.12038058333E+04  0.19380961279E+04  0.10100000352E+00 0.  1.
</event>
<event>
 5   0  0.8423692E-07  0.3292652E+04  0.7818609E-02  0.8164767E-01
        1   -1    0    0  501    0  0.00000000000E+00  0.00000000000E+00  0.18971395186E+04  0.18971395187E+04  0.50400001928E-02 0. -1.
       -1   -1    0    0    0  501  0.00000000000E+00  0.00000000000E+00 -0.14286719816E+04  0.14286719816E+04  0.50400001928E-02 0.  1.
    10030    2    1    2    0    0  0.00000000000E+00  0.00000000000E+00  0.46846753702E+03  0.33258115003E+04  0.32926524721E+04 0.  0.
        2    1    3    3  502    0  0.90138916614E+03  0.37925707252E+03  0.15719775265E+04  0.18513378135E+04  0.25500000920E-02 0. -1.
       -2    1    3    3    0  502 -0.90138916614E+03 -0.37925707252E+03 -0.11035099895E+04  0.14744736867E+04  0.25500000920E-02 0.  1.
</event>
<event>
 5   0  0.2536619E-06  0.1886578E+04  0.7818609E-02  0.8661567E-01
        2   -1    0    0  501    0  0.00000000000E+00  0.00000000000E+00  0.11630858358E+04  0.11630858358E+04  0.25500000920E-02 0.  1.
       -2   -1    0    0    0  501  0.00000000000E+00  0.00000000000E+00 -0.76502852861E+03  0.76502852861E+03  0.25500000920E-02 0. -1.
    10030    2    1    2    0    0  0.00000000000E+00  0.00000000000E+00  0.39805730723E+03  0.19281143645E+04  0.18865776906E+04 0.  0.
        1    1    3    3  502    0  0.12312516193E+03 -0.90430434982E+03  0.44274848145E+03  0.10143729001E+04  0.50400001928E-02 0. -1.
       -1    1    3    3    0  502 -0.12312516193E+03  0.90430434982E+03 -0.44691174218E+02  0.91374146436E+03  0.50400001928E-02 0.  1.
</event>
<event>
 5   0  0.2536619E-06  0.3245371E+04  0.7818609E-02  0.8176937E-01
        2   -1    0    0  501    0  0.00000000000E+00  0.00000000000E+00  0.16583247206E+04  0.16583247206E+04  0.25500000920E-02 0. -1.
       -2   -1    0    0    0  501  0.00000000000E+00  0.00000000000E+00 -0.15878121542E+04  0.15878121542E+04  0.25500000920E-02 0.  1.
    10030    2    1    2    0    0  0.00000000000E+00  0.00000000000E+00  0.70512566388E+02  0.32461368748E+04  0.32453709477E+04 0.  0.
        1    1    3    3  502    0  0.72616297132E+03  0.13619013310E+03  0.14803282731E+04  0.16544582828E+04  0.50400001928E-02 0. -1.
       -1    1    3    3    0  502 -0.72616297132E+03 -0.13619013310E+03 -0.14098157068E+04  0.15916785920E+04  0.50400001928E-02 0.  1.
</event>
<event>
 5   0  0.8452742E-07  0.3629860E+04  0.7818609E-02  0.8083686E-01
       -1   -1    0    0    0  501  0.00000000000E+00  0.00000000000E+00  0.26567049486E+04  0.26567049486E+04  0.50400001928E-02 0.  1.
        1   -1    0    0  501    0  0.00000000000E+00  0.00000000000E+00 -0.12398711062E+04  0.12398711062E+04  0.50400001928E-02 0. -1.
    10030    2    1    2    0    0  0.00000000000E+00  0.00000000000E+00  0.14168338424E+04  0.38965760548E+04  0.36298604400E+04 0.  0.
        1    1    3    3  502    0  0.86795070530E+03 -0.90755462868E+03 -0.69819916197E+03  0.14368284173E+04  0.50400001928E-02 0. -1.
       -1    1    3    3    0  502 -0.86795070530E+03  0.90755462868E+03  0.21150330044E+04  0.24597476376E+04  0.50400001928E-02 0.  1.
</event>
<event>
 5   0  0.1513502E-06  0.3659394E+04  0.7818609E-02  0.8077021E-01
       -2   -1    0    0    0  501  0.00000000000E+00  0.00000000000E+00  0.15785893550E+04  0.15785893550E+04  0.25500000920E-02 0. -1.
        2   -1    0    0  501    0  0.00000000000E+00  0.00000000000E+00 -0.21207490378E+04  0.21207490378E+04  0.25500000920E-02 0.  1.
    10030    2    1    2    0    0  0.00000000000E+00  0.00000000000E+00 -0.54215968288E+03  0.36993383928E+04  0.36593944066E+04 0.  0.
        3    1    3    3  502    0  0.21587160379E+03 -0.14573768753E+04  0.82577225968E+03  0.16889191043E+04  0.10100000352E+00 0. -1.
       -3    1    3    3    0  502 -0.21587160379E+03  0.14573768753E+04 -0.13679319426E+04  0.20104192885E+04  0.10100000352E+00 0.  1.
</event>
<event>
 5   0  0.2536619E-06  0.2175634E+04  0.7818609E-02  0.8528639E-01
       -2   -1    0    0    0  501  0.00000000000E+00  0.00000000000E+00  0.24713516882E+04  0.24713516882E+04  0.25500000920E-02 0. -1.
        2   -1    0    0  501    0  0.00000000000E+00  0.00000000000E+00 -0.47882526193E+03  0.47882526193E+03  0.25500000920E-02 0.  1.
    10030    2    1    2    0    0  0.00000000000E+00  0.00000000000E+00  0.19925264262E+04  0.29501769501E+04  0.21756338106E+04 0.  0.
        1    1    3    3  502    0 -0.32242289617E+03  0.16414779460E+03 -0.39484811627E+03  0.53554276897E+03  0.50400001928E-02 0.  1.
       -1    1    3    3    0  502  0.32242289617E+03 -0.16414779460E+03  0.23873745425E+04  0.24146341811E+04  0.50400001928E-02 0. -1.
</event>
<event>
 5   0  0.7707500E-07  0.2407053E+04  0.7818609E-02  0.8436868E-01
        4   -1    0    0  501    0  0.00000000000E+00  0.00000000000E+00  0.15047925833E+04  0.15047931192E+04  0.12699999809E+01 0. -1.
       -4   -1    0    0    0  501  0.00000000000E+00  0.00000000000E+00 -0.96257382197E+03  0.96257465977E+03  0.12699999809E+01 0.  1.
    10030    2    1    2    0    0  0.00000000000E+00  0.00000000000E+00  0.54221876132E+03  0.24673677790E+04  0.24070526732E+04 0.  0.
        5    1    3    3  502    0 -0.38429967572E+03  0.88331853147E+03 -0.46843664097E+03  0.10711642476E+04  0.46999998093E+01 0.  1.
       -5    1    3    3    0  502  0.38429967572E+03 -0.88331853147E+03  0.10106554023E+04  0.13962035314E+04  0.46999998093E+01 0. -1.
</event>
<event>
 5   0  0.1566576E-06  0.2082337E+04  0.7818609E-02  0.8569064E-01
        2   -1    0    0  501    0  0.00000000000E+00  0.00000000000E+00  0.10685086504E+04  0.10685086504E+04  0.25500000920E-02 0.  1.
       -2   -1    0    0    0  501  0.00000000000E+00  0.00000000000E+00 -0.10145274680E+04  0.10145274680E+04  0.25500000920E-02 0. -1.
    10030    2    1    2    0    0  0.00000000000E+00  0.00000000000E+00  0.53981182433E+02  0.20830361184E+04  0.20823365488E+04 0.  0.
        4    1    3    3  502    0  0.67868918117E+03 -0.30427028147E+03  0.75581641618E+03  0.10604053360E+04  0.12699999809E+01 0.  1.
       -4    1    3    3    0  502 -0.67868918117E+03  0.30427028147E+03 -0.70183523375E+03  0.10226307824E+04  0.12699999809E+01 0. -1.
</event>
<event>
 5   0  0.2422436E-06  0.2528327E+04  0.7818609E-02  0.8392963E-01
       -2   -1    0    0    0  501  0.00000000000E+00  0.00000000000E+00  0.80039660866E+03  0.80039660866E+03  0.25500000920E-02 0. -1.
        2   -1    0    0  501    0  0.00000000000E+00  0.00000000000E+00 -0.19966462622E+04  0.19966462622E+04  0.25500000920E-02 0.  1.
    10030    2    1    2    0    0  0.00000000000E+00  0.00000000000E+00 -0.11962496535E+04  0.27970428708E+04  0.25283266379E+04 0.  0.
        2    1    3    3  502    0 -0.82034701604E+03 -0.79174575013E+03 -0.12023193711E+04  0.16569255957E+04  0.25500000920E-02 0.  1.
       -2    1    3    3    0  502  0.82034701604E+03  0.79174575013E+03  0.60697175853E+01  0.11401172751E+04  0.25500000920E-02 0. -1.
</event>
<event>
 5   0  0.8452742E-07  0.1918957E+04  0.7818609E-02  0.8645478E-01
       -1   -1    0    0    0  501  0.00000000000E+00  0.00000000000E+00  0.11527097434E+04  0.11527097435E+04  0.50400001928E-02 0. -1.
        1   -1    0    0  501    0  0.00000000000E+00  0.00000000000E+00 -0.79863873615E+03  0.79863873617E+03  0.50400001928E-02 0.  1.
    10030    2    1    2    0    0  0.00000000000E+00  0.00000000000E+00  0.35407100730E+03  0.19513484796E+04  0.19189566464E+04 0.  0.
        1    1    3    3  502    0 -0.79385561869E+03  0.36095580878E+03 -0.22984712921E+03  0.90184563094E+03  0.50400001928E-02 0.  1.
       -1    1    3    3    0  502  0.79385561869E+03 -0.36095580878E+03  0.58391813651E+03  0.10495028487E+04  0.50400001928E-02 0. -1.
</event>
<event>
 5   0  0.8423692E-07  0.3504454E+04  0.7818609E-02  0.8112735E-01
       -1   -1    0    0    0  501  0.00000000000E+00  0.00000000000E+00  0.14773471866E+04  0.14773471866E+04  0.50400001928E-02 0. -1.
        1   -1    0    0  501    0  0.00000000000E+00  0.00000000000E+00 -0.20782515733E+04  0.20782515733E+04  0.50400001928E-02 0.  1.
    10030    2    1    2    0    0  0.00000000000E+00  0.00000000000E+00 -0.60090438668E+03  0.35555987600E+04  0.35044538034E+04 0.  0.
        2    1    3    3  502    0 -0.50766418611E+03 -0.10724217701E+04 -0.16086446237E+04  0.19988869163E+04  0.25500000920E-02 0.  1.
       -2    1    3    3    0  502  0.50766418611E+03  0.10724217701E+04  0.10077402370E+04  0.15567118436E+04  0.25500000920E-02 0. -1.
</event>
<event>
 5   0  0.1634374E-06  0.1818919E+04  0.7818609E-02  0.8696303E-01
       -1   -1    0    0    0  501  0.00000000000E+00  0.00000000000E+00  0.52630877545E+03  0.52630877548E+03  0.50400001928E-02 0.  1.
        1   -1    0    0  501    0  0.00000000000E+00  0.00000000000E+00 -0.15715424144E+04  0.15715424144E+04  0.50400001928E-02 0. -1.
    10030    2    1    2    0    0  0.00000000000E+00  0.00000000000E+00 -0.10452336389E+04  0.20978511899E+04  0.18189189798E+04 0.  0.
        5    1    3    3  502    0 -0.50367020111E+03 -0.67981264841E+03 -0.13789952210E+03  0.85724400063E+03  0.46999998093E+01 0.  1.
       -5    1    3    3    0  502  0.50367020111E+03  0.67981264841E+03 -0.90733411684E+03  0.12406071892E+04  0.46999998093E+01 0. -1.
</event>
<event>
 5   0  0.8423692E-07  0.1805519E+04  0.7818609E-02  0.8703370E-01
        1   -1    0    0  501    0  0.00000000000E+00  0.00000000000E+00  0.21930820984E+04  0.21930820984E+04  0.50400001928E-02 0. -1.
       -1   -1    0    0    0  501  0.00000000000E+00  0.00000000000E+00 -0.37161152503E+03  0.37161152506E+03  0.50400001928E-02 0.  1.
    10030    2    1    2    0    0  0.00000000000E+00  0.00000000000E+00  0.18214705733E+04  0.25646936234E+04  0.18055188541E+04 0.  0.
        2    1    3    3  502    0 -0.28064079292E+02  0.86215518632E+03  0.53257031139E+03  0.10137703361E+04  0.25500000920E-02 0.  1.
       -2    1    3    3    0  502  0.28064079292E+02 -0.86215518632E+03  0.12889002620E+04  0.15509232873E+04  0.25500000920E-02 0. -1.
</event>
<event>
 5   0  0.7754556E-07  0.3581202E+04  0.7818609E-02  0.8094811E-01
        1   -1    0    0  501    0  0.00000000000E+00  0.00000000000E+00  0.18755153354E+04  0.18755153354E+04  0.50400001928E-02 0.  1.
       -1   -1    0    0    0  501  0.00000000000E+00  0.00000000000E+00 -0.17095307944E+04  0.17095307944E+04  0.50400001928E-02 0. -1.
    10030    2    1    2    0    0  0.00000000000E+00  0.00000000000E+00  0.16598454097E+03  0.35850461297E+04  0.35812015979E+04 0.  0.
        4    1    3    3  502    0  0.61870348260E+03 -0.16798922046E+04  0.45298298608E+02  0.17907778665E+04  0.12699999809E+01 0. -1.
       -4    1    3    3    0  502 -0.61870348260E+03  0.16798922046E+04  0.12068624236E+03  0.17942682632E+04  0.12699999809E+01 0.  1.
</event>
<event>
 5   0  0.1513502E-06  0.3536430E+04  0.7818609E-02  0.8105210E-01
        2   -1    0    0  501    0  0.00000000000E+00  0.00000000000E+00  0.24565113845E+04  0.24565113845E+04  0.25500000920E-02 0.  1.
       -2   -1    0    0    0  501  0.00000000000E+00  0.00000000000E+00 -0.12727739882E+04  0.12727739882E+04  0.25500000920E-02 0. -1.
    10030    2    1    2    0    0  0.00000000000E+00  0.00000000000E+00  0.11837373963E+04  0.37292853727E+04  0.35364297204E+04 0.  0.
        3    1    3    3  502    0 -0.10846218642E+04  0.77269248087E+03 -0.63480662579E+03  0.14752754728E+04  0.10100000352E+00 0. -1.
       -3    1    3    3    0  502  0.10846218642E+04 -0.77269248087E+03  0.18185440220E+04  0.22540098999E+04  0.10100000352E+00 0.  1.
</event>
<event>
 5   0  0.8423692E-07  0.2972529E+04  0.7818609E-02  0.8251619E-01
       -1   -1    0    0    0  501  0.00000000000E+00  0.00000000000E+00  0.16996583285E+04  0.16996583285E+04  0.50400001928E-02 0.  1.
        1   -1    0    0  501    0  0.00000000000E+00  0.00000000000E+00 -0.12996622134E+04  0.12996622134E+04  0.50400001928E-02 0. -1.
    10030    2    1    2    0    0  0.00000000000E+00  0.00000000000E+00  0.39999611509E+03  0.29993205419E+04  0.29725286914E+04 0.  0.
        2    1    3    3  502    0  0.12569539422E+04  0.23089211181E+03  0.96561056481E+03  0.16017640722E+04  0.25500000920E-02 0.  1.
       -2    1    3    3    0  502 -0.12569539422E+04 -0.23089211181E+03 -0.56561444972E+03  0.13975564697E+04  0.25500000920E-02 0. -1.
</event>
<event>
 5   0  0.2382711E-06  0.3626657E+04  0.7818609E-02  0.8084413E-01
        2   -1    0    0  501    0  0.00000000000E+00  0.00000000000E+00  0.10570073893E+04  0.10570073893E+04  0.25500000920E-02 0.  1.
       -2   -1    0    0    0  501  0.00000000000E+00  0.00000000000E+00 -0.31108209187E+04  0.31108209187E+04  0.25500000920E-02 0. -1.
    10030    2    1    2    0    0  0.00000000000E+00  0.00000000000E+00 -0.20538135294E+04  0.41678283080E+04  0.36266572476E+04 0.  0.
        5    1    3    3  502    0  0.87663716553E+02  0.17260631666E+04 -0.16575760515E+04  0.23946940178E+04  0.46999998093E+01 0. -1.
       -5    1    3    3    0  502 -0.87663716553E+02 -0.17260631666E+04 -0.39623747785E+03  0.17731342902E+04  0.46999998093E+01 0.  1.
</event>
<event>
 5   0  0.1513502E-06  0.2442213E+04  0.7818609E-02  0.8423867E-01
       -2   -1    0    0    0  501  0.00000000000E+00  0.00000000000E+00  0.85857132209E+03  0.85857132209E+03  0.25500000920E-02 0.  1.
        2   -1    0    0  501    0  0.00000000000E+00  0.00000000000E+00 -0.17367230892E+04  0.17367230892E+04  0.25500000920E-02 0. -1.
    10030    2    1    2    0    0  0.00000000000E+00  0.00000000000E+00 -0.87815176711E+03  0.25952944113E+04  0.24422126351E+04 0.  0.
        3    1    3    3  502    0 -0.28483950811E+03 -0.68043669382E+03 -0.14731983028E+04  0.16475560352E+04  0.10100000352E+00 0. -1.
       -3    1    3    3    0  502  0.28483950811E+03  0.68043669382E+03  0.59504653567E+03  0.94773837607E+03  0.10100000352E+00 0.  1.
</event>
<event>
 5   0  0.1513502E-06  0.2865577E+04  0.7818609E-02  0.8283193E-01
        2   -1    0    0  501    0  0.00000000000E+00  0.00000000000E+00  0.16951771932E+04  0.16951771932E+04  0.25500000920E-02 0. -1.
       -2   -1    0    0    0  501  0.00000000000E+00  0.00000000000E+00 -0.12110141094E+04  0.12110141094E+04  0.25500000920E-02 0.  1.
    10030    2    1    2    0    0  0.00000000000E+00  0.00000000000E+00  0.48416308378E+03  0.29061913025E+04  0.28655774279E+04 0.  0.
        3    1    3    3  502    0 -0.29423258037E+03 -0.84446293909E+03 -0.89324563807E+03  0.12639534196E+04  0.10100000352E+00 0. -1.
       -3    1    3    3    0  502  0.29423258037E+03  0.84446293909E+03  0.13774087219E+04  0.16422378829E+04  0.10100000352E+00 0.  1.
</event>
<event>
 5   0  0.1634374E-06  0.3527448E+04  0.7818609E-02  0.8107316E-01
       -1   -1    0    0    0  501  0.00000000000E+00  0.00000000000E+00  0.23917294391E+04  0.23917294391E+04  0.50400001928E-02 0.  1.
        1   -1    0    0  501    0  0.00000000000E+00  0.00000000000E+00 -0.13006161794E+04  0.13006161794E+04  0.50400001928E-02 0. -1.
    10030    2    1    2    0    0  0.00000000000E+00  0.00000000000E+00  0.10911132597E+04  0.36923456185E+04  0.35274478056E+04 0.  0.
        5    1    3    3  502    0 -0.81341405689E+03 -0.39359285219E+03 -0.10398910403E+04  0.13776622325E+04  0.46999998093E+01 0. -1.
       -5    1    3    3    0  502  0.81341405689E+03  0.39359285219E+03  0.21310042999E+04  0.23146833860E+04  0.46999998093E+01 0.  1.
</event>
<event>
 5   0  0.1513502E-06  0.3500582E+04  0.7818609E-02  0.8113652E-01
        2   -1    0    0  501    0  0.00000000000E+00  0.00000000000E+00  0.20079628888E+04  0.20079628888E+04  0.25500000920E-02 0.  1.
       -2   -1    0    0    0  501  0.00000000000E+00  0.00000000000E+00 -0.15256845365E+04  0.15256845365E+04  0.25500000920E-02 0. -1.
    10030    2    1    2    0    0  0.00000000000E+00  0.00000000000E+00  0.48227835228E+03  0.35336474253E+04  0.35005816255E+04 0.  0.
        3    1    3    3  502    0  0.58015224073E+03  0.15622198297E+04  0.78136765391E+03  0.18405550358E+04  0.10100000352E+00 0.  1.
       -3    1    3    3    0  502 -0.58015224073E+03 -0.15622198297E+04 -0.29908930163E+03  0.16930923895E+04  0.10100000352E+00 0. -1.
</event>
<event>
 5   0  0.1513502E-06  0.3629149E+04  0.7818609E-02  0.8083847E-01
       -2   -1    0    0    0  501  0.00000000000E+00  0.00000000000E+00  0.18876369243E+04  0.18876369243E+04  0.25500000920E-02 0.  1.
        2   -1    0    0  501    0  0.00000000000E+00  0.00000000000E+00 -0.17443404453E+04  0.17443404453E+04  0.25500000920E-02 0. -1.
    10030    2    1    2    0    0  0.00000000000E+00  0.00000000000E+00  0.14329647901E+03  0.36319773697E+04  0.36291494503E+04 0.  0.
        3    1    3    3  502    0 -0.13585425889E+04 -0.36235260856E+03 -0.10763044429E+04  0.17706972194E+04  0.10100000352E+00 0. -1.
       -3    1    3    3    0  502  0.13585425889E+04  0.36235260856E+03  0.12196009219E+04  0.18612801503E+04  0.10100000352E+00 0.  1.
</event>
<event>
 5   0  0.8452742E-07  0.3595771E+04  0.7818609E-02  0.8091461E-01
       -1   -1    0    0    0  501  0.00000000000E+00  0.00000000000E+00  0.21934559469E+04  0.21934559469E+04  0.50400001928E-02 0. -1.
        1   -1    0    0  501    0  0.00000000000E+00  0.00000000000E+00 -0.14736530924E+04  0.14736530924E+04  0.50400001928E-02 0.  1.
    10030    2    1    2    0    0  0.00000000000E+00  0.00000000000E+00  0.71980285452E+03  0.36671090393E+04  0.35957714828E+04 0.  0.
        1    1    3    3  502    0  0.16912868325E+03 -0.77681341157E+03 -0.12846505557E+04  0.15107516798E+04  0.50400001928E-02 0.  1.
       -1    1    3    3    0  502 -0.16912868325E+03  0.77681341157E+03  0.20044534102E+04  0.21563573594E+04  0.50400001928E-02 0. -1.
</event>
<event>
 5   0  0.8452742E-07  0.3562900E+04  0.7818609E-02  0.8099043E-01
        1   -1    0    0  501    0  0.00000000000E+00  0.00000000000E+00  0.12141165921E+04  0.12141165921E+04  0.50400001928E-02 0. -1.
       -1   -1    0    0    0  501  0.00000000000E+00  0.00000000000E+00 -0.26138872810E+04  0.26138872810E+04  0.50400001928E-02 0.  1.
    10030    2    1    2    0    0  0.00000000000E+00  0.00000000000E+00 -0.13997706889E+04  0.38280038732E+04  0.35628998963E+04 0.  0.
        1    1    3    3  502    0  0.15728546496E+04  0.72707568194E+03 -0.25552606885E+03  0.17515148781E+04  0.50400001928E-02 0. -1.
       -1    1    3    3    0  502 -0.15728546496E+04 -0.72707568194E+03 -0.11442446201E+04  0.20764889951E+04  0.50400001928E-02 0.  1.
</event>
<event>
 5   0  0.8423692E-07  0.3666953E+04  0.7818609E-02  0.8075325E-01
        1   -1    0    0  501    0  0.00000000000E+00  0.00000000000E+00  0.19237763884E+04  0.19237763884E+04  0.50400001928E-02 0. -1.
       -1   -1    0    0    0  501  0.00000000000E+00  0.00000000000E+00 -0.17474148260E+04  0.17474148260E+04  0.50400001928E-02 0.  1.
    10030    2    1    2    0    0  0.00000000000E+00  0.00000000000E+00  0.17636156239E+03  0.36711912144E+04  0.36669526220E+04 0.  0.
        2    1    3    3  502    0  0.13498643668E+04 -0.12363852678E+04  0.19247914234E+03  0.18406060305E+04  0.25500000920E-02 0. -1.
       -2    1    3    3    0  502 -0.13498643668E+04  0.12363852678E+04 -0.16117579948E+02  0.18305851839E+04  0.25500000920E-02 0.  1.
</event>
<event>
 5   0  0.2536619E-06  0.3480450E+04  0.7818609E-02  0.8118439E-01
        2   -1    0    0  501    0  0.00000000000E+00  0.00000000000E+00  0.25970959255E+04  0.25970959255E+04  0.25500000920E-02 0.  1.
       -2   -1    0    0    0  501  0.00000000000E+00  0.00000000000E+00 -0.11660652792E+04  0.11660652792E+04  0.25500000920E-02 0. -1.
    10030    2    1    2    0    0  0.00000000000E+00  0.00000000000E+00  0.14310306464E+04  0.37631612047E+04  0.34804501924E+04 0.  0.
        1    1    3    3  502    0  0.93734224457E+01  0.13438562135E+04  0.19109186989E+04  0.23361608800E+04  0.50400001928E-02 0. -1.
       -1    1    3    3    0  502 -0.93734224457E+01 -0.13438562135E+04 -0.47988805251E+03  0.14270003247E+04  0.50400001928E-02 0.  1.
</event>
<event>
 5   0  0.2382711E-06  0.3530497E+04  0.7818609E-02  0.8106600E-01
        2   -1    0    0  501    0  0.00000000000E+00  0.00000000000E+00  0.23397082354E+04  0.23397082354E+04  0.25500000920E-02 0.  1.
       -2   -1    0    0    0  501  0.00000000000E+00  0.00000000000E+00 -0.13318339413E+04  0.13318339413E+04  0.25500000920E-02 0. -1.
    10030    2    1    2    0    0  0.00000000000E+00  0.00000000000E+00  0.10078742942E+04  0.36715421767E+04  0.35304973251E+04 0.  0.
        5    1    3    3  502    0 -0.72848542330E+03 -0.30800903718E+03 -0.11372483349E+04  0.13852495964E+04  0.46999998093E+01 0. -1.
       -5    1    3    3    0  502  0.72848542330E+03  0.30800903718E+03  0.21451226291E+04  0.22862925803E+04  0.46999998093E+01 0.  1.
</event>
<event>
 5   0  0.2422436E-06  0.3623777E+04  0.7818609E-02  0.8085067E-01
       -2   -1    0    0    0  501  0.00000000000E+00  0.00000000000E+00  0.17983697877E+04  0.17983697877E+04  0.25500000920E-02 0.  1.
        2   -1    0    0  501    0  0.00000000000E+00  0.00000000000E+00 -0.18255089834E+04  0.18255089834E+04  0.25500000920E-02 0. -1.
    10030    2    1    2    0    0  0.00000000000E+00  0.00000000000E+00 -0.27139195771E+02  0.36238787711E+04  0.36237771471E+04 0.  0.
        2    1    3    3  502    0 -0.14154208948E+04 -0.46255396251E+03  0.10187227497E+04  0.18042085574E+04  0.25500000920E-02 0.  1.
       -2    1    3    3    0  502  0.14154208948E+04  0.46255396251E+03 -0.10458619455E+04  0.18196702137E+04  0.25500000920E-02 0. -1.
</event>
<event>
 5   0  0.1513502E-06  0.3563804E+04  0.7818609E-02  0.8098834E-01
        2   -1    0    0  501    0  0.00000000000E+00  0.00000000000E+00  0.17882440834E+04  0.17882440834E+04  0.25500000920E-02 0.  1.
       -2   -1    0    0    0  501  0.00000000000E+00  0.00000000000E+00 -0.17755821017E+04  0.17755821017E+04  0.25500000920E-02 0. -1.
    10030    2    1    2    0    0  0.00000000000E+00  0.00000000000E+00  0.12661981723E+02  0.35638261851E+04  0.35638036915E+04 0.  0.
        3    1    3    3  502    0 -0.12908917280E+04 -0.15549623425E+03  0.12247777012E+04  0.17862421336E+04  0.10100000352E+00 0.  1.
       -3    1    3    3    0  502  0.12908917280E+04  0.15549623425E+03 -0.12121157195E+04  0.17775840515E+04  0.10100000352E+00 0. -1.
</event>
<event>
 5   0  0.8423692E-07  0.2648230E+04  0.7818609E-02  0.8352001E-01
        1   -1    0    0  501    0  0.00000000000E+00  0.00000000000E+00  0.15590486285E+04  0.15590486285E+04  0.50400001928E-02 0. -1.
       -1   -1    0    0    0  501  0.00000000000E+00  0.00000000000E+00 -0.11245834622E+04  0.11245834622E+04  0.50400001928E-02 0.  1.
    10030    2    1    2    0    0  0.00000000000E+00  0.00000000000E+00  0.43446516635E+03  0.26836320907E+04  0.26482298272E+04 0.  0.
        2    1    3    3  502    0 -0.89949373235E+03  0.84433247264E+03 -0.27012697998E+03  0.12629152324E+04  0.25500000920E-02 0.  1.
       -2    1    3    3    0  502  0.89949373235E+03 -0.84433247264E+03  0.70459214633E+03  0.14207168583E+04  0.25500000920E-02 0. -1.
</event>
<event>
 5   0  0.7754556E-07  0.3604039E+04  0.7818609E-02  0.8089567E-01
       -1   -1    0    0    0  501  0.00000000000E+00  0.00000000000E+00  0.13057637946E+04  0.13057637946E+04  0.50400001928E-02 0.  1.
        1   -1    0    0  501    0  0.00000000000E+00  0.00000000000E+00 -0.24868768009E+04  0.24868768009E+04  0.50400001928E-02 0. -1.
    10030    2    1    2    0    0  0.00000000000E+00  0.00000000000E+00 -0.11811130063E+04  0.37926405955E+04  0.36040386725E+04 0.  0.
        4    1    3    3  502    0 -0.16915197637E+04 -0.56939582375E+03 -0.85220697713E+03  0.19778041004E+04  0.12699999809E+01 0.  1.
       -4    1    3    3    0  502  0.16915197637E+04  0.56939582375E+03 -0.32890602914E+03  0.18148364951E+04  0.12699999809E+01 0. -1.
</event>
<event>
 5   0  0.1513502E-06  0.3660831E+04  0.7818609E-02  0.8076698E-01
       -2   -1    0    0    0  501  0.00000000000E+00  0.00000000000E+00  0.13169273118E+04  0.13169273118E+04  0.25500000920E-02 0. -1.
        2   -1    0    0  501    0  0.00000000000E+00  0.00000000000E+00 -0.25441202376E+04  0.25441202376E+04  0.25500000920E-02 0.  1.
    10030    2    1    2    0    0  0.00000000000E+00  0.00000000000E+00 -0.12271929258E+04  0.38610475494E+04  0.36608312856E+04 0.  0.
        3    1    3    3  502    0 -0.13284241000E+04 -0.12166476057E+04 -0.95613490757E+03  0.20393959786E+04  0.10100000352E+00 0.  1.
       -3    1    3    3    0  502  0.13284241000E+04  0.12166476057E+04 -0.27105801823E+03  0.18216515708E+04  0.10100000352E+00 0. -1.
</event>
<event>
 5   0  0.1536375E-06  0.1990075E+04  0.7818609E-02  0.8611275E-01
        2   -1    0    0  501    0  0.00000000000E+00  0.00000000000E+00  0.95880836196E+03  0.95880836196E+03  0.25500000920E-02 0.  1.
       -2   -1    0    0    0  501  0.00000000000E+00  0.00000000000E+00 -0.10326355749E+04  0.10326355749E+04  0.25500000920E-02 0. -1.
    10030    2    1    2    0    0  0.00000000000E+00  0.00000000000E+00 -0.73827212981E+02  0.19914439369E+04  0.19900749977E+04 0.  0.
        3    1    3    3  502    0 -0.89454194052E+03 -0.34068133046E+03  0.23499110144E+03  0.98564186205E+03  0.10100000352E+00 0.  1.
       -3    1    3    3    0  502  0.89454194052E+03  0.34068133046E+03 -0.30881831442E+03  0.10058020749E+04  0.10100000352E+00 0. -1.
</event>
<event>
 5   0  0.8452742E-07  0.2072534E+04  0.7818609E-02  0.8573440E-01
        1   -1    0    0  501    0  0.00000000000E+00  0.00000000000E+00  0.10440346725E+04  0.10440346725E+04  0.50400001928E-02 0. -1.
       -1   -1    0    0    0  501  0.00000000000E+00  0.00000000000E+00 -0.10285572663E+04  0.10285572663E+04  0.50400001928E-02 0.  1.
    10030    2    1    2    0    0  0.00000000000E+00  0.00000000000E+00  0.15477406207E+02  0.20725919389E+04  0.20725341481E+04 0.  0.
        1    1    3    3  502    0  0.39592939979E+03 -0.34242594561E+03 -0.88662052944E+03  0.10296172012E+04  0.50400001928E-02 0.  1.
       -1    1    3    3    0  502 -0.39592939979E+03  0.34242594561E+03  0.90209793565E+03  0.10429747376E+04  0.50400001928E-02 0. -1.
</event>
<event>
 5   0  0.8423692E-07  0.3653385E+04  0.7818609E-02  0.8078371E-01
       -1   -1    0    0    0  501  0.00000000000E+00  0.00000000000E+00  0.31029999008E+04  0.31029999008E+04  0.50400001928E-02 0.  1.
        1   -1    0    0  501    0  0.00000000000E+00  0.00000000000E+00 -0.10753485202E+04  0.10753485202E+04  0.50400001928E-02 0. -1.
    10030    2    1    2    0    0  0.00000000000E+00  0.00000000000E+00  0.20276513806E+04  0.41783484210E+04  0.36533854718E+04 0.  0.
        2    1    3    3  502    0 -0.88443063287E+03  0.59089028826E+03 -0.68463902566E+03  0.12649503834E+04  0.25500000920E-02 0. -1.
       -2    1    3    3    0  502  0.88443063287E+03 -0.59089028826E+03  0.27122904063E+04  0.29133980375E+04  0.25500000920E-02 0.  1.
</event>
<event>
 5   0  0.2382711E-06  0.3586180E+04  0.7818609E-02  0.8093665E-01
       -2   -1    0    0    0  501  0.00000000000E+00  0.00000000000E+00  0.15478520427E+04  0.15478520427E+04  0.25500000920E-02 0.  1.
        2   -1    0    0  501    0  0.00000000000E+00  0.00000000000E+00 -0.20771829302E+04  0.20771829302E+04  0.25500000920E-02 0. -1.
    10030    2    1    2    0    0  0.00000000000E+00  0.00000000000E+00 -0.52933088755E+03  0.36250349729E+04  0.35861800521E+04 0.  0.
        5    1    3    3  502    0 -0.90198116130E+03  0.41467039116E+03  0.12447067150E+04  0.15921175978E+04  0.46999998093E+01 0.  1.
       -5    1    3    3    0  502  0.90198116130E+03 -0.41467039116E+03 -0.17740376026E+04  0.20329173751E+04  0.46999998093E+01 0. -1.
</event>
<event>
 5   0  0.1566576E-06  0.3595608E+04  0.7818609E-02  0.8091499E-01
        2   -1    0    0  501    0  0.00000000000E+00  0.00000000000E+00  0.13717648854E+04  0.13717648854E+04  0.25500000920E-02 0.  1.
       -2   -1    0    0    0  501  0.00000000000E+00  0.00000000000E+00 -0.23561610122E+04  0.23561610122E+04  0.25500000920E-02 0. -1.
    10030    2    1    2    0    0  0.00000000000E+00  0.00000000000E+00 -0.98439612683E+03  0.37279258976E+04  0.35956078434E+04 0.  0.
        4    1    3    3  502    0  0.10074949115E+04 -0.12839489155E+04 -0.12739524259E+04  0.20703930088E+04  0.12699999809E+01 0. -1.
       -4    1    3    3    0  502 -0.10074949115E+04  0.12839489155E+04  0.28955629908E+03  0.16575328888E+04  0.12699999809E+01 0.  1.
</event>
<event>
 5   0  0.1908273E-06  0.3618774E+04  0.7818609E-02  0.8086205E-01
       -1   -1    0    0    0  501  0.00000000000E+00  0.00000000000E+00  0.13121894523E+04  0.13121894523E+04  0.50400001928E-02 0.  1.
        1   -1    0    0  501    0  0.00000000000E+00  0.00000000000E+00 -0.24949763617E+04  0.24949763617E+04  0.50400001928E-02 0. -1.
    10030    2    1    2    0    0  0.00000000000E+00  0.00000000000E+00 -0.11827869094E+04  0.38071658140E+04  0.36187741933E+04 0.  0.
        3    1    3    3  502    0 -0.77636028478E+03  0.14439040752E+04  0.21416225923E+03  0.16533178017E+04  0.10100000352E+00 0.  1.
       -3    1    3    3    0  502  0.77636028478E+03 -0.14439040752E+04 -0.13969491687E+04  0.21538480123E+04  0.10100000352E+00 0. -1.
</event>
<event>
 5   0  0.1579003E-06  0.1826220E+04  0.7818609E-02  0.8692479E-01
        2   -1    0    0  501    0  0.00000000000E+00  0.00000000000E+00  0.87160635945E+03  0.87160635945E+03  0.25500000920E-02 0.  1.
       -2   -1    0    0    0  501  0.00000000000E+00  0.00000000000E+00 -0.95658975948E+03  0.95658975949E+03  0.25500000920E-02 0. -1.
    10030    2    1    2    0    0  0.00000000000E+00  0.00000000000E+00 -0.84983400035E+02  0.18281961189E+04  0.18262198310E+04 0.  0.
        3    1    3    3  502    0 -0.80132610955E+02  0.90077947319E+03  0.83917720944E+02  0.90822193804E+03  0.10100000352E+00 0. -1.
       -3    1    3    3    0  502  0.80132610955E+02 -0.90077947319E+03 -0.16890112098E+03  0.91997418090E+03  0.10100000352E+00 0.  1.
</event>
<event>
 5   0  0.2382711E-06  0.3042601E+04  0.7818609E-02  0.8231670E-01
        2   -1    0    0  501    0  0.00000000000E+00  0.00000000000E+00  0.23536589814E+04  0.23536589814E+04  0.25500000920E-02 0.  1.
       -2   -1    0    0    0  501  0.00000000000E+00  0.00000000000E+00 -0.98330081475E+03  0.98330081475E+03  0.25500000920E-02 0. -1.
    10030    2    1    2    0    0  0.00000000000E+00  0.00000000000E+00  0.13703581666E+04  0.33369597961E+04  0.30426007257E+04 0.  0.
        5    1    3    3  502    0 -0.63262476487E+03  0.10784433754E+04 -0.26531337219E+03  0.12781500235E+04  0.46999998093E+01 0.  1.
       -5    1    3    3    0  502  0.63262476487E+03 -0.10784433754E+04  0.16356715388E+04  0.20588097726E+04  0.46999998093E+01 0. -1.
</event>
<event>
 5   0  0.1566576E-06  0.3594377E+04  0.7818609E-02  0.8091781E-01
        2   -1    0    0  501    0  0.00000000000E+00  0.00000000000E+00  0.14313747107E+04  0.14313747107E+04  0.25500000920E-02 0.  1.
       -2   -1    0    0    0  501  0.00000000000E+00  0.00000000000E+00 -0.22564932113E+04  0.22564932113E+04  0.25500000920E-02 0. -1.
    10030    2    1    2    0    0  0.00000000000E+00  0.00000000000E+00 -0.82511850057E+03  0.36878679219E+04  0.35943774523E+04 0.  0.
        4    1    3    3  502    0  0.18806042675E+03 -0.52714375910E+03  0.13396782677E+04  0.14518907468E+04  0.12699999809E+01 0.  1.
       -4    1    3    3    0  502 -0.18806042675E+03  0.52714375910E+03 -0.21647967683E+04  0.22359771751E+04  0.12699999809E+01 0. -1.
</event>
<event>
 5   0  0.1908273E-06  0.3367798E+04  0.7818609E-02  0.8145855E-01
        1   -1    0    0  501    0  0.00000000000E+00  0.00000000000E+00  0.18013501585E+04  0.18013501585E+04  0.50400001928E-02 0. -1.
       -1   -1    0    0    0  501  0.00000000000E+00  0.00000000000E+00 -0.15741054081E+04  0.15741054081E+04  0.50400001928E-02 0.  1.
    10030    2    1    2    0    0  0.00000000000E+00  0.00000000000E+00  0.22724475036E+03  0.33754555666E+04  0.33677975156E+04 0.  0.
        3    1    3    3  502    0  0.46535424981E+03 -0.42134602255E+02 -0.15078279343E+04  0.15785673860E+04  0.10100000352E+00 0.  1.
       -3    1    3    3    0  502 -0.46535424981E+03  0.42134602255E+02  0.17350726847E+04  0.17968881806E+04  0.10100000352E+00 0. -1.
</event>
<event>
 5   0  0.2382711E-06  0.3655656E+04  0.7818609E-02  0.8077861E-01
        2   -1    0    0  501    0  0.00000000000E+00  0.00000000000E+00  0.12313637842E+04  0.12313637842E+04  0.25500000920E-02 0. -1.
       -2   -1    0    0    0  501  0.00000000000E+00  0.00000000000E+00 -0.27132148547E+04  0.27132148547E+04  0.25500000920E-02 0.  1.
    10030    2    1    2    0    0  0.00000000000E+00  0.00000000000E+00 -0.14818510705E+04  0.39445786388E+04  0.36556556242E+04 0.  0.
        5    1    3    3  502    0 -0.16706985325E+04 -0.74066632985E+03 -0.77691132983E+03  0.19858080227E+04  0.46999998093E+01 0. -1.
       -5    1    3    3    0  502  0.16706985325E+04  0.74066632985E+03 -0.70493974068E+03  0.19587706161E+04  0.46999998093E+01 0.  1.
</event>
<event>
 5   0  0.2422436E-06  0.2130021E+04  0.7818609E-02  0.8548133E-01
        2   -1    0    0  501    0  0.00000000000E+00  0.00000000000E+00  0.18829911761E+04  0.18829911761E+04  0.25500000920E-02 0.  1.
       -2   -1    0    0    0  501  0.00000000000E+00  0.00000000000E+00 -0.60236446118E+03  0.60236446119E+03  0.25500000920E-02 0. -1.
    10030    2    1    2    0    0  0.00000000000E+00  0.00000000000E+00  0.12806267149E+04  0.24853556372E+04  0.21300206245E+04 0.  0.
        2    1    3    3  502    0  0.90151936746E+03  0.54224447030E+03  0.44688557017E+03  0.11430104760E+04  0.25500000920E-02 0.  1.
       -2    1    3    3    0  502 -0.90151936746E+03 -0.54224447030E+03  0.83374114470E+03  0.13423451612E+04  0.25500000920E-02 0. -1.
</event>
<event>
 5   0  0.2422436E-06  0.2021690E+04  0.7818609E-02  0.8596546E-01
       -2   -1    0    0    0  501  0.00000000000E+00  0.00000000000E+00  0.11153362301E+04  0.11153362301E+04  0.25500000920E-02 0.  1.
        2   -1    0    0  501    0  0.00000000000E+00  0.00000000000E+00 -0.91614332490E+03  0.91614332490E+03  0.25500000920E-02 0. -1.
    10030    2    1    2    0    0  0.00000000000E+00  0.00000000000E+00  0.19919290516E+03  0.20314795550E+04  0.20216902257E+04 0.  0.
        2    1    3    3  502    0 -0.53253464781E+03 -0.32764472808E+03 -0.69851875747E+03  0.93748209236E+03  0.25500000920E-02 0. -1.
       -2    1    3    3    0  502  0.53253464781E+03  0.32764472808E+03  0.89771166262E+03  0.10939974626E+04  0.25500000920E-02 0.  1.
</event>
<event>
 5   0  0.1566576E-06  0.3623259E+04  0.7818609E-02  0.8085185E-01
       -2   -1    0    0    0  501  0.00000000000E+00  0.00000000000E+00  0.10820075822E+04  0.10820075822E+04  0.25500000920E-02 0. -1.
        2   -1    0    0  501    0  0.00000000000E+00  0.00000000000E+00 -0.30332521819E+04  0.30332521819E+04  0.25500000920E-02 0.  1.
    10030    2    1    2    0    0  0.00000000000E+00  0.00000000000E+00 -0.19512445998E+04  0.41152597641E+04  0.36232592286E+04 0.  0.
        4    1    3    3  502    0 -0.73983520400E+03 -0.98467349973E+02  0.89927282704E+03  0.11686510080E+04  0.12699999809E+01 0. -1.
       -4    1    3    3    0  502  0.73983520400E+03  0.98467349973E+02 -0.28505174268E+04  0.29466087561E+04  0.12699999809E+01 0.  1.
</event>
<event>
 5   0  0.2422436E-06  0.3538500E+04  0.7818609E-02  0.8104726E-01
        2   -1    0    0  501    0  0.00000000000E+00  0.00000000000E+00  0.16041906493E+04  0.16041906493E+04  0.25500000920E-02 0.  1.
       -2   -1    0    0    0  501  0.00000000000E+00  0.00000000000E+00 -0.19512932663E+04  0.19512932663E+04  0.25500000920E-02 0. -1.
    10030    2    1    2    0    0  0.00000000000E+00  0.00000000000E+00 -0.34710261701E+03  0.35554839156E+04  0.35385004801E+04 0.  0.
        2    1    3    3  502    0  0.44424664237E+02 -0.17579139365E+04 -0.36945232741E+03  0.17968667121E+04  0.25500000920E-02 0. -1.
       -2    1    3    3    0  502 -0.44424664237E+02  0.17579139365E+04  0.22349710399E+02  0.17586172035E+04  0.25500000920E-02 0.  1.
</event>
<event>
 5   0  0.2422436E-06  0.2044045E+04  0.7818609E-02  0.8586300E-01
        2   -1    0    0  501    0  0.00000000000E+00  0.00000000000E+00  0.60164333198E+03  0.60164333199E+03  0.25500000920E-02 0. -1.
       -2   -1    0    0    0  501  0.00000000000E+00  0.00000000000E+00 -0.17361287323E+04  0.17361287323E+04  0.25500000920E-02 0.  1.
    10030    2    1    2    0    0  0.00000000000E+00  0.00000000000E+00 -0.11344854003E+04  0.23377720643E+04  0.20440452786E+04 0.  0.
        2    1    3    3  502    0  0.47911611991E+03 -0.22017340668E+03  0.43406651060E+03  0.68296582711E+03  0.25500000920E-02 0. -1.
       -2    1    3    3    0  502 -0.47911611991E+03  0.22017340668E+03 -0.15685519109E+04  0.16548062372E+04  0.25500000920E-02 0.  1.
</event>
<event>
 5   0  0.2536619E-06  0.3651588E+04  0.7818609E-02  0.8078776E-01
        2   -1    0    0  501    0  0.00000000000E+00  0.00000000000E+00  0.29563948967E+04  0.29563948967E+04  0.25500000920E-02 0.  1.
       -2   -1    0    0    0  501  0.00000000000E+00  0.00000000000E+00 -0.11275637401E+04  0.11275637401E+04  0.25500000920E-02 0. -1.
    10030    2    1    2    0    0  0.00000000000E+00  0.00000000000E+00  0.18288311566E+04  0.40839586368E+04  0.36515879762E+04 0.  0.
        1    1    3    3  502    0  0.18031777793E+04  0.18114174738E+03  0.66618671248E+03  0.19308203366E+04  0.50400001928E-02 0. -1.
       -1    1    3    3    0  502 -0.18031777793E+04 -0.18114174738E+03  0.11626444441E+04  0.21531383002E+04  0.50400001928E-02 0.  1.
</event>
<event>
 5   0  0.8423692E-07  0.3257815E+04  0.7818609E-02  0.8173713E-01
        1   -1    0    0  501    0  0.00000000000E+00  0.00000000000E+00  0.14558814035E+04  0.14558814035E+04  0.50400001928E-02 0.  1.
       -1   -1    0    0    0  501  0.00000000000E+00  0.00000000000E+00 -0.18224970829E+04  0.18224970829E+04  0.50400001928E-02 0. -1.
    10030    2    1    2    0    0  0.00000000000E+00  0.00000000000E+00 -0.36661567940E+03  0.32783784863E+04  0.32578149799E+04 0.  0.
        2    1    3    3  502    0 -0.15176845137E+04 -0.34370093666E+03 -0.66784787151E+03  0.16933745588E+04  0.25500000920E-02 0.  1.
       -2    1    3    3    0  502  0.15176845137E+04  0.34370093666E+03  0.30123219211E+03  0.15850039276E+04  0.25500000920E-02 0. -1.
</event>
<event>
 5   0  0.8085760E-07  0.2035551E+04  0.7818609E-02  0.8590177E-01
        1   -1    0    0  501    0  0.00000000000E+00  0.00000000000E+00  0.11166873189E+04  0.11166873189E+04  0.50400001928E-02 0.  1.
       -1   -1    0    0    0  501  0.00000000000E+00  0.00000000000E+00 -0.92762512640E+03  0.92762512641E+03  0.50400001928E-02 0. -1.
    10030    2    1    2    0    0  0.00000000000E+00  0.00000000000E+00  0.18906219250E+03  0.20443124453E+04  0.20355512427E+04 0.  0.
        4    1    3    3  502    0  0.32884112306E+03  0.74105788249E+03 -0.52339129474E+03  0.96500949722E+03  0.12699999809E+01 0.  1.
       -4    1    3    3    0  502 -0.32884112306E+03 -0.74105788249E+03  0.71245348724E+03  0.10793029481E+04  0.12699999809E+01 0. -1.
</event>
<event>
 5   0  0.8452742E-07  0.3620353E+04  0.7818609E-02  0.8085845E-01
        1   -1    0    0  501    0  0.00000000000E+00  0.00000000000E+00  0.27330121214E+04  0.27330121214E+04  0.50400001928E-02 0.  1.
       -1   -1    0    0    0  501  0.00000000000E+00  0.00000000000E+00 -0.11989480493E+04  0.11989480493E+04  0.50400001928E-02 0. -1.
    10030    2    1    2    0    0  0.00000000000E+00  0.00000000000E+00  0.15340640721E+04  0.39319601707E+04  0.36203533262E+04 0.  0.
        1    1    3    3  502    0 -0.12090100344E+04  0.73705922556E+03  0.19918281628E+04  0.24438373505E+04  0.50400001928E-02 0.  1.
       -1    1    3    3    0  502  0.12090100344E+04 -0.73705922556E+03 -0.45776409066E+03  0.14881228202E+04  0.50400001928E-02 0. -1.
</event>
<event>
 5   0  0.2382711E-06  0.2711438E+04  0.7818609E-02  0.8331303E-01
        2   -1    0    0  501    0  0.00000000000E+00  0.00000000000E+00  0.28184920344E+04  0.28184920344E+04  0.25500000920E-02 0.  1.
       -2   -1    0    0    0  501  0.00000000000E+00  0.00000000000E+00 -0.65211245127E+03  0.65211245128E+03  0.25500000920E-02 0. -1.
    10030    2    1    2    0    0  0.00000000000E+00  0.00000000000E+00  0.21663795831E+04  0.34706044857E+04  0.27114378101E+04 0.  0.
        5    1    3    3  502    0  0.65021763894E+03 -0.10627802559E+04  0.39906493850E+03  0.13082659383E+04  0.46999998093E+01 0. -1.
       -5    1    3    3    0  502 -0.65021763894E+03  0.10627802559E+04  0.17673146446E+04  0.21623385474E+04  0.46999998093E+01 0.  1.
</event>
<event>
 5   0  0.8452742E-07  0.3571480E+04  0.7818609E-02  0.8097056E-01
        1   -1    0    0  501    0  0.00000000000E+00  0.00000000000E+00  0.18985479970E+04  0.18985479970E+04  0.50400001928E-02 0. -1.
       -1   -1    0    0    0  501  0.00000000000E+00  0.00000000000E+00 -0.16796344239E+04  0.16796344239E+04  0.50400001928E-02 0.  1.
    10030    2    1    2    0    0  0.00000000000E+00  0.00000000000E+00  0.21891357313E+03  0.35781824209E+04  0.35714795652E+04 0.  0.
        1    1    3    3  502    0  0.43552901980E+02  0.31896834866E+03 -0.16503217003E+04  0.16814277794E+04  0.50400001928E-02 0.  1.
       -1    1    3    3    0  502 -0.43552901980E+02 -0.31896834866E+03  0.18692352734E+04  0.18967546415E+04  0.50400001928E-02 0. -1.
</event>
<event>
 5   0  0.1566576E-06  0.2772823E+04  0.7818609E-02  0.8311756E-01
       -2   -1    0    0    0  501  0.00000000000E+00  0.00000000000E+00  0.10920233108E+04  0.10920233108E+04  0.25500000920E-02 0.  1.
        2   -1    0    0  501    0  0.00000000000E+00  0.00000000000E+00 -0.17601604210E+04  0.17601604211E+04  0.25500000920E-02 0. -1.
    10030    2    1    2    0    0  0.00000000000E+00  0.00000000000E+00 -0.66813711023E+03  0.28521837319E+04  0.27728225407E+04 0.  0.
        4    1    3    3  502    0  0.49518323824E+03 -0.74465539246E+03  0.75569541399E+03  0.11708096620E+04  0.12699999809E+01 0.  1.
       -4    1    3    3    0  502 -0.49518323824E+03  0.74465539246E+03 -0.14238325242E+04  0.16813740699E+04  0.12699999809E+01 0. -1.
</event>
<event>
 5   0  0.1566576E-06  0.2946008E+04  0.7818609E-02  0.8259319E-01
        2   -1    0    0  501    0  0.00000000000E+00  0.00000000000E+00  0.25218895301E+04  0.25218895301E+04  0.25500000920E-02 0.  1.
       -2   -1    0    0    0  501  0.00000000000E+00  0.00000000000E+00 -0.86036333171E+03  0.86036333171E+03  0.25500000920E-02 0. -1.
    10030    2    1    2    0    0  0.00000000000E+00  0.00000000000E+00  0.16615261983E+04  0.33822528618E+04  0.29460083356E+04 0.  0.
        4    1    3    3  502    0 -0.34675514542E+03  0.69633314805E+03  0.22668364889E+04  0.23965951399E+04  0.12699999809E+01 0.  1.
       -4    1    3    3    0  502  0.34675514542E+03 -0.69633314805E+03 -0.60531029059E+03  0.98565772190E+03  0.12699999809E+01 0. -1.
</event>
<event>
 5   0  0.2422436E-06  0.3432188E+04  0.7818609E-02  0.8130051E-01
        2   -1    0    0  501    0  0.00000000000E+00  0.00000000000E+00  0.21385087149E+04  0.21385087149E+04  0.25500000920E-02 0. -1.
       -2   -1    0    0    0  501  0.00000000000E+00  0.00000000000E+00 -0.13771182120E+04  0.13771182120E+04  0.25500000920E-02 0.  1.
    10030    2    1    2    0    0  0.00000000000E+00  0.00000000000E+00  0.76139050294E+03  0.35156269269E+04  0.34321883968E+04 0.  0.
        2    1    3    3  502    0  0.13682361900E+04 -0.99460260087E+03  0.84397247720E+02  0.16936432626E+04  0.25500000920E-02 0. -1.
       -2    1    3    3    0  502 -0.13682361900E+04  0.99460260087E+03  0.67699325522E+03  0.18219836643E+04  0.25500000920E-02 0.  1.
</event>
<event>
 5   0  0.7707500E-07  0.3579664E+04  0.7818609E-02  0.8095166E-01
       -3   -1    0    0    0  501  0.00000000000E+00  0.00000000000E+00  0.10893672035E+04  0.10893672082E+04  0.10100000352E+00 0. -1.
        3   -1    0    0  501    0  0.00000000000E+00  0.00000000000E+00 -0.29406961233E+04  0.29406961250E+04  0.10100000352E+00 0.  1.
    10030    2    1    2    0    0  0.00000000000E+00  0.00000000000E+00 -0.18513289198E+04  0.40300633332E+04  0.35796636295E+04 0.  0.
        5    1    3    3  502    0  0.18892365993E+03 -0.31579158899E+03  0.10463111126E+04  0.11091462984E+04  0.46999998093E+01 0. -1.
       -5    1    3    3    0  502 -0.18892365993E+03  0.31579158899E+03 -0.28976400324E+04  0.29209170348E+04  0.46999998093E+01 0.  1.
</event>
<event>
 5   0  0.8423692E-07  0.3657491E+04  0.7818609E-02  0.8077448E-01
       -1   -1    0    0    0  501  0.00000000000E+00  0.00000000000E+00  0.19607553816E+04  0.19607553816E+04  0.50400001928E-02 0.  1.
        1   -1    0    0  501    0  0.00000000000E+00  0.00000000000E+00 -0.17056236449E+04  0.17056236449E+04  0.50400001928E-02 0. -1.
    10030    2    1    2    0    0  0.00000000000E+00  0.00000000000E+00  0.25513173677E+03  0.36663790265E+04  0.36574913483E+04 0.  0.
        2    1    3    3  502    0  0.16968795639E+04 -0.90396229997E+02 -0.54990106824E+03  0.17860467288E+04  0.25500000920E-02 0. -1.
       -2    1    3    3    0  502 -0.16968795639E+04  0.90396229997E+02  0.80503280501E+03  0.18803322977E+04  0.25500000920E-02 0.  1.
</event>
<event>
 5   0  0.8452742E-07  0.3978192E+04  0.7818609E-02  0.8008960E-01
       -1   -1    0    0    0  501  0.00000000000E+00  0.00000000000E+00  0.14949887374E+04  0.14949887374E+04  0.50400001928E-02 0.  1.
        1   -1    0    0  501    0  0.00000000000E+00  0.00000000000E+00 -0.26465102985E+04  0.26465102985E+04  0.50400001928E-02 0. -1.
    10030    2    1    2    0    0  0.00000000000E+00  0.00000000000E+00 -0.11515215611E+04  0.41414990359E+04  0.39781920967E+04 0.  0.
        1    1    3    3  502    0  0.16113372294E+04 -0.11489553609E+04 -0.78396308499E+03  0.21286390503E+04  0.50400001928E-02 0. -1.
       -1    1    3    3    0  502 -0.16113372294E+04  0.11489553609E+04 -0.36755847611E+03  0.20128599855E+04  0.50400001928E-02 0.  1.
</event>
<event>
 5   0  0.8423692E-07  0.3114541E+04  0.7818609E-02  0.8211759E-01
       -1   -1    0    0    0  501  0.00000000000E+00  0.00000000000E+00  0.10462648276E+04  0.10462648276E+04  0.50400001928E-02 0.  1.
        1   -1    0    0  501    0  0.00000000000E+00  0.00000000000E+00 -0.23178564922E+04  0.23178564922E+04  0.50400001928E-02 0. -1.
    10030    2    1    2    0    0  0.00000000000E+00  0.00000000000E+00 -0.12715916647E+04  0.33641213198E+04  0.31145412010E+04 0.  0.
        2    1    3    3  502    0  0.10665356927E+04  0.11210547568E+04 -0.82544952977E+03  0.17537471533E+04  0.25500000920E-02 0. -1.
       -2    1    3    3    0  502 -0.10665356927E+04 -0.11210547568E+04 -0.44614213491E+03  0.16103741665E+04  0.25500000920E-02 0.  1.
</event>
<event>
 5   0  0.8423692E-07  0.3288591E+04  0.7818609E-02  0.8165804E-01
       -1   -1    0    0    0  501  0.00000000000E+00  0.00000000000E+00  0.24459165884E+04  0.24459165884E+04  0.50400001928E-02 0.  1.
        1   -1    0    0  501    0  0.00000000000E+00  0.00000000000E+00 -0.11053967359E+04  0.11053967359E+04  0.50400001928E-02 0. -1.
    10030    2    1    2    0    0  0.00000000000E+00  0.00000000000E+00  0.13405198525E+04  0.35513133242E+04  0.32885913173E+04 0.  0.
        2    1    3    3  502    0  0.10201120527E+04 -0.12178873341E+04  0.21231819402E+03  0.16027966728E+04  0.25500000920E-02 0. -1.
       -2    1    3    3    0  502 -0.10201120527E+04  0.12178873341E+04  0.11282016585E+04  0.19485166515E+04  0.25500000920E-02 0.  1.
</event>
<event>
 5   0  0.2536619E-06  0.3593215E+04  0.7818609E-02  0.8092048E-01
        2   -1    0    0  501    0  0.00000000000E+00  0.00000000000E+00  0.21511323274E+04  0.21511323275E+04  0.25500000920E-02 0. -1.
       -2   -1    0    0    0  501  0.00000000000E+00  0.00000000000E+00 -0.15005110037E+04  0.15005110037E+04  0.25500000920E-02 0.  1.
    10030    2    1    2    0    0  0.00000000000E+00  0.00000000000E+00  0.65062132376E+03  0.36516433311E+04  0.35932145651E+04 0.  0.
        1    1    3    3  502    0  0.79674377689E+03  0.15611598670E+03  0.19540648404E+04  0.21160203799E+04  0.50400001928E-02 0. -1.
       -1    1    3    3    0  502 -0.79674377689E+03 -0.15611598670E+03 -0.13034435167E+04  0.15356229513E+04  0.50400001928E-02 0.  1.
</event>
<event>
 5   0  0.2422436E-06  0.3835649E+04  0.7818609E-02  0.8038548E-01
       -2   -1    0    0    0  501  0.00000000000E+00  0.00000000000E+00  0.22630275688E+04  0.22630275688E+04  0.25500000920E-02 0. -1.
        2   -1    0    0  501    0  0.00000000000E+00  0.00000000000E+00 -0.16252792296E+04  0.16252792296E+04  0.25500000920E-02 0.  1.
    10030    2    1    2    0    0  0.00000000000E+00  0.00000000000E+00  0.63774833917E+03  0.38883067984E+04  0.38356494645E+04 0.  0.
        2    1    3    3  502    0 -0.42651466143E+03  0.93831512697E+03 -0.13206420551E+04  0.16752448990E+04  0.25500000920E-02 0.  1.
       -2    1    3    3    0  502  0.42651466143E+03 -0.93831512697E+03  0.19583903943E+04  0.22130618994E+04  0.25500000920E-02 0. -1.
</event>
<event>
 5   0  0.1513502E-06  0.3555183E+04  0.7818609E-02  0.8100835E-01
        2   -1    0    0  501    0  0.00000000000E+00  0.00000000000E+00  0.13944934448E+04  0.13944934448E+04  0.25500000920E-02 0. -1.
       -2   -1    0    0    0  501  0.00000000000E+00  0.00000000000E+00 -0.22659350784E+04  0.22659350784E+04  0.25500000920E-02 0.  1.
    10030    2    1    2    0    0  0.00000000000E+00  0.00000000000E+00 -0.87144163362E+03  0.36604285232E+04  0.35551830407E+04 0.  0.
        3    1    3    3  502    0  0.22786468850E+03  0.15742405303E+04 -0.12527330310E+04  0.20247211217E+04  0.10100000352E+00 0.  1.
       -3    1    3    3    0  502 -0.22786468850E+03 -0.15742405303E+04  0.38129139737E+03  0.16357074015E+04  0.10100000352E+00 0. -1.
</event>
<event>
 5   0  0.1513502E-06  0.2921249E+04  0.7818609E-02  0.8266583E-01
       -2   -1    0    0    0  501  0.00000000000E+00  0.00000000000E+00  0.12035463628E+04  0.12035463628E+04  0.25500000920E-02 0.  1.
        2   -1    0    0  501    0  0.00000000000E+00  0.00000000000E+00 -0.17726151734E+04  0.17726151734E+04  0.25500000920E-02 0. -1.
    10030    2    1    2    0    0  0.00000000000E+00  0.00000000000E+00 -0.56906881063E+03  0.29761615362E+04  0.29212494208E+04 0.  0.
        3    1    3    3  502    0 -0.46193721866E+02 -0.14278936159E+04 -0.59423961535E+03  0.15472991853E+04  0.10100000352E+00 0. -1.
       -3    1    3    3    0  502  0.46193721866E+02  0.14278936159E+04  0.25170804721E+02  0.14288623509E+04  0.10100000352E+00 0.  1.
</event>
<event>
 5   0  0.1908273E-06  0.3616580E+04  0.7818609E-02  0.8086704E-01
       -1   -1    0    0    0  501  0.00000000000E+00  0.00000000000E+00  0.17254165378E+04  0.17254165378E+04  0.50400001928E-02 0.  1.
        1   -1    0    0  501    0  0.00000000000E+00  0.00000000000E+00 -0.18951443055E+04  0.18951443055E+04  0.50400001928E-02 0. -1.
    10030    2    1    2    0    0  0.00000000000E+00  0.00000000000E+00 -0.16972776775E+03  0.36205608433E+04  0.36165803330E+04 0.  0.
        3    1    3    3  502    0  0.13816170152E+04 -0.28944241972E+03  0.10465440766E+04  0.17572413054E+04  0.10100000352E+00 0.  1.
       -3    1    3    3    0  502 -0.13816170152E+04  0.28944241972E+03 -0.12162718443E+04  0.18633195379E+04  0.10100000352E+00 0. -1.
</event>
<event>
 5   0  0.2382711E-06  0.3594049E+04  0.7818609E-02  0.8091856E-01
       -2   -1    0    0    0  501  0.00000000000E+00  0.00000000000E+00  0.15178639437E+04  0.15178639437E+04  0.25500000920E-02 0.  1.
        2   -1    0    0  501    0  0.00000000000E+00  0.00000000000E+00 -0.21275275719E+04  0.21275275719E+04  0.25500000920E-02 0. -1.
    10030    2    1    2    0    0  0.00000000000E+00  0.00000000000E+00 -0.60966362818E+03  0.36453915157E+04  0.35940491876E+04 0.  0.
        5    1    3    3  502    0 -0.51881083267E+03  0.13818559223E+04  0.73479081683E+03  0.16488268874E+04  0.46999998093E+01 0.  1.
       -5    1    3    3    0  502  0.51881083267E+03 -0.13818559223E+04 -0.13444544450E+04  0.19965646283E+04  0.46999998093E+01 0. -1.
</event>
<event>
 5   0  0.1908273E-06  0.3584165E+04  0.7818609E-02  0.8094129E-01
        1   -1    0    0  501    0  0.00000000000E+00  0.00000000000E+00  0.19772053453E+04  0.19772053453E+04  0.50400001928E-02 0.  1.
       -1   -1    0    0    0  501  0.00000000000E+00  0.00000000000E+00 -0.16242924333E+04  0.16242924333E+04  0.50400001928E-02 0. -1.
    10030    2    1    2    0    0  0.00000000000E+00  0.00000000000E+00  0.35291291203E+03  0.36014977786E+04  0.35841649970E+04 0.  0.
        3    1    3    3  502    0 -0.11352472591E+04  0.25964218359E+03  0.15451592887E+04  0.19348688950E+04  0.10100000352E+00 0.  1.
       -3    1    3    3    0  502  0.11352472591E+04 -0.25964218359E+03 -0.11922463767E+04  0.16666288837E+04  0.10100000352E+00 0. -1.
</event>
<event>
 5   0  0.2422436E-06  0.1827257E+04  0.7818609E-02  0.8691937E-01
        2   -1    0    0  501    0  0.00000000000E+00  0.00000000000E+00  0.49085943120E+03  0.49085943121E+03  0.25500000920E-02 0. -1.
       -2   -1    0    0    0  501  0.00000000000E+00  0.00000000000E+00 -0.17005217045E+04  0.17005217045E+04  0.25500000920E-02 0.  1.
    10030    2    1    2    0    0  0.00000000000E+00  0.00000000000E+00 -0.12096622733E+04  0.21913811357E+04  0.18272570882E+04 0.  0.
        2    1    3    3  502    0 -0.81097152403E+03  0.10300094169E+03 -0.10940893528E+04  0.13657655431E+04  0.25500000920E-02 0.  1.
       -2    1    3    3    0  502  0.81097152403E+03 -0.10300094169E+03 -0.11557292048E+03  0.82561559260E+03  0.25500000920E-02 0. -1.
</event>
<event>
 5   0  0.1566576E-06  0.1929720E+04  0.7818609E-02  0.8640203E-01
       -2   -1    0    0    0  501  0.00000000000E+00  0.00000000000E+00  0.32674431357E+03  0.32674431358E+03  0.25500000920E-02 0.  1.
        2   -1    0    0  501    0  0.00000000000E+00  0.00000000000E+00 -0.28491852389E+04  0.28491852389E+04  0.25500000920E-02 0. -1.
    10030    2    1    2    0    0  0.00000000000E+00  0.00000000000E+00 -0.25224409253E+04  0.31759295525E+04  0.19297202648E+04 0.  0.
        4    1    3    3  502    0 -0.44923150550E+02  0.61956804173E+03 -0.46145793492E+02  0.62290745295E+03  0.12699999809E+01 0.  1.
       -4    1    3    3    0  502  0.44923150550E+02 -0.61956804173E+03 -0.24762951318E+04  0.25530220995E+04  0.12699999809E+01 0. -1.
</event>
<event>
 5   0  0.1566576E-06  0.2580714E+04  0.7818609E-02  0.8374782E-01
        2   -1    0    0  501    0  0.00000000000E+00  0.00000000000E+00  0.21171175412E+04  0.21171175412E+04  0.25500000920E-02 0. -1.
       -2   -1    0    0    0  501  0.00000000000E+00  0.00000000000E+00 -0.78645661265E+03  0.78645661265E+03  0.25500000920E-02 0.  1.
    10030    2    1    2    0    0  0.00000000000E+00  0.00000000000E+00  0.13306609286E+04  0.29035741539E+04  0.25807139245E+04 0.  0.
        4    1    3    3  502    0 -0.11913320829E+04 -0.42831123900E+03  0.94614916356E+03  0.15804817310E+04  0.12699999809E+01 0.  1.
       -4    1    3    3    0  502  0.11913320829E+04  0.42831123900E+03  0.38451176502E+03  0.13230924229E+04  0.12699999809E+01 0. -1.
</event>
<event>
 5   0  0.1513502E-06  0.3555501E+04  0.7818609E-02  0.8100761E-01
       -2   -1    0    0    0  501  0.00000000000E+00  0.00000000000E+00  0.27071026851E+04  0.27071026851E+04  0.25500000920E-02 0. -1.
        2   -1    0    0  501    0  0.00000000000E+00  0.00000000000E+00 -0.11674465347E+04  0.11674465347E+04  0.25500000920E-02 0.  1.
    10030    2    1    2    0    0  0.00000000000E+00  0.00000000000E+00  0.15396561503E+04  0.38745492198E+04  0.35555014549E+04 0.  0.
        3    1    3    3  502    0 -0.97432945325E+03  0.12168061947E+04  0.17011916874E+04  0.23073769450E+04  0.10100000352E+00 0. -1.
       -3    1    3    3    0  502  0.97432945325E+03 -0.12168061947E+04 -0.16153553708E+03  0.15671722748E+04  0.10100000352E+00 0.  1.
</event>
<event>
 5   0  0.8423692E-07  0.1887790E+04  0.7818609E-02  0.8660958E-01
        1   -1    0    0  501    0  0.00000000000E+00  0.00000000000E+00  0.13820128862E+04  0.13820128862E+04  0.50400001928E-02 0.  1.
       -1   -1    0    0    0  501  0.00000000000E+00  0.00000000000E+00 -0.64466688094E+03  0.64466688096E+03  0.50400001928E-02 0. -1.
    10030    2    1    2    0    0  0.00000000000E+00  0.00000000000E+00  0.73734600527E+03  0.20266797672E+04  0.18877901756E+04 0.  0.
        2    1    3    3  502    0  0.84029606852E+03 -0.29462268635E+02  0.82914983119E+03  0.11808704208E+04  0.25500000920E-02 0. -1.
       -2    1    3    3    0  502 -0.84029606852E+03  0.29462268635E+02 -0.91803825921E+02  0.84580934643E+03  0.25500000920E-02 0.  1.
</event>
<event>
 5   0  0.2536619E-06  0.3362988E+04  0.7818609E-02  0.8147051E-01
       -2   -1    0    0    0  501  0.00000000000E+00  0.00000000000E+00  0.10956989677E+04  0.10956989677E+04  0.25500000920E-02 0.  1.
        2   -1    0    0  501    0  0.00000000000E+00  0.00000000000E+00 -0.25804732054E+04  0.25804732054E+04  0.25500000920E-02 0. -1.
    10030    2    1    2    0    0  0.00000000000E+00  0.00000000000E+00 -0.14847742378E+04  0.36761721731E+04  0.33629878545E+04 0.  0.
        1    1    3    3  502    0  0.91265152314E+02 -0.12307539359E+04  0.50604660825E+03  0.13338544706E+04  0.50400001928E-02 0.  1.
       -1    1    3    3    0  502 -0.91265152314E+02  0.12307539359E+04 -0.19908208460E+04  0.23423177026E+04  0.50400001928E-02 0. -1.
</event>
<event>
 5   0  0.2382711E-06  0.3503784E+04  0.7818609E-02  0.8112894E-01
       -2   -1    0    0    0  501  0.00000000000E+00  0.00000000000E+00  0.21945029444E+04  0.21945029444E+04  0.25500000920E-02 0.  1.
        2   -1    0    0  501    0  0.00000000000E+00  0.00000000000E+00 -0.13985514353E+04  0.13985514353E+04  0.25500000920E-02 0. -1.
    10030    2    1    2    0    0  0.00000000000E+00  0.00000000000E+00  0.79595150911E+03  0.35930543798E+04  0.35037838077E+04 0.  0.
        5    1    3    3  502    0  0.19501128187E+02 -0.17510304664E+04  0.34553414765E+03  0.17849100609E+04  0.46999998093E+01 0.  1.
       -5    1    3    3    0  502 -0.19501128187E+02  0.17510304664E+04  0.45041736146E+03  0.18081443189E+04  0.46999998093E+01 0. -1.
</event>
<event>
 5   0  0.2382711E-06  0.3451394E+04  0.7818609E-02  0.8125407E-01
        2   -1    0    0  501    0  0.00000000000E+00  0.00000000000E+00  0.25584777159E+04  0.25584777159E+04  0.25500000920E-02 0. -1.
       -2   -1    0    0    0  501  0.00000000000E+00  0.00000000000E+00 -0.11639850786E+04  0.11639850786E+04  0.25500000920E-02 0.  1.
    10030    2    1    2    0    0  0.00000000000E+00  0.00000000000E+00  0.13944926373E+04  0.37224627945E+04  0.34513938547E+04 0.  0.
        5    1    3    3  502    0 -0.97204415769E+03  0.96860480348E+03  0.18258242082E+04  0.22840142817E+04  0.46999998093E+01 0. -1.
       -5    1    3    3    0  502  0.97204415769E+03 -0.96860480348E+03 -0.43133157086E+03  0.14384485127E+04  0.46999998093E+01 0.  1.
</event>
<event>
 5   0  0.1513502E-06  0.3026736E+04  0.7818609E-02  0.8236137E-01
        2   -1    0    0  501    0  0.00000000000E+00  0.00000000000E+00  0.20242753019E+04  0.20242753019E+04  0.25500000920E-02 0. -1.
       -2   -1    0    0    0  501  0.00000000000E+00  0.00000000000E+00 -0.11314086307E+04  0.11314086307E+04  0.25500000920E-02 0.  1.
    10030    2    1    2    0    0  0.00000000000E+00  0.00000000000E+00  0.89286667122E+03  0.31556839326E+04  0.30267358970E+04 0.  0.
        3    1    3    3  502    0 -0.11374228744E+04  0.74773205690E+03  0.11360098208E+04  0.17729501818E+04  0.10100000352E+00 0. -1.
       -3    1    3    3    0  502  0.11374228744E+04 -0.74773205690E+03 -0.24314314957E+03  0.13827337508E+04  0.10100000352E+00 0.  1.
</event>
<event>
 5   0  0.2382711E-06  0.2822271E+04  0.7818609E-02  0.8296387E-01
        2   -1    0    0  501    0  0.00000000000E+00  0.00000000000E+00  0.11425771900E+04  0.11425771900E+04  0.25500000920E-02 0.  1.
       -2   -1    0    0    0  501  0.00000000000E+00  0.00000000000E+00 -0.17428170306E+04  0.17428170306E+04  0.25500000920E-02 0. -1.
    10030    2    1    2    0    0  0.00000000000E+00  0.00000000000E+00 -0.60023984063E+03  0.28853942206E+04  0.28222707067E+04 0.  0.
        5    1    3    3  502    0 -0.66434617162E+03 -0.64584231563E+03  0.78802203639E+03  0.12163342272E+04  0.46999998093E+01 0.  1.
       -5    1    3    3    0  502  0.66434617162E+03  0.64584231563E+03 -0.13882618770E+04  0.16690599934E+04  0.46999998093E+01 0. -1.
</event>
<event>
 5   0  0.2382711E-06  0.2308074E+04  0.7818609E-02  0.8474745E-01
       -2   -1    0    0    0  501  0.00000000000E+00  0.00000000000E+00  0.90048572594E+03  0.90048572594E+03  0.25500000920E-02 0.  1.
        2   -1    0    0  501    0  0.00000000000E+00  0.00000000000E+00 -0.14789807243E+04  0.14789807243E+04  0.25500000920E-02 0. -1.
    10030    2    1    2    0    0  0.00000000000E+00  0.00000000000E+00 -0.57849499833E+03  0.23794664502E+04  0.23080736827E+04 0.  0.
        5    1    3    3  502    0 -0.11626619663E+03  0.81210680354E+02 -0.14699528653E+04  0.14767858746E+04  0.46999998093E+01 0. -1.
       -5    1    3    3    0  502  0.11626619663E+03 -0.81210680354E+02  0.89145786697E+03  0.90268057565E+03  0.46999998093E+01 0.  1.
</event>
<event>
 5   0  0.7707500E-07  0.3647603E+04  0.7818609E-02  0.8079674E-01
       -3   -1    0    0    0  501  0.00000000000E+00  0.00000000000E+00  0.23435357371E+04  0.23435357393E+04  0.10100000352E+00 0. -1.
        3   -1    0    0  501    0  0.00000000000E+00  0.00000000000E+00 -0.14193301917E+04  0.14193301953E+04  0.10100000352E+00 0.  1.
    10030    2    1    2    0    0  0.00000000000E+00  0.00000000000E+00  0.92420554539E+03  0.37628659346E+04  0.36476025210E+04 0.  0.
        4    1    3    3  502    0 -0.15278890656E+03  0.16907839947E+04  0.11496115563E+04  0.20502934692E+04  0.12699999809E+01 0.  1.
       -4    1    3    3    0  502  0.15278890656E+03 -0.16907839947E+04 -0.22540601092E+03  0.17125724654E+04  0.12699999809E+01 0. -1.
</event>
<event>
 5   0  0.2422436E-06  0.3561033E+04  0.7818609E-02  0.8099476E-01
        2   -1    0    0  501    0  0.00000000000E+00  0.00000000000E+00  0.23415391412E+04  0.23415391412E+04  0.25500000920E-02 0.  1.
       -2   -1    0    0    0  501  0.00000000000E+00  0.00000000000E+00 -0.13539121990E+04  0.13539121990E+04  0.25500000920E-02 0. -1.
    10030    2    1    2    0    0  0.00000000000E+00  0.00000000000E+00  0.98762694225E+03  0.36954513402E+04  0.35610326635E+04 0.  0.
        2    1    3    3  502    0  0.68598480530E+03 -0.19579245862E+03  0.21867504008E+04  0.23001711143E+04  0.25500000920E-02 0.  1.
       -2    1    3    3    0  502 -0.68598480530E+03  0.19579245862E+03 -0.11991234585E+04  0.13952802259E+04  0.25500000920E-02 0. -1.
</event>
<event>
 5   0  0.2422436E-06  0.2766560E+04  0.7818609E-02  0.8313726E-01
       -2   -1    0    0    0  501  0.00000000000E+00  0.00000000000E+00  0.96990426046E+03  0.96990426047E+03  0.25500000920E-02 0. -1.
        2   -1    0    0  501    0  0.00000000000E+00  0.00000000000E+00 -0.19728380175E+04  0.19728380175E+04  0.25500000920E-02 0.  1.
    10030    2    1    2    0    0  0.00000000000E+00  0.00000000000E+00 -0.10029337570E+04  0.29427422779E+04  0.27665603181E+04 0.  0.
        2    1    3    3  502    0  0.66920771217E+03  0.10357315725E+04 -0.11681890386E+04  0.16986007424E+04  0.25500000920E-02 0.  1.
       -2    1    3    3    0  502 -0.66920771217E+03 -0.10357315725E+04  0.16525528159E+03  0.12441415355E+04  0.25500000920E-02 0. -1.
</event>
<event>
 5   0  0.8452742E-07  0.2350586E+04  0.7818609E-02  0.8458239E-01
        1   -1    0    0  501    0  0.00000000000E+00  0.00000000000E+00  0.13582310457E+04  0.13582310457E+04  0.50400001928E-02 0. -1.
       -1   -1    0    0    0  501  0.00000000000E+00  0.00000000000E+00 -0.10169944814E+04  0.10169944814E+04  0.50400001928E-02 0.  1.
    10030    2    1    2    0    0  0.00000000000E+00  0.00000000000E+00  0.34123656433E+03  0.23752255271E+04  0.23505858656E+04 0.  0.
        1    1    3    3  502    0 -0.76904037226E+03 -0.36294726439E+03 -0.64915614047E+03  0.10698399439E+04  0.50400001928E-02 0.  1.
       -1    1    3    3    0  502  0.76904037226E+03  0.36294726439E+03  0.99039270480E+03  0.13053855831E+04  0.50400001928E-02 0. -1.
</event>
<event>
 5   0  0.1566576E-06  0.2826838E+04  0.7818609E-02  0.8294984E-01
       -2   -1    0    0    0  501  0.00000000000E+00  0.00000000000E+00  0.15047489321E+04  0.15047489321E+04  0.25500000920E-02 0.  1.
        2   -1    0    0  501    0  0.00000000000E+00  0.00000000000E+00 -0.13276327372E+04  0.13276327372E+04  0.25500000920E-02 0. -1.
    10030    2    1    2    0    0  0.00000000000E+00  0.00000000000E+00  0.17711619494E+03  0.28323816693E+04  0.28268384768E+04 0.  0.
        4    1    3    3  502    0  0.93718420245E+03  0.99436003931E+03 -0.27365626636E+03  0.13935406281E+04  0.12699999809E+01 0. -1.
       -4    1    3    3    0  502 -0.93718420245E+03 -0.99436003931E+03  0.45077246130E+03  0.14388410412E+04  0.12699999809E+01 0.  1.
</event>
<event>
 5   0  0.7754556E-07  0.2308473E+04  0.7818609E-02  0.8474588E-01
        1   -1    0    0  501    0  0.00000000000E+00  0.00000000000E+00  0.11719891416E+04  0.11719891416E+04  0.50400001928E-02 0.  1.
       -1   -1    0    0    0  501  0.00000000000E+00  0.00000000000E+00 -0.11367530489E+04  0.11367530489E+04  0.50400001928E-02 0. -1.
    10030    2    1    2    0    0  0.00000000000E+00  0.00000000000E+00  0.35236092713E+02  0.23087421905E+04  0.23084732877E+04 0.  0.
        4    1    3    3  502    0 -0.23849062916E+03 -0.76300124197E+03  0.85030853439E+03  0.11670796425E+04  0.12699999809E+01 0. -1.
       -4    1    3    3    0  502  0.23849062916E+03  0.76300124197E+03 -0.81507244168E+03  0.11416625480E+04  0.12699999809E+01 0.  1.
</event>
<event>
 5   0  0.2422436E-06  0.3665844E+04  0.7818609E-02  0.8075574E-01
       -2   -1    0    0    0  501  0.00000000000E+00  0.00000000000E+00  0.13631584714E+04  0.13631584714E+04  0.25500000920E-02 0.  1.
        2   -1    0    0  501    0  0.00000000000E+00  0.00000000000E+00 -0.24645732443E+04  0.24645732443E+04  0.25500000920E-02 0. -1.
    10030    2    1    2    0    0  0.00000000000E+00  0.00000000000E+00 -0.11014147728E+04  0.38277317157E+04  0.36658444574E+04 0.  0.
        2    1    3    3  502    0 -0.87402121950E+03 -0.27185849050E+03 -0.22088480851E+04  0.23909893337E+04  0.25500000920E-02 0. -1.
       -2    1    3    3    0  502  0.87402121950E+03  0.27185849050E+03  0.11074333123E+04  0.14367423820E+04  0.25500000920E-02 0.  1.
</event>
<event>
 5   0  0.1908273E-06  0.2306917E+04  0.7818609E-02  0.8475199E-01
        1   -1    0    0  501    0  0.00000000000E+00  0.00000000000E+00  0.19141065606E+04  0.19141065606E+04  0.50400001928E-02 0. -1.
       -1   -1    0    0    0  501  0.00000000000E+00  0.00000000000E+00 -0.69508514941E+03  0.69508514942E+03  0.50400001928E-02 0.  1.
    10030    2    1    2    0    0  0.00000000000E+00  0.00000000000E+00  0.12190214112E+04  0.26091917100E+04  0.23069174625E+04 0.  0.
        3    1    3    3  502    0  0.81831093610E+03  0.69770124124E+03  0.10813645353E+04  0.15250472381E+04  0.10100000352E+00 0. -1.
       -3    1    3    3    0  502 -0.81831093610E+03 -0.69770124124E+03  0.13765687586E+03  0.10841444718E+04  0.10100000352E+00 0.  1.
</event>
<event>
 5   0  0.2536619E-06  0.3652447E+04  0.7818609E-02  0.8078583E-01
       -2   -1    0    0    0  501  0.00000000000E+00  0.00000000000E+00  0.10905496012E+04  0.10905496012E+04  0.25500000920E-02 0.  1.
        2   -1    0    0  501    0  0.00000000000E+00  0.00000000000E+00 -0.30581757971E+04  0.30581757971E+04  0.25500000920E-02 0. -1.
    10030    2    1    2    0    0  0.00000000000E+00  0.00000000000E+00 -0.19676261959E+04  0.41487253984E+04  0.36524470680E+04 0.  0.
        1    1    3    3  502    0  0.27885487632E+01 -0.11345728692E+04 -0.26092780373E+04  0.28452759528E+04  0.50400001928E-02 0. -1.
       -1    1    3    3    0  502 -0.27885487632E+01  0.11345728692E+04  0.64165184141E+03  0.13034494456E+04  0.50400001928E-02 0.  1.
</event>
<event>
 5   0  0.2382711E-06  0.3463418E+04  0.7818609E-02  0.8122515E-01
        2   -1    0    0  501    0  0.00000000000E+00  0.00000000000E+00  0.14501615539E+04  0.14501615539E+04  0.25500000920E-02 0. -1.
       -2   -1    0    0    0  501  0.00000000000E+00  0.00000000000E+00 -0.20679184796E+04  0.20679184796E+04  0.25500000920E-02 0.  1.
    10030    2    1    2    0    0  0.00000000000E+00  0.00000000000E+00 -0.61775692573E+03  0.35180800335E+04  0.34634178932E+04 0.  0.
        5    1    3    3  502    0 -0.13685316244E+04 -0.99331004724E+03  0.70173387861E+02  0.16924804434E+04  0.46999998093E+01 0.  1.
       -5    1    3    3    0  502  0.13685316244E+04  0.99331004724E+03 -0.68793031359E+03  0.18255995901E+04  0.46999998093E+01 0. -1.
</event>
<event>
 5   0  0.7754556E-07  0.2263484E+04  0.7818609E-02  0.8492460E-01
        1   -1    0    0  501    0  0.00000000000E+00  0.00000000000E+00  0.85634511225E+03  0.85634511227E+03  0.50400001928E-02 0.  1.
       -1   -1    0    0    0  501  0.00000000000E+00  0.00000000000E+00 -0.14957048569E+04  0.14957048569E+04  0.50400001928E-02 0. -1.
    10030    2    1    2    0    0  0.00000000000E+00  0.00000000000E+00 -0.63935974468E+03  0.23520499692E+04  0.22634836369E+04 0.  0.
        4    1    3    3  502    0  0.37287154347E+03  0.97840116259E+03 -0.76606490856E+03  0.12973662089E+04  0.12699999809E+01 0.  1.
       -4    1    3    3    0  502 -0.37287154347E+03 -0.97840116259E+03  0.12670516388E+03  0.10546837603E+04  0.12699999809E+01 0. -1.
</event>
<event>
 5   0  0.8423692E-07  0.3202219E+04  0.7818609E-02  0.8188231E-01
       -1   -1    0    0    0  501  0.00000000000E+00  0.00000000000E+00  0.12919990803E+04  0.12919990803E+04  0.50400001928E-02 0.  1.
        1   -1    0    0  501    0  0.00000000000E+00  0.00000000000E+00 -0.19841745675E+04  0.19841745675E+04  0.50400001928E-02 0. -1.
    10030    2    1    2    0    0  0.00000000000E+00  0.00000000000E+00 -0.69217548725E+03  0.32761736478E+04  0.32022190533E+04 0.  0.
        2    1    3    3  502    0  0.21623963802E+02 -0.12203433577E+04 -0.14062855951E+04  0.18620807398E+04  0.25500000920E-02 0. -1.
       -2    1    3    3    0  502 -0.21623963802E+02  0.12203433577E+04  0.71411010789E+03  0.14140929080E+04  0.25500000920E-02 0.  1.
</event>
<event>
 5   0  0.8423692E-07  0.3499085E+04  0.7818609E-02  0.8114007E-01
       -1   -1    0    0    0  501  0.00000000000E+00  0.00000000000E+00  0.18286429477E+04  0.18286429477E+04  0.50400001928E-02 0.  1.
        1   -1    0    0  501    0  0.00000000000E+00  0.00000000000E+00 -0.16738632037E+04  0.16738632037E+04  0.50400001928E-02 0. -1.
    10030    2    1    2    0    0  0.00000000000E+00  0.00000000000E+00  0.15477974401E+03  0.35025061515E+04  0.34990845334E+04 0.  0.
        2    1    3    3  502    0  0.49707721659E+03  0.11225072296E+04  0.13251198788E+04  0.18063916887E+04  0.25500000920E-02 0.  1.
       -2    1    3    3    0  502 -0.49707721659E+03 -0.11225072296E+04 -0.11703401347E+04  0.16961144628E+04  0.25500000920E-02 0. -1.
</event>
<event>
 5   0  0.2422436E-06  0.2267052E+04  0.7818609E-02  0.8491027E-01
        2   -1    0    0  501    0  0.00000000000E+00  0.00000000000E+00  0.16339297621E+04  0.16339297621E+04  0.25500000920E-02 0.  1.
       -2   -1    0    0    0  501  0.00000000000E+00  0.00000000000E+00 -0.78637461177E+03  0.78637461178E+03  0.25500000920E-02 0. -1.
    10030    2    1    2    0    0  0.00000000000E+00  0.00000000000E+00  0.84755515033E+03  0.24203043739E+04  0.22670517262E+04 0.  0.
        2    1    3    3  502    0  0.59864724121E+03 -0.95999234604E+03  0.34891560659E+03  0.11839366218E+04  0.25500000920E-02 0. -1.
       -2    1    3    3    0  502 -0.59864724121E+03  0.95999234604E+03  0.49863954374E+03  0.12363677521E+04  0.25500000920E-02 0.  1.
</event>
<event>
 5   0  0.2422436E-06  0.2875470E+04  0.7818609E-02  0.8280214E-01
       -2   -1    0    0    0  501  0.00000000000E+00  0.00000000000E+00  0.19576689918E+04  0.19576689918E+04  0.25500000920E-02 0.  1.
        2   -1    0    0  501    0  0.00000000000E+00  0.00000000000E+00 -0.10558892529E+04  0.10558892529E+04  0.25500000920E-02 0. -1.
    10030    2    1    2    0    0  0.00000000000E+00  0.00000000000E+00  0.90177973891E+03  0.30135582448E+04  0.28754698046E+04 0.  0.
        2    1    3    3  502    0  0.91436995575E+03  0.98044371646E+03  0.99519563344E+03  0.16696576433E+04  0.25500000920E-02 0.  1.
       -2    1    3    3    0  502 -0.91436995575E+03 -0.98044371646E+03 -0.93415894538E+02  0.13439006014E+04  0.25500000920E-02 0. -1.
</event>
<event>
 5   0  0.1566576E-06  0.3732399E+04  0.7818609E-02  0.8060820E-01
       -2   -1    0    0    0  501  0.00000000000E+00  0.00000000000E+00  0.21725196780E+04  0.21725196780E+04  0.25500000920E-02 0. -1.
        2   -1    0    0  501    0  0.00000000000E+00  0.00000000000E+00 -0.16030693274E+04  0.16030693274E+04  0.25500000920E-02 0.  1.
    10030    2    1    2    0    0  0.00000000000E+00  0.00000000000E+00  0.56945035064E+03  0.37755890053E+04  0.37323985097E+04 0.  0.
        4    1    3    3  502    0  0.10820085889E+04 -0.13963695152E+04 -0.32399198812E+03  0.17959851978E+04  0.12699999809E+01 0.  1.
       -4    1    3    3    0  502 -0.10820085889E+04  0.13963695152E+04  0.89344233876E+03  0.19796038076E+04  0.12699999809E+01 0. -1.
</event>
<event>
 5   0  0.1513502E-06  0.2001564E+04  0.7818609E-02  0.8605890E-01
        2   -1    0    0  501    0  0.00000000000E+00  0.00000000000E+00  0.13249000440E+04  0.13249000440E+04  0.25500000920E-02 0.  1.
       -2   -1    0    0    0  501  0.00000000000E+00  0.00000000000E+00 -0.75595518791E+03  0.75595518791E+03  0.25500000920E-02 0. -1.
    10030    2    1    2    0    0  0.00000000000E+00  0.00000000000E+00  0.56894485612E+03  0.20808552319E+04  0.20015644499E+04 0.  0.
        3    1    3    3  502    0 -0.22240626200E+03 -0.94425479296E+03  0.54014866044E+03  0.11103342943E+04  0.10100000352E+00 0. -1.
       -3    1    3    3    0  502  0.22240626200E+03  0.94425479296E+03  0.28796195681E+02  0.97052093769E+03  0.10100000352E+00 0.  1.
</event>
<event>
 5   0  0.2422436E-06  0.3571436E+04  0.7818609E-02  0.8097066E-01
       -2   -1    0    0    0  501  0.00000000000E+00  0.00000000000E+00  0.13053297634E+04  0.13053297634E+04  0.25500000920E-02 0.  1.
        2   -1    0    0  501    0  0.00000000000E+00  0.00000000000E+00 -0.24428986497E+04  0.24428986497E+04  0.25500000920E-02 0. -1.
    10030    2    1    2    0    0  0.00000000000E+00  0.00000000000E+00 -0.11375688862E+04  0.37482284131E+04  0.35714357429E+04 0.  0.
        2    1    3    3  502    0  0.59867711020E+03  0.16343000599E+04 -0.14972248391E+03  0.17469309633E+04  0.25500000920E-02 0.  1.
       -2    1    3    3    0  502 -0.59867711020E+03 -0.16343000599E+04 -0.98784640232E+03  0.20012974499E+04  0.25500000920E-02 0. -1.
</event>
<event>
 5   0  0.1566576E-06  0.3510914E+04  0.7818609E-02  0.8111208E-01
       -2   -1    0    0    0  501  0.00000000000E+00  0.00000000000E+00  0.14964288839E+04  0.14964288839E+04  0.25500000920E-02 0.  1.
        2   -1    0    0  501    0  0.00000000000E+00  0.00000000000E+00 -0.20593218210E+04  0.20593218210E+04  0.25500000920E-02 0. -1.
    10030    2    1    2    0    0  0.00000000000E+00  0.00000000000E+00 -0.56289293710E+03  0.35557507050E+04  0.35109136442E+04 0.  0.
        4    1    3    3  502    0  0.79319749026E+03  0.84186532327E+03  0.10559201329E+04  0.15661635997E+04  0.12699999809E+01 0.  1.
       -4    1    3    3    0  502 -0.79319749026E+03 -0.84186532327E+03 -0.16188130700E+04  0.19895871053E+04  0.12699999809E+01 0. -1.
</event>
<event>
 5   0  0.1566576E-06  0.3460087E+04  0.7818609E-02  0.8123315E-01
       -2   -1    0    0    0  501  0.00000000000E+00  0.00000000000E+00  0.12554904569E+04  0.12554904569E+04  0.25500000920E-02 0.  1.
        2   -1    0    0  501    0  0.00000000000E+00  0.00000000000E+00 -0.23839687071E+04  0.23839687071E+04  0.25500000920E-02 0. -1.
    10030    2    1    2    0    0  0.00000000000E+00  0.00000000000E+00 -0.11284782502E+04  0.36394591641E+04  0.34600866818E+04 0.  0.
        4    1    3    3  502    0  0.19525086577E+03  0.93138967143E+03 -0.20839351948E+04  0.22909380458E+04  0.12699999809E+01 0. -1.
       -4    1    3    3    0  502 -0.19525086577E+03 -0.93138967143E+03  0.95545694459E+03  0.13485211183E+04  0.12699999809E+01 0.  1.
</event>
<event>
 5   0  0.1566576E-06  0.1769608E+04  0.7818609E-02  0.8722631E-01
        2   -1    0    0  501    0  0.00000000000E+00  0.00000000000E+00  0.58343612999E+03  0.58343612999E+03  0.25500000920E-02 0.  1.
       -2   -1    0    0    0  501  0.00000000000E+00  0.00000000000E+00 -0.13418395861E+04  0.13418395861E+04  0.25500000920E-02 0. -1.
    10030    2    1    2    0    0  0.00000000000E+00  0.00000000000E+00 -0.75840345606E+03  0.19252757160E+04  0.17696075216E+04 0.  0.
        4    1    3    3  502    0  0.57520842270E+03  0.17324630899E+03 -0.10859596657E+04  0.12410435212E+04  0.12699999809E+01 0. -1.
       -4    1    3    3    0  502 -0.57520842270E+03 -0.17324630899E+03  0.32755620961E+03  0.68423219486E+03  0.12699999809E+01 0.  1.
</event>
<event>
 5   0  0.1513502E-06  0.2824594E+04  0.7818609E-02  0.8295673E-01
        2   -1    0    0  501    0  0.00000000000E+00  0.00000000000E+00  0.21682935644E+04  0.21682935644E+04  0.25500000920E-02 0.  1.
       -2   -1    0    0    0  501  0.00000000000E+00  0.00000000000E+00 -0.91988601564E+03  0.91988601564E+03  0.25500000920E-02 0. -1.
    10030    2    1    2    0    0  0.00000000000E+00  0.00000000000E+00  0.12484075488E+04  0.30881795801E+04  0.28245940790E+04 0.  0.
        3    1    3    3  502    0 -0.13301478586E+04  0.33731658717E+02  0.10657598243E+03  0.13348369191E+04  0.10100000352E+00 0.  1.
       -3    1    3    3    0  502  0.13301478586E+04 -0.33731658717E+02  0.11418315664E+04  0.17533426609E+04  0.10100000352E+00 0. -1.
</event>
<event>
 5   0  0.8423692E-07  0.3777404E+04  0.7818609E-02  0.8051021E-01
        1   -1    0    0  501    0  0.00000000000E+00  0.00000000000E+00  0.28477644478E+04  0.28477644478E+04  0.50400001928E-02 0.  1.
       -1   -1    0    0    0  501  0.00000000000E+00  0.00000000000E+00 -0.12526298331E+04  0.12526298331E+04  0.50400001928E-02 0. -1.
    10030    2    1    2    0    0  0.00000000000E+00  0.00000000000E+00  0.15951346147E+04  0.41003942809E+04  0.37774037141E+04 0.  0.
        2    1    3    3  502    0  0.22702271615E+03 -0.28551561681E+03 -0.12140296747E+04  0.12676460595E+04  0.25500000920E-02 0. -1.
       -2    1    3    3    0  502 -0.22702271615E+03  0.28551561681E+03  0.28091642894E+04  0.28327482214E+04  0.25500000920E-02 0.  1.
</event>
<event>
 5   0  0.1513502E-06  0.3446248E+04  0.7818609E-02  0.8126648E-01
        2   -1    0    0  501    0  0.00000000000E+00  0.00000000000E+00  0.20311796007E+04  0.20311796007E+04  0.25500000920E-02 0.  1.
       -2   -1    0    0    0  501  0.00000000000E+00  0.00000000000E+00 -0.14617891672E+04  0.14617891672E+04  0.25500000920E-02 0. -1.
    10030    2    1    2    0    0  0.00000000000E+00  0.00000000000E+00  0.56939043344E+03  0.34929687679E+04  0.34462480102E+04 0.  0.
        3    1    3    3  502    0 -0.92789878137E+03  0.37826317514E+03 -0.11361212336E+04  0.15148764457E+04  0.10100000352E+00 0. -1.
       -3    1    3    3    0  502  0.92789878137E+03 -0.37826317514E+03  0.17055116671E+04  0.19780923221E+04  0.10100000352E+00 0.  1.
</event>
<event>
 5   0  0.1513502E-06  0.3445596E+04  0.7818609E-02  0.8126805E-01
       -2   -1    0    0    0  501  0.00000000000E+00  0.00000000000E+00  0.11263726444E+04  0.11263726444E+04  0.25500000920E-02 0. -1.
        2   -1    0    0  501    0  0.00000000000E+00  0.00000000000E+00 -0.26350357929E+04  0.26350357929E+04  0.25500000920E-02 0.  1.
    10030    2    1    2    0    0  0.00000000000E+00  0.00000000000E+00 -0.15086631485E+04  0.37614084373E+04  0.34455955852E+04 0.  0.
        3    1    3    3  502    0 -0.72707398465E+03 -0.15567911597E+04 -0.61712575375E+03  0.18256723420E+04  0.10100000352E+00 0. -1.
       -3    1    3    3    0  502  0.72707398465E+03  0.15567911597E+04 -0.89153739479E+03  0.19357360953E+04  0.10100000352E+00 0.  1.
</event>
<event>
 5   0  0.2382711E-06  0.3646427E+04  0.7818609E-02  0.8079939E-01
        2   -1    0    0  501    0  0.00000000000E+00  0.00000000000E+00  0.19774384175E+04  0.19774384175E+04  0.25500000920E-02 0. -1.
       -2   -1    0    0    0  501  0.00000000000E+00  0.00000000000E+00 -0.16810167389E+04  0.16810167389E+04  0.25500000920E-02 0.  1.
    10030    2    1    2    0    0  0.00000000000E+00  0.00000000000E+00  0.29642167862E+03  0.36584551564E+04  0.36464267879E+04 0.  0.
        5    1    3    3  502    0 -0.13123421221E+04  0.63431436175E+03  0.12470351776E+04  0.19182584234E+04  0.46999998093E+01 0. -1.
       -5    1    3    3    0  502  0.13123421221E+04 -0.63431436175E+03 -0.95061349894E+03  0.17401967329E+04  0.46999998093E+01 0.  1.
</event>
<event>
 5   0  0.7754556E-07  0.3271974E+04  0.7818609E-02  0.8170063E-01
        1   -1    0    0  501    0  0.00000000000E+00  0.00000000000E+00  0.21513974630E+04  0.21513974630E+04  0.50400001928E-02 0.  1.
       -1   -1    0    0    0  501  0.00000000000E+00  0.00000000000E+00 -0.12440532637E+04  0.12440532637E+04  0.50400001928E-02 0. -1.
    10030    2    1    2    0    0  0.00000000000E+00  0.00000000000E+00  0.90734419935E+03  0.33954507268E+04  0.32719737379E+04 0.  0.
        4    1    3    3  502    0  0.26795498789E+03 -0.16098837727E+04  0.57165419250E+03  0.17292529502E+04  0.12699999809E+01 0. -1.
       -4    1    3    3    0  502 -0.26795498789E+03  0.16098837727E+04  0.33569000685E+03  0.16661977766E+04  0.12699999809E+01 0.  1.
</event>
<event>
 5   0  0.1634374E-06  0.1972479E+04  0.7818609E-02  0.8619597E-01
        1   -1    0    0  501    0  0.00000000000E+00  0.00000000000E+00  0.54493554244E+03  0.54493554247E+03  0.50400001928E-02 0. -1.
       -1   -1    0    0    0  501  0.00000000000E+00  0.00000000000E+00 -0.17849233032E+04  0.17849233032E+04  0.50400001928E-02 0.  1.
    10030    2    1    2    0    0  0.00000000000E+00  0.00000000000E+00 -0.12399877608E+04  0.23298588457E+04  0.19724787943E+04 0.  0.
        5    1    3    3  502    0  0.82228463271E+02  0.29288067447E+02  0.54035060506E+03  0.54737571872E+03  0.46999998093E+01 0. -1.
       -5    1    3    3    0  502 -0.82228463271E+02 -0.29288067447E+02 -0.17803383659E+04  0.17824831270E+04  0.46999998093E+01 0.  1.
</event>
<event>
 5   0  0.1908273E-06  0.2058688E+04  0.7818609E-02  0.8579663E-01
        1   -1    0    0  501    0  0.00000000000E+00  0.00000000000E+00  0.18001354745E+04  0.18001354745E+04  0.50400001928E-02 0. -1.
       -1   -1    0    0    0  501  0.00000000000E+00  0.00000000000E+00 -0.58859431703E+03  0.58859431705E+03  0.50400001928E-02 0.  1.
    10030    2    1    2    0    0  0.00000000000E+00  0.00000000000E+00  0.12115411575E+04  0.23887297916E+04  0.20586884274E+04 0.  0.
        3    1    3    3  502    0 -0.86009688715E+03 -0.34114424925E+03  0.82464769502E+02  0.92894913881E+03  0.10100000352E+00 0. -1.
       -3    1    3    3    0  502  0.86009688715E+03  0.34114424925E+03  0.11290763880E+04  0.14597806528E+04  0.10100000352E+00 0.  1.
</event>
<event>
 5   0  0.2536619E-06  0.3587292E+04  0.7818609E-02  0.8093409E-01
       -2   -1    0    0    0  501  0.00000000000E+00  0.00000000000E+00  0.21547006511E+04  0.21547006511E+04  0.25500000920E-02 0. -1.
        2   -1    0    0  501    0  0.00000000000E+00  0.00000000000E+00 -0.14930914814E+04  0.14930914814E+04  0.25500000920E-02 0.  1.
    10030    2    1    2    0    0  0.00000000000E+00  0.00000000000E+00  0.66160916975E+03  0.36477921325E+04  0.35872915616E+04 0.  0.
        1    1    3    3  502    0  0.97053955200E+03  0.73570169130E+02  0.18628009593E+04  0.21017580750E+04  0.50400001928E-02 0. -1.
       -1    1    3    3    0  502 -0.97053955200E+03 -0.73570169130E+02 -0.12011917895E+04  0.15460340575E+04  0.50400001928E-02 0.  1.
</event>
<event>
 5   0  0.2536619E-06  0.1935530E+04  0.7818609E-02  0.8637370E-01
       -2   -1    0    0    0  501  0.00000000000E+00  0.00000000000E+00  0.10377019181E+04  0.10377019181E+04  0.25500000920E-02 0.  1.
        2   -1    0    0  501    0  0.00000000000E+00  0.00000000000E+00 -0.90254186862E+03  0.90254186862E+03  0.25500000920E-02 0. -1.
    10030    2    1    2    0    0  0.00000000000E+00  0.00000000000E+00  0.13516004949E+03  0.19402437867E+04  0.19355303441E+04 0.  0.
        1    1    3    3  502    0 -0.24780749039E+03  0.74042798116E+03  0.64074797507E+03  0.10100495607E+04  0.50400001928E-02 0.  1.
       -1    1    3    3    0  502  0.24780749039E+03 -0.74042798116E+03 -0.50558792557E+03  0.93019422600E+03  0.50400001928E-02 0. -1.
</event>
<event>
 5   0  0.7754556E-07  0.3292604E+04  0.7818609E-02  0.8164780E-01
        1   -1    0    0  501    0  0.00000000000E+00  0.00000000000E+00  0.26981122245E+04  0.26981122245E+04  0.50400001928E-02 0.  1.
       -1   -1    0    0    0  501  0.00000000000E+00  0.00000000000E+00 -0.10045207607E+04  0.10045207608E+04  0.50400001928E-02 0. -1.
    10030    2    1    2    0    0  0.00000000000E+00  0.00000000000E+00  0.16935914638E+04  0.37026329853E+04  0.32926036776E+04 0.  0.
        4    1    3    3  502    0 -0.27750963579E+02 -0.10311946926E+04 -0.59601470955E+03  0.11913722159E+04  0.12699999809E+01 0. -1.
       -4    1    3    3    0  502  0.27750963579E+02  0.10311946926E+04  0.22896061733E+04  0.25112607694E+04  0.12699999809E+01 0.  1.
</event>
<event>
 5   0  0.2422436E-06  0.3635476E+04  0.7818609E-02  0.8082413E-01
       -2   -1    0    0    0  501  0.00000000000E+00  0.00000000000E+00  0.17269879017E+04  0.17269879017E+04  0.25500000920E-02 0. -1.
        2   -1    0    0  501    0  0.00000000000E+00  0.00000000000E+00 -0.19132571927E+04  0.19132571927E+04  0.25500000920E-02 0.  1.
    10030    2    1    2    0    0  0.00000000000E+00  0.00000000000E+00 -0.18626929095E+03  0.36402450944E+04  0.36354763235E+04 0.  0.
        2    1    3    3  502    0 -0.13908815177E+04  0.10762408005E+04  0.36717083844E+03  0.17965689749E+04  0.25500000920E-02 0. -1.
       -2    1    3    3    0  502  0.13908815177E+04 -0.10762408005E+04 -0.55344012939E+03  0.18436761195E+04  0.25500000920E-02 0.  1.
</event>
<event>
 5   0  0.1513502E-06  0.3632700E+04  0.7818609E-02  0.8083042E-01
        2   -1    0    0  501    0  0.00000000000E+00  0.00000000000E+00  0.10023074557E+04  0.10023074558E+04  0.25500000920E-02 0.  1.
       -2   -1    0    0    0  501  0.00000000000E+00  0.00000000000E+00 -0.32915331162E+04  0.32915331162E+04  0.25500000920E-02 0. -1.
    10030    2    1    2    0    0  0.00000000000E+00  0.00000000000E+00 -0.22892256605E+04  0.42938405720E+04  0.36327004739E+04 0.  0.
        3    1    3    3  502    0 -0.42930439267E+03  0.17648013721E+04 -0.11240709480E+04  0.21359685510E+04  0.10100000352E+00 0. -1.
       -3    1    3    3    0  502  0.42930439267E+03 -0.17648013721E+04 -0.11651547125E+04  0.21578720210E+04  0.10100000352E+00 0.  1.
</event>
<event>
 5   0  0.1513502E-06  0.3600835E+04  0.7818609E-02  0.8090301E-01
        2   -1    0    0  501    0  0.00000000000E+00  0.00000000000E+00  0.34708636058E+04  0.34708636058E+04  0.25500000920E-02 0. -1.
       -2   -1    0    0    0  501  0.00000000000E+00  0.00000000000E+00 -0.93391820601E+03  0.93391820601E+03  0.25500000920E-02 0.  1.
    10030    2    1    2    0    0  0.00000000000E+00  0.00000000000E+00  0.25369453998E+04  0.44047818118E+04  0.36008347433E+04 0.  0.
        3    1    3    3  502    0 -0.65469762200E+03  0.31700665100E+03  0.32831083645E+04  0.33627254923E+04  0.10100000352E+00 0. -1.
       -3    1    3    3    0  502  0.65469762200E+03 -0.31700665100E+03 -0.74616296471E+03  0.10420563196E+04  0.10100000352E+00 0.  1.
</event>
<event>
 5   0  0.7754556E-07  0.2144699E+04  0.7818609E-02  0.8541805E-01
       -1   -1    0    0    0  501  0.00000000000E+00  0.00000000000E+00  0.52363674911E+03  0.52363674913E+03  0.50400001928E-02 0. -1.
        1   -1    0    0  501    0  0.00000000000E+00  0.00000000000E+00 -0.21960517972E+04  0.21960517972E+04  0.50400001928E-02 0.  1.
    10030    2    1    2    0    0  0.00000000000E+00  0.00000000000E+00 -0.16724150481E+04  0.27196885463E+04  0.21446989756E+04 0.  0.
        4    1    3    3  502    0 -0.10093937381E+04  0.24557761145E+03 -0.11735018852E+04  0.15672563189E+04  0.12699999809E+01 0.  1.
       -4    1    3    3    0  502  0.10093937381E+04 -0.24557761145E+03 -0.49891316293E+03  0.11524322274E+04  0.12699999809E+01 0. -1.
</event>
<event>
 5   0  0.8423692E-07  0.2773144E+04  0.7818609E-02  0.8311655E-01
       -1   -1    0    0    0  501  0.00000000000E+00  0.00000000000E+00  0.23270378429E+04  0.23270378429E+04  0.50400001928E-02 0. -1.
        1   -1    0    0  501    0  0.00000000000E+00  0.00000000000E+00 -0.82619255196E+03  0.82619255197E+03  0.50400001928E-02 0.  1.
    10030    2    1    2    0    0  0.00000000000E+00  0.00000000000E+00  0.15008452909E+04  0.31532303949E+04  0.27731435837E+04 0.  0.
        2    1    3    3  502    0  0.11107306400E+04 -0.76256098820E+03  0.37785629683E+03  0.13992845302E+04  0.25500000920E-02 0.  1.
       -2    1    3    3    0  502 -0.11107306400E+04  0.76256098820E+03  0.11229889941E+04  0.17539458647E+04  0.25500000920E-02 0. -1.
</event>
<event>
 5   0  0.1513502E-06  0.1796192E+04  0.7818609E-02  0.8708327E-01
       -2   -1    0    0    0  501  0.00000000000E+00  0.00000000000E+00  0.26305530331E+03  0.26305530332E+03  0.25500000920E-02 0.  1.
        2   -1    0    0  501    0  0.00000000000E+00  0.00000000000E+00 -0.30661842109E+04  0.30661842109E+04  0.25500000920E-02 0. -1.
    10030    2    1    2    0    0  0.00000000000E+00  0.00000000000E+00 -0.28031289076E+04  0.33292395142E+04  0.17961915462E+04 0.  0.
        3    1    3    3  502    0 -0.35943810536E+03  0.32254450888E+03 -0.28050260047E+04  0.28462961211E+04  0.10100000352E+00 0. -1.
       -3    1    3    3    0  502  0.35943810536E+03 -0.32254450888E+03  0.18970970835E+01  0.48294339313E+03  0.10100000352E+00 0.  1.
</event>
<event>
 5   0  0.1566576E-06  0.2881396E+04  0.7818609E-02  0.8278434E-01
        2   -1    0    0  501    0  0.00000000000E+00  0.00000000000E+00  0.11119905557E+04  0.11119905557E+04  0.25500000920E-02 0.  1.
       -2   -1    0    0    0  501  0.00000000000E+00  0.00000000000E+00 -0.18665717829E+04  0.18665717829E+04  0.25500000920E-02 0. -1.
    10030    2    1    2    0    0  0.00000000000E+00  0.00000000000E+00 -0.75458122725E+03  0.29785623386E+04  0.28813956300E+04 0.  0.
        4    1    3    3  502    0  0.29593559871E+03 -0.67886122307E+03 -0.16547545559E+04  0.18129105582E+04  0.12699999809E+01 0. -1.
       -4    1    3    3    0  502 -0.29593559871E+03  0.67886122307E+03  0.90017332865E+03  0.11656517805E+04  0.12699999809E+01 0.  1.
</event>
<event>
 5   0  0.1513502E-06  0.2439890E+04  0.7818609E-02  0.8424719E-01
       -2   -1    0    0    0  501  0.00000000000E+00  0.00000000000E+00  0.11266676545E+04  0.11266676545E+04  0.25500000920E-02 0.  1.
        2   -1    0    0  501    0  0.00000000000E+00  0.00000000000E+00 -0.13209447334E+04  0.13209447334E+04  0.25500000920E-02 0. -1.
    10030    2    1    2    0    0  0.00000000000E+00  0.00000000000E+00 -0.19427707892E+03  0.24476123879E+04  0.24398899192E+04 0.  0.
        3    1    3    3  502    0  0.11321998225E+04  0.43867037868E+03 -0.21565456623E+03  0.12332132992E+04  0.10100000352E+00 0. -1.
       -3    1    3    3    0  502 -0.11321998225E+04 -0.43867037868E+03  0.21377487315E+02  0.12143990886E+04  0.10100000352E+00 0.  1.
</event>
<event>
 5   0  0.2382711E-06  0.3594622E+04  0.7818609E-02  0.8091725E-01
        2   -1    0    0  501    0  0.00000000000E+00  0.00000000000E+00  0.17954870176E+04  0.17954870176E+04  0.25500000920E-02 0. -1.
       -2   -1    0    0    0  501  0.00000000000E+00  0.00000000000E+00 -0.17991365245E+04  0.17991365245E+04  0.25500000920E-02 0.  1.
    10030    2    1    2    0    0  0.00000000000E+00  0.00000000000E+00 -0.36495068793E+01  0.35946235422E+04  0.35946216895E+04 0.  0.
        5    1    3    3  502    0 -0.15085753775E+04  0.51424809385E+03  0.82887021009E+03  0.17964683929E+04  0.46999998093E+01 0. -1.
       -5    1    3    3    0  502  0.15085753775E+04 -0.51424809385E+03 -0.83251971697E+03  0.17981551492E+04  0.46999998093E+01 0.  1.
</event>
<event>
 5   0  0.2536619E-06  0.3536518E+04  0.7818609E-02  0.8105190E-01
       -2   -1    0    0    0  501  0.00000000000E+00  0.00000000000E+00  0.19092684609E+04  0.19092684609E+04  0.25500000920E-02 0.  1.
        2   -1    0    0  501    0  0.00000000000E+00  0.00000000000E+00 -0.16376636703E+04  0.16376636703E+04  0.25500000920E-02 0. -1.
    10030    2    1    2    0    0  0.00000000000E+00  0.00000000000E+00  0.27160479065E+03  0.35469321312E+04  0.35365178327E+04 0.  0.
        1    1    3    3  502    0 -0.74863199646E+03 -0.92892927365E+03  0.14447818049E+04  0.18737005965E+04  0.50400001928E-02 0.  1.
       -1    1    3    3    0  502  0.74863199646E+03  0.92892927365E+03 -0.11731770143E+04  0.16732315346E+04  0.50400001928E-02 0. -1.
</event>
<event>
 5   0  0.1566576E-06  0.3693033E+04  0.7818609E-02  0.8069508E-01
        2   -1    0    0  501    0  0.00000000000E+00  0.00000000000E+00  0.20680111451E+04  0.20680111451E+04  0.25500000920E-02 0. -1.
       -2   -1    0    0    0  501  0.00000000000E+00  0.00000000000E+00 -0.16487450365E+04  0.16487450365E+04  0.25500000920E-02 0.  1.
    10030    2    1    2    0    0  0.00000000000E+00  0.00000000000E+00  0.41926610854E+03  0.37167561816E+04  0.36930329600E+04 0.  0.
        4    1    3    3  502    0  0.42967364889E+03 -0.85097315787E+02  0.20149678252E+04  0.20620276301E+04  0.12699999809E+01 0. -1.
       -4    1    3    3    0  502 -0.42967364889E+03  0.85097315787E+02 -0.15957017167E+04  0.16547285515E+04  0.12699999809E+01 0.  1.
</event>
<event>
 5   0  0.7707500E-07  0.3591926E+04  0.7818609E-02  0.8092344E-01
        3   -1    0    0  501    0  0.00000000000E+00  0.00000000000E+00  0.15629439090E+04  0.15629439123E+04  0.10100000352E+00 0.  1.
       -3   -1    0    0    0  501  0.00000000000E+00  0.00000000000E+00 -0.20637230079E+04  0.20637230104E+04  0.10100000352E+00 0. -1.
    10030    2    1    2    0    0  0.00000000000E+00  0.00000000000E+00 -0.50077909889E+03  0.36266669227E+04  0.35919261215E+04 0.  0.
        3    1    3    3  502    0 -0.11860822838E+03 -0.13542074569E+04  0.93464769485E+03  0.16497006006E+04  0.10100000352E+00 0.  1.
       -3    1    3    3    0  502  0.11860822838E+03  0.13542074569E+04 -0.14354267937E+04  0.19769663220E+04  0.10100000352E+00 0. -1.
</event>
<event>
 5   0  0.1513502E-06  0.3634445E+04  0.7818609E-02  0.8082647E-01
       -2   -1    0    0    0  501  0.00000000000E+00  0.00000000000E+00  0.13805914783E+04  0.13805914783E+04  0.25500000920E-02 0.  1.
        2   -1    0    0  501    0  0.00000000000E+00  0.00000000000E+00 -0.23919447387E+04  0.23919447387E+04  0.25500000920E-02 0. -1.
    10030    2    1    2    0    0  0.00000000000E+00  0.00000000000E+00 -0.10113532604E+04  0.37725362170E+04  0.36344454998E+04 0.  0.
        3    1    3    3  502    0 -0.14129605234E+04  0.44947586341E+03 -0.15962199326E+04  0.21786243540E+04  0.10100000352E+00 0.  1.
       -3    1    3    3    0  502  0.14129605234E+04 -0.44947586341E+03  0.58486667217E+03  0.15939118630E+04  0.10100000352E+00 0. -1.
</event>
<event>
 5   0  0.1566576E-06  0.3583480E+04  0.7818609E-02  0.8094286E-01
        2   -1    0    0  501    0  0.00000000000E+00  0.00000000000E+00  0.14285725061E+04  0.14285725061E+04  0.25500000920E-02 0. -1.
       -2   -1    0    0    0  501  0.00000000000E+00  0.00000000000E+00 -0.22472308140E+04  0.22472308140E+04  0.25500000920E-02 0.  1.
    10030    2    1    2    0    0  0.00000000000E+00  0.00000000000E+00 -0.81865830787E+03  0.36758033201E+04  0.35834799599E+04 0.  0.
        4    1    3    3  502    0  0.12103193482E+04  0.37029228724E+03 -0.17102066013E+04  0.21276272077E+04  0.12699999809E+01 0.  1.
       -4    1    3    3    0  502 -0.12103193482E+04 -0.37029228724E+03  0.89154829344E+03  0.15481761125E+04  0.12699999809E+01 0. -1.
</event>
<event>
 5   0  0.1566576E-06  0.1932071E+04  0.7818609E-02  0.8639055E-01
       -2   -1    0    0    0  501  0.00000000000E+00  0.00000000000E+00  0.97992844431E+03  0.97992844432E+03  0.25500000920E-02 0.  1.
        2   -1    0    0  501    0  0.00000000000E+00  0.00000000000E+00 -0.95233947842E+03  0.95233947842E+03  0.25500000920E-02 0. -1.
    10030    2    1    2    0    0  0.00000000000E+00  0.00000000000E+00  0.27588965894E+02  0.19322679227E+04  0.19320709548E+04 0.  0.
        4    1    3    3  502    0  0.12313563823E+03 -0.67326335607E+03  0.69560953726E+03  0.97586893242E+03  0.12699999809E+01 0.  1.
       -4    1    3    3    0  502 -0.12313563823E+03  0.67326335607E+03 -0.66802057137E+03  0.95639899033E+03  0.12699999809E+01 0. -1.
</event>
<event>
 5   0  0.8423692E-07  0.3438980E+04  0.7818609E-02  0.8128405E-01
        1   -1    0    0  501    0  0.00000000000E+00  0.00000000000E+00  0.18523659106E+04  0.18523659106E+04  0.50400001928E-02 0. -1.
       -1   -1    0    0    0  501  0.00000000000E+00  0.00000000000E+00 -0.15961454122E+04  0.15961454122E+04  0.50400001928E-02 0.  1.
    10030    2    1    2    0    0  0.00000000000E+00  0.00000000000E+00  0.25622049840E+03  0.34485113228E+04  0.34389797033E+04 0.  0.
        2    1    3    3  502    0  0.13505567807E+04 -0.80095627987E+03 -0.57462505569E+03  0.16720432215E+04  0.25500000920E-02 0.  1.
       -2    1    3    3    0  502 -0.13505567807E+04  0.80095627987E+03  0.83084555409E+03  0.17764681013E+04  0.25500000920E-02 0. -1.
</event>
<event>
 5   0  0.2536619E-06  0.3368634E+04  0.7818609E-02  0.8145648E-01
        2   -1    0    0  501    0  0.00000000000E+00  0.00000000000E+00  0.17900012411E+04  0.17900012411E+04  0.25500000920E-02 0.  1.
       -2   -1    0    0    0  501  0.00000000000E+00  0.00000000000E+00 -0.15848726639E+04  0.15848726639E+04  0.25500000920E-02 0. -1.
    10030    2    1    2    0    0  0.00000000000E+00  0.00000000000E+00  0.20512857720E+03  0.33748739050E+04  0.33686341656E+04 0.  0.
        1    1    3    3  502    0  0.11965852635E+04  0.88546393809E+03 -0.68696992748E+03  0.16394481876E+04  0.50400001928E-02 0. -1.
       -1    1    3    3    0  502 -0.11965852635E+04 -0.88546393809E+03  0.89209850467E+03  0.17354257174E+04  0.50400001928E-02 0.  1.
</event>
<event>
 5   0  0.1513502E-06  0.2680289E+04  0.7818609E-02  0.8341429E-01
        2   -1    0    0  501    0  0.00000000000E+00  0.00000000000E+00  0.17411489701E+04  0.17411489701E+04  0.25500000920E-02 0.  1.
       -2   -1    0    0    0  501  0.00000000000E+00  0.00000000000E+00 -0.10314953143E+04  0.10314953143E+04  0.25500000920E-02 0. -1.
    10030    2    1    2    0    0  0.00000000000E+00  0.00000000000E+00  0.70965365584E+03  0.27726442844E+04  0.26802887935E+04 0.  0.
        3    1    3    3  502    0 -0.66322125507E+03 -0.43996491471E+03  0.14701979608E+04  0.16717995136E+04  0.10100000352E+00 0.  1.
       -3    1    3    3    0  502  0.66322125507E+03  0.43996491471E+03 -0.76054430500E+03  0.11008447708E+04  0.10100000352E+00 0. -1.
</event>
<event>
 5   0  0.8452742E-07  0.3641863E+04  0.7818609E-02  0.8080969E-01
        1   -1    0    0  501    0  0.00000000000E+00  0.00000000000E+00  0.21530708070E+04  0.21530708070E+04  0.50400001928E-02 0. -1.
       -1   -1    0    0    0  501  0.00000000000E+00  0.00000000000E+00 -0.15400291426E+04  0.15400291426E+04  0.50400001928E-02 0.  1.
    10030    2    1    2    0    0  0.00000000000E+00  0.00000000000E+00  0.61304166443E+03  0.36930999496E+04  0.36418631435E+04 0.  0.
        1    1    3    3  502    0  0.16863772421E+04 -0.63143646555E+03  0.32137757203E+02  0.18010033448E+04  0.50400001928E-02 0.  1.
       -1    1    3    3    0  502 -0.16863772421E+04  0.63143646555E+03  0.58090390723E+03  0.18920966048E+04  0.50400001928E-02 0. -1.
</event>
<event>
 5   0  0.8423692E-07  0.3239199E+04  0.7818609E-02  0.8178541E-01
       -1   -1    0    0    0  501  0.00000000000E+00  0.00000000000E+00  0.16776308953E+04  0.16776308953E+04  0.50400001928E-02 0.  1.
        1   -1    0    0  501    0  0.00000000000E+00  0.00000000000E+00 -0.15635757112E+04  0.15635757112E+04  0.50400001928E-02 0. -1.
    10030    2    1    2    0    0  0.00000000000E+00  0.00000000000E+00  0.11405518406E+03  0.32412066065E+04  0.32391992345E+04 0.  0.
        2    1    3    3  502    0  0.13325139134E+04  0.69230225228E+03  0.66422090026E+03  0.16419698969E+04  0.25500000920E-02 0.  1.
       -2    1    3    3    0  502 -0.13325139134E+04 -0.69230225228E+03 -0.55016571620E+03  0.15992367096E+04  0.25500000920E-02 0. -1.
</event>
<event>
 5   0  0.1566576E-06  0.1795218E+04  0.7818609E-02  0.8708847E-01
       -2   -1    0    0    0  501  0.00000000000E+00  0.00000000000E+00  0.10895915488E+04  0.10895915488E+04  0.25500000920E-02 0. -1.
        2   -1    0    0  501    0  0.00000000000E+00  0.00000000000E+00 -0.73945318404E+03  0.73945318404E+03  0.25500000920E-02 0.  1.
    10030    2    1    2    0    0  0.00000000000E+00  0.00000000000E+00  0.35013836472E+03  0.18290447328E+04  0.17952180258E+04 0.  0.
        4    1    3    3  502    0 -0.88045603486E+03 -0.17391101341E+03  0.15888089017E+03  0.91142340329E+03  0.12699999809E+01 0.  1.
       -4    1    3    3    0  502  0.88045603486E+03  0.17391101341E+03  0.19125747455E+03  0.91762132951E+03  0.12699999809E+01 0. -1.
</event>
<event>
 5   0  0.8452742E-07  0.3522037E+04  0.7818609E-02  0.8108587E-01
        1   -1    0    0  501    0  0.00000000000E+00  0.00000000000E+00  0.19805688753E+04  0.19805688753E+04  0.50400001928E-02 0. -1.
       -1   -1    0    0    0  501  0.00000000000E+00  0.00000000000E+00 -0.15658056242E+04  0.15658056242E+04  0.50400001928E-02 0.  1.
    10030    2    1    2    0    0  0.00000000000E+00  0.00000000000E+00  0.41476325108E+03  0.35463744995E+04  0.35220368448E+04 0.  0.
        1    1    3    3  502    0  0.95349160499E+03 -0.11216593469E+04 -0.76569161030E+03  0.16593822867E+04  0.50400001928E-02 0.  1.
       -1    1    3    3    0  502 -0.95349160499E+03  0.11216593469E+04  0.11804548614E+04  0.18869922128E+04  0.50400001928E-02 0. -1.
</event>
<event>
 5   0  0.1513502E-06  0.2681088E+04  0.7818609E-02  0.8341167E-01
        2   -1    0    0  501    0  0.00000000000E+00  0.00000000000E+00  0.20002432704E+04  0.20002432704E+04  0.25500000920E-02 0. -1.
       -2   -1    0    0    0  501  0.00000000000E+00  0.00000000000E+00 -0.89841991623E+03  0.89841991624E+03  0.25500000920E-02 0.  1.
    10030    2    1    2    0    0  0.00000000000E+00  0.00000000000E+00  0.11018233542E+04  0.28986631866E+04  0.26810881309E+04 0.  0.
        3    1    3    3  502    0 -0.62869898115E+03 -0.97977788222E+03 -0.16773412233E+03  0.11761640419E+04  0.10100000352E+00 0.  1.
       -3    1    3    3    0  502  0.62869898115E+03  0.97977788222E+03  0.12695574765E+04  0.17224991448E+04  0.10100000352E+00 0. -1.
</event>
<event>
 5   0  0.2422436E-06  0.3624006E+04  0.7818609E-02  0.8085015E-01
        2   -1    0    0  501    0  0.00000000000E+00  0.00000000000E+00  0.19816955169E+04  0.19816955169E+04  0.25500000920E-02 0.  1.
       -2   -1    0    0    0  501  0.00000000000E+00  0.00000000000E+00 -0.16568411212E+04  0.16568411212E+04  0.25500000920E-02 0. -1.
    10030    2    1    2    0    0  0.00000000000E+00  0.00000000000E+00  0.32485439572E+03  0.36385366381E+04  0.36240058621E+04 0.  0.
        2    1    3    3  502    0 -0.15992847073E+04 -0.85128537071E+03  0.19347471928E+03  0.18220402916E+04  0.25500000920E-02 0.  1.
       -2    1    3    3    0  502  0.15992847073E+04  0.85128537071E+03  0.13137967643E+03  0.18164963465E+04  0.25500000920E-02 0. -1.
</event>
<event>
 5   0  0.1513502E-06  0.3577632E+04  0.7818609E-02  0.8095635E-01
        2   -1    0    0  501    0  0.00000000000E+00  0.00000000000E+00  0.15476077014E+04  0.15476077014E+04  0.25500000920E-02 0. -1.
       -2   -1    0    0    0  501  0.00000000000E+00  0.00000000000E+00 -0.20676184697E+04  0.20676184697E+04  0.25500000920E-02 0.  1.
    10030    2    1    2    0    0  0.00000000000E+00  0.00000000000E+00 -0.52001076832E+03  0.36152261711E+04  0.35776317682E+04 0.  0.
        3    1    3    3  502    0  0.16713632256E+04  0.11592572209E+03 -0.89346462665E+03  0.18987292735E+04  0.10100000352E+00 0.  1.
       -3    1    3    3    0  502 -0.16713632256E+04 -0.11592572209E+03  0.37345385833E+03  0.17164968976E+04  0.10100000352E+00 0. -1.
</event>
<event>
 5   0  0.1908273E-06  0.3627863E+04  0.7818609E-02  0.8084139E-01
       -1   -1    0    0    0  501  0.00000000000E+00  0.00000000000E+00  0.17294255930E+04  0.17294255930E+04  0.50400001928E-02 0. -1.
        1   -1    0    0  501    0  0.00000000000E+00  0.00000000000E+00 -0.19025669842E+04  0.19025669842E+04  0.50400001928E-02 0.  1.
    10030    2    1    2    0    0  0.00000000000E+00  0.00000000000E+00 -0.17314139125E+03  0.36319925772E+04  0.36278633022E+04 0.  0.
        3    1    3    3  502    0 -0.59267913109E+02  0.12134876328E+04  0.12619156891E+04  0.17517123443E+04  0.10100000352E+00 0. -1.
       -3    1    3    3    0  502  0.59267913109E+02 -0.12134876328E+04 -0.14350570803E+04  0.18802802330E+04  0.10100000352E+00 0.  1.
</event>
<event>
 5   0  0.8423692E-07  0.3526276E+04  0.7818609E-02  0.8107591E-01
        1   -1    0    0  501    0  0.00000000000E+00  0.00000000000E+00  0.19966197519E+04  0.19966197519E+04  0.50400001928E-02 0.  1.
       -1   -1    0    0    0  501  0.00000000000E+00  0.00000000000E+00 -0.15569588730E+04  0.15569588730E+04  0.50400001928E-02 0. -1.
    10030    2    1    2    0    0  0.00000000000E+00  0.00000000000E+00  0.43966087886E+03  0.35535786249E+04  0.35262755642E+04 0.  0.
        2    1    3    3  502    0 -0.66234124527E+03  0.86039846238E+03  0.16197129455E+04  0.19499875551E+04  0.25500000920E-02 0.  1.
       -2    1    3    3    0  502  0.66234124527E+03 -0.86039846238E+03 -0.11800520666E+04  0.16035910698E+04  0.25500000920E-02 0. -1.
</event>
<event>
 5   0  0.1513502E-06  0.3697312E+04  0.7818609E-02  0.8068558E-01
        2   -1    0    0  501    0  0.00000000000E+00  0.00000000000E+00  0.20840281383E+04  0.20840281383E+04  0.25500000920E-02 0. -1.
       -2   -1    0    0    0  501  0.00000000000E+00  0.00000000000E+00 -0.16398667521E+04  0.16398667521E+04  0.25500000920E-02 0.  1.
    10030    2    1    2    0    0  0.00000000000E+00  0.00000000000E+00  0.44416138616E+03  0.37238948904E+04  0.36973117014E+04 0.  0.
        3    1    3    3  502    0  0.14895442949E+04 -0.86241242420E+03  0.90149058300E+03  0.19429829329E+04  0.10100000352E+00 0. -1.
       -3    1    3    3    0  502 -0.14895442949E+04  0.86241242420E+03 -0.45732919683E+03  0.17809119575E+04  0.10100000352E+00 0.  1.
</event>
<event>
 5   0  0.2382711E-06  0.1951100E+04  0.7818609E-02  0.8629831E-01
        2   -1    0    0  501    0  0.00000000000E+00  0.00000000000E+00  0.59571131835E+03  0.59571131835E+03  0.25500000920E-02 0. -1.
       -2   -1    0    0    0  501  0.00000000000E+00  0.00000000000E+00 -0.15975815453E+04  0.15975815453E+04  0.25500000920E-02 0.  1.
    10030    2    1    2    0    0  0.00000000000E+00  0.00000000000E+00 -0.10018702269E+04  0.21932928636E+04  0.19510995961E+04 0.  0.
        5    1    3    3  502    0  0.40467621984E+03 -0.78779783950E+03 -0.41156957096E+02  0.88662521053E+03  0.46999998093E+01 0. -1.
       -5    1    3    3    0  502 -0.40467621984E+03  0.78779783950E+03 -0.96071326984E+03  0.13066676531E+04  0.46999998093E+01 0.  1.
</event>
<event>
 5   0  0.1566576E-06  0.2414397E+04  0.7818609E-02  0.8434133E-01
       -2   -1    0    0    0  501  0.00000000000E+00  0.00000000000E+00  0.80919329092E+03  0.80919329093E+03  0.25500000920E-02 0.  1.
        2   -1    0    0  501    0  0.00000000000E+00  0.00000000000E+00 -0.18009636491E+04  0.18009636491E+04  0.25500000920E-02 0. -1.
    10030    2    1    2    0    0  0.00000000000E+00  0.00000000000E+00 -0.99177035819E+03  0.26101569400E+04  0.24143965723E+04 0.  0.
        4    1    3    3  502    0  0.76645622694E+03  0.85249406193E+03 -0.86892546213E+02  0.11496752589E+04  0.12699999809E+01 0.  1.
       -4    1    3    3    0  502 -0.76645622694E+03 -0.85249406193E+03 -0.90487781198E+03  0.14604816811E+04  0.12699999809E+01 0. -1.
</event>
<event>
 5   0  0.8423692E-07  0.2049605E+04  0.7818609E-02  0.8583773E-01
        1   -1    0    0  501    0  0.00000000000E+00  0.00000000000E+00  0.22117800744E+04  0.22117800745E+04  0.50400001928E-02 0. -1.
       -1   -1    0    0    0  501  0.00000000000E+00  0.00000000000E+00 -0.47483049705E+03  0.47483049708E+03  0.50400001928E-02 0.  1.
    10030    2    1    2    0    0  0.00000000000E+00  0.00000000000E+00  0.17369495774E+04  0.26866105715E+04  0.20496054568E+04 0.  0.
        2    1    3    3  502    0  0.53528772931E+02  0.76217446825E+03  0.17637052472E+04  0.19220903851E+04  0.25500000920E-02 0. -1.
       -2    1    3    3    0  502 -0.53528772931E+02 -0.76217446825E+03 -0.26755669781E+02  0.76452018642E+03  0.25500000920E-02 0.  1.
</event>
<event>
 5   0  0.8855982E-07  0.1993094E+04  0.7818609E-02  0.8609856E-01
        1   -1    0    0  501    0  0.00000000000E+00  0.00000000000E+00  0.18514310902E+04  0.18514310902E+04  0.50400001928E-02 0.  1.
       -1   -1    0    0    0  501  0.00000000000E+00  0.00000000000E+00 -0.53639930816E+03  0.53639930819E+03  0.50400001928E-02 0. -1.
    10030    2    1    2    0    0  0.00000000000E+00  0.00000000000E+00  0.13150317820E+04  0.23878303983E+04  0.19930944342E+04 0.  0.
        4    1    3    3  502    0  0.56700236273E+02 -0.65998624243E+03  0.15494877812E+04  0.16851441345E+04  0.12699999809E+01 0.  1.
       -4    1    3    3    0  502 -0.56700236273E+02  0.65998624243E+03 -0.23445599919E+03  0.70268626388E+03  0.12699999809E+01 0. -1.
</event>
<event>
 5   0  0.1908273E-06  0.3596754E+04  0.7818609E-02  0.8091236E-01
        1   -1    0    0  501    0  0.00000000000E+00  0.00000000000E+00  0.24802855312E+04  0.24802855312E+04  0.50400001928E-02 0.  1.
       -1   -1    0    0    0  501  0.00000000000E+00  0.00000000000E+00 -0.13039464117E+04  0.13039464117E+04  0.50400001928E-02 0. -1.
    10030    2    1    2    0    0  0.00000000000E+00  0.00000000000E+00  0.11763391194E+04  0.37842319429E+04  0.35967537688E+04 0.  0.
        3    1    3    3  502    0  0.17460142304E+04  0.15054127283E+03  0.16348257118E+03  0.17601008292E+04  0.10100000352E+00 0. -1.
       -3    1    3    3    0  502 -0.17460142304E+04 -0.15054127283E+03  0.10128565483E+04  0.20241311137E+04  0.10100000352E+00 0.  1.
</event>
<event>
 5   0  0.8452742E-07  0.3693082E+04  0.7818609E-02  0.8069497E-01
        1   -1    0    0  501    0  0.00000000000E+00  0.00000000000E+00  0.26979762701E+04  0.26979762701E+04  0.50400001928E-02 0.  1.
       -1   -1    0    0    0  501  0.00000000000E+00  0.00000000000E+00 -0.12638040827E+04  0.12638040827E+04  0.50400001928E-02 0. -1.
    10030    2    1    2    0    0  0.00000000000E+00  0.00000000000E+00  0.14341721874E+04  0.39617803528E+04  0.36930818703E+04 0.  0.
        1    1    3    3  502    0  0.36324512109E+03 -0.53332528178E+03 -0.11389174351E+04  0.13090132918E+04  0.50400001928E-02 0. -1.
       -1    1    3    3    0  502 -0.36324512109E+03  0.53332528178E+03  0.25730896225E+04  0.26527670610E+04  0.50400001928E-02 0.  1.
</event>
<event>
 5   0  0.2422436E-06  0.2051187E+04  0.7818609E-02  0.8583056E-01
       -2   -1    0    0    0  501  0.00000000000E+00  0.00000000000E+00  0.66375179515E+03  0.66375179516E+03  0.25500000920E-02 0.  1.
        2   -1    0    0  501    0  0.00000000000E+00  0.00000000000E+00 -0.15846916744E+04  0.15846916744E+04  0.25500000920E-02 0. -1.
    10030    2    1    2    0    0  0.00000000000E+00  0.00000000000E+00 -0.92093987926E+03  0.22484434696E+04  0.20511869185E+04 0.  0.
        2    1    3    3  502    0  0.63522484523E+03  0.53390296822E+03  0.20021872813E+03  0.85361028729E+03  0.25500000920E-02 0.  1.
       -2    1    3    3    0  502 -0.63522484523E+03 -0.53390296822E+03 -0.11211586074E+04  0.13948331823E+04  0.25500000920E-02 0. -1.
</event>
<event>
 5   0  0.8423692E-07  0.2669912E+04  0.7818609E-02  0.8344834E-01
        1   -1    0    0  501    0  0.00000000000E+00  0.00000000000E+00  0.11690327929E+04  0.11690327929E+04  0.50400001928E-02 0. -1.
       -1   -1    0    0    0  501  0.00000000000E+00  0.00000000000E+00 -0.15244288141E+04  0.15244288141E+04  0.50400001928E-02 0.  1.
    10030    2    1    2    0    0  0.00000000000E+00  0.00000000000E+00 -0.35539602115E+03  0.26934616070E+04  0.26699118144E+04 0.  0.
        2    1    3    3  502    0 -0.91125825366E+03  0.91168317682E+03 -0.52796281217E+03  0.13929474329E+04  0.25500000920E-02 0.  1.
       -2    1    3    3    0  502  0.91125825366E+03 -0.91168317682E+03  0.17256679102E+03  0.13005141741E+04  0.25500000920E-02 0. -1.
</event>
<event>
 5   0  0.1513502E-06  0.2546291E+04  0.7818609E-02  0.8386677E-01
        2   -1    0    0  501    0  0.00000000000E+00  0.00000000000E+00  0.12929125774E+04  0.12929125774E+04  0.25500000920E-02 0. -1.
       -2   -1    0    0    0  501  0.00000000000E+00  0.00000000000E+00 -0.12536808573E+04  0.12536808573E+04  0.25500000920E-02 0.  1.
    10030    2    1    2    0    0  0.00000000000E+00  0.00000000000E+00  0.39231720120E+02  0.25465934346E+04  0.25462912232E+04 0.  0.
        3    1    3    3  502    0 -0.91923852052E+03 -0.37380587386E+03  0.81731283770E+03  0.12855856929E+04  0.10100000352E+00 0. -1.
       -3    1    3    3    0  502  0.91923852052E+03  0.37380587386E+03 -0.77808111758E+03  0.12610077417E+04  0.10100000352E+00 0.  1.
</event>
<event>
 5   0  0.1566576E-06  0.2136247E+04  0.7818609E-02  0.8545442E-01
        2   -1    0    0  501    0  0.00000000000E+00  0.00000000000E+00  0.74031310387E+03  0.74031310388E+03  0.25500000920E-02 0. -1.
       -2   -1    0    0    0  501  0.00000000000E+00  0.00000000000E+00 -0.15410880140E+04  0.15410880140E+04  0.25500000920E-02 0.  1.
    10030    2    1    2    0    0  0.00000000000E+00  0.00000000000E+00 -0.80077491014E+03  0.22814011179E+04  0.21362468500E+04 0.  0.
        4    1    3    3  502    0 -0.68013020883E+03 -0.51723951207E+03 -0.10848516734E+04  0.13809484350E+04  0.12699999809E+01 0.  1.
       -4    1    3    3    0  502  0.68013020883E+03  0.51723951207E+03  0.28407676331E+03  0.90045268291E+03  0.12699999809E+01 0. -1.
</event>
<event>
 5   0  0.7754556E-07  0.3496806E+04  0.7818609E-02  0.8114547E-01
        1   -1    0    0  501    0  0.00000000000E+00  0.00000000000E+00  0.35334660960E+04  0.35334660960E+04  0.50400001928E-02 0. -1.
       -1   -1    0    0    0  501  0.00000000000E+00  0.00000000000E+00 -0.86513147937E+03  0.86513147939E+03  0.50400001928E-02 0.  1.
    10030    2    1    2    0    0  0.00000000000E+00  0.00000000000E+00  0.26683346167E+04  0.43985975754E+04  0.34968058288E+04 0.  0.
        4    1    3    3  502    0 -0.66347196943E+03  0.84280355839E+03  0.30709661787E+04  0.32528983654E+04  0.12699999809E+01 0. -1.
       -4    1    3    3    0  502  0.66347196943E+03 -0.84280355839E+03 -0.40263156199E+03  0.11456992100E+04  0.12699999809E+01 0.  1.
</event>
<event>
 5   0  0.1513502E-06  0.3535620E+04  0.7818609E-02  0.8105400E-01
        2   -1    0    0  501    0  0.00000000000E+00  0.00000000000E+00  0.17286090863E+04  0.17286090863E+04  0.25500000920E-02 0.  1.
       -2   -1    0    0    0  501  0.00000000000E+00  0.00000000000E+00 -0.18078997218E+04  0.18078997218E+04  0.25500000920E-02 0. -1.
    10030    2    1    2    0    0  0.00000000000E+00  0.00000000000E+00 -0.79290635596E+02  0.35365088081E+04  0.35356198247E+04 0.  0.
        3    1    3    3  502    0 -0.11631551997E+04 -0.81043528915E+03  0.10167530363E+04  0.17445693232E+04  0.10100000352E+00 0.  1.
       -3    1    3    3    0  502  0.11631551997E+04  0.81043528915E+03 -0.10960436719E+04  0.17919394849E+04  0.10100000352E+00 0. -1.
</event>
<event>
 5   0  0.2536619E-06  0.3642948E+04  0.7818609E-02  0.8080724E-01
       -2   -1    0    0    0  501  0.00000000000E+00  0.00000000000E+00  0.31236351195E+04  0.31236351195E+04  0.25500000920E-02 0.  1.
        2   -1    0    0  501    0  0.00000000000E+00  0.00000000000E+00 -0.10621493024E+04  0.10621493024E+04  0.25500000920E-02 0. -1.
    10030    2    1    2    0    0  0.00000000000E+00  0.00000000000E+00  0.20614858171E+04  0.41857844219E+04  0.36429476324E+04 0.  0.
        1    1    3    3  502    0  0.10259997190E+04  0.14819473173E+04  0.72908975581E+03  0.19443289708E+04  0.50400001928E-02 0. -1.
       -1    1    3    3    0  502 -0.10259997190E+04 -0.14819473173E+04  0.13323960613E+04  0.22414554510E+04  0.50400001928E-02 0.  1.
</event>
<event>
 5   0  0.1513502E-06  0.3160657E+04  0.7818609E-02  0.8199286E-01
        2   -1    0    0  501    0  0.00000000000E+00  0.00000000000E+00  0.19060652867E+04  0.19060652867E+04  0.25500000920E-02 0. -1.
       -2   -1    0    0    0  501  0.00000000000E+00  0.00000000000E+00 -0.13102581435E+04  0.13102581435E+04  0.25500000920E-02 0.  1.
    10030    2    1    2    0    0  0.00000000000E+00  0.00000000000E+00  0.59580714321E+03  0.32163234303E+04  0.31606566179E+04 0.  0.
        3    1    3    3  502    0  0.78259649287E+03 -0.13690615952E+04  0.19288403887E+03  0.15887073944E+04  0.10100000352E+00 0.  1.
       -3    1    3    3    0  502 -0.78259649287E+03  0.13690615952E+04  0.40292310435E+03  0.16276160359E+04  0.10100000352E+00 0. -1.
</event>
<event>
 5   0  0.7754556E-07  0.2598587E+04  0.7818609E-02  0.8368681E-01
       -1   -1    0    0    0  501  0.00000000000E+00  0.00000000000E+00  0.15414048509E+04  0.15414048509E+04  0.50400001928E-02 0. -1.
        1   -1    0    0  501    0  0.00000000000E+00  0.00000000000E+00 -0.10952106286E+04  0.10952106286E+04  0.50400001928E-02 0.  1.
    10030    2    1    2    0    0  0.00000000000E+00  0.00000000000E+00  0.44619422233E+03  0.26366154795E+04  0.25985865201E+04 0.  0.
        4    1    3    3  502    0  0.10855087202E+04 -0.22770165172E+03 -0.46355195703E+03  0.12021061740E+04  0.12699999809E+01 0.  1.
       -4    1    3    3    0  502 -0.10855087202E+04  0.22770165172E+03  0.90974617937E+03  0.14345093055E+04  0.12699999809E+01 0. -1.
</event>
<event>
 5   0  0.2382711E-06  0.3593928E+04  0.7818609E-02  0.8091884E-01
        2   -1    0    0  501    0  0.00000000000E+00  0.00000000000E+00  0.15642922714E+04  0.15642922714E+04  0.25500000920E-02 0. -1.
       -2   -1    0    0    0  501  0.00000000000E+00  0.00000000000E+00 -0.20642432589E+04  0.20642432589E+04  0.25500000920E-02 0.  1.
    10030    2    1    2    0    0  0.00000000000E+00  0.00000000000E+00 -0.49995098745E+03  0.36285355303E+04  0.35939280885E+04 0.  0.
        5    1    3    3  502    0  0.59809868987E+03 -0.44954045190E+02  0.14602410157E+04  0.15786287793E+04  0.46999998093E+01 0. -1.
       -5    1    3    3    0  502 -0.59809868987E+03  0.44954045190E+02 -0.19601920031E+04  0.20499067511E+04  0.46999998093E+01 0.  1.
</event>
<event>
 5   0  0.2536619E-06  0.2126211E+04  0.7818609E-02  0.8549784E-01
        2   -1    0    0  501    0  0.00000000000E+00  0.00000000000E+00  0.19322629994E+04  0.19322629994E+04  0.25500000920E-02 0. -1.
       -2   -1    0    0    0  501  0.00000000000E+00  0.00000000000E+00 -0.58490675897E+03  0.58490675898E+03  0.25500000920E-02 0.  1.
    10030    2    1    2    0    0  0.00000000000E+00  0.00000000000E+00  0.13473562405E+04  0.25171697584E+04  0.21262113615E+04 0.  0.
        1    1    3    3  502    0  0.84591334570E+03  0.56191020878E+03  0.10459523494E+04  0.14578507429E+04  0.50400001928E-02 0. -1.
       -1    1    3    3    0  502 -0.84591334570E+03 -0.56191020878E+03  0.30140389104E+03  0.10593190156E+04  0.50400001928E-02 0.  1.
</event>
<event>
 5   0  0.2536619E-06  0.2462544E+04  0.7818609E-02  0.8416452E-01
       -2   -1    0    0    0  501  0.00000000000E+00  0.00000000000E+00  0.13297641643E+04  0.13297641643E+04  0.25500000920E-02 0.  1.
        2   -1    0    0  501    0  0.00000000000E+00  0.00000000000E+00 -0.11400752367E+04  0.11400752367E+04  0.25500000920E-02 0. -1.
    10030    2    1    2    0    0  0.00000000000E+00  0.00000000000E+00  0.18968892763E+03  0.24698394010E+04  0.24625443707E+04 0.  0.
        1    1    3    3  502    0  0.56184389130E+03  0.10262363137E+04  0.47964973336E+03  0.12644735650E+04  0.50400001928E-02 0. -1.
       -1    1    3    3    0  502 -0.56184389130E+03 -0.10262363137E+04 -0.28996080573E+03  0.12053658360E+04  0.50400001928E-02 0.  1.
</event>
<event>
 5   0  0.1634374E-06  0.2781222E+04  0.7818609E-02  0.8309122E-01
       -1   -1    0    0    0  501  0.00000000000E+00  0.00000000000E+00  0.16263239059E+04  0.16263239059E+04  0.50400001928E-02 0. -1.
        1   -1    0    0  501    0  0.00000000000E+00  0.00000000000E+00 -0.11890611724E+04  0.11890611724E+04  0.50400001928E-02 0.  1.
    10030    2    1    2    0    0  0.00000000000E+00  0.00000000000E+00  0.43726273353E+03  0.28153850783E+04  0.27812217533E+04 0.  0.
        5    1    3    3  502    0 -0.36924794146E+03 -0.12480741012E+04  0.71428195059E+03  0.14846729604E+04  0.46999998093E+01 0. -1.
       -5    1    3    3    0  502  0.36924794146E+03  0.12480741012E+04 -0.27701921706E+03  0.13307121180E+04  0.46999998093E+01 0.  1.
</event>
<event>
 5   0  0.1513502E-06  0.2707529E+04  0.7818609E-02  0.8332566E-01
        2   -1    0    0  501    0  0.00000000000E+00  0.00000000000E+00  0.15410065026E+04  0.15410065026E+04  0.25500000920E-02 0. -1.
       -2   -1    0    0    0  501  0.00000000000E+00  0.00000000000E+00 -0.11892732618E+04  0.11892732618E+04  0.25500000920E-02 0.  1.
    10030    2    1    2    0    0  0.00000000000E+00  0.00000000000E+00  0.35173324085E+03  0.27302797644E+04  0.27075286368E+04 0.  0.
        3    1    3    3  502    0  0.96506924033E+03 -0.30814380156E+03 -0.72965818412E+03  0.12484840075E+04  0.10100000352E+00 0.  1.
       -3    1    3    3    0  502 -0.96506924033E+03  0.30814380156E+03  0.10813914250E+04  0.14817957569E+04  0.10100000352E+00 0. -1.
</event>
<event>
 5   0  0.8423692E-07  0.3492709E+04  0.7818609E-02  0.8115520E-01
        1   -1    0    0  501    0  0.00000000000E+00  0.00000000000E+00  0.18223713240E+04  0.18223713240E+04  0.50400001928E-02 0.  1.
       -1   -1    0    0    0  501  0.00000000000E+00  0.00000000000E+00 -0.16735090269E+04  0.16735090269E+04  0.50400001928E-02 0. -1.
    10030    2    1    2    0    0  0.00000000000E+00  0.00000000000E+00  0.14886229712E+03  0.34958803509E+04  0.34927094703E+04 0.  0.
        2    1    3    3  502    0 -0.12735816913E+04  0.51628913058E+03  0.11529947378E+04  0.17938677923E+04  0.25500000920E-02 0.  1.
       -2    1    3    3    0  502  0.12735816913E+04 -0.51628913058E+03 -0.10041324407E+04  0.17020125585E+04  0.25500000920E-02 0. -1.
</event>
<event>
 5   0  0.8423692E-07  0.3578052E+04  0.7818609E-02  0.8095538E-01
        1   -1    0    0  501    0  0.00000000000E+00  0.00000000000E+00  0.29001630251E+04  0.29001630251E+04  0.50400001928E-02 0. -1.
       -1   -1    0    0    0  501  0.00000000000E+00  0.00000000000E+00 -0.11035981185E+04  0.11035981185E+04  0.50400001928E-02 0.  1.
    10030    2    1    2    0    0  0.00000000000E+00  0.00000000000E+00  0.17965649065E+04  0.40037611436E+04  0.35780522399E+04 0.  0.
        2    1    3    3  502    0  0.41910325520E+03 -0.22069282289E+03 -0.10321607734E+04  0.11356534342E+04  0.25500000920E-02 0.  1.
       -2    1    3    3    0  502 -0.41910325520E+03  0.22069282289E+03  0.28287256799E+04  0.28681077094E+04  0.25500000920E-02 0. -1.
</event>
<event>
 5   0  0.2536619E-06  0.2705903E+04  0.7818609E-02  0.8333092E-01
        2   -1    0    0  501    0  0.00000000000E+00  0.00000000000E+00  0.16019953958E+04  0.16019953958E+04  0.25500000920E-02 0.  1.
       -2   -1    0    0    0  501  0.00000000000E+00  0.00000000000E+00 -0.11426236264E+04  0.11426236264E+04  0.25500000920E-02 0. -1.
    10030    2    1    2    0    0  0.00000000000E+00  0.00000000000E+00  0.45937176941E+03  0.27446190223E+04  0.27059030202E+04 0.  0.
        1    1    3    3  502    0  0.70563568269E+03 -0.11368921718E+04  0.43262927205E+03  0.14062765070E+04  0.50400001928E-02 0. -1.
       -1    1    3    3    0  502 -0.70563568269E+03  0.11368921718E+04  0.26742497368E+02  0.13383425153E+04  0.50400001928E-02 0.  1.
</event>
<event>
 5   0  0.8452742E-07  0.3572938E+04  0.7818609E-02  0.8096719E-01
        1   -1    0    0  501    0  0.00000000000E+00  0.00000000000E+00  0.25112094866E+04  0.25112094866E+04  0.50400001928E-02 0. -1.
       -1   -1    0    0    0  501  0.00000000000E+00  0.00000000000E+00 -0.12708903170E+04  0.12708903170E+04  0.50400001928E-02 0.  1.
    10030    2    1    2    0    0  0.00000000000E+00  0.00000000000E+00  0.12403191696E+04  0.37820998037E+04  0.35729381862E+04 0.  0.
        1    1    3    3  502    0  0.54340019186E+03 -0.14457816883E+04 -0.33011467583E+03  0.15794125990E+04  0.50400001928E-02 0.  1.
       -1    1    3    3    0  502 -0.54340019186E+03  0.14457816883E+04  0.15704338454E+04  0.22026872047E+04  0.50400001928E-02 0. -1.
</event>
<event>
 5   0  0.7754556E-07  0.1852338E+04  0.7818609E-02  0.8678951E-01
        1   -1    0    0  501    0  0.00000000000E+00  0.00000000000E+00  0.14686346948E+04  0.14686346948E+04  0.50400001928E-02 0.  1.
       -1   -1    0    0    0  501  0.00000000000E+00  0.00000000000E+00 -0.58407239219E+03  0.58407239221E+03  0.50400001928E-02 0. -1.
    10030    2    1    2    0    0  0.00000000000E+00  0.00000000000E+00  0.88456230263E+03  0.20527070870E+04  0.18523379600E+04 0.  0.
        4    1    3    3  502    0  0.59984548661E+03 -0.70289127987E+03  0.51163359652E+03  0.10562392291E+04  0.12699999809E+01 0.  1.
       -4    1    3    3    0  502 -0.59984548661E+03  0.70289127987E+03  0.37292870611E+03  0.99646785792E+03  0.12699999809E+01 0. -1.
</event>
<event>
 5   0  0.8423692E-07  0.3704677E+04  0.7818609E-02  0.8066926E-01
        1   -1    0    0  501    0  0.00000000000E+00  0.00000000000E+00  0.14222484035E+04  0.14222484035E+04  0.50400001928E-02 0.  1.
       -1   -1    0    0    0  501  0.00000000000E+00  0.00000000000E+00 -0.24124891417E+04  0.24124891417E+04  0.50400001928E-02 0. -1.
    10030    2    1    2    0    0  0.00000000000E+00  0.00000000000E+00 -0.99024073825E+03  0.38347375452E+04  0.37046774922E+04 0.  0.
        2    1    3    3  502    0  0.63534587684E+03 -0.91548410515E+03  0.10364823876E+04  0.15218644058E+04  0.25500000920E-02 0.  1.
       -2    1    3    3    0  502 -0.63534587684E+03  0.91548410515E+03 -0.20267231258E+04  0.23128731394E+04  0.25500000920E-02 0. -1.
</event>
<event>
 5   0  0.2422436E-06  0.2242024E+04  0.7818609E-02  0.8501138E-01
       -2   -1    0    0    0  501  0.00000000000E+00  0.00000000000E+00  0.14044124792E+04  0.14044124792E+04  0.25500000920E-02 0. -1.
        2   -1    0    0  501    0  0.00000000000E+00  0.00000000000E+00 -0.89479962497E+03  0.89479962497E+03  0.25500000920E-02 0.  1.
    10030    2    1    2    0    0  0.00000000000E+00  0.00000000000E+00  0.50961285427E+03  0.22992121042E+04  0.22420238712E+04 0.  0.
        2    1    3    3  502    0 -0.39606122894E+03  0.94336134193E+03 -0.21499758235E+03  0.10454755277E+04  0.25500000920E-02 0. -1.
       -2    1    3    3    0  502  0.39606122894E+03 -0.94336134193E+03  0.72461043662E+03  0.12537365766E+04  0.25500000920E-02 0.  1.
</event>
<event>
 5   0  0.2422436E-06  0.2311269E+04  0.7818609E-02  0.8473491E-01
       -2   -1    0    0    0  501  0.00000000000E+00  0.00000000000E+00  0.10811472520E+04  0.10811472520E+04  0.25500000920E-02 0. -1.
        2   -1    0    0  501    0  0.00000000000E+00  0.00000000000E+00 -0.12352531442E+04  0.12352531442E+04  0.25500000920E-02 0.  1.
    10030    2    1    2    0    0  0.00000000000E+00  0.00000000000E+00 -0.15410589221E+03  0.23164003963E+04  0.23112685196E+04 0.  0.
        2    1    3    3  502    0  0.41299657907E+03 -0.89985122441E+03 -0.67435622815E+03  0.11979376957E+04  0.25500000920E-02 0.  1.
       -2    1    3    3    0  502 -0.41299657907E+03  0.89985122441E+03  0.52025033595E+03  0.11184627005E+04  0.25500000920E-02 0. -1.
</event>
<event>
 5   0  0.2422436E-06  0.2888581E+04  0.7818609E-02  0.8276283E-01
       -2   -1    0    0    0  501  0.00000000000E+00  0.00000000000E+00  0.10119535327E+04  0.10119535327E+04  0.25500000920E-02 0.  1.
        2   -1    0    0  501    0  0.00000000000E+00  0.00000000000E+00 -0.20613342998E+04  0.20613342998E+04  0.25500000920E-02 0. -1.
    10030    2    1    2    0    0  0.00000000000E+00  0.00000000000E+00 -0.10493807672E+04  0.30732878325E+04  0.28885806388E+04 0.  0.
        2    1    3    3  502    0 -0.26361555265E+02 -0.96319673273E+03  0.61999247054E+03  0.11457894838E+04  0.25500000920E-02 0.  1.
       -2    1    3    3    0  502  0.26361555265E+02  0.96319673273E+03 -0.16693732377E+04  0.19274983487E+04  0.25500000920E-02 0. -1.
</event>
<event>
 5   0  0.2382711E-06  0.3601136E+04  0.7818609E-02  0.8090232E-01
        2   -1    0    0  501    0  0.00000000000E+00  0.00000000000E+00  0.21665216353E+04  0.21665216353E+04  0.25500000920E-02 0. -1.
       -2   -1    0    0    0  501  0.00000000000E+00  0.00000000000E+00 -0.14964287426E+04  0.14964287426E+04  0.25500000920E-02 0.  1.
    10030    2    1    2    0    0  0.00000000000E+00  0.00000000000E+00  0.67009289274E+03  0.36629503779E+04  0.36011360688E+04 0.  0.
        5    1    3    3  502    0 -0.12957160407E+04 -0.12242242085E+04  0.59321048604E+03  0.18787032075E+04  0.46999998093E+01 0. -1.
       -5    1    3    3    0  502  0.12957160407E+04  0.12242242085E+04  0.76882406698E+02  0.17842471705E+04  0.46999998093E+01 0.  1.
</event>
<event>
 5   0  0.8423692E-07  0.3472630E+04  0.7818609E-02  0.8120307E-01
        1   -1    0    0  501    0  0.00000000000E+00  0.00000000000E+00  0.21800332934E+04  0.21800332934E+04  0.50400001928E-02 0.  1.
       -1   -1    0    0    0  501  0.00000000000E+00  0.00000000000E+00 -0.13829096857E+04  0.13829096857E+04  0.50400001928E-02 0. -1.
    10030    2    1    2    0    0  0.00000000000E+00  0.00000000000E+00  0.79712360771E+03  0.35629429791E+04  0.34726296414E+04 0.  0.
        2    1    3    3  502    0 -0.98830486541E+03  0.12927408132E+04 -0.22288342424E+03  0.16424379251E+04  0.25500000920E-02 0.  1.
       -2    1    3    3    0  502  0.98830486541E+03 -0.12927408132E+04  0.10200070320E+04  0.19205050540E+04  0.25500000920E-02 0. -1.
</event>
<event>
 5   0  0.8452742E-07  0.2109668E+04  0.7818609E-02  0.8556997E-01
        1   -1    0    0  501    0  0.00000000000E+00  0.00000000000E+00  0.89195912199E+03  0.89195912201E+03  0.50400001928E-02 0.  1.
       -1   -1    0    0    0  501  0.00000000000E+00  0.00000000000E+00 -0.12474499876E+04  0.12474499876E+04  0.50400001928E-02 0. -1.
    10030    2    1    2    0    0  0.00000000000E+00  0.00000000000E+00 -0.35549086557E+03  0.21394091096E+04  0.21096676474E+04 0.  0.
        1    1    3    3  502    0  0.44812630989E+03 -0.37515253226E+03  0.71276734884E+03  0.92173418385E+03  0.50400001928E-02 0.  1.
       -1    1    3    3    0  502 -0.44812630989E+03  0.37515253226E+03 -0.10682582144E+04  0.12176749257E+04  0.50400001928E-02 0. -1.
</event>
<event>
 5   0  0.1513502E-06  0.3368669E+04  0.7818609E-02  0.8145639E-01
       -2   -1    0    0    0  501  0.00000000000E+00  0.00000000000E+00  0.11350935087E+04  0.11350935087E+04  0.25500000920E-02 0. -1.
        2   -1    0    0  501    0  0.00000000000E+00  0.00000000000E+00 -0.24993389808E+04  0.24993389808E+04  0.25500000920E-02 0.  1.
    10030    2    1    2    0    0  0.00000000000E+00  0.00000000000E+00 -0.13642454721E+04  0.36344324895E+04  0.33686694424E+04 0.  0.
        3    1    3    3  502    0 -0.58876524642E+03 -0.79409619225E+03 -0.21534372260E+04  0.23694989290E+04  0.10100000352E+00 0.  1.
       -3    1    3    3    0  502  0.58876524642E+03  0.79409619225E+03  0.78919175385E+03  0.12649335605E+04  0.10100000352E+00 0. -1.
</event>
<event>
 5   0  0.8423692E-07  0.3335029E+04  0.7818609E-02  0.8154039E-01
       -1   -1    0    0    0  501  0.00000000000E+00  0.00000000000E+00  0.10579812725E+04  0.10579812725E+04  0.50400001928E-02 0.  1.
        1   -1    0    0  501    0  0.00000000000E+00  0.00000000000E+00 -0.26282172998E+04  0.26282172998E+04  0.50400001928E-02 0. -1.
    10030    2    1    2    0    0  0.00000000000E+00  0.00000000000E+00 -0.15702360272E+04  0.36861985723E+04  0.33350290453E+04 0.  0.
        2    1    3    3  502    0 -0.60706147604E+03 -0.46450519436E+03 -0.24231656066E+04  0.25408699825E+04  0.25500000920E-02 0. -1.
       -2    1    3    3    0  502  0.60706147604E+03  0.46450519436E+03  0.85292957931E+03  0.11453285898E+04  0.25500000920E-02 0.  1.
</event>
<event>
 5   0  0.1513502E-06  0.3537584E+04  0.7818609E-02  0.8104940E-01
       -2   -1    0    0    0  501  0.00000000000E+00  0.00000000000E+00  0.14346025567E+04  0.14346025567E+04  0.25500000920E-02 0.  1.
        2   -1    0    0  501    0  0.00000000000E+00  0.00000000000E+00 -0.21808305460E+04  0.21808305460E+04  0.25500000920E-02 0. -1.
    10030    2    1    2    0    0  0.00000000000E+00  0.00000000000E+00 -0.74622798926E+03  0.36154331027E+04  0.35375839648E+04 0.  0.
        3    1    3    3  502    0  0.42578011105E+03 -0.11623793401E+04 -0.16643293236E+04  0.20742243227E+04  0.10100000352E+00 0. -1.
       -3    1    3    3    0  502 -0.42578011105E+03  0.11623793401E+04  0.91810133431E+03  0.15412087800E+04  0.10100000352E+00 0.  1.
</event>
<event>
 5   0  0.8423692E-07  0.2101964E+04  0.7818609E-02  0.8560379E-01
        1   -1    0    0  501    0  0.00000000000E+00  0.00000000000E+00  0.20401275161E+04  0.20401275161E+04  0.50400001928E-02 0.  1.
       -1   -1    0    0    0  501  0.00000000000E+00  0.00000000000E+00 -0.54141852737E+03  0.54141852739E+03  0.50400001928E-02 0. -1.
    10030    2    1    2    0    0  0.00000000000E+00  0.00000000000E+00  0.14987089887E+04  0.25815460435E+04  0.21019636871E+04 0.  0.
        2    1    3    3  502    0 -0.10344399550E+04 -0.16154609832E+03  0.86191495393E+03  0.13561196666E+04  0.25500000920E-02 0. -1.
       -2    1    3    3    0  502  0.10344399550E+04  0.16154609832E+03  0.63679403479E+03  0.12254263769E+04  0.25500000920E-02 0.  1.
</event>
<event>
 5   0  0.7707500E-07  0.3569647E+04  0.7818609E-02  0.8097480E-01
       -3   -1    0    0    0  501  0.00000000000E+00  0.00000000000E+00  0.10899573723E+04  0.10899573769E+04  0.10100000352E+00 0. -1.
        3   -1    0    0  501    0  0.00000000000E+00  0.00000000000E+00 -0.29226780013E+04  0.29226780030E+04  0.10100000352E+00 0.  1.
    10030    2    1    2    0    0  0.00000000000E+00  0.00000000000E+00 -0.18327206290E+04  0.40126353799E+04  0.35696467316E+04 0.  0.
        4    1    3    3  502    0 -0.22251456235E+02  0.12358378032E+04 -0.23637013377E+04  0.26673724581E+04  0.12699999809E+01 0.  1.
       -4    1    3    3    0  502  0.22251456235E+02 -0.12358378032E+04  0.53098070876E+03  0.13452629219E+04  0.12699999809E+01 0. -1.
</event>
<event>
 5   0  0.8452742E-07  0.3352470E+04  0.7818609E-02  0.8149671E-01
        1   -1    0    0  501    0  0.00000000000E+00  0.00000000000E+00  0.15565269390E+04  0.15565269390E+04  0.50400001928E-02 0. -1.
       -1   -1    0    0    0  501  0.00000000000E+00  0.00000000000E+00 -0.18051490303E+04  0.18051490303E+04  0.50400001928E-02 0.  1.
    10030    2    1    2    0    0  0.00000000000E+00  0.00000000000E+00 -0.24862209126E+03  0.33616759693E+04  0.33524695940E+04 0.  0.
        1    1    3    3  502    0  0.46328427824E+03 -0.52965413343E+02 -0.17388025451E+04  0.18002421915E+04  0.50400001928E-02 0.  1.
       -1    1    3    3    0  502 -0.46328427824E+03  0.52965413343E+02  0.14901804538E+04  0.15614337778E+04  0.50400001928E-02 0. -1.
</event>
<event>
 5   0  0.8452742E-07  0.3582224E+04  0.7818609E-02  0.8094576E-01
       -1   -1    0    0    0  501  0.00000000000E+00  0.00000000000E+00  0.18981707836E+04  0.18981707836E+04  0.50400001928E-02 0. -1.
        1   -1    0    0  501    0  0.00000000000E+00  0.00000000000E+00 -0.16900910508E+04  0.16900910508E+04  0.50400001928E-02 0.  1.
    10030    2    1    2    0    0  0.00000000000E+00  0.00000000000E+00  0.20807973280E+03  0.35882618344E+04  0.35822235856E+04 0.  0.
        1    1    3    3  502    0  0.85090229837E+02 -0.16084057496E+04 -0.68078068594E+03  0.17486199544E+04  0.50400001928E-02 0.  1.
       -1    1    3    3    0  502 -0.85090229837E+02  0.16084057496E+04  0.88886041874E+03  0.18396418800E+04  0.50400001928E-02 0. -1.
</event>
<event>
 5   0  0.1566576E-06  0.3599140E+04  0.7818609E-02  0.8090689E-01
       -2   -1    0    0    0  501  0.00000000000E+00  0.00000000000E+00  0.18376769552E+04  0.18376769552E+04  0.25500000920E-02 0. -1.
        2   -1    0    0  501    0  0.00000000000E+00  0.00000000000E+00 -0.17622529444E+04  0.17622529444E+04  0.25500000920E-02 0.  1.
    10030    2    1    2    0    0  0.00000000000E+00  0.00000000000E+00  0.75424010759E+02  0.35999298996E+04  0.35991396890E+04 0.  0.
        4    1    3    3  502    0  0.35899935400E+03  0.12146788687E+04  0.13163215481E+04  0.18267537659E+04  0.12699999809E+01 0. -1.
       -4    1    3    3    0  502 -0.35899935400E+03 -0.12146788687E+04 -0.12408975373E+04  0.17731761338E+04  0.12699999809E+01 0.  1.
</event>
<event>
 5   0  0.2422436E-06  0.3564685E+04  0.7818609E-02  0.8098629E-01
        2   -1    0    0  501    0  0.00000000000E+00  0.00000000000E+00  0.15972362604E+04  0.15972362604E+04  0.25500000920E-02 0.  1.
       -2   -1    0    0    0  501  0.00000000000E+00  0.00000000000E+00 -0.19889008226E+04  0.19889008226E+04  0.25500000920E-02 0. -1.
    10030    2    1    2    0    0  0.00000000000E+00  0.00000000000E+00 -0.39166456223E+03  0.35861370830E+04  0.35646848457E+04 0.  0.
        2    1    3    3  502    0  0.15232803606E+04  0.61862357916E+03  0.49654371164E+03  0.17174498092E+04  0.25500000920E-02 0.  1.
       -2    1    3    3    0  502 -0.15232803606E+04 -0.61862357916E+03 -0.88820827386E+03  0.18686872738E+04  0.25500000920E-02 0. -1.
</event>
<event>
 5   0  0.8452742E-07  0.2239045E+04  0.7818609E-02  0.8502350E-01
        1   -1    0    0  501    0  0.00000000000E+00  0.00000000000E+00  0.11172612782E+04  0.11172612782E+04  0.50400001928E-02 0. -1.
       -1   -1    0    0    0  501  0.00000000000E+00  0.00000000000E+00 -0.11217878575E+04  0.11217878575E+04  0.50400001928E-02 0.  1.
    10030    2    1    2    0    0  0.00000000000E+00  0.00000000000E+00 -0.45265792945E+01  0.22390491357E+04  0.22390445601E+04 0.  0.
        1    1    3    3  502    0  0.14686605059E+03  0.11090820850E+04 -0.43463220419E+02  0.11196078598E+04  0.50400001928E-02 0. -1.
       -1    1    3    3    0  502 -0.14686605059E+03 -0.11090820850E+04  0.38936641124E+02  0.11194412759E+04  0.50400001928E-02 0.  1.
</event>
<event>
 5   0  0.2536619E-06  0.3537036E+04  0.7818609E-02  0.8105069E-01
       -2   -1    0    0    0  501  0.00000000000E+00  0.00000000000E+00  0.12813501739E+04  0.12813501739E+04  0.25500000920E-02 0.  1.
        2   -1    0    0  501    0  0.00000000000E+00  0.00000000000E+00 -0.24409066590E+04  0.24409066590E+04  0.25500000920E-02 0. -1.
    10030    2    1    2    0    0  0.00000000000E+00  0.00000000000E+00 -0.11595564852E+04  0.37222568329E+04  0.35370361445E+04 0.  0.
        1    1    3    3  502    0  0.94665936732E+03  0.11026208781E+04 -0.16403833510E+04  0.21915278453E+04  0.50400001928E-02 0. -1.
       -1    1    3    3    0  502 -0.94665936732E+03 -0.11026208781E+04  0.48082686586E+03  0.15307289876E+04  0.50400001928E-02 0.  1.
</event>
<event>
 5   0  0.7754556E-07  0.1897499E+04  0.7818609E-02  0.8656103E-01
       -1   -1    0    0    0  501  0.00000000000E+00  0.00000000000E+00  0.10645998814E+04  0.10645998814E+04  0.50400001928E-02 0.  1.
        1   -1    0    0  501    0  0.00000000000E+00  0.00000000000E+00 -0.84550561215E+03  0.84550561216E+03  0.50400001928E-02 0. -1.
    10030    2    1    2    0    0  0.00000000000E+00  0.00000000000E+00  0.21909426922E+03  0.19101054935E+04  0.18974985369E+04 0.  0.
        4    1    3    3  502    0 -0.20290828521E+03 -0.49584516082E+03  0.89774961198E+03  0.10454617040E+04  0.12699999809E+01 0.  1.
       -4    1    3    3    0  502  0.20290828521E+03  0.49584516082E+03 -0.67865534276E+03  0.86464378959E+03  0.12699999809E+01 0. -1.
</event>
<event>
 5   0  0.8423692E-07  0.3418147E+04  0.7818609E-02  0.8133467E-01
        1   -1    0    0  501    0  0.00000000000E+00  0.00000000000E+00  0.27625129869E+04  0.27625129869E+04  0.50400001928E-02 0.  1.
       -1   -1    0    0    0  501  0.00000000000E+00  0.00000000000E+00 -0.10573463036E+04  0.10573463036E+04  0.50400001928E-02 0. -1.
    10030    2    1    2    0    0  0.00000000000E+00  0.00000000000E+00  0.17051666832E+04  0.38198592905E+04  0.34181473903E+04 0.  0.
        2    1    3    3  502    0  0.16357326460E+04 -0.43772337982E+03  0.11115736693E+04  0.20255416730E+04  0.25500000920E-02 0.  1.
       -2    1    3    3    0  502 -0.16357326460E+04  0.43772337982E+03  0.59359301389E+03  0.17943176175E+04  0.25500000920E-02 0. -1.
</event>
<event>
 5   0  0.1634374E-06  0.3585209E+04  0.7818609E-02  0.8093888E-01
       -1   -1    0    0    0  501  0.00000000000E+00  0.00000000000E+00  0.31742397996E+04  0.31742397996E+04  0.50400001928E-02 0. -1.
        1   -1    0    0  501    0  0.00000000000E+00  0.00000000000E+00 -0.10123463605E+04  0.10123463605E+04  0.50400001928E-02 0.  1.
    10030    2    1    2    0    0  0.00000000000E+00  0.00000000000E+00  0.21618934392E+04  0.41865861601E+04  0.35852085621E+04 0.  0.
        5    1    3    3  502    0  0.13978955927E+04 -0.83923812084E+03  0.19508729750E+04  0.25425106029E+04  0.46999998093E+01 0. -1.
       -5    1    3    3    0  502 -0.13978955927E+04  0.83923812084E+03  0.21102046423E+03  0.16440755572E+04  0.46999998093E+01 0.  1.
</event>
<event>
 5   0  0.1513502E-06  0.3418122E+04  0.7818609E-02  0.8133473E-01
       -2   -1    0    0    0  501  0.00000000000E+00  0.00000000000E+00  0.19862884952E+04  0.19862884952E+04  0.25500000920E-02 0.  1.
        2   -1    0    0  501    0  0.00000000000E+00  0.00000000000E+00 -0.14705263899E+04  0.14705263899E+04  0.25500000920E-02 0. -1.
    10030    2    1    2    0    0  0.00000000000E+00  0.00000000000E+00  0.51576210524E+03  0.34568148851E+04  0.34181220869E+04 0.  0.
        3    1    3    3  502    0 -0.33110079565E+03 -0.41625214320E+02 -0.14372580080E+04  0.14754900838E+04  0.10100000352E+00 0. -1.
       -3    1    3    3    0  502  0.33110079565E+03  0.41625214320E+02  0.19530201133E+04  0.19813248014E+04  0.10100000352E+00 0.  1.
</event>
<event>
 5   0  0.7754556E-07  0.3500974E+04  0.7818609E-02  0.8113559E-01
       -1   -1    0    0    0  501  0.00000000000E+00  0.00000000000E+00  0.12269153229E+04  0.12269153229E+04  0.50400001928E-02 0.  1.
        1   -1    0    0  501    0  0.00000000000E+00  0.00000000000E+00 -0.24974861139E+04  0.24974861139E+04  0.50400001928E-02 0. -1.
    10030    2    1    2    0    0  0.00000000000E+00  0.00000000000E+00 -0.12705707909E+04  0.37244014368E+04  0.35009735685E+04 0.  0.
        4    1    3    3  502    0 -0.15321708673E+04  0.13060028242E+03  0.25451387957E+03  0.15586477884E+04  0.12699999809E+01 0.  1.
       -4    1    3    3    0  502  0.15321708673E+04 -0.13060028242E+03 -0.15250846705E+04  0.21657536484E+04  0.12699999809E+01 0. -1.
</event>
<event>
 5   0  0.2536619E-06  0.3207971E+04  0.7818609E-02  0.8186715E-01
       -2   -1    0    0    0  501  0.00000000000E+00  0.00000000000E+00  0.18714799334E+04  0.18714799334E+04  0.25500000920E-02 0.  1.
        2   -1    0    0  501    0  0.00000000000E+00  0.00000000000E+00 -0.13747242201E+04  0.13747242201E+04  0.25500000920E-02 0. -1.
    10030    2    1    2    0    0  0.00000000000E+00  0.00000000000E+00  0.49675571328E+03  0.32462041535E+04  0.32079705684E+04 0.  0.
        1    1    3    3  502    0  0.11940075485E+04 -0.90098903948E+03  0.83435939778E+03  0.17127728629E+04  0.50400001928E-02 0.  1.
       -1    1    3    3    0  502 -0.11940075485E+04  0.90098903948E+03 -0.33760368450E+03  0.15334312906E+04  0.50400001928E-02 0. -1.
</event>
<event>
 5   0  0.8423692E-07  0.2199294E+04  0.7818609E-02  0.8518722E-01
       -1   -1    0    0    0  501  0.00000000000E+00  0.00000000000E+00  0.69285854630E+03  0.69285854632E+03  0.50400001928E-02 0.  1.
        1   -1    0    0  501    0  0.00000000000E+00  0.00000000000E+00 -0.17452671860E+04  0.17452671860E+04  0.50400001928E-02 0. -1.
    10030    2    1    2    0    0  0.00000000000E+00  0.00000000000E+00 -0.10524086397E+04  0.24381257323E+04  0.21992937825E+04 0.  0.
        2    1    3    3  502    0  0.73081699149E+03  0.62504631069E+02  0.38204746589E+03  0.82701908694E+03  0.25500000920E-02 0.  1.
       -2    1    3    3    0  502 -0.73081699149E+03 -0.62504631069E+02 -0.14344561056E+04  0.16111066454E+04  0.25500000920E-02 0. -1.
</event>
<event>
 5   0  0.1634374E-06  0.3677798E+04  0.7818609E-02  0.8072900E-01
        1   -1    0    0  501    0  0.00000000000E+00  0.00000000000E+00  0.11587665675E+04  0.11587665676E+04  0.50400001928E-02 0. -1.
       -1   -1    0    0    0  501  0.00000000000E+00  0.00000000000E+00 -0.29182321245E+04  0.29182321245E+04  0.50400001928E-02 0.  1.
    10030    2    1    2    0    0  0.00000000000E+00  0.00000000000E+00 -0.17594655569E+04  0.40769986920E+04  0.36777981577E+04 0.  0.
        5    1    3    3  502    0 -0.38821793478E+03 -0.16842387188E+04 -0.18377013531E+03  0.17381503903E+04  0.46999998093E+01 0. -1.
       -5    1    3    3    0  502  0.38821793478E+03  0.16842387188E+04 -0.15756954216E+04  0.23388483017E+04  0.46999998093E+01 0.  1.
</event>
<event>
 5   0  0.2382711E-06  0.3626515E+04  0.7818609E-02  0.8084445E-01
       -2   -1    0    0    0  501  0.00000000000E+00  0.00000000000E+00  0.33431611358E+04  0.33431611358E+04  0.25500000920E-02 0.  1.
        2   -1    0    0  501    0  0.00000000000E+00  0.00000000000E+00 -0.98347109252E+03  0.98347109253E+03  0.25500000920E-02 0. -1.
    10030    2    1    2    0    0  0.00000000000E+00  0.00000000000E+00  0.23596900432E+04  0.43266322283E+04  0.36265147647E+04 0.  0.
        5    1    3    3  502    0  0.91627227437E+03 -0.10645203150E+04 -0.18833589875E+03  0.14171276875E+04  0.46999998093E+01 0. -1.
       -5    1    3    3    0  502 -0.91627227437E+03  0.10645203150E+04  0.25480259420E+04  0.29095045408E+04  0.46999998093E+01 0.  1.
</event>
<event>
 5   0  0.8423692E-07  0.1817521E+04  0.7818609E-02  0.8697037E-01
        1   -1    0    0  501    0  0.00000000000E+00  0.00000000000E+00  0.11842217879E+04  0.11842217879E+04  0.50400001928E-02 0.  1.
       -1   -1    0    0    0  501  0.00000000000E+00  0.00000000000E+00 -0.69737378074E+03  0.69737378076E+03  0.50400001928E-02 0. -1.
    10030    2    1    2    0    0  0.00000000000E+00  0.00000000000E+00  0.48684800711E+03  0.18815955686E+04  0.18175205368E+04 0.  0.
        2    1    3    3  502    0  0.77072909783E+03  0.21234090975E+03 -0.20393661408E+03  0.82504675429E+03  0.25500000920E-02 0.  1.
       -2    1    3    3    0  502 -0.77072909783E+03 -0.21234090975E+03  0.69078462119E+03  0.10565488143E+04  0.25500000920E-02 0. -1.
</event>
<event>
 5   0  0.1634374E-06  0.3383228E+04  0.7818609E-02  0.8142035E-01
        1   -1    0    0  501    0  0.00000000000E+00  0.00000000000E+00  0.24215899506E+04  0.24215899506E+04  0.50400001928E-02 0.  1.
       -1   -1    0    0    0  501  0.00000000000E+00  0.00000000000E+00 -0.11816853938E+04  0.11816853938E+04  0.50400001928E-02 0. -1.
    10030    2    1    2    0    0  0.00000000000E+00  0.00000000000E+00  0.12399045568E+04  0.36032753444E+04  0.33832277336E+04 0.  0.
        5    1    3    3  502    0  0.71314245351E+03  0.66481758852E+03 -0.85234117006E+03  0.12950143417E+04  0.46999998093E+01 0. -1.
       -5    1    3    3    0  502 -0.71314245351E+03 -0.66481758852E+03  0.20922457269E+04  0.23082610027E+04  0.46999998093E+01 0.  1.
</event>
<event>
 5   0  0.2422436E-06  0.3731613E+04  0.7818609E-02  0.8060992E-01
        2   -1    0    0  501    0  0.00000000000E+00  0.00000000000E+00  0.25495934227E+04  0.25495934227E+04  0.25500000920E-02 0. -1.
       -2   -1    0    0    0  501  0.00000000000E+00  0.00000000000E+00 -0.13654073646E+04  0.13654073646E+04  0.25500000920E-02 0.  1.
    10030    2    1    2    0    0  0.00000000000E+00  0.00000000000E+00  0.11841860581E+04  0.39150007872E+04  0.37316128609E+04 0.  0.
        2    1    3    3  502    0  0.72300688641E+02  0.15507645242E+04 -0.49372614602E+03  0.16290682940E+04  0.25500000920E-02 0.  1.
       -2    1    3    3    0  502 -0.72300688641E+02 -0.15507645242E+04  0.16779122041E+04  0.22859324933E+04  0.25500000920E-02 0. -1.
</event>
<event>
 5   0  0.7754556E-07  0.3596660E+04  0.7818609E-02  0.8091257E-01
        1   -1    0    0  501    0  0.00000000000E+00  0.00000000000E+00  0.13427083255E+04  0.13427083255E+04  0.50400001928E-02 0. -1.
       -1   -1    0    0    0  501  0.00000000000E+00  0.00000000000E+00 -0.24085585000E+04  0.24085585000E+04  0.50400001928E-02 0.  1.
    10030    2    1    2    0    0  0.00000000000E+00  0.00000000000E+00 -0.10658501745E+04  0.37512668255E+04  0.35966604234E+04 0.  0.
        4    1    3    3  502    0 -0.16193596160E+04 -0.28339870827E+03 -0.12931965272E+04  0.20916498905E+04  0.12699999809E+01 0.  1.
       -4    1    3    3    0  502  0.16193596160E+04  0.28339870827E+03  0.22734635261E+03  0.16596169350E+04  0.12699999809E+01 0. -1.
</event>
<event>
 5   0  0.7754556E-07  0.3656608E+04  0.7818609E-02  0.8077647E-01
       -1   -1    0    0    0  501  0.00000000000E+00  0.00000000000E+00  0.14571271914E+04  0.14571271914E+04  0.50400001928E-02 0. -1.
        1   -1    0    0  501    0  0.00000000000E+00  0.00000000000E+00 -0.22940311427E+04  0.22940311427E+04  0.50400001928E-02 0.  1.
    10030    2    1    2    0    0  0.00000000000E+00  0.00000000000E+00 -0.83690395125E+03  0.37511583341E+04  0.36566078028E+04 0.  0.
        4    1    3    3  502    0 -0.12478025550E+04 -0.62917587588E+03  0.79093781909E+03  0.16057576859E+04  0.12699999809E+01 0. -1.
       -4    1    3    3    0  502  0.12478025550E+04  0.62917587588E+03 -0.16278417703E+04  0.21454006482E+04  0.12699999809E+01 0.  1.
</event>
<event>
 5   0  0.7754556E-07  0.3552947E+04  0.7818609E-02  0.8101355E-01
        1   -1    0    0  501    0  0.00000000000E+00  0.00000000000E+00  0.17378778909E+04  0.17378778909E+04  0.50400001928E-02 0.  1.
       -1   -1    0    0    0  501  0.00000000000E+00  0.00000000000E+00 -0.18159267110E+04  0.18159267110E+04  0.50400001928E-02 0. -1.
    10030    2    1    2    0    0  0.00000000000E+00  0.00000000000E+00 -0.78048820016E+02  0.35538046019E+04  0.35529474427E+04 0.  0.
        4    1    3    3  502    0  0.14740005665E+04 -0.92929610393E+03  0.30687450556E+03  0.17693056531E+04  0.12699999809E+01 0. -1.
       -4    1    3    3    0  502 -0.14740005665E+04  0.92929610393E+03 -0.38492332558E+03  0.17844989488E+04  0.12699999809E+01 0.  1.
</event>
<event>
 5   0  0.1566576E-06  0.3446293E+04  0.7818609E-02  0.8126637E-01
        2   -1    0    0  501    0  0.00000000000E+00  0.00000000000E+00  0.13129263370E+04  0.13129263370E+04  0.25500000920E-02 0. -1.
       -2   -1    0    0    0  501  0.00000000000E+00  0.00000000000E+00 -0.22615388998E+04  0.22615388998E+04  0.25500000920E-02 0.  1.
    10030    2    1    2    0    0  0.00000000000E+00  0.00000000000E+00 -0.94861256279E+03  0.35744652368E+04  0.34462930715E+04 0.  0.
        4    1    3    3  502    0 -0.50738693557E+03 -0.10356662478E+04 -0.18022296924E+04  0.21396447267E+04  0.12699999809E+01 0.  1.
       -4    1    3    3    0  502  0.50738693557E+03  0.10356662478E+04  0.85361712965E+03  0.14348205101E+04  0.12699999809E+01 0. -1.
</event>
<event>
 5   0  0.8452742E-07  0.2647590E+04  0.7818609E-02  0.8352213E-01
       -1   -1    0    0    0  501  0.00000000000E+00  0.00000000000E+00  0.10892598767E+04  0.10892598767E+04  0.50400001928E-02 0.  1.
        1   -1    0    0  501    0  0.00000000000E+00  0.00000000000E+00 -0.16088291887E+04  0.16088291887E+04  0.50400001928E-02 0. -1.
    10030    2    1    2    0    0  0.00000000000E+00  0.00000000000E+00 -0.51956931194E+03  0.26980890654E+04  0.26475899107E+04 0.  0.
        1    1    3    3  502    0 -0.17101116094E+03 -0.92946308394E+03  0.68487331779E+03  0.11671323417E+04  0.50400001928E-02 0.  1.
       -1    1    3    3    0  502  0.17101116094E+03  0.92946308394E+03 -0.12044426297E+04  0.15309567237E+04  0.50400001928E-02 0. -1.
</event>
<event>
 5   0  0.1566576E-06  0.3375531E+04  0.7818609E-02  0.8143938E-01
        2   -1    0    0  501    0  0.00000000000E+00  0.00000000000E+00  0.25206522292E+04  0.25206522292E+04  0.25500000920E-02 0.  1.
       -2   -1    0    0    0  501  0.00000000000E+00  0.00000000000E+00 -0.11300851283E+04  0.11300851283E+04  0.25500000920E-02 0. -1.
    10030    2    1    2    0    0  0.00000000000E+00  0.00000000000E+00  0.13905671009E+04  0.36507373575E+04  0.33755305349E+04 0.  0.
        4    1    3    3  502    0  0.14161071949E+04  0.68685904692E+03  0.13544093274E+04  0.20764299113E+04  0.12699999809E+01 0.  1.
       -4    1    3    3    0  502 -0.14161071949E+04 -0.68685904692E+03  0.36157773527E+02  0.15743074462E+04  0.12699999809E+01 0. -1.
</event>
<event>
 5   0  0.2536619E-06  0.3604516E+04  0.7818609E-02  0.8089458E-01
       -2   -1    0    0    0  501  0.00000000000E+00  0.00000000000E+00  0.13120255324E+04  0.13120255324E+04  0.25500000920E-02 0. -1.
        2   -1    0    0  501    0  0.00000000000E+00  0.00000000000E+00 -0.24756631090E+04  0.24756631090E+04  0.25500000920E-02 0.  1.
    10030    2    1    2    0    0  0.00000000000E+00  0.00000000000E+00 -0.11636375766E+04  0.37876886415E+04  0.36045156173E+04 0.  0.
        1    1    3    3  502    0 -0.96941996187E+03  0.18924131292E+03 -0.21659227832E+04  0.23805060050E+04  0.50400001928E-02 0.  1.
       -1    1    3    3    0  502  0.96941996187E+03 -0.18924131292E+03  0.10022852066E+04  0.14071826365E+04  0.50400001928E-02 0. -1.
</event>
<event>
 5   0  0.1566576E-06  0.3500109E+04  0.7818609E-02  0.8113764E-01
        2   -1    0    0  501    0  0.00000000000E+00  0.00000000000E+00  0.20473842708E+04  0.20473842708E+04  0.25500000920E-02 0. -1.
       -2   -1    0    0    0  501  0.00000000000E+00  0.00000000000E+00 -0.14959041786E+04  0.14959041786E+04  0.25500000920E-02 0.  1.
    10030    2    1    2    0    0  0.00000000000E+00  0.00000000000E+00  0.55148009229E+03  0.35432884494E+04  0.35001089616E+04 0.  0.
        4    1    3    3  502    0 -0.12368987503E+04 -0.12095710005E+04  0.84591210666E+01  0.17300444195E+04  0.12699999809E+01 0.  1.
       -4    1    3    3    0  502  0.12368987503E+04  0.12095710005E+04  0.54302097122E+03  0.18132440299E+04  0.12699999809E+01 0. -1.
</event>
<event>
 5   0  0.1566576E-06  0.2119157E+04  0.7818609E-02  0.8552851E-01
       -2   -1    0    0    0  501  0.00000000000E+00  0.00000000000E+00  0.95924735167E+03  0.95924735167E+03  0.25500000920E-02 0.  1.
        2   -1    0    0  501    0  0.00000000000E+00  0.00000000000E+00 -0.11704032747E+04  0.11704032747E+04  0.25500000920E-02 0. -1.
    10030    2    1    2    0    0  0.00000000000E+00  0.00000000000E+00 -0.21115592302E+03  0.21296506264E+04  0.21191566640E+04 0.  0.
        4    1    3    3  502    0 -0.42653412749E+03  0.57477162407E+03 -0.89073480315E+03  0.11426740061E+04  0.12699999809E+01 0. -1.
       -4    1    3    3    0  502  0.42653412749E+03 -0.57477162407E+03  0.67957888013E+03  0.98697662028E+03  0.12699999809E+01 0.  1.
</event>
<event>
 5   0  0.8452742E-07  0.3760924E+04  0.7818609E-02  0.8054593E-01
       -1   -1    0    0    0  501  0.00000000000E+00  0.00000000000E+00  0.10234103060E+04  0.10234103060E+04  0.50400001928E-02 0.  1.
        1   -1    0    0  501    0  0.00000000000E+00  0.00000000000E+00 -0.34552492761E+04  0.34552492761E+04  0.50400001928E-02 0. -1.
    10030    2    1    2    0    0  0.00000000000E+00  0.00000000000E+00 -0.24318389701E+04  0.44786595821E+04  0.37609242050E+04 0.  0.
        1    1    3    3  502    0 -0.12578811654E+04 -0.10069597176E+04 -0.23704234021E+04  0.28662065530E+04  0.50400001928E-02 0. -1.
       -1    1    3    3    0  502  0.12578811654E+04  0.10069597176E+04 -0.61415568036E+02  0.16124530291E+04  0.50400001928E-02 0.  1.
</event>
<event>
 5   0  0.2536619E-06  0.3465534E+04  0.7818609E-02  0.8122007E-01
       -2   -1    0    0    0  501  0.00000000000E+00  0.00000000000E+00  0.35308348702E+04  0.35308348702E+04  0.25500000920E-02 0.  1.
        2   -1    0    0  501    0  0.00000000000E+00  0.00000000000E+00 -0.85036004880E+03  0.85036004880E+03  0.25500000920E-02 0. -1.
    10030    2    1    2    0    0  0.00000000000E+00  0.00000000000E+00  0.26804748214E+04  0.43811949190E+04  0.34655336747E+04 0.  0.
        1    1    3    3  502    0 -0.68411526898E+03  0.60501873099E+03 -0.52139576066E+03  0.10516248881E+04  0.50400001928E-02 0. -1.
       -1    1    3    3    0  502  0.68411526898E+03 -0.60501873099E+03  0.32018705821E+04  0.33295700309E+04  0.50400001928E-02 0.  1.
</event>
<event>
 5   0  0.8452742E-07  0.3609965E+04  0.7818609E-02  0.8088213E-01
        1   -1    0    0  501    0  0.00000000000E+00  0.00000000000E+00  0.23357760912E+04  0.23357760912E+04  0.50400001928E-02 0. -1.
       -1   -1    0    0    0  501  0.00000000000E+00  0.00000000000E+00 -0.13948094188E+04  0.13948094188E+04  0.50400001928E-02 0.  1.
    10030    2    1    2    0    0  0.00000000000E+00  0.00000000000E+00  0.94096667242E+03  0.37305855101E+04  0.36099653696E+04 0.  0.
        1    1    3    3  502    0 -0.11271685338E+04 -0.13491809501E+04  0.47964768649E+02  0.17587207734E+04  0.50400001928E-02 0. -1.
       -1    1    3    3    0  502  0.11271685338E+04  0.13491809501E+04  0.89300190377E+03  0.19718647367E+04  0.50400001928E-02 0.  1.
</event>
<event>
 5   0  0.1566576E-06  0.3583716E+04  0.7818609E-02  0.8094232E-01
       -2   -1    0    0    0  501  0.00000000000E+00  0.00000000000E+00  0.15156209363E+04  0.15156209363E+04  0.25500000920E-02 0. -1.
        2   -1    0    0  501    0  0.00000000000E+00  0.00000000000E+00 -0.21184417360E+04  0.21184417360E+04  0.25500000920E-02 0.  1.
    10030    2    1    2    0    0  0.00000000000E+00  0.00000000000E+00 -0.60282079964E+03  0.36340626723E+04  0.35837157518E+04 0.  0.
        4    1    3    3  502    0  0.87656916461E+03 -0.59534448409E+03 -0.17666826683E+04  0.20600917014E+04  0.12699999809E+01 0.  1.
       -4    1    3    3    0  502 -0.87656916461E+03  0.59534448409E+03  0.11638618686E+04  0.15739709709E+04  0.12699999809E+01 0. -1.
</event>
<event>
 5   0  0.2422436E-06  0.3621928E+04  0.7818609E-02  0.8085487E-01
       -2   -1    0    0    0  501  0.00000000000E+00  0.00000000000E+00  0.16503900209E+04  0.16503900209E+04  0.25500000920E-02 0.  1.
        2   -1    0    0  501    0  0.00000000000E+00  0.00000000000E+00 -0.19871607853E+04  0.19871607853E+04  0.25500000920E-02 0. -1.
    10030    2    1    2    0    0  0.00000000000E+00  0.00000000000E+00 -0.33677076446E+03  0.36375508062E+04  0.36219278458E+04 0.  0.
        2    1    3    3  502    0 -0.10033197221E+04  0.13118492729E+04  0.57778053849E+03  0.17496940676E+04  0.25500000920E-02 0.  1.
       -2    1    3    3    0  502  0.10033197221E+04 -0.13118492729E+04 -0.91455130295E+03  0.18878567386E+04  0.25500000920E-02 0. -1.
</event>
<event>
 5   0  0.1566576E-06  0.3619398E+04  0.7818609E-02  0.8086063E-01
        2   -1    0    0  501    0  0.00000000000E+00  0.00000000000E+00  0.15941453742E+04  0.15941453742E+04  0.25500000920E-02 0.  1.
       -2   -1    0    0    0  501  0.00000000000E+00  0.00000000000E+00 -0.20543994317E+04  0.20543994317E+04  0.25500000920E-02 0. -1.
    10030    2    1    2    0    0  0.00000000000E+00  0.00000000000E+00 -0.46025405746E+03  0.36485448059E+04  0.36193984864E+04 0.  0.
        4    1    3    3  502    0  0.46236246053E+03  0.18559324459E+03  0.15236490027E+04  0.16030383008E+04  0.12699999809E+01 0.  1.
       -4    1    3    3    0  502 -0.46236246053E+03 -0.18559324459E+03 -0.19839030602E+04  0.20455065051E+04  0.12699999809E+01 0. -1.
</event>
<event>
 5   0  0.2536619E-06  0.3516711E+04  0.7818609E-02  0.8109841E-01
       -2   -1    0    0    0  501  0.00000000000E+00  0.00000000000E+00  0.12781283593E+04  0.12781283593E+04  0.25500000920E-02 0. -1.
        2   -1    0    0  501    0  0.00000000000E+00  0.00000000000E+00 -0.24190165942E+04  0.24190165942E+04  0.25500000920E-02 0.  1.
    10030    2    1    2    0    0  0.00000000000E+00  0.00000000000E+00 -0.11408882349E+04  0.36971449535E+04  0.35167107989E+04 0.  0.
        1    1    3    3  502    0 -0.14323038844E+04  0.77891986020E+03  0.12182671672E+03  0.16349471902E+04  0.50400001928E-02 0. -1.
       -1    1    3    3    0  502  0.14323038844E+04 -0.77891986020E+03 -0.12627149516E+04  0.20621977633E+04  0.50400001928E-02 0.  1.
</event>
<event>
 5   0  0.2422436E-06  0.3655582E+04  0.7818609E-02  0.8077877E-01
       -2   -1    0    0    0  501  0.00000000000E+00  0.00000000000E+00  0.21465830982E+04  0.21465830982E+04  0.25500000920E-02 0. -1.
        2   -1    0    0  501    0  0.00000000000E+00  0.00000000000E+00 -0.15563432357E+04  0.15563432357E+04  0.25500000920E-02 0.  1.
    10030    2    1    2    0    0  0.00000000000E+00  0.00000000000E+00  0.59023986248E+03  0.37029263339E+04  0.36555820793E+04 0.  0.
        2    1    3    3  502    0 -0.12444429295E+04 -0.26210395806E+03  0.16249375555E+04  0.20634337278E+04  0.25500000920E-02 0. -1.
       -2    1    3    3    0  502  0.12444429295E+04  0.26210395806E+03 -0.10346976930E+04  0.16394926061E+04  0.25500000920E-02 0.  1.
</event>
<event>
 5   0  0.7707500E-07  0.3447622E+04  0.7818609E-02  0.8126316E-01
       -4   -1    0    0    0  501  0.00000000000E+00  0.00000000000E+00  0.18062150745E+04  0.18062155210E+04  0.12699999809E+01 0. -1.
        4   -1    0    0  501    0  0.00000000000E+00  0.00000000000E+00 -0.16451654734E+04  0.16451659636E+04  0.12699999809E+01 0.  1.
    10030    2    1    2    0    0  0.00000000000E+00  0.00000000000E+00  0.16104960115E+03  0.34513814846E+04  0.34476219599E+04 0.  0.
        3    1    3    3  502    0  0.98185538619E+03 -0.35132573464E+02 -0.13374413061E+04  0.16595250991E+04  0.10100000352E+00 0.  1.
       -3    1    3    3    0  502 -0.98185538619E+03  0.35132573464E+02  0.14984909072E+04  0.17918563855E+04  0.10100000352E+00 0. -1.
</event>
<event>
 5   0  0.2382711E-06  0.3543749E+04  0.7818609E-02  0.8103500E-01
       -2   -1    0    0    0  501  0.00000000000E+00  0.00000000000E+00  0.21427109406E+04  0.21427109406E+04  0.25500000920E-02 0. -1.
        2   -1    0    0  501    0  0.00000000000E+00  0.00000000000E+00 -0.14652183984E+04  0.14652183984E+04  0.25500000920E-02 0.  1.
    10030    2    1    2    0    0  0.00000000000E+00  0.00000000000E+00  0.67749254225E+03  0.36079293390E+04  0.35437491404E+04 0.  0.
        5    1    3    3  502    0  0.44832971191E+03 -0.12065444196E+04  0.15784894248E+04  0.20367621170E+04  0.46999998093E+01 0. -1.
       -5    1    3    3    0  502 -0.44832971191E+03  0.12065444196E+04 -0.90099688258E+03  0.15711672220E+04  0.46999998093E+01 0.  1.
</event>
<event>
 5   0  0.8423692E-07  0.2165000E+04  0.7818609E-02  0.8533139E-01
        1   -1    0    0  501    0  0.00000000000E+00  0.00000000000E+00  0.12695140269E+04  0.12695140269E+04  0.50400001928E-02 0.  1.
       -1   -1    0    0    0  501  0.00000000000E+00  0.00000000000E+00 -0.92303560553E+03  0.92303560554E+03  0.50400001928E-02 0. -1.
    10030    2    1    2    0    0  0.00000000000E+00  0.00000000000E+00  0.34647842140E+03  0.21925496325E+04  0.21650003682E+04 0.  0.
        2    1    3    3  502    0 -0.31039081765E+03 -0.36143434696E+03  0.11576313983E+04  0.12518337355E+04  0.25500000920E-02 0.  1.
       -2    1    3    3    0  502  0.31039081765E+03  0.36143434696E+03 -0.81115297695E+03  0.94071589700E+03  0.25500000920E-02 0. -1.
</event>
<event>
 5   0  0.1634374E-06  0.3069152E+04  0.7818609E-02  0.8224255E-01
       -1   -1    0    0    0  501  0.00000000000E+00  0.00000000000E+00  0.14719059658E+04  0.14719059658E+04  0.50400001928E-02 0. -1.
        1   -1    0    0  501    0  0.00000000000E+00  0.00000000000E+00 -0.15999143244E+04  0.15999143244E+04  0.50400001928E-02 0.  1.
    10030    2    1    2    0    0  0.00000000000E+00  0.00000000000E+00 -0.12800835863E+03  0.30718202902E+04  0.30691519603E+04 0.  0.
        5    1    3    3  502    0  0.15010803933E+04  0.26870272668E+03 -0.23578627998E+03  0.15430686188E+04  0.46999998093E+01 0. -1.
       -5    1    3    3    0  502 -0.15010803933E+04 -0.26870272668E+03  0.10777792135E+03  0.15287516714E+04  0.46999998093E+01 0.  1.
</event>
<event>
 5   0  0.1634374E-06  0.3605782E+04  0.7818609E-02  0.8089169E-01
        1   -1    0    0  501    0  0.00000000000E+00  0.00000000000E+00  0.22180143091E+04  0.22180143091E+04  0.50400001928E-02 0.  1.
       -1   -1    0    0    0  501  0.00000000000E+00  0.00000000000E+00 -0.14654622190E+04  0.14654622190E+04  0.50400001928E-02 0. -1.
    10030    2    1    2    0    0  0.00000000000E+00  0.00000000000E+00  0.75255209009E+03  0.36834765281E+04  0.36057821184E+04 0.  0.
        5    1    3    3  502    0  0.66603107048E+03 -0.91624408699E+03  0.18091005520E+04  0.21344712486E+04  0.46999998093E+01 0.  1.
       -5    1    3    3    0  502 -0.66603107048E+03  0.91624408699E+03 -0.10565484619E+04  0.15490052796E+04  0.46999998093E+01 0. -1.
</event>
<event>
 5   0  0.1513502E-06  0.2120202E+04  0.7818609E-02  0.8552396E-01
        2   -1    0    0  501    0  0.00000000000E+00  0.00000000000E+00  0.16483633509E+04  0.16483633509E+04  0.25500000920E-02 0. -1.
       -2   -1    0    0    0  501  0.00000000000E+00  0.00000000000E+00 -0.68177560159E+03  0.68177560160E+03  0.25500000920E-02 0.  1.
    10030    2    1    2    0    0  0.00000000000E+00  0.00000000000E+00  0.96658774934E+03  0.23301389525E+04  0.21202017972E+04 0.  0.
        3    1    3    3  502    0  0.83096977130E+03 -0.35627866782E+02  0.12056701660E+04  0.14647254572E+04  0.10100000352E+00 0.  1.
       -3    1    3    3    0  502 -0.83096977130E+03  0.35627866782E+02 -0.23908241664E+03  0.86541349531E+03  0.10100000352E+00 0. -1.
</event>
<event>
 5   0  0.1513502E-06  0.3499636E+04  0.7818609E-02  0.8113876E-01
       -2   -1    0    0    0  501  0.00000000000E+00  0.00000000000E+00  0.14643486681E+04  0.14643486681E+04  0.25500000920E-02 0.  1.
        2   -1    0    0  501    0  0.00000000000E+00  0.00000000000E+00 -0.20909383771E+04  0.20909383771E+04  0.25500000920E-02 0. -1.
    10030    2    1    2    0    0  0.00000000000E+00  0.00000000000E+00 -0.62658970900E+03  0.35552870452E+04  0.34996358825E+04 0.  0.
        3    1    3    3  502    0  0.29272671064E+03 -0.12871838044E+04  0.85359218324E+03  0.15719894080E+04  0.10100000352E+00 0.  1.
       -3    1    3    3    0  502 -0.29272671064E+03  0.12871838044E+04 -0.14801818922E+04  0.19832976372E+04  0.10100000352E+00 0. -1.
</event>
<event>
 5   0  0.7707500E-07  0.1843503E+04  0.7818609E-02  0.8683501E-01
        3   -1    0    0  501    0  0.00000000000E+00  0.00000000000E+00  0.23139236656E+04  0.23139236678E+04  0.10100000352E+00 0.  1.
       -3   -1    0    0    0  501  0.00000000000E+00  0.00000000000E+00 -0.36717971725E+03  0.36717973114E+03  0.10100000352E+00 0. -1.
    10030    2    1    2    0    0  0.00000000000E+00  0.00000000000E+00  0.19467439484E+04  0.26811033990E+04  0.18435030337E+04 0.  0.
        4    1    3    3  502    0 -0.41746632918E+03 -0.36670834126E+03 -0.96216208308E+02  0.56392580646E+03  0.12699999809E+01 0. -1.
       -4    1    3    3    0  502  0.41746632918E+03  0.36670834126E+03  0.20429601567E+04  0.21171775925E+04  0.12699999809E+01 0.  1.
</event>
<event>
 5   0  0.2536619E-06  0.3551804E+04  0.7818609E-02  0.8101622E-01
       -2   -1    0    0    0  501  0.00000000000E+00  0.00000000000E+00  0.14046828770E+04  0.14046828770E+04  0.25500000920E-02 0.  1.
        2   -1    0    0  501    0  0.00000000000E+00  0.00000000000E+00 -0.22452243547E+04  0.22452243547E+04  0.25500000920E-02 0. -1.
    10030    2    1    2    0    0  0.00000000000E+00  0.00000000000E+00 -0.84054147773E+03  0.36499072317E+04  0.35518041646E+04 0.  0.
        1    1    3    3  502    0 -0.31761065371E+03  0.63803273305E+03 -0.20918105689E+04  0.22098945115E+04  0.50400001928E-02 0. -1.
       -1    1    3    3    0  502  0.31761065371E+03 -0.63803273305E+03  0.12512690911E+04  0.14400127202E+04  0.50400001928E-02 0.  1.
</event>
<event>
 5   0  0.2382711E-06  0.1902909E+04  0.7818609E-02  0.8653410E-01
        2   -1    0    0  501    0  0.00000000000E+00  0.00000000000E+00  0.14819201296E+04  0.14819201296E+04  0.25500000920E-02 0.  1.
       -2   -1    0    0    0  501  0.00000000000E+00  0.00000000000E+00 -0.61087367908E+03  0.61087367908E+03  0.25500000920E-02 0. -1.
    10030    2    1    2    0    0  0.00000000000E+00  0.00000000000E+00  0.87104645047E+03  0.20927938086E+04  0.19029093532E+04 0.  0.
        5    1    3    3  502    0 -0.76349199168E+03  0.32582464252E+03 -0.75803166970E+02  0.83357658866E+03  0.46999998093E+01 0. -1.
       -5    1    3    3    0  502  0.76349199168E+03 -0.32582464252E+03  0.94684961744E+03  0.12592172200E+04  0.46999998093E+01 0.  1.
</event>
<event>
 5   0  0.2536619E-06  0.3568217E+04  0.7818609E-02  0.8097811E-01
       -2   -1    0    0    0  501  0.00000000000E+00  0.00000000000E+00  0.18174266314E+04  0.18174266314E+04  0.25500000920E-02 0.  1.
        2   -1    0    0  501    0  0.00000000000E+00  0.00000000000E+00 -0.17514010601E+04  0.17514010601E+04  0.25500000920E-02 0. -1.
    10030    2    1    2    0    0  0.00000000000E+00  0.00000000000E+00  0.66025571314E+02  0.35688276915E+04  0.35682168818E+04 0.  0.
        1    1    3    3  502    0 -0.82145318754E+03  0.13754011523E+04 -0.75231539649E+03  0.17698847773E+04  0.50400001928E-02 0. -1.
       -1    1    3    3    0  502  0.82145318754E+03 -0.13754011523E+04  0.81834096781E+03  0.17989429142E+04  0.50400001928E-02 0.  1.
</event>
<event>
 5   0  0.1566576E-06  0.2704730E+04  0.7818609E-02  0.8333472E-01
        2   -1    0    0  501    0  0.00000000000E+00  0.00000000000E+00  0.15088360671E+04  0.15088360671E+04  0.25500000920E-02 0. -1.
       -2   -1    0    0    0  501  0.00000000000E+00  0.00000000000E+00 -0.12121204302E+04  0.12121204302E+04  0.25500000920E-02 0.  1.
    10030    2    1    2    0    0  0.00000000000E+00  0.00000000000E+00  0.29671563683E+03  0.27209564973E+04  0.27047299479E+04 0.  0.
        4    1    3    3  502    0  0.39722036110E+03  0.72685582331E+03  0.12237828614E+04  0.14777515041E+04  0.12699999809E+01 0. -1.
       -4    1    3    3    0  502 -0.39722036110E+03 -0.72685582331E+03 -0.92706722461E+03  0.12432049932E+04  0.12699999809E+01 0.  1.
</event>
<event>
 5   0  0.1513502E-06  0.2602459E+04  0.7818609E-02  0.8367366E-01
        2   -1    0    0  501    0  0.00000000000E+00  0.00000000000E+00  0.10724341364E+04  0.10724341364E+04  0.25500000920E-02 0.  1.
       -2   -1    0    0    0  501  0.00000000000E+00  0.00000000000E+00 -0.15788367183E+04  0.15788367183E+04  0.25500000920E-02 0. -1.
    10030    2    1    2    0    0  0.00000000000E+00  0.00000000000E+00 -0.50640258185E+03  0.26512708547E+04  0.26024591390E+04 0.  0.
        3    1    3    3  502    0 -0.47011491068E+03  0.10631432382E+04  0.34250255448E+03  0.12118537800E+04  0.10100000352E+00 0.  1.
       -3    1    3    3    0  502  0.47011491068E+03 -0.10631432382E+04 -0.84890513633E+03  0.14394170747E+04  0.10100000352E+00 0. -1.
</event>
<event>
 5   0  0.7754556E-07  0.3585250E+04  0.7818609E-02  0.8093879E-01
        1   -1    0    0  501    0  0.00000000000E+00  0.00000000000E+00  0.23482660265E+04  0.23482660266E+04  0.50400001928E-02 0. -1.
       -1   -1    0    0    0  501  0.00000000000E+00  0.00000000000E+00 -0.13684581856E+04  0.13684581856E+04  0.50400001928E-02 0.  1.
    10030    2    1    2    0    0  0.00000000000E+00  0.00000000000E+00  0.97980784097E+03  0.37167242121E+04  0.35852497073E+04 0.  0.
        4    1    3    3  502    0  0.15500822854E+03  0.61997086191E+03  0.22261686396E+04  0.23160785490E+04  0.12699999809E+01 0. -1.
       -4    1    3    3    0  502 -0.15500822854E+03 -0.61997086191E+03 -0.12463607986E+04  0.14006456631E+04  0.12699999809E+01 0.  1.
</event>
<event>
 5   0  0.8452742E-07  0.3538272E+04  0.7818609E-02  0.8104779E-01
        1   -1    0    0  501    0  0.00000000000E+00  0.00000000000E+00  0.29928975229E+04  0.29928975229E+04  0.50400001928E-02 0.  1.
       -1   -1    0    0    0  501  0.00000000000E+00  0.00000000000E+00 -0.10457564334E+04  0.10457564334E+04  0.50400001928E-02 0. -1.
    10030    2    1    2    0    0  0.00000000000E+00  0.00000000000E+00  0.19471410895E+04  0.40386539563E+04  0.35382718036E+04 0.  0.
        1    1    3    3  502    0 -0.17599832978E+03 -0.44593510728E+03  0.29173414290E+04  0.29564699466E+04  0.50400001928E-02 0.  1.
       -1    1    3    3    0  502  0.17599832978E+03  0.44593510728E+03 -0.97020033950E+03  0.10821840097E+04  0.50400001928E-02 0. -1.
</event>
<event>
 5   0  0.8423692E-07  0.3599976E+04  0.7818609E-02  0.8090497E-01
       -1   -1    0    0    0  501  0.00000000000E+00  0.00000000000E+00  0.27508096689E+04  0.27508096689E+04  0.50400001928E-02 0. -1.
        1   -1    0    0  501    0  0.00000000000E+00  0.00000000000E+00 -0.11778195255E+04  0.11778195255E+04  0.50400001928E-02 0.  1.
    10030    2    1    2    0    0  0.00000000000E+00  0.00000000000E+00  0.15729901434E+04  0.39286291944E+04  0.35999762993E+04 0.  0.
        2    1    3    3  502    0 -0.21332852467E+02  0.15620109410E+04  0.17623479041E+04  0.23550378777E+04  0.25500000920E-02 0. -1.
       -2    1    3    3    0  502  0.21332852467E+02 -0.15620109410E+04 -0.18935776067E+03  0.15735913167E+04  0.25500000920E-02 0.  1.
</event>
<event>
 5   0  0.1908273E-06  0.2713983E+04  0.7818609E-02  0.8330482E-01
       -1   -1    0    0    0  501  0.00000000000E+00  0.00000000000E+00  0.22622019438E+04  0.22622019438E+04  0.50400001928E-02 0.  1.
        1   -1    0    0  501    0  0.00000000000E+00  0.00000000000E+00 -0.81399685711E+03  0.81399685712E+03  0.50400001928E-02 0. -1.
    10030    2    1    2    0    0  0.00000000000E+00  0.00000000000E+00  0.14482050867E+04  0.30761988009E+04  0.27139825146E+04 0.  0.
        3    1    3    3  502    0 -0.12796105909E+04  0.45168793217E+03  0.72421412235E+03  0.15381519293E+04  0.10100000352E+00 0. -1.
       -3    1    3    3    0  502  0.12796105909E+04 -0.45168793217E+03  0.72399096434E+03  0.15380468716E+04  0.10100000352E+00 0.  1.
</event>
<event>
 5   0  0.2536619E-06  0.2018124E+04  0.7818609E-02  0.8598194E-01
       -2   -1    0    0    0  501  0.00000000000E+00  0.00000000000E+00  0.87016266858E+03  0.87016266858E+03  0.25500000920E-02 0.  1.
        2   -1    0    0  501    0  0.00000000000E+00  0.00000000000E+00 -0.11701328482E+04  0.11701328482E+04  0.25500000920E-02 0. -1.
    10030    2    1    2    0    0  0.00000000000E+00  0.00000000000E+00 -0.29997017962E+03  0.20402955168E+04  0.20181238037E+04 0.  0.
        1    1    3    3  502    0  0.31856901396E+03 -0.69140152716E+03 -0.81959363345E+03  0.11185955536E+04  0.50400001928E-02 0. -1.
       -1    1    3    3    0  502 -0.31856901396E+03  0.69140152716E+03  0.51962345383E+03  0.92169996323E+03  0.50400001928E-02 0.  1.
</event>
<event>
 5   0  0.2382711E-06  0.3330753E+04  0.7818609E-02  0.8155114E-01
        2   -1    0    0  501    0  0.00000000000E+00  0.00000000000E+00  0.25103950615E+04  0.25103950615E+04  0.25500000920E-02 0. -1.
       -2   -1    0    0    0  501  0.00000000000E+00  0.00000000000E+00 -0.11047975490E+04  0.11047975490E+04  0.25500000920E-02 0.  1.
    10030    2    1    2    0    0  0.00000000000E+00  0.00000000000E+00  0.14055975125E+04  0.36151926105E+04  0.33307526543E+04 0.  0.
        5    1    3    3  502    0 -0.93381874713E+03  0.43244831537E+03  0.21239771133E+04  0.23601546275E+04  0.46999998093E+01 0. -1.
       -5    1    3    3    0  502  0.93381874713E+03 -0.43244831537E+03 -0.71837960082E+03  0.12550379830E+04  0.46999998093E+01 0.  1.
</event>
<event>
 5   0  0.8423692E-07  0.3432423E+04  0.7818609E-02  0.8129994E-01
       -1   -1    0    0    0  501  0.00000000000E+00  0.00000000000E+00  0.10711168486E+04  0.10711168486E+04  0.50400001928E-02 0. -1.
        1   -1    0    0  501    0  0.00000000000E+00  0.00000000000E+00 -0.27498229301E+04  0.27498229301E+04  0.50400001928E-02 0.  1.
    10030    2    1    2    0    0  0.00000000000E+00  0.00000000000E+00 -0.16787060815E+04  0.38209397787E+04  0.34324228592E+04 0.  0.
        2    1    3    3  502    0 -0.13866101276E+03  0.28777127520E+03 -0.27164382803E+04  0.27351555923E+04  0.25500000920E-02 0.  1.
       -2    1    3    3    0  502  0.13866101276E+03 -0.28777127520E+03  0.10377321987E+04  0.10857841865E+04  0.25500000920E-02 0. -1.
</event>
<event>
 5   0  0.8452742E-07  0.2058539E+04  0.7818609E-02  0.8579731E-01
       -1   -1    0    0    0  501  0.00000000000E+00  0.00000000000E+00  0.59361401480E+03  0.59361401483E+03  0.50400001928E-02 0.  1.
        1   -1    0    0  501    0  0.00000000000E+00  0.00000000000E+00 -0.17846537321E+04  0.17846537321E+04  0.50400001928E-02 0. -1.
    10030    2    1    2    0    0  0.00000000000E+00  0.00000000000E+00 -0.11910397173E+04  0.23782677469E+04  0.20585387701E+04 0.  0.
        1    1    3    3  502    0 -0.33436774784E+03  0.94036359308E+03 -0.30482468973E+03  0.10435533381E+04  0.50400001928E-02 0. -1.
       -1    1    3    3    0  502  0.33436774784E+03 -0.94036359308E+03 -0.88621502752E+03  0.13347144088E+04  0.50400001928E-02 0.  1.
</event>
<event>
 5   0  0.8423692E-07  0.3311751E+04  0.7818609E-02  0.8159912E-01
        1   -1    0    0  501    0  0.00000000000E+00  0.00000000000E+00  0.15883638858E+04  0.15883638858E+04  0.50400001928E-02 0.  1.
       -1   -1    0    0    0  501  0.00000000000E+00  0.00000000000E+00 -0.17262568438E+04  0.17262568439E+04  0.50400001928E-02 0. -1.
    10030    2    1    2    0    0  0.00000000000E+00  0.00000000000E+00 -0.13789295805E+03  0.33146207297E+04  0.33117512155E+04 0.  0.
        2    1    3    3  502    0 -0.11148815496E+04 -0.86106928464E+02  0.11534015168E+04  0.16064589418E+04  0.25500000920E-02 0.  1.
       -2    1    3    3    0  502  0.11148815496E+04  0.86106928464E+02 -0.12912944748E+04  0.17081617879E+04  0.25500000920E-02 0. -1.
</event>
<event>
 5   0  0.2422436E-06  0.3405258E+04  0.7818609E-02  0.8136617E-01
        2   -1    0    0  501    0  0.00000000000E+00  0.00000000000E+00  0.10822684733E+04  0.10822684733E+04  0.25500000920E-02 0. -1.
       -2   -1    0    0    0  501  0.00000000000E+00  0.00000000000E+00 -0.26785832763E+04  0.26785832763E+04  0.25500000920E-02 0.  1.
    10030    2    1    2    0    0  0.00000000000E+00  0.00000000000E+00 -0.15963148030E+04  0.37608517496E+04  0.34052584237E+04 0.  0.
        2    1    3    3  502    0 -0.89314485907E+03  0.98553256062E+03  0.37584356516E+03  0.13821145223E+04  0.25500000920E-02 0. -1.
       -2    1    3    3    0  502  0.89314485907E+03 -0.98553256062E+03 -0.19721583682E+04  0.23787372273E+04  0.25500000920E-02 0.  1.
</event>
<event>
 5   0  0.1513502E-06  0.3587999E+04  0.7818609E-02  0.8093246E-01
        2   -1    0    0  501    0  0.00000000000E+00  0.00000000000E+00  0.22258773535E+04  0.22258773535E+04  0.25500000920E-02 0.  1.
       -2   -1    0    0    0  501  0.00000000000E+00  0.00000000000E+00 -0.14459173433E+04  0.14459173433E+04  0.25500000920E-02 0. -1.
    10030    2    1    2    0    0  0.00000000000E+00  0.00000000000E+00  0.77996001021E+03  0.36717946968E+04  0.35879992583E+04 0.  0.
        3    1    3    3  502    0 -0.16102386693E+04 -0.73189433319E+03  0.83149811074E+02  0.17707206974E+04  0.10100000352E+00 0. -1.
       -3    1    3    3    0  502  0.16102386693E+04  0.73189433319E+03  0.69681019913E+03  0.19010739993E+04  0.10100000352E+00 0.  1.
</event>
<event>
 5   0  0.2536619E-06  0.3566546E+04  0.7818609E-02  0.8098198E-01
        2   -1    0    0  501    0  0.00000000000E+00  0.00000000000E+00  0.25218612440E+04  0.25218612440E+04  0.25500000920E-02 0.  1.
       -2   -1    0    0    0  501  0.00000000000E+00  0.00000000000E+00 -0.12609979676E+04  0.12609979676E+04  0.25500000920E-02 0. -1.
    10030    2    1    2    0    0  0.00000000000E+00  0.00000000000E+00  0.12608632763E+04  0.37828592116E+04  0.35665456135E+04 0.  0.
        1    1    3    3  502    0 -0.75709581902E+03 -0.31058115685E+03 -0.10500914319E+04  0.13312951399E+04  0.50400001928E-02 0. -1.
       -1    1    3    3    0  502  0.75709581902E+03  0.31058115685E+03  0.23109547082E+04  0.24515640717E+04  0.50400001928E-02 0.  1.
</event>
<event>
 5   0  0.1513502E-06  0.3698862E+04  0.7818609E-02  0.8068214E-01
       -2   -1    0    0    0  501  0.00000000000E+00  0.00000000000E+00  0.14011904553E+04  0.14011904553E+04  0.25500000920E-02 0.  1.
        2   -1    0    0  501    0  0.00000000000E+00  0.00000000000E+00 -0.24410632222E+04  0.24410632222E+04  0.25500000920E-02 0. -1.
    10030    2    1    2    0    0  0.00000000000E+00  0.00000000000E+00 -0.10398727669E+04  0.38422536774E+04  0.36988617101E+04 0.  0.
        3    1    3    3  502    0 -0.35162887468E+03  0.31233048239E+03 -0.23779064929E+04  0.24239703990E+04  0.10100000352E+00 0. -1.
       -3    1    3    3    0  502  0.35162887468E+03 -0.31233048239E+03  0.13380337260E+04  0.14182832785E+04  0.10100000352E+00 0.  1.
</event>
<event>
 5   0  0.8423692E-07  0.2989938E+04  0.7818609E-02  0.8246610E-01
        1   -1    0    0  501    0  0.00000000000E+00  0.00000000000E+00  0.26082599798E+04  0.26082599798E+04  0.50400001928E-02 0.  1.
       -1   -1    0    0    0  501  0.00000000000E+00  0.00000000000E+00 -0.85686722756E+03  0.85686722757E+03  0.50400001928E-02 0. -1.
    10030    2    1    2    0    0  0.00000000000E+00  0.00000000000E+00  0.17513927522E+04  0.34651272073E+04  0.29899381249E+04 0.  0.
        2    1    3    3  502    0 -0.74018145334E+03 -0.12909799600E+04  0.10413651482E+04  0.18162982170E+04  0.25500000920E-02 0. -1.
       -2    1    3    3    0  502  0.74018145334E+03  0.12909799600E+04  0.71002760399E+03  0.16488289904E+04  0.25500000920E-02 0.  1.
</event>
<event>
 5   0  0.1908273E-06  0.3499931E+04  0.7818609E-02  0.8113806E-01
       -1   -1    0    0    0  501  0.00000000000E+00  0.00000000000E+00  0.14641668958E+04  0.14641668958E+04  0.50400001928E-02 0. -1.
        1   -1    0    0  501    0  0.00000000000E+00  0.00000000000E+00 -0.20915507149E+04  0.20915507149E+04  0.50400001928E-02 0.  1.
    10030    2    1    2    0    0  0.00000000000E+00  0.00000000000E+00 -0.62738381911E+03  0.35557176108E+04  0.34999310380E+04 0.  0.
        3    1    3    3  502    0 -0.13047846231E+04 -0.24524003684E+03  0.84455633662E+03  0.15734932489E+04  0.10100000352E+00 0.  1.
       -3    1    3    3    0  502  0.13047846231E+04  0.24524003684E+03 -0.14719401557E+04  0.19822243618E+04  0.10100000352E+00 0. -1.
</event>
<event>
 5   0  0.8452742E-07  0.3632946E+04  0.7818609E-02  0.8082987E-01
       -1   -1    0    0    0  501  0.00000000000E+00  0.00000000000E+00  0.21218051464E+04  0.21218051464E+04  0.50400001928E-02 0.  1.
        1   -1    0    0  501    0  0.00000000000E+00  0.00000000000E+00 -0.15550784535E+04  0.15550784535E+04  0.50400001928E-02 0. -1.
    10030    2    1    2    0    0  0.00000000000E+00  0.00000000000E+00  0.56672669292E+03  0.36768835999E+04  0.36329456179E+04 0.  0.
        1    1    3    3  502    0  0.45135818680E+03  0.17593145918E+04  0.30939247273E+03  0.18424537302E+04  0.50400001928E-02 0. -1.
       -1    1    3    3    0  502 -0.45135818680E+03 -0.17593145918E+04  0.25733422019E+03  0.18344298697E+04  0.50400001928E-02 0.  1.
</event>
<event>
 5   0  0.1908273E-06  0.2484884E+04  0.7818609E-02  0.8408390E-01
        1   -1    0    0  501    0  0.00000000000E+00  0.00000000000E+00  0.27831974575E+04  0.27831974575E+04  0.50400001928E-02 0.  1.
       -1   -1    0    0    0  501  0.00000000000E+00  0.00000000000E+00 -0.55463629277E+03  0.55463629279E+03  0.50400001928E-02 0. -1.
    10030    2    1    2    0    0  0.00000000000E+00  0.00000000000E+00  0.22285611647E+04  0.33378337503E+04  0.24848841582E+04 0.  0.
        3    1    3    3  502    0  0.64466343687E+03 -0.84948367391E+03  0.19706506994E+04  0.22406868698E+04  0.10100000352E+00 0.  1.
       -3    1    3    3    0  502 -0.64466343687E+03  0.84948367391E+03  0.25791046530E+03  0.10971468805E+04  0.10100000352E+00 0. -1.
</event>
<event>
 5   0  0.2422436E-06  0.3575506E+04  0.7818609E-02  0.8096126E-01
        2   -1    0    0  501    0  0.00000000000E+00  0.00000000000E+00  0.16969934229E+04  0.16969934229E+04  0.25500000920E-02 0. -1.
       -2   -1    0    0    0  501  0.00000000000E+00  0.00000000000E+00 -0.18833664767E+04  0.18833664767E+04  0.25500000920E-02 0.  1.
    10030    2    1    2    0    0  0.00000000000E+00  0.00000000000E+00 -0.18637305374E+03  0.35803598996E+04  0.35755058517E+04 0.  0.
        2    1    3    3  502    0  0.45071008646E+03 -0.23382101804E+03 -0.18096456510E+04  0.18795289922E+04  0.25500000920E-02 0.  1.
       -2    1    3    3    0  502 -0.45071008646E+03  0.23382101804E+03  0.16232725972E+04  0.17008309074E+04  0.25500000920E-02 0. -1.
</event>
<event>
 5   0  0.1513502E-06  0.2509057E+04  0.7818609E-02  0.8399766E-01
       -2   -1    0    0    0  501  0.00000000000E+00  0.00000000000E+00  0.73303143611E+03  0.73303143612E+03  0.25500000920E-02 0. -1.
        2   -1    0    0  501    0  0.00000000000E+00  0.00000000000E+00 -0.21470314919E+04  0.21470314919E+04  0.25500000920E-02 0.  1.
    10030    2    1    2    0    0  0.00000000000E+00  0.00000000000E+00 -0.14140000558E+04  0.28800629280E+04  0.25090568570E+04 0.  0.
        3    1    3    3  502    0  0.44550684520E+03 -0.10510332305E+04 -0.10978451053E+03  0.11468216294E+04  0.10100000352E+00 0. -1.
       -3    1    3    3    0  502 -0.44550684520E+03  0.10510332305E+04 -0.13042155452E+04  0.17332412986E+04  0.10100000352E+00 0.  1.
</event>
<event>
 5   0  0.1513502E-06  0.3525218E+04  0.7818609E-02  0.8107839E-01
       -2   -1    0    0    0  501  0.00000000000E+00  0.00000000000E+00  0.15404500583E+04  0.15404500583E+04  0.25500000920E-02 0.  1.
        2   -1    0    0  501    0  0.00000000000E+00  0.00000000000E+00 -0.20168075440E+04  0.20168075440E+04  0.25500000920E-02 0. -1.
    10030    2    1    2    0    0  0.00000000000E+00  0.00000000000E+00 -0.47635748567E+03  0.35572576023E+04  0.35252184606E+04 0.  0.
        3    1    3    3  502    0 -0.11276864228E+04  0.11535610488E+04  0.47849547625E+03  0.16826579249E+04  0.10100000352E+00 0.  1.
       -3    1    3    3    0  502  0.11276864228E+04 -0.11535610488E+04 -0.95485296193E+03  0.18745996774E+04  0.10100000352E+00 0. -1.
</event>
<event>
 5   0  0.2382711E-06  0.1963282E+04  0.7818609E-02  0.8623982E-01
        2   -1    0    0  501    0  0.00000000000E+00  0.00000000000E+00  0.74168374049E+03  0.74168374049E+03  0.25500000920E-02 0. -1.
       -2   -1    0    0    0  501  0.00000000000E+00  0.00000000000E+00 -0.12992321107E+04  0.12992321107E+04  0.25500000920E-02 0.  1.
    10030    2    1    2    0    0  0.00000000000E+00  0.00000000000E+00 -0.55754837018E+03  0.20409158512E+04  0.19632822839E+04 0.  0.
        5    1    3    3  502    0 -0.34885240485E+03 -0.79566850693E+03  0.19625347733E+03  0.89068731362E+03  0.46999998093E+01 0. -1.
       -5    1    3    3    0  502  0.34885240485E+03  0.79566850693E+03 -0.75380184751E+03  0.11502285376E+04  0.46999998093E+01 0.  1.
</event>
<event>
 5   0  0.1566576E-06  0.2034949E+04  0.7818609E-02  0.8590453E-01
       -2   -1    0    0    0  501  0.00000000000E+00  0.00000000000E+00  0.88380892881E+03  0.88380892881E+03  0.25500000920E-02 0.  1.
        2   -1    0    0  501    0  0.00000000000E+00  0.00000000000E+00 -0.11713553857E+04  0.11713553857E+04  0.25500000920E-02 0. -1.
    10030    2    1    2    0    0  0.00000000000E+00  0.00000000000E+00 -0.28754645690E+03  0.20551643145E+04  0.20349489907E+04 0.  0.
        4    1    3    3  502    0  0.96557901699E+03  0.27890072336E+03  0.16307802331E+02  0.10051845646E+04  0.12699999809E+01 0.  1.
       -4    1    3    3    0  502 -0.96557901699E+03 -0.27890072336E+03 -0.30385425923E+03  0.10499797499E+04  0.12699999809E+01 0. -1.
</event>
<event>
 5   0  0.2536619E-06  0.3836858E+04  0.7818609E-02  0.8038291E-01
        2   -1    0    0  501    0  0.00000000000E+00  0.00000000000E+00  0.14707543636E+04  0.14707543636E+04  0.25500000920E-02 0.  1.
       -2   -1    0    0    0  501  0.00000000000E+00  0.00000000000E+00 -0.25023689035E+04  0.25023689035E+04  0.25500000920E-02 0. -1.
    10030    2    1    2    0    0  0.00000000000E+00  0.00000000000E+00 -0.10316145399E+04  0.39731232671E+04  0.38368580814E+04 0.  0.
        1    1    3    3  502    0 -0.70832215313E+03  0.16756955527E+04  0.11466233775E+03  0.18228612975E+04  0.50400001928E-02 0.  1.
       -1    1    3    3    0  502  0.70832215313E+03 -0.16756955527E+04 -0.11462768776E+04  0.21502619697E+04  0.50400001928E-02 0. -1.
</event>
<event>
 5   0  0.1513502E-06  0.3680155E+04  0.7818609E-02  0.8072374E-01
       -2   -1    0    0    0  501  0.00000000000E+00  0.00000000000E+00  0.17311936023E+04  0.17311936023E+04  0.25500000920E-02 0. -1.
        2   -1    0    0  501    0  0.00000000000E+00  0.00000000000E+00 -0.19558101712E+04  0.19558101712E+04  0.25500000920E-02 0.  1.
    10030    2    1    2    0    0  0.00000000000E+00  0.00000000000E+00 -0.22461656888E+03  0.36870037735E+04  0.36801554618E+04 0.  0.
        3    1    3    3  502    0  0.17824472981E+03 -0.15983301729E+04  0.78347833253E+03  0.17889295216E+04  0.10100000352E+00 0. -1.
       -3    1    3    3    0  502 -0.17824472981E+03  0.15983301729E+04 -0.10080949014E+04  0.18980742519E+04  0.10100000352E+00 0.  1.
</event>
<event>
 5   0  0.2536619E-06  0.3412727E+04  0.7818609E-02  0.8134790E-01
        2   -1    0    0  501    0  0.00000000000E+00  0.00000000000E+00  0.17620454164E+04  0.17620454164E+04  0.25500000920E-02 0. -1.
       -2   -1    0    0    0  501  0.00000000000E+00  0.00000000000E+00 -0.16524407149E+04  0.16524407149E+04  0.25500000920E-02 0.  1.
    10030    2    1    2    0    0  0.00000000000E+00  0.00000000000E+00  0.10960470154E+03  0.34144861313E+04  0.34127265273E+04 0.  0.
        1    1    3    3  502    0  0.48202933916E+03 -0.16291209932E+04 -0.10430194578E+03  0.17021358319E+04  0.50400001928E-02 0.  1.
       -1    1    3    3    0  502 -0.48202933916E+03  0.16291209932E+04  0.21390664732E+03  0.17123502994E+04  0.50400001928E-02 0. -1.
</event>
<event>
 5   0  0.1513502E-06  0.3622848E+04  0.7818609E-02  0.8085278E-01
       -2   -1    0    0    0  501  0.00000000000E+00  0.00000000000E+00  0.12237364441E+04  0.12237364441E+04  0.25500000920E-02 0. -1.
        2   -1    0    0  501    0  0.00000000000E+00  0.00000000000E+00 -0.26813424871E+04  0.26813424871E+04  0.25500000920E-02 0.  1.
    10030    2    1    2    0    0  0.00000000000E+00  0.00000000000E+00 -0.14576060430E+04  0.39050789313E+04  0.36228477863E+04 0.  0.
        3    1    3    3  502    0  0.70957395824E+03  0.13677931616E+03  0.10616368019E+04  0.12842416022E+04  0.10100000352E+00 0. -1.
       -3    1    3    3    0  502 -0.70957395824E+03 -0.13677931616E+03 -0.25192428449E+04  0.26208373291E+04  0.10100000352E+00 0.  1.
</event>
<event>
 5   0  0.8452742E-07  0.2006021E+04  0.7818609E-02  0.8603811E-01
       -1   -1    0    0    0  501  0.00000000000E+00  0.00000000000E+00  0.11141104059E+04  0.11141104059E+04  0.50400001928E-02 0. -1.
        1   -1    0    0  501    0  0.00000000000E+00  0.00000000000E+00 -0.90298947495E+03  0.90298947497E+03  0.50400001928E-02 0.  1.
    10030    2    1    2    0    0  0.00000000000E+00  0.00000000000E+00  0.21112093094E+03  0.20170998809E+04  0.20060209076E+04 0.  0.
        1    1    3    3  502    0 -0.41688679678E+03 -0.24392216115E+03 -0.77834923540E+03  0.91603501805E+03  0.50400001928E-02 0.  1.
       -1    1    3    3    0  502  0.41688679678E+03  0.24392216115E+03  0.98947016634E+03  0.11010648628E+04  0.50400001928E-02 0. -1.
</event>
<event>
 5   0  0.2382711E-06  0.3595899E+04  0.7818609E-02  0.8091432E-01
        2   -1    0    0  501    0  0.00000000000E+00  0.00000000000E+00  0.13008276781E+04  0.13008276781E+04  0.25500000920E-02 0. -1.
       -2   -1    0    0    0  501  0.00000000000E+00  0.00000000000E+00 -0.24850510538E+04  0.24850510538E+04  0.25500000920E-02 0.  1.
    10030    2    1    2    0    0  0.00000000000E+00  0.00000000000E+00 -0.11842233757E+04  0.37858787319E+04  0.35958994381E+04 0.  0.
        5    1    3    3  502    0 -0.11880267646E+04  0.23485708382E+03 -0.19912443495E+04  0.23305882504E+04  0.46999998093E+01 0.  1.
       -5    1    3    3    0  502  0.11880267646E+04 -0.23485708382E+03  0.80702097385E+03  0.14552904815E+04  0.46999998093E+01 0. -1.
</event>
<event>
 5   0  0.8423692E-07  0.3817974E+04  0.7818609E-02  0.8042309E-01
       -1   -1    0    0    0  501  0.00000000000E+00  0.00000000000E+00  0.16601145931E+04  0.16601145931E+04  0.50400001928E-02 0.  1.
        1   -1    0    0  501    0  0.00000000000E+00  0.00000000000E+00 -0.21951685833E+04  0.21951685833E+04  0.50400001928E-02 0. -1.
    10030    2    1    2    0    0  0.00000000000E+00  0.00000000000E+00 -0.53505399018E+03  0.38552831764E+04  0.38179740175E+04 0.  0.
        2    1    3    3  502    0 -0.76790020283E+03  0.76318446417E+03  0.13201319829E+04  0.17072989487E+04  0.25500000920E-02 0.  1.
       -2    1    3    3    0  502  0.76790020283E+03 -0.76318446417E+03 -0.18551859731E+04  0.21479842278E+04  0.25500000920E-02 0. -1.
</event>
<event>
 5   0  0.2536619E-06  0.3146566E+04  0.7818609E-02  0.8203073E-01
        2   -1    0    0  501    0  0.00000000000E+00  0.00000000000E+00  0.21018636028E+04  0.21018636028E+04  0.25500000920E-02 0. -1.
       -2   -1    0    0    0  501  0.00000000000E+00  0.00000000000E+00 -0.11776309485E+04  0.11776309485E+04  0.25500000920E-02 0.  1.
    10030    2    1    2    0    0  0.00000000000E+00  0.00000000000E+00  0.92423265427E+03  0.32794945513E+04  0.31465661463E+04 0.  0.
        1    1    3    3  502    0  0.24532126356E+03  0.15497095005E+04  0.34129866744E+03  0.16056982402E+04  0.50400001928E-02 0.  1.
       -1    1    3    3    0  502 -0.24532126356E+03 -0.15497095005E+04  0.58293398684E+03  0.16737963111E+04  0.50400001928E-02 0. -1.
</event>
<event>
 5   0  0.2536619E-06  0.3617678E+04  0.7818609E-02  0.8086454E-01
        2   -1    0    0  501    0  0.00000000000E+00  0.00000000000E+00  0.20685340731E+04  0.20685340731E+04  0.25500000920E-02 0. -1.
       -2   -1    0    0    0  501  0.00000000000E+00  0.00000000000E+00 -0.15817470327E+04  0.15817470327E+04  0.25500000920E-02 0.  1.
    10030    2    1    2    0    0  0.00000000000E+00  0.00000000000E+00  0.48678704041E+03  0.36502811058E+04  0.36176775048E+04 0.  0.
        1    1    3    3  502    0  0.93621984030E+02 -0.17433163388E+04 -0.23413768761E+03  0.17614588811E+04  0.50400001928E-02 0.  1.
       -1    1    3    3    0  502 -0.93621984030E+02  0.17433163388E+04  0.72092472801E+03  0.18888222247E+04  0.50400001928E-02 0. -1.
</event>
<event>
 5   0  0.1566576E-06  0.2626099E+04  0.7818609E-02  0.8359390E-01
       -2   -1    0    0    0  501  0.00000000000E+00  0.00000000000E+00  0.87743732334E+03  0.87743732334E+03  0.25500000920E-02 0. -1.
        2   -1    0    0  501    0  0.00000000000E+00  0.00000000000E+00 -0.19649256675E+04  0.19649256675E+04  0.25500000920E-02 0.  1.
    10030    2    1    2    0    0  0.00000000000E+00  0.00000000000E+00 -0.10874883442E+04  0.28423629908E+04  0.26260990981E+04 0.  0.
        4    1    3    3  502    0  0.69125335963E+03  0.10446728271E+04 -0.11772498723E+03  0.12581865157E+04  0.12699999809E+01 0. -1.
       -4    1    3    3    0  502 -0.69125335963E+03 -0.10446728271E+04 -0.96976335693E+03  0.15841764751E+04  0.12699999809E+01 0.  1.
</event>
<event>
 5   0  0.7754556E-07  0.3546108E+04  0.7818609E-02  0.8102949E-01
       -1   -1    0    0    0  501  0.00000000000E+00  0.00000000000E+00  0.11244710226E+04  0.11244710226E+04  0.50400001928E-02 0.  1.
        1   -1    0    0  501    0  0.00000000000E+00  0.00000000000E+00 -0.27957327361E+04  0.27957327361E+04  0.50400001928E-02 0. -1.
    10030    2    1    2    0    0  0.00000000000E+00  0.00000000000E+00 -0.16712617135E+04  0.39202037587E+04  0.35461079784E+04 0.  0.
        4    1    3    3  502    0 -0.26022912592E+03 -0.66999451914E+03  0.95619403071E+03  0.11962108890E+04  0.12699999809E+01 0.  1.
       -4    1    3    3    0  502  0.26022912592E+03  0.66999451914E+03 -0.26274557442E+04  0.27239928697E+04  0.12699999809E+01 0. -1.
</event>
<event>
 5   0  0.2422436E-06  0.3600248E+04  0.7818609E-02  0.8090435E-01
       -2   -1    0    0    0  501  0.00000000000E+00  0.00000000000E+00  0.15988531899E+04  0.15988531899E+04  0.25500000920E-02 0.  1.
        2   -1    0    0  501    0  0.00000000000E+00  0.00000000000E+00 -0.20267317312E+04  0.20267317312E+04  0.25500000920E-02 0. -1.
    10030    2    1    2    0    0  0.00000000000E+00  0.00000000000E+00 -0.42787854130E+03  0.36255849211E+04  0.36002480434E+04 0.  0.
        2    1    3    3  502    0 -0.30104195228E+03  0.17737316038E+04 -0.15271309509E+03  0.18055667667E+04  0.25500000920E-02 0.  1.
       -2    1    3    3    0  502  0.30104195228E+03 -0.17737316038E+04 -0.27516544621E+03  0.18200181544E+04  0.25500000920E-02 0. -1.
</event>
<event>
 5   0  0.1513502E-06  0.3109575E+04  0.7818609E-02  0.8213115E-01
       -2   -1    0    0    0  501  0.00000000000E+00  0.00000000000E+00  0.16777512236E+04  0.16777512236E+04  0.25500000920E-02 0.  1.
        2   -1    0    0  501    0  0.00000000000E+00  0.00000000000E+00 -0.14408362346E+04  0.14408362346E+04  0.25500000920E-02 0. -1.
    10030    2    1    2    0    0  0.00000000000E+00  0.00000000000E+00  0.23691498900E+03  0.31185874582E+04  0.31095753765E+04 0.  0.
        3    1    3    3  502    0  0.13914173015E+04  0.17164366699E+03 -0.55569681061E+03  0.15080791129E+04  0.10100000352E+00 0. -1.
       -3    1    3    3    0  502 -0.13914173015E+04 -0.17164366699E+03  0.79261179962E+03  0.16105083453E+04  0.10100000352E+00 0.  1.
</event>
<event>
 5   0  0.7754556E-07  0.3020343E+04  0.7818609E-02  0.8237945E-01
        1   -1    0    0  501    0  0.00000000000E+00  0.00000000000E+00  0.74882571457E+03  0.74882571458E+03  0.50400001928E-02 0. -1.
       -1   -1    0    0    0  501  0.00000000000E+00  0.00000000000E+00 -0.30455932055E+04  0.30455932055E+04  0.50400001928E-02 0.  1.
    10030    2    1    2    0    0  0.00000000000E+00  0.00000000000E+00 -0.22967674909E+04  0.37944189201E+04  0.30203433635E+04 0.  0.
        4    1    3    3  502    0  0.18960353065E+03  0.45451508894E+03 -0.29418777878E+04  0.29828141068E+04  0.12699999809E+01 0.  1.
       -4    1    3    3    0  502 -0.18960353065E+03 -0.45451508894E+03  0.64511029683E+03  0.81160481325E+03  0.12699999809E+01 0. -1.
</event>
<event>
 5   0  0.1566576E-06  0.3576240E+04  0.7818609E-02  0.8095956E-01
        2   -1    0    0  501    0  0.00000000000E+00  0.00000000000E+00  0.20306401011E+04  0.20306401011E+04  0.25500000920E-02 0. -1.
       -2   -1    0    0    0  501  0.00000000000E+00  0.00000000000E+00 -0.15745644164E+04  0.15745644164E+04  0.25500000920E-02 0.  1.
    10030    2    1    2    0    0  0.00000000000E+00  0.00000000000E+00  0.45607568475E+03  0.36052045175E+04  0.35762402860E+04 0.  0.
        4    1    3    3  502    0  0.15673939290E+04 -0.66935155072E+03  0.77335962791E+03  0.18715880834E+04  0.12699999809E+01 0. -1.
       -4    1    3    3    0  502 -0.15673939290E+04  0.66935155072E+03 -0.31728394315E+03  0.17336164341E+04  0.12699999809E+01 0.  1.
</event>
<event>
 5   0  0.7707500E-07  0.3671645E+04  0.7818609E-02  0.8074275E-01
        3   -1    0    0  501    0  0.00000000000E+00  0.00000000000E+00  0.22285831726E+04  0.22285831749E+04  0.10100000352E+00 0. -1.
       -3   -1    0    0    0  501  0.00000000000E+00  0.00000000000E+00 -0.15122814419E+04  0.15122814453E+04  0.10100000352E+00 0.  1.
    10030    2    1    2    0    0  0.00000000000E+00  0.00000000000E+00  0.71630173068E+03  0.37408646202E+04  0.36716453992E+04 0.  0.
        1    1    3    3  502    0 -0.52634094558E+03 -0.35124608012E+03  0.21139608818E+04  0.22066352688E+04  0.50400001928E-02 0. -1.
       -1    1    3    3    0  502  0.52634094558E+03  0.35124608012E+03 -0.13976591511E+04  0.15342293514E+04  0.50400001928E-02 0.  1.
</event>
<event>
 5   0  0.1513502E-06  0.2287415E+04  0.7818609E-02  0.8482900E-01
       -2   -1    0    0    0  501  0.00000000000E+00  0.00000000000E+00  0.11745301216E+04  0.11745301216E+04  0.25500000920E-02 0. -1.
        2   -1    0    0  501    0  0.00000000000E+00  0.00000000000E+00 -0.11136942052E+04  0.11136942052E+04  0.25500000920E-02 0.  1.
    10030    2    1    2    0    0  0.00000000000E+00  0.00000000000E+00  0.60835916414E+02  0.22882243268E+04  0.22874154763E+04 0.  0.
        3    1    3    3  502    0  0.28110842326E+02  0.10823163674E+04 -0.33831574926E+03  0.11343088182E+04  0.10100000352E+00 0. -1.
       -3    1    3    3    0  502 -0.28110842326E+02 -0.10823163674E+04  0.39915166567E+03  0.11539155086E+04  0.10100000352E+00 0.  1.
</event>
<event>
 5   0  0.1566576E-06  0.3221389E+04  0.7818609E-02  0.8183191E-01
        2   -1    0    0  501    0  0.00000000000E+00  0.00000000000E+00  0.24949056364E+04  0.24949056364E+04  0.25500000920E-02 0. -1.
       -2   -1    0    0    0  501  0.00000000000E+00  0.00000000000E+00 -0.10398534466E+04  0.10398534466E+04  0.25500000920E-02 0.  1.
    10030    2    1    2    0    0  0.00000000000E+00  0.00000000000E+00  0.14550521898E+04  0.35347590831E+04  0.32213886603E+04 0.  0.
        4    1    3    3  502    0  0.12606493580E+04 -0.38066698649E+03  0.17452125700E+04  0.21863011425E+04  0.12699999809E+01 0. -1.
       -4    1    3    3    0  502 -0.12606493580E+04  0.38066698649E+03 -0.29016038022E+03  0.13484579406E+04  0.12699999809E+01 0.  1.
</event>
<event>
 5   0  0.1513502E-06  0.3572705E+04  0.7818609E-02  0.8096773E-01
        2   -1    0    0  501    0  0.00000000000E+00  0.00000000000E+00  0.16304459260E+04  0.16304459260E+04  0.25500000920E-02 0.  1.
       -2   -1    0    0    0  501  0.00000000000E+00  0.00000000000E+00 -0.19571668919E+04  0.19571668919E+04  0.25500000920E-02 0. -1.
    10030    2    1    2    0    0  0.00000000000E+00  0.00000000000E+00 -0.32672096594E+03  0.35876128178E+04  0.35727047375E+04 0.  0.
        3    1    3    3  502    0 -0.11470216651E+04  0.32697142091E+03 -0.14987538825E+04  0.19154195939E+04  0.10100000352E+00 0. -1.
       -3    1    3    3    0  502  0.11470216651E+04 -0.32697142091E+03  0.11720329165E+04  0.16721932239E+04  0.10100000352E+00 0.  1.
</event>
<event>
 5   0  0.1513502E-06  0.3582987E+04  0.7818609E-02  0.8094400E-01
       -2   -1    0    0    0  501  0.00000000000E+00  0.00000000000E+00  0.13100641332E+04  0.13100641332E+04  0.25500000920E-02 0. -1.
        2   -1    0    0  501    0  0.00000000000E+00  0.00000000000E+00 -0.24498406639E+04  0.24498406639E+04  0.25500000920E-02 0.  1.
    10030    2    1    2    0    0  0.00000000000E+00  0.00000000000E+00 -0.11397765307E+04  0.37599047972E+04  0.35829866793E+04 0.  0.
        3    1    3    3  502    0 -0.56543446138E+03  0.82255449206E+03 -0.21310063001E+04  0.23531893005E+04  0.10100000352E+00 0.  1.
       -3    1    3    3    0  502  0.56543446138E+03 -0.82255449206E+03  0.99122976944E+03  0.14067154967E+04  0.10100000352E+00 0. -1.
</event>
<event>
 5   0  0.1566576E-06  0.3243021E+04  0.7818609E-02  0.8177547E-01
       -2   -1    0    0    0  501  0.00000000000E+00  0.00000000000E+00  0.17388128654E+04  0.17388128654E+04  0.25500000920E-02 0.  1.
        2   -1    0    0  501    0  0.00000000000E+00  0.00000000000E+00 -0.15121212353E+04  0.15121212353E+04  0.25500000920E-02 0. -1.
    10030    2    1    2    0    0  0.00000000000E+00  0.00000000000E+00  0.22669163015E+03  0.32509341007E+04  0.32430207264E+04 0.  0.
        4    1    3    3  502    0 -0.13738349911E+04  0.83707950320E+03  0.31674377625E+03  0.16396502401E+04  0.12699999809E+01 0.  1.
       -4    1    3    3    0  502  0.13738349911E+04 -0.83707950320E+03 -0.90052146099E+02  0.16112838605E+04  0.12699999809E+01 0. -1.
</event>
<event>
 5   0  0.2536619E-06  0.3450273E+04  0.7818609E-02  0.8125677E-01
        2   -1    0    0  501    0  0.00000000000E+00  0.00000000000E+00  0.27912252926E+04  0.27912252926E+04  0.25500000920E-02 0. -1.
       -2   -1    0    0    0  501  0.00000000000E+00  0.00000000000E+00 -0.10662328221E+04  0.10662328221E+04  0.25500000920E-02 0.  1.
    10030    2    1    2    0    0  0.00000000000E+00  0.00000000000E+00  0.17249924705E+04  0.38574581147E+04  0.34502730447E+04 0.  0.
        1    1    3    3  502    0 -0.15061834952E+04 -0.52568677843E+03  0.15966167210E+04  0.22570157873E+04  0.50400001928E-02 0. -1.
       -1    1    3    3    0  502  0.15061834952E+04  0.52568677843E+03  0.12837574948E+03  0.16004423274E+04  0.50400001928E-02 0.  1.
</event>
<event>
 5   0  0.1908273E-06  0.3548674E+04  0.7818609E-02  0.8102351E-01
        1   -1    0    0  501    0  0.00000000000E+00  0.00000000000E+00  0.21709028902E+04  0.21709028902E+04  0.50400001928E-02 0. -1.
       -1   -1    0    0    0  501  0.00000000000E+00  0.00000000000E+00 -0.14502133972E+04  0.14502133972E+04  0.50400001928E-02 0.  1.
    10030    2    1    2    0    0  0.00000000000E+00  0.00000000000E+00  0.72068949296E+03  0.36211162874E+04  0.35486743753E+04 0.  0.
        3    1    3    3  502    0  0.42600420392E+02  0.13171869318E+04  0.15726531250E+04  0.20518367554E+04  0.10100000352E+00 0. -1.
       -3    1    3    3    0  502 -0.42600420392E+02 -0.13171869318E+04 -0.85196363203E+03  0.15692795320E+04  0.10100000352E+00 0.  1.
</event>
<event>
 5   0  0.2536619E-06  0.3467957E+04  0.7818609E-02  0.8121426E-01
        2   -1    0    0  501    0  0.00000000000E+00  0.00000000000E+00  0.10250277448E+04  0.10250277448E+04  0.25500000920E-02 0. -1.
       -2   -1    0    0    0  501  0.00000000000E+00  0.00000000000E+00 -0.29332680475E+04  0.29332680475E+04  0.25500000920E-02 0.  1.
    10030    2    1    2    0    0  0.00000000000E+00  0.00000000000E+00 -0.19082403027E+04  0.39582957922E+04  0.34679568230E+04 0.  0.
        1    1    3    3  502    0  0.14193347556E+04  0.99157993283E+03 -0.10620357863E+04  0.20311725488E+04  0.50400001928E-02 0.  1.
       -1    1    3    3    0  502 -0.14193347556E+04 -0.99157993283E+03 -0.84620451639E+03  0.19271232434E+04  0.50400001928E-02 0. -1.
</event>
<event>
 5   0  0.8452742E-07  0.3170695E+04  0.7818609E-02  0.8196600E-01
       -1   -1    0    0    0  501  0.00000000000E+00  0.00000000000E+00  0.11640126075E+04  0.11640126076E+04  0.50400001928E-02 0. -1.
        1   -1    0    0  501    0  0.00000000000E+00  0.00000000000E+00 -0.21591914482E+04  0.21591914482E+04  0.50400001928E-02 0.  1.
    10030    2    1    2    0    0  0.00000000000E+00  0.00000000000E+00 -0.99517884065E+03  0.33232040558E+04  0.31706946039E+04 0.  0.
        1    1    3    3  502    0 -0.13530817410E+04  0.66697964274E+03  0.13335291718E+02  0.15085986450E+04  0.50400001928E-02 0. -1.
       -1    1    3    3    0  502  0.13530817410E+04 -0.66697964274E+03 -0.10085141324E+04  0.18146054108E+04  0.50400001928E-02 0.  1.
</event>
<event>
 5   0  0.1566576E-06  0.3571440E+04  0.7818609E-02  0.8097065E-01
       -2   -1    0    0    0  501  0.00000000000E+00  0.00000000000E+00  0.28460937688E+04  0.28460937688E+04  0.25500000920E-02 0.  1.
        2   -1    0    0  501    0  0.00000000000E+00  0.00000000000E+00 -0.11204111894E+04  0.11204111894E+04  0.25500000920E-02 0. -1.
    10030    2    1    2    0    0  0.00000000000E+00  0.00000000000E+00  0.17256825794E+04  0.39665049582E+04  0.35714396563E+04 0.  0.
        4    1    3    3  502    0  0.66474200353E+03 -0.92111295094E+03 -0.66742044444E+03  0.13174910482E+04  0.12699999809E+01 0. -1.
       -4    1    3    3    0  502 -0.66474200353E+03  0.92111295094E+03  0.23931030238E+04  0.26490139100E+04  0.12699999809E+01 0.  1.
</event>
<event>
 5   0  0.1566576E-06  0.3683163E+04  0.7818609E-02  0.8071703E-01
        2   -1    0    0  501    0  0.00000000000E+00  0.00000000000E+00  0.15267886758E+04  0.15267886758E+04  0.25500000920E-02 0.  1.
       -2   -1    0    0    0  501  0.00000000000E+00  0.00000000000E+00 -0.22212777976E+04  0.22212777976E+04  0.25500000920E-02 0. -1.
    10030    2    1    2    0    0  0.00000000000E+00  0.00000000000E+00 -0.69448912187E+03  0.37480664734E+04  0.36831626558E+04 0.  0.
        4    1    3    3  502    0 -0.15160236334E+03  0.68415750486E+03 -0.20803011519E+04  0.21951558631E+04  0.12699999809E+01 0. -1.
       -4    1    3    3    0  502  0.15160236334E+03 -0.68415750486E+03  0.13858120300E+04  0.15529106103E+04  0.12699999809E+01 0.  1.
</event>
<event>
 5   0  0.1566576E-06  0.3254083E+04  0.7818609E-02  0.8174678E-01
       -2   -1    0    0    0  501  0.00000000000E+00  0.00000000000E+00  0.13014878945E+04  0.13014878945E+04  0.25500000920E-02 0. -1.
        2   -1    0    0  501    0  0.00000000000E+00  0.00000000000E+00 -0.20340292616E+04  0.20340292616E+04  0.25500000920E-02 0.  1.
    10030    2    1    2    0    0  0.00000000000E+00  0.00000000000E+00 -0.73254136713E+03  0.33355171561E+04  0.32540832570E+04 0.  0.
        4    1    3    3  502    0  0.11489854944E+04 -0.11432360768E+04 -0.22092495770E+03  0.16358379637E+04  0.12699999809E+01 0.  1.
       -4    1    3    3    0  502 -0.11489854944E+04  0.11432360768E+04 -0.51161640943E+03  0.16996791924E+04  0.12699999809E+01 0. -1.
</event>
<event>
 5   0  0.2536619E-06  0.2447846E+04  0.7818609E-02  0.8421805E-01
       -2   -1    0    0    0  501  0.00000000000E+00  0.00000000000E+00  0.14767319665E+04  0.14767319665E+04  0.25500000920E-02 0. -1.
        2   -1    0    0  501    0  0.00000000000E+00  0.00000000000E+00 -0.10143935483E+04  0.10143935483E+04  0.25500000920E-02 0.  1.
    10030    2    1    2    0    0  0.00000000000E+00  0.00000000000E+00  0.46233841826E+03  0.24911255148E+04  0.24478458933E+04 0.  0.
        1    1    3    3  502    0  0.84259083088E+03 -0.86079758108E+03  0.45192757656E+03  0.12865342274E+04  0.50400001928E-02 0. -1.
       -1    1    3    3    0  502 -0.84259083088E+03  0.86079758108E+03  0.10410841704E+02  0.12045912873E+04  0.50400001928E-02 0.  1.
</event>
<event>
 5   0  0.8423692E-07  0.2305779E+04  0.7818609E-02  0.8475646E-01
       -1   -1    0    0    0  501  0.00000000000E+00  0.00000000000E+00  0.17843475303E+04  0.17843475303E+04  0.50400001928E-02 0.  1.
        1   -1    0    0  501    0  0.00000000000E+00  0.00000000000E+00 -0.74489657184E+03  0.74489657185E+03  0.50400001928E-02 0. -1.
    10030    2    1    2    0    0  0.00000000000E+00  0.00000000000E+00  0.10394509584E+04  0.25292441021E+04  0.23057791380E+04 0.  0.
        2    1    3    3  502    0  0.62654534311E+03 -0.82627848263E+03  0.10724000214E+04  0.14917563487E+04  0.25500000920E-02 0.  1.
       -2    1    3    3    0  502 -0.62654534311E+03  0.82627848263E+03 -0.32949063002E+02  0.10374877535E+04  0.25500000920E-02 0. -1.
</event>
<event>
 5   0  0.1908273E-06  0.3158988E+04  0.7818609E-02  0.8199733E-01
        1   -1    0    0  501    0  0.00000000000E+00  0.00000000000E+00  0.14509991452E+04  0.14509991452E+04  0.50400001928E-02 0. -1.
       -1   -1    0    0    0  501  0.00000000000E+00  0.00000000000E+00 -0.17193684047E+04  0.17193684047E+04  0.50400001928E-02 0.  1.
    10030    2    1    2    0    0  0.00000000000E+00  0.00000000000E+00 -0.26836925947E+03  0.31703675499E+04  0.31589884998E+04 0.  0.
        3    1    3    3  502    0 -0.65146294568E+03 -0.71676431458E+03 -0.13863354490E+04  0.16911774122E+04  0.10100000352E+00 0.  1.
       -3    1    3    3    0  502  0.65146294568E+03  0.71676431458E+03  0.11179661895E+04  0.14791901377E+04  0.10100000352E+00 0. -1.
</event>
<event>
 5   0  0.1566576E-06  0.3572184E+04  0.7818609E-02  0.8096893E-01
       -2   -1    0    0    0  501  0.00000000000E+00  0.00000000000E+00  0.16837766052E+04  0.16837766052E+04  0.25500000920E-02 0. -1.
        2   -1    0    0  501    0  0.00000000000E+00  0.00000000000E+00 -0.18946244888E+04  0.18946244888E+04  0.25500000920E-02 0.  1.
    10030    2    1    2    0    0  0.00000000000E+00  0.00000000000E+00 -0.21084788365E+03  0.35784010940E+04  0.35721838642E+04 0.  0.
        4    1    3    3  502    0 -0.38371027087E+03  0.62878662443E+03 -0.17353749778E+04  0.18852411298E+04  0.12699999809E+01 0.  1.
       -4    1    3    3    0  502  0.38371027087E+03 -0.62878662443E+03  0.15245270941E+04  0.16931599643E+04  0.12699999809E+01 0. -1.
</event>
<event>
 5   0  0.2536619E-06  0.3204109E+04  0.7818609E-02  0.8187733E-01
        2   -1    0    0  501    0  0.00000000000E+00  0.00000000000E+00  0.15959141626E+04  0.15959141626E+04  0.25500000920E-02 0. -1.
       -2   -1    0    0    0  501  0.00000000000E+00  0.00000000000E+00 -0.16082181645E+04  0.16082181645E+04  0.25500000920E-02 0.  1.
    10030    2    1    2    0    0  0.00000000000E+00  0.00000000000E+00 -0.12304001978E+02  0.32041323271E+04  0.32041087031E+04 0.  0.
        1    1    3    3  502    0  0.15324560376E+04 -0.45911274183E+03  0.79709730671E+02  0.16017364509E+04  0.50400001928E-02 0.  1.
       -1    1    3    3    0  502 -0.15324560376E+04  0.45911274183E+03 -0.92013732649E+02  0.16023958762E+04  0.50400001928E-02 0. -1.
</event>
<event>
 5   0  0.1566576E-06  0.1819849E+04  0.7818609E-02  0.8695814E-01
        2   -1    0    0  501    0  0.00000000000E+00  0.00000000000E+00  0.23825859215E+04  0.23825859215E+04  0.25500000920E-02 0. -1.
       -2   -1    0    0    0  501  0.00000000000E+00  0.00000000000E+00 -0.34750603633E+03  0.34750603634E+03  0.25500000920E-02 0.  1.
    10030    2    1    2    0    0  0.00000000000E+00  0.00000000000E+00  0.20350798851E+04  0.27300919578E+04  0.18198494331E+04 0.  0.
        4    1    3    3  502    0  0.70402261925E+03  0.19737223421E+03  0.18300721522E+04  0.19707281249E+04  0.12699999809E+01 0. -1.
       -4    1    3    3    0  502 -0.70402261925E+03 -0.19737223421E+03  0.20500773299E+03  0.75936383292E+03  0.12699999809E+01 0.  1.
</event>
<event>
 5   0  0.1513502E-06  0.2813411E+04  0.7818609E-02  0.8299117E-01
       -2   -1    0    0    0  501  0.00000000000E+00  0.00000000000E+00  0.23716061830E+04  0.23716061830E+04  0.25500000920E-02 0.  1.
        2   -1    0    0  501    0  0.00000000000E+00  0.00000000000E+00 -0.83437979099E+03  0.83437979100E+03  0.25500000920E-02 0. -1.
    10030    2    1    2    0    0  0.00000000000E+00  0.00000000000E+00  0.15372263920E+04  0.32059859740E+04  0.28134109343E+04 0.  0.
        3    1    3    3  502    0  0.13570258043E+04  0.33486207038E+03  0.58782995826E+03  0.15163098990E+04  0.10100000352E+00 0. -1.
       -3    1    3    3    0  502 -0.13570258043E+04 -0.33486207038E+03  0.94939643375E+03  0.16896760750E+04  0.10100000352E+00 0.  1.
</event>
<event>
 5   0  0.2422436E-06  0.3618097E+04  0.7818609E-02  0.8086359E-01
        2   -1    0    0  501    0  0.00000000000E+00  0.00000000000E+00  0.13816610251E+04  0.13816610251E+04  0.25500000920E-02 0.  1.
       -2   -1    0    0    0  501  0.00000000000E+00  0.00000000000E+00 -0.23686393661E+04  0.23686393661E+04  0.25500000920E-02 0. -1.
    10030    2    1    2    0    0  0.00000000000E+00  0.00000000000E+00 -0.98697834098E+03  0.37503003912E+04  0.36180971213E+04 0.  0.
        2    1    3    3  502    0 -0.85441225796E+03 -0.15801370319E+04 -0.71532640859E+03  0.19335317988E+04  0.25500000920E-02 0.  1.
       -2    1    3    3    0  502  0.85441225796E+03  0.15801370319E+04 -0.27165193239E+03  0.18167685924E+04  0.25500000920E-02 0. -1.
</event>
<event>
 5   0  0.8452742E-07  0.3482851E+04  0.7818609E-02  0.8117866E-01
       -1   -1    0    0    0  501  0.00000000000E+00  0.00000000000E+00  0.21474828359E+04  0.21474828359E+04  0.50400001928E-02 0. -1.
        1   -1    0    0  501    0  0.00000000000E+00  0.00000000000E+00 -0.14121473856E+04  0.14121473856E+04  0.50400001928E-02 0.  1.
    10030    2    1    2    0    0  0.00000000000E+00  0.00000000000E+00  0.73533545037E+03  0.35596302215E+04  0.34828507131E+04 0.  0.
        1    1    3    3  502    0 -0.10532828894E+03 -0.17154494845E+04  0.65438968134E+03  0.18390450885E+04  0.50400001928E-02 0.  1.
       -1    1    3    3    0  502  0.10532828894E+03  0.17154494845E+04  0.80945769022E+02  0.17205851330E+04  0.50400001928E-02 0. -1.
</event>
<event>
 5   0  0.1566576E-06  0.1987389E+04  0.7818609E-02  0.8612539E-01
       -2   -1    0    0    0  501  0.00000000000E+00  0.00000000000E+00  0.41591540048E+03  0.41591540049E+03  0.25500000920E-02 0.  1.
        2   -1    0    0  501    0  0.00000000000E+00  0.00000000000E+00 -0.23741105917E+04  0.23741105917E+04  0.25500000920E-02 0. -1.
    10030    2    1    2    0    0  0.00000000000E+00  0.00000000000E+00 -0.19581951912E+04  0.27900259921E+04  0.19873894007E+04 0.  0.
        4    1    3    3  502    0  0.48579138265E+03 -0.37140504900E+03 -0.20786854457E+04  0.21667648172E+04  0.12699999809E+01 0. -1.
       -4    1    3    3    0  502 -0.48579138265E+03  0.37140504900E+03  0.12049025453E+03  0.62326117497E+03  0.12699999809E+01 0.  1.
</event>
<event>
 5   0  0.8423692E-07  0.2235641E+04  0.7818609E-02  0.8503738E-01
       -1   -1    0    0    0  501  0.00000000000E+00  0.00000000000E+00  0.83972205446E+03  0.83972205447E+03  0.50400001928E-02 0.  1.
        1   -1    0    0  501    0  0.00000000000E+00  0.00000000000E+00 -0.14880190342E+04  0.14880190342E+04  0.50400001928E-02 0. -1.
    10030    2    1    2    0    0  0.00000000000E+00  0.00000000000E+00 -0.64829697969E+03  0.23277410886E+04  0.22356407587E+04 0.  0.
        2    1    3    3  502    0  0.71960236288E+03  0.62811128995E+02  0.56407783855E+03  0.91649146561E+03  0.25500000920E-02 0.  1.
       -2    1    3    3    0  502 -0.71960236288E+03 -0.62811128995E+02 -0.12123748182E+04  0.14112496230E+04  0.25500000920E-02 0. -1.
</event>
<event>
 5   0  0.8423692E-07  0.3629188E+04  0.7818609E-02  0.8083838E-01
       -1   -1    0    0    0  501  0.00000000000E+00  0.00000000000E+00  0.20613710417E+04  0.20613710417E+04  0.50400001928E-02 0.  1.
        1   -1    0    0  501    0  0.00000000000E+00  0.00000000000E+00 -0.15973596967E+04  0.15973596967E+04  0.50400001928E-02 0. -1.
    10030    2    1    2    0    0  0.00000000000E+00  0.00000000000E+00  0.46401134505E+03  0.36587307384E+04  0.36291878000E+04 0.  0.
        2    1    3    3  502    0 -0.77470795692E+02  0.27842676181E+03 -0.15740090322E+04  0.16003210989E+04  0.25500000920E-02 0. -1.
       -2    1    3    3    0  502  0.77470795692E+02 -0.27842676181E+03  0.20380203773E+04  0.20584096395E+04  0.25500000920E-02 0.  1.
</event>
<event>
 5   0  0.1513502E-06  0.3590061E+04  0.7818609E-02  0.8092772E-01
       -2   -1    0    0    0  501  0.00000000000E+00  0.00000000000E+00  0.21885227060E+04  0.21885227060E+04  0.25500000920E-02 0. -1.
        2   -1    0    0  501    0  0.00000000000E+00  0.00000000000E+00 -0.14722877321E+04  0.14722877321E+04  0.25500000920E-02 0.  1.
    10030    2    1    2    0    0  0.00000000000E+00  0.00000000000E+00  0.71623497395E+03  0.36608104381E+04  0.35900613540E+04 0.  0.
        3    1    3    3  502    0  0.24381054665E+03  0.10263434860E+04 -0.11228503835E+04  0.15406549023E+04  0.10100000352E+00 0.  1.
       -3    1    3    3    0  502 -0.24381054665E+03 -0.10263434860E+04  0.18390853575E+04  0.21201555358E+04  0.10100000352E+00 0. -1.
</event>
<event>
 5   0  0.1513502E-06  0.3516594E+04  0.7818609E-02  0.8109869E-01
        2   -1    0    0  501    0  0.00000000000E+00  0.00000000000E+00  0.19946221460E+04  0.19946221460E+04  0.25500000920E-02 0. -1.
       -2   -1    0    0    0  501  0.00000000000E+00  0.00000000000E+00 -0.15499721398E+04  0.15499721398E+04  0.25500000920E-02 0.  1.
    10030    2    1    2    0    0  0.00000000000E+00  0.00000000000E+00  0.44465000618E+03  0.35445942858E+04  0.35165942363E+04 0.  0.
        3    1    3    3  502    0 -0.92689629548E+03 -0.13817493506E+04  0.79539453085E+03  0.18441855873E+04  0.10100000352E+00 0. -1.
       -3    1    3    3    0  502  0.92689629548E+03  0.13817493506E+04 -0.35074452467E+03  0.17004086986E+04  0.10100000352E+00 0.  1.
</event>
<event>
 5   0  0.1513502E-06  0.2614746E+04  0.7818609E-02  0.8363209E-01
       -2   -1    0    0    0  501  0.00000000000E+00  0.00000000000E+00  0.10886684555E+04  0.10886684555E+04  0.25500000920E-02 0. -1.
        2   -1    0    0  501    0  0.00000000000E+00  0.00000000000E+00 -0.15700138977E+04  0.15700138977E+04  0.25500000920E-02 0.  1.
    10030    2    1    2    0    0  0.00000000000E+00  0.00000000000E+00 -0.48134544216E+03  0.26586823532E+04  0.26147463396E+04 0.  0.
        3    1    3    3  502    0  0.48695834532E+03  0.73128822473E+03  0.74374488203E+03  0.11511157012E+04  0.10100000352E+00 0. -1.
       -3    1    3    3    0  502 -0.48695834532E+03 -0.73128822473E+03 -0.12250903242E+04  0.15075666520E+04  0.10100000352E+00 0.  1.
</event>
<event>
 5   0  0.2536619E-06  0.3781476E+04  0.7818609E-02  0.8050142E-01
        2   -1    0    0  501    0  0.00000000000E+00  0.00000000000E+00  0.19130898511E+04  0.19130898511E+04  0.25500000920E-02 0.  1.
       -2   -1    0    0    0  501  0.00000000000E+00  0.00000000000E+00 -0.18686470211E+04  0.18686470211E+04  0.25500000920E-02 0. -1.
    10030    2    1    2    0    0  0.00000000000E+00  0.00000000000E+00  0.44442829982E+02  0.37817368723E+04  0.37814757180E+04 0.  0.
        1    1    3    3  502    0  0.64167295748E+03 -0.11986092717E+04  0.13362685054E+04  0.19063110683E+04  0.50400001928E-02 0.  1.
       -1    1    3    3    0  502 -0.64167295748E+03  0.11986092717E+04 -0.12918256754E+04  0.18754258040E+04  0.50400001928E-02 0. -1.
</event>
<event>
 5   0  0.8423692E-07  0.3587132E+04  0.7818609E-02  0.8093446E-01
       -1   -1    0    0    0  501  0.00000000000E+00  0.00000000000E+00  0.15641147330E+04  0.15641147330E+04  0.50400001928E-02 0.  1.
        1   -1    0    0  501    0  0.00000000000E+00  0.00000000000E+00 -0.20566771510E+04  0.20566771510E+04  0.50400001928E-02 0. -1.
    10030    2    1    2    0    0  0.00000000000E+00  0.00000000000E+00 -0.49256241801E+03  0.36207918839E+04  0.35871320203E+04 0.  0.
        2    1    3    3  502    0 -0.12612716433E+04 -0.36794742228E+03  0.98611262680E+03  0.16427445256E+04  0.25500000920E-02 0.  1.
       -2    1    3    3    0  502  0.12612716433E+04  0.36794742228E+03 -0.14786750448E+04  0.19780473583E+04  0.25500000920E-02 0. -1.
</event>
<event>
 5   0  0.7707500E-07  0.2430688E+04  0.7818609E-02  0.8428103E-01
        3   -1    0    0  501    0  0.00000000000E+00  0.00000000000E+00  0.15785631575E+04  0.15785631607E+04  0.10100000352E+00 0. -1.
       -3   -1    0    0    0  501  0.00000000000E+00  0.00000000000E+00 -0.93569938637E+03  0.93569939182E+03  0.10100000352E+00 0.  1.
    10030    2    1    2    0    0  0.00000000000E+00  0.00000000000E+00  0.64286377113E+03  0.25142625526E+04  0.24306876301E+04 0.  0.
        1    1    3    3  502    0 -0.10672534976E+03 -0.70910656466E+03  0.13364133827E+04  0.15166486573E+04  0.50400001928E-02 0. -1.
       -1    1    3    3    0  502  0.10672534976E+03  0.70910656466E+03 -0.69354961153E+03  0.99761389525E+03  0.50400001928E-02 0.  1.
</event>
<event>
 5   0  0.1513502E-06  0.3583719E+04  0.7818609E-02  0.8094231E-01
       -2   -1    0    0    0  501  0.00000000000E+00  0.00000000000E+00  0.18461783037E+04  0.18461783037E+04  0.25500000920E-02 0.  1.
        2   -1    0    0  501    0  0.00000000000E+00  0.00000000000E+00 -0.17391392305E+04  0.17391392305E+04  0.25500000920E-02 0. -1.
    10030    2    1    2    0    0  0.00000000000E+00  0.00000000000E+00  0.10703907324E+03  0.35853175342E+04  0.35837193609E+04 0.  0.
        3    1    3    3  502    0 -0.42929322630E+03 -0.17170946318E+04 -0.22598732984E+03  0.17843141349E+04  0.10100000352E+00 0.  1.
       -3    1    3    3    0  502  0.42929322630E+03  0.17170946318E+04  0.33302640308E+03  0.18010033992E+04  0.10100000352E+00 0. -1.
</event>
<event>
 5   0  0.2422436E-06  0.3909531E+04  0.7818609E-02  0.8023050E-01
       -2   -1    0    0    0  501  0.00000000000E+00  0.00000000000E+00  0.18751295370E+04  0.18751295370E+04  0.25500000920E-02 0.  1.
        2   -1    0    0  501    0  0.00000000000E+00  0.00000000000E+00 -0.20377832429E+04  0.20377832429E+04  0.25500000920E-02 0. -1.
    10030    2    1    2    0    0  0.00000000000E+00  0.00000000000E+00 -0.16265370590E+03  0.39129127799E+04  0.39095306873E+04 0.  0.
        2    1    3    3  502    0 -0.23921657348E+03  0.17731858748E+04  0.70656113368E+03  0.19237051102E+04  0.25500000920E-02 0.  1.
       -2    1    3    3    0  502  0.23921657348E+03 -0.17731858748E+04 -0.86921483958E+03  0.19892076696E+04  0.25500000920E-02 0. -1.
</event>
<event>
 5   0  0.2536619E-06  0.3568890E+04  0.7818609E-02  0.8097655E-01
        2   -1    0    0  501    0  0.00000000000E+00  0.00000000000E+00  0.16696375255E+04  0.16696375255E+04  0.25500000920E-02 0.  1.
       -2   -1    0    0    0  501  0.00000000000E+00  0.00000000000E+00 -0.19071469685E+04  0.19071469685E+04  0.25500000920E-02 0. -1.
    10030    2    1    2    0    0  0.00000000000E+00  0.00000000000E+00 -0.23750944293E+03  0.35767844940E+04  0.35688901049E+04 0.  0.
        1    1    3    3  502    0 -0.17148625870E+04  0.10574641086E+03 -0.60180442718E+03  0.18204682266E+04  0.50400001928E-02 0. -1.
       -1    1    3    3    0  502  0.17148625870E+04 -0.10574641086E+03  0.36429498425E+03  0.17563162674E+04  0.50400001928E-02 0.  1.
</event>
<event>
 5   0  0.7754556E-07  0.2102833E+04  0.7818609E-02  0.8559997E-01
       -1   -1    0    0    0  501  0.00000000000E+00  0.00000000000E+00  0.87610692006E+03  0.87610692008E+03  0.50400001928E-02 0.  1.
        1   -1    0    0  501    0  0.00000000000E+00  0.00000000000E+00 -0.12618053625E+04  0.12618053625E+04  0.50400001928E-02 0. -1.
    10030    2    1    2    0    0  0.00000000000E+00  0.00000000000E+00 -0.38569844239E+03  0.21379122825E+04  0.21028327654E+04 0.  0.
        4    1    3    3  502    0  0.10343862416E+04 -0.15804637724E+03 -0.29723252883E+03  0.10877878209E+04  0.12699999809E+01 0.  1.
       -4    1    3    3    0  502 -0.10343862416E+04  0.15804637724E+03 -0.88465913559E+02  0.10501244616E+04  0.12699999809E+01 0. -1.
</event>
<event>
 5   0  0.1513502E-06  0.3502300E+04  0.7818609E-02  0.8113245E-01
       -2   -1    0    0    0  501  0.00000000000E+00  0.00000000000E+00  0.16334912926E+04  0.16334912926E+04  0.25500000920E-02 0.  1.
        2   -1    0    0  501    0  0.00000000000E+00  0.00000000000E+00 -0.18772838217E+04  0.18772838217E+04  0.25500000920E-02 0. -1.
    10030    2    1    2    0    0  0.00000000000E+00  0.00000000000E+00 -0.24379252908E+03  0.35107751143E+04  0.35023002592E+04 0.  0.
        3    1    3    3  502    0  0.52027605048E+03 -0.60219060435E+03  0.14417520494E+04  0.16468059008E+04  0.10100000352E+00 0.  1.
       -3    1    3    3    0  502 -0.52027605048E+03  0.60219060435E+03 -0.16855445785E+04  0.18639692135E+04  0.10100000352E+00 0. -1.
</event>
<event>
 5   0  0.1513502E-06  0.3569903E+04  0.7818609E-02  0.8097421E-01
       -2   -1    0    0    0  501  0.00000000000E+00  0.00000000000E+00  0.20356924977E+04  0.20356924977E+04  0.25500000920E-02 0. -1.
        2   -1    0    0  501    0  0.00000000000E+00  0.00000000000E+00 -0.15650948539E+04  0.15650948539E+04  0.25500000920E-02 0.  1.
    10030    2    1    2    0    0  0.00000000000E+00  0.00000000000E+00  0.47059764378E+03  0.36007873517E+04  0.35699029972E+04 0.  0.
        3    1    3    3  502    0  0.24965488537E+03 -0.10921965705E+03 -0.15439905003E+04  0.15678530449E+04  0.10100000352E+00 0.  1.
       -3    1    3    3    0  502 -0.24965488537E+03  0.10921965705E+03  0.20145881441E+04  0.20329343068E+04  0.10100000352E+00 0. -1.
</event>
<event>
 5   0  0.7754556E-07  0.2099617E+04  0.7818609E-02  0.8561412E-01
        1   -1    0    0  501    0  0.00000000000E+00  0.00000000000E+00  0.18415230591E+04  0.18415230591E+04  0.50400001928E-02 0.  1.
       -1   -1    0    0    0  501  0.00000000000E+00  0.00000000000E+00 -0.59847095642E+03  0.59847095645E+03  0.50400001928E-02 0. -1.
    10030    2    1    2    0    0  0.00000000000E+00  0.00000000000E+00  0.12430521027E+04  0.24399940156E+04  0.20996171713E+04 0.  0.
        4    1    3    3  502    0 -0.20029281189E+03 -0.10243783843E+04  0.49093337035E+03  0.11534667189E+04  0.12699999809E+01 0. -1.
       -4    1    3    3    0  502  0.20029281189E+03  0.10243783843E+04  0.75211873237E+03  0.12865272967E+04  0.12699999809E+01 0.  1.
</event>
<event>
 5   0  0.2382711E-06  0.3594906E+04  0.7818609E-02  0.8091660E-01
       -2   -1    0    0    0  501  0.00000000000E+00  0.00000000000E+00  0.12377832979E+04  0.12377832979E+04  0.25500000920E-02 0.  1.
        2   -1    0    0  501    0  0.00000000000E+00  0.00000000000E+00 -0.26101793814E+04  0.26101793814E+04  0.25500000920E-02 0. -1.
    10030    2    1    2    0    0  0.00000000000E+00  0.00000000000E+00 -0.13723960835E+04  0.38479626794E+04  0.35949055303E+04 0.  0.
        5    1    3    3  502    0 -0.91834931996E+03  0.48169988514E+03  0.88528149041E+03  0.13635049175E+04  0.46999998093E+01 0.  1.
       -5    1    3    3    0  502  0.91834931996E+03 -0.48169988514E+03 -0.22576775739E+04  0.24844577619E+04  0.46999998093E+01 0. -1.
</event>
<event>
 5   0  0.1566576E-06  0.3657576E+04  0.7818609E-02  0.8077429E-01
       -2   -1    0    0    0  501  0.00000000000E+00  0.00000000000E+00  0.25873096953E+04  0.25873096953E+04  0.25500000920E-02 0.  1.
        2   -1    0    0  501    0  0.00000000000E+00  0.00000000000E+00 -0.12926423746E+04  0.12926423746E+04  0.25500000920E-02 0. -1.
    10030    2    1    2    0    0  0.00000000000E+00  0.00000000000E+00  0.12946673208E+04  0.38799520699E+04  0.36575763277E+04 0.  0.
        4    1    3    3  502    0  0.14376864279E+04  0.94857379939E+03 -0.46304845083E+01  0.17224278133E+04  0.12699999809E+01 0. -1.
       -4    1    3    3    0  502 -0.14376864279E+04 -0.94857379939E+03  0.12992978053E+04  0.21575242565E+04  0.12699999809E+01 0.  1.
</event>
<event>
 5   0  0.1566576E-06  0.3678450E+04  0.7818609E-02  0.8072754E-01
        2   -1    0    0  501    0  0.00000000000E+00  0.00000000000E+00  0.28799535364E+04  0.28799535364E+04  0.25500000920E-02 0. -1.
       -2   -1    0    0    0  501  0.00000000000E+00  0.00000000000E+00 -0.11745842133E+04  0.11745842133E+04  0.25500000920E-02 0.  1.
    10030    2    1    2    0    0  0.00000000000E+00  0.00000000000E+00  0.17053693232E+04  0.40545377497E+04  0.36784496511E+04 0.  0.
        4    1    3    3  502    0  0.29797844115E+03  0.18141482316E+04  0.91123210740E+03  0.20518943745E+04  0.12699999809E+01 0.  1.
       -4    1    3    3    0  502 -0.29797844115E+03 -0.18141482316E+04  0.79413721576E+03  0.20026433752E+04  0.12699999809E+01 0. -1.
</event>
<event>
 5   0  0.2422436E-06  0.3598981E+04  0.7818609E-02  0.8090725E-01
       -2   -1    0    0    0  501  0.00000000000E+00  0.00000000000E+00  0.22482065643E+04  0.22482065643E+04  0.25500000920E-02 0.  1.
        2   -1    0    0  501    0  0.00000000000E+00  0.00000000000E+00 -0.14403327068E+04  0.14403327068E+04  0.25500000920E-02 0. -1.
    10030    2    1    2    0    0  0.00000000000E+00  0.00000000000E+00  0.80787385756E+03  0.36885392711E+04  0.35989806592E+04 0.  0.
        2    1    3    3  502    0  0.77227452730E+03 -0.13542129181E+04 -0.51724256449E+03  0.16425104089E+04  0.25500000920E-02 0. -1.
       -2    1    3    3    0  502 -0.77227452730E+03  0.13542129181E+04  0.13251164220E+04  0.20460288622E+04  0.25500000920E-02 0.  1.
</event>
<event>
 5   0  0.2536619E-06  0.3307547E+04  0.7818609E-02  0.8160978E-01
        2   -1    0    0  501    0  0.00000000000E+00  0.00000000000E+00  0.14334380546E+04  0.14334380546E+04  0.25500000920E-02 0.  1.
       -2   -1    0    0    0  501  0.00000000000E+00  0.00000000000E+00 -0.19079775042E+04  0.19079775042E+04  0.25500000920E-02 0. -1.
    10030    2    1    2    0    0  0.00000000000E+00  0.00000000000E+00 -0.47453944955E+03  0.33414155588E+04  0.33075474671E+04 0.  0.
        1    1    3    3  502    0 -0.48057226278E+03 -0.61524353984E+03  0.12355658648E+04  0.14615393663E+04  0.50400001928E-02 0.  1.
       -1    1    3    3    0  502  0.48057226278E+03  0.61524353984E+03 -0.17101053143E+04  0.18798761925E+04  0.50400001928E-02 0. -1.
</event>
<event>
 5   0  0.1566576E-06  0.3660873E+04  0.7818609E-02  0.8076689E-01
       -2   -1    0    0    0  501  0.00000000000E+00  0.00000000000E+00  0.16252672129E+04  0.16252672129E+04  0.25500000920E-02 0.  1.
        2   -1    0    0  501    0  0.00000000000E+00  0.00000000000E+00 -0.20615055646E+04  0.20615055646E+04  0.25500000920E-02 0. -1.
    10030    2    1    2    0    0  0.00000000000E+00  0.00000000000E+00 -0.43623835173E+03  0.36867727775E+04  0.36608727939E+04 0.  0.
        4    1    3    3  502    0  0.42908001997E+03  0.16118388098E+04  0.54111223192E+03  0.17535501341E+04  0.12699999809E+01 0.  1.
       -4    1    3    3    0  502 -0.42908001997E+03 -0.16118388098E+04 -0.97735058365E+03  0.19332226433E+04  0.12699999809E+01 0. -1.
</event>
<event>
 5   0  0.1513502E-06  0.3579233E+04  0.7818609E-02  0.8095265E-01
        2   -1    0    0  501    0  0.00000000000E+00  0.00000000000E+00  0.17960907407E+04  0.17960907407E+04  0.25500000920E-02 0.  1.
       -2   -1    0    0    0  501  0.00000000000E+00  0.00000000000E+00 -0.17831657366E+04  0.17831657366E+04  0.25500000920E-02 0. -1.
    10030    2    1    2    0    0  0.00000000000E+00  0.00000000000E+00  0.12925004153E+02  0.35792564773E+04  0.35792331406E+04 0.  0.
        3    1    3    3  502    0  0.67376447330E+03 -0.90681142855E+03 -0.13815169817E+04  0.17846161249E+04  0.10100000352E+00 0. -1.
       -3    1    3    3    0  502 -0.67376447330E+03  0.90681142855E+03  0.13944419858E+04  0.17946403524E+04  0.10100000352E+00 0.  1.
</event>
<event>
 5   0  0.8452742E-07  0.3551990E+04  0.7818609E-02  0.8101578E-01
       -1   -1    0    0    0  501  0.00000000000E+00  0.00000000000E+00  0.16831824662E+04  0.16831824662E+04  0.50400001928E-02 0. -1.
        1   -1    0    0  501    0  0.00000000000E+00  0.00000000000E+00 -0.18739256442E+04  0.18739256442E+04  0.50400001928E-02 0.  1.
    10030    2    1    2    0    0  0.00000000000E+00  0.00000000000E+00 -0.19074317805E+03  0.35571081104E+04  0.35519903082E+04 0.  0.
        1    1    3    3  502    0  0.10428596378E+04 -0.14184721643E+04 -0.32924454325E+03  0.17910950490E+04  0.50400001928E-02 0. -1.
       -1    1    3    3    0  502 -0.10428596378E+04  0.14184721643E+04  0.13850136520E+03  0.17660130615E+04  0.50400001928E-02 0.  1.
</event>
<event>
 5   0  0.8452742E-07  0.1921723E+04  0.7818609E-02  0.8644118E-01
       -1   -1    0    0    0  501  0.00000000000E+00  0.00000000000E+00  0.11067232101E+04  0.11067232101E+04  0.50400001928E-02 0.  1.
        1   -1    0    0  501    0  0.00000000000E+00  0.00000000000E+00 -0.83422358274E+03  0.83422358275E+03  0.50400001928E-02 0. -1.
    10030    2    1    2    0    0  0.00000000000E+00  0.00000000000E+00  0.27249962737E+03  0.19409467929E+04  0.19217227703E+04 0.  0.
        1    1    3    3  502    0 -0.90010967319E+03  0.11586649593E+03 -0.18255333918E+03  0.92571496170E+03  0.50400001928E-02 0.  1.
       -1    1    3    3    0  502  0.90010967319E+03 -0.11586649593E+03  0.45505296655E+03  0.10152318312E+04  0.50400001928E-02 0. -1.
</event>
<event>
 5   0  0.8423692E-07  0.2312160E+04  0.7818609E-02  0.8473142E-01
        1   -1    0    0  501    0  0.00000000000E+00  0.00000000000E+00  0.11688176616E+04  0.11688176616E+04  0.50400001928E-02 0.  1.
       -1   -1    0    0    0  501  0.00000000000E+00  0.00000000000E+00 -0.11434813557E+04  0.11434813557E+04  0.50400001928E-02 0. -1.
    10030    2    1    2    0    0  0.00000000000E+00  0.00000000000E+00  0.25336305862E+02  0.23122990173E+04  0.23121602057E+04 0.  0.
        2    1    3    3  502    0 -0.10631543999E+04 -0.38582311009E+03 -0.22685500241E+03  0.11535250073E+04  0.25500000920E-02 0.  1.
       -2    1    3    3    0  502  0.10631543999E+04  0.38582311009E+03  0.25219130827E+03  0.11587740100E+04  0.25500000920E-02 0. -1.
</event>
<event>
 5   0  0.7754556E-07  0.3687541E+04  0.7818609E-02  0.8070728E-01
       -1   -1    0    0    0  501  0.00000000000E+00  0.00000000000E+00  0.20554346411E+04  0.20554346411E+04  0.50400001928E-02 0.  1.
        1   -1    0    0  501    0  0.00000000000E+00  0.00000000000E+00 -0.16539034302E+04  0.16539034302E+04  0.50400001928E-02 0. -1.
    10030    2    1    2    0    0  0.00000000000E+00  0.00000000000E+00  0.40153121086E+03  0.37093380713E+04  0.36875414050E+04 0.  0.
        4    1    3    3  502    0 -0.27556015130E+03  0.14648584621E+04 -0.89088877259E+03  0.17364988134E+04  0.12699999809E+01 0. -1.
       -4    1    3    3    0  502  0.27556015130E+03 -0.14648584621E+04  0.12924199835E+04  0.19728392579E+04  0.12699999809E+01 0.  1.
</event>
<event>
 5   0  0.1566576E-06  0.3542397E+04  0.7818609E-02  0.8103815E-01
       -2   -1    0    0    0  501  0.00000000000E+00  0.00000000000E+00  0.19146448129E+04  0.19146448129E+04  0.25500000920E-02 0.  1.
        2   -1    0    0  501    0  0.00000000000E+00  0.00000000000E+00 -0.16384995746E+04  0.16384995746E+04  0.25500000920E-02 0. -1.
    10030    2    1    2    0    0  0.00000000000E+00  0.00000000000E+00  0.27614523834E+03  0.35531443875E+04  0.35423973303E+04 0.  0.
        4    1    3    3  502    0 -0.61712711321E+03 -0.13801894064E+04  0.10635714718E+04  0.18485006248E+04  0.12699999809E+01 0.  1.
       -4    1    3    3    0  502  0.61712711321E+03  0.13801894064E+04 -0.78742623344E+03  0.17046437626E+04  0.12699999809E+01 0. -1.
</event>
<event>
 5   0  0.1566576E-06  0.3664994E+04  0.7818609E-02  0.8075764E-01
       -2   -1    0    0    0  501  0.00000000000E+00  0.00000000000E+00  0.20160443963E+04  0.20160443963E+04  0.25500000920E-02 0.  1.
        2   -1    0    0  501    0  0.00000000000E+00  0.00000000000E+00 -0.16656606979E+04  0.16656606979E+04  0.25500000920E-02 0. -1.
    10030    2    1    2    0    0  0.00000000000E+00  0.00000000000E+00  0.35038369840E+03  0.36817050942E+04  0.36649943608E+04 0.  0.
        4    1    3    3  502    0 -0.70994457126E+03 -0.10945634263E+04 -0.11175142884E+04  0.17178271701E+04  0.12699999809E+01 0. -1.
       -4    1    3    3    0  502  0.70994457126E+03  0.10945634263E+04  0.14678979868E+04  0.19638779242E+04  0.12699999809E+01 0.  1.
</event>
<event>
 5   0  0.2422436E-06  0.3556985E+04  0.7818609E-02  0.8100416E-01
        2   -1    0    0  501    0  0.00000000000E+00  0.00000000000E+00  0.28403715232E+04  0.28403715232E+04  0.25500000920E-02 0. -1.
       -2   -1    0    0    0  501  0.00000000000E+00  0.00000000000E+00 -0.11135994764E+04  0.11135994764E+04  0.25500000920E-02 0.  1.
    10030    2    1    2    0    0  0.00000000000E+00  0.00000000000E+00  0.17267720468E+04  0.39539709996E+04  0.35569853759E+04 0.  0.
        2    1    3    3  502    0  0.84438192830E+03  0.56032082174E+03  0.24880433787E+04  0.26865033256E+04  0.25500000920E-02 0. -1.
       -2    1    3    3    0  502 -0.84438192830E+03 -0.56032082174E+03 -0.76127133183E+03  0.12674676741E+04  0.25500000920E-02 0.  1.
</event>
<event>
 5   0  0.1634374E-06  0.3462687E+04  0.7818609E-02  0.8122690E-01
       -1   -1    0    0    0  501  0.00000000000E+00  0.00000000000E+00  0.12244759299E+04  0.12244759299E+04  0.50400001928E-02 0.  1.
        1   -1    0    0  501    0  0.00000000000E+00  0.00000000000E+00 -0.24480277003E+04  0.24480277003E+04  0.50400001928E-02 0. -1.
    10030    2    1    2    0    0  0.00000000000E+00  0.00000000000E+00 -0.12235517704E+04  0.36725036302E+04  0.34626873926E+04 0.  0.
        5    1    3    3  502    0  0.36654601284E+03  0.13856518823E+04  0.41822462898E+03  0.14930911053E+04  0.46999998093E+01 0.  1.
       -5    1    3    3    0  502 -0.36654601284E+03 -0.13856518823E+04 -0.16417763994E+04  0.21794125249E+04  0.46999998093E+01 0. -1.
</event>
<event>
 5   0  0.8452742E-07  0.3320153E+04  0.7818609E-02  0.8157786E-01
       -1   -1    0    0    0  501  0.00000000000E+00  0.00000000000E+00  0.10813762513E+04  0.10813762514E+04  0.50400001928E-02 0.  1.
        1   -1    0    0  501    0  0.00000000000E+00  0.00000000000E+00 -0.25484689796E+04  0.25484689796E+04  0.50400001928E-02 0. -1.
    10030    2    1    2    0    0  0.00000000000E+00  0.00000000000E+00 -0.14670927282E+04  0.36298452309E+04  0.33201529072E+04 0.  0.
        1    1    3    3  502    0 -0.70267038831E+03  0.14805184734E+04 -0.44393494267E+03  0.16978689166E+04  0.50400001928E-02 0.  1.
       -1    1    3    3    0  502  0.70267038831E+03 -0.14805184734E+04 -0.10231577855E+04  0.19319763143E+04  0.50400001928E-02 0. -1.
</event>
<event>
 5   0  0.2536619E-06  0.3555187E+04  0.7818609E-02  0.8100834E-01
        2   -1    0    0  501    0  0.00000000000E+00  0.00000000000E+00  0.21054905149E+04  0.21054905149E+04  0.25500000920E-02 0.  1.
       -2   -1    0    0    0  501  0.00000000000E+00  0.00000000000E+00 -0.15007616957E+04  0.15007616957E+04  0.25500000920E-02 0. -1.
    10030    2    1    2    0    0  0.00000000000E+00  0.00000000000E+00  0.60472881920E+03  0.36062522106E+04  0.35551874862E+04 0.  0.
        1    1    3    3  502    0  0.73594983862E+03 -0.69399005188E+03  0.17850692593E+04  0.20517593957E+04  0.50400001928E-02 0. -1.
       -1    1    3    3    0  502 -0.73594983862E+03  0.69399005188E+03 -0.11803404401E+04  0.15544928149E+04  0.50400001928E-02 0.  1.
</event>
<event>
 5   0  0.8423692E-07  0.2663831E+04  0.7818609E-02  0.8346837E-01
       -1   -1    0    0    0  501  0.00000000000E+00  0.00000000000E+00  0.20053059843E+04  0.20053059843E+04  0.50400001928E-02 0. -1.
        1   -1    0    0  501    0  0.00000000000E+00  0.00000000000E+00 -0.88465280185E+03  0.88465280187E+03  0.50400001928E-02 0.  1.
    10030    2    1    2    0    0  0.00000000000E+00  0.00000000000E+00  0.11206531824E+04  0.28899587862E+04  0.26638314944E+04 0.  0.
        2    1    3    3  502    0  0.13773938099E+03  0.77279047172E+03  0.17276894093E+04  0.18976532732E+04  0.25500000920E-02 0. -1.
       -2    1    3    3    0  502 -0.13773938099E+03 -0.77279047172E+03 -0.60703622689E+03  0.99230551294E+03  0.25500000920E-02 0.  1.
</event>
<event>
 5   0  0.8452742E-07  0.3341478E+04  0.7818609E-02  0.8152421E-01
       -1   -1    0    0    0  501  0.00000000000E+00  0.00000000000E+00  0.14618413499E+04  0.14618413499E+04  0.50400001928E-02 0.  1.
        1   -1    0    0  501    0  0.00000000000E+00  0.00000000000E+00 -0.19094885540E+04  0.19094885540E+04  0.50400001928E-02 0. -1.
    10030    2    1    2    0    0  0.00000000000E+00  0.00000000000E+00 -0.44764720410E+03  0.33713299040E+04  0.33414783109E+04 0.  0.
        1    1    3    3  502    0  0.14174480670E+04  0.87421864443E+03 -0.88641309091E+02  0.16677153662E+04  0.50400001928E-02 0.  1.
       -1    1    3    3    0  502 -0.14174480670E+04 -0.87421864443E+03 -0.35900589501E+03  0.17036145378E+04  0.50400001928E-02 0. -1.
</event>
<event>
 5   0  0.7754556E-07  0.3596793E+04  0.7818609E-02  0.8091227E-01
        1   -1    0    0  501    0  0.00000000000E+00  0.00000000000E+00  0.21225384287E+04  0.21225384287E+04  0.50400001928E-02 0.  1.
       -1   -1    0    0    0  501  0.00000000000E+00  0.00000000000E+00 -0.15237559754E+04  0.15237559754E+04  0.50400001928E-02 0. -1.
    10030    2    1    2    0    0  0.00000000000E+00  0.00000000000E+00  0.59878245328E+03  0.36462944041E+04  0.35967933573E+04 0.  0.
        4    1    3    3  502    0 -0.14280810567E+04  0.48557066334E+03  0.12921720680E+04  0.19861784008E+04  0.12699999809E+01 0.  1.
       -4    1    3    3    0  502  0.14280810567E+04 -0.48557066334E+03 -0.69338961467E+03  0.16601160033E+04  0.12699999809E+01 0. -1.
</event>
<event>
 5   0  0.1634374E-06  0.2198223E+04  0.7818609E-02  0.8519168E-01
        1   -1    0    0  501    0  0.00000000000E+00  0.00000000000E+00  0.64337547747E+03  0.64337547749E+03  0.50400001928E-02 0. -1.
       -1   -1    0    0    0  501  0.00000000000E+00  0.00000000000E+00 -0.18776681733E+04  0.18776681733E+04  0.50400001928E-02 0.  1.
    10030    2    1    2    0    0  0.00000000000E+00  0.00000000000E+00 -0.12342926958E+04  0.25210436508E+04  0.21982226071E+04 0.  0.
        5    1    3    3  502    0  0.27453303951E+03 -0.10587682068E+04 -0.49328031709E+03  0.11998775216E+04  0.46999998093E+01 0. -1.
       -5    1    3    3    0  502 -0.27453303951E+03  0.10587682068E+04 -0.74101237875E+03  0.13211661292E+04  0.46999998093E+01 0.  1.
</event>
<event>
 5   0  0.8452742E-07  0.3491559E+04  0.7818609E-02  0.8115793E-01
        1   -1    0    0  501    0  0.00000000000E+00  0.00000000000E+00  0.16980419546E+04  0.16980419546E+04  0.50400001928E-02 0. -1.
       -1   -1    0    0    0  501  0.00000000000E+00  0.00000000000E+00 -0.17948594146E+04  0.17948594146E+04  0.50400001928E-02 0.  1.
    10030    2    1    2    0    0  0.00000000000E+00  0.00000000000E+00 -0.96817459964E+02  0.34929013692E+04  0.34915593013E+04 0.  0.
        1    1    3    3  502    0  0.65420013774E+03  0.51453112195E+03  0.14867906927E+04  0.17038974909E+04  0.50400001928E-02 0. -1.
       -1    1    3    3    0  502 -0.65420013774E+03 -0.51453112195E+03 -0.15836081526E+04  0.17890038784E+04  0.50400001928E-02 0.  1.
</event>
<event>
 5   0  0.1566576E-06  0.3574596E+04  0.7818609E-02  0.8096336E-01
       -2   -1    0    0    0  501  0.00000000000E+00  0.00000000000E+00  0.12480617992E+04  0.12480617992E+04  0.25500000920E-02 0.  1.
        2   -1    0    0  501    0  0.00000000000E+00  0.00000000000E+00 -0.25595158578E+04  0.25595158578E+04  0.25500000920E-02 0. -1.
    10030    2    1    2    0    0  0.00000000000E+00  0.00000000000E+00 -0.13114540585E+04  0.38075776570E+04  0.35745959025E+04 0.  0.
        4    1    3    3  502    0  0.15520323543E+03  0.74601535750E+03  0.10663732675E+04  0.13106412615E+04  0.12699999809E+01 0.  1.
       -4    1    3    3    0  502 -0.15520323543E+03 -0.74601535750E+03 -0.23778273260E+04  0.24969363955E+04  0.12699999809E+01 0. -1.
</event>
<event>
 5   0  0.1566576E-06  0.3736659E+04  0.7818609E-02  0.8059886E-01
        2   -1    0    0  501    0  0.00000000000E+00  0.00000000000E+00  0.16486495210E+04  0.16486495210E+04  0.25500000920E-02 0.  1.
       -2   -1    0    0    0  501  0.00000000000E+00  0.00000000000E+00 -0.21172815595E+04  0.21172815595E+04  0.25500000920E-02 0. -1.
    10030    2    1    2    0    0  0.00000000000E+00  0.00000000000E+00 -0.46863203850E+03  0.37659310805E+04  0.37366590580E+04 0.  0.
        4    1    3    3  502    0  0.15108430981E+04  0.22337509356E+03  0.85026964420E+03  0.17479998227E+04  0.12699999809E+01 0.  1.
       -4    1    3    3    0  502 -0.15108430981E+04 -0.22337509356E+03 -0.13189016827E+04  0.20179312578E+04  0.12699999809E+01 0. -1.
</event>
<event>
 5   0  0.8423692E-07  0.3546611E+04  0.7818609E-02  0.8102832E-01
        1   -1    0    0  501    0  0.00000000000E+00  0.00000000000E+00  0.15931844813E+04  0.15931844813E+04  0.50400001928E-02 0.  1.
       -1   -1    0    0    0  501  0.00000000000E+00  0.00000000000E+00 -0.19737903270E+04  0.19737903270E+04  0.50400001928E-02 0. -1.
    10030    2    1    2    0    0  0.00000000000E+00  0.00000000000E+00 -0.38060584564E+03  0.35669748083E+04  0.35466108432E+04 0.  0.
        2    1    3    3  502    0 -0.13659054263E+04 -0.27103114083E+03 -0.12945399230E+04  0.19013124744E+04  0.25500000920E-02 0. -1.
       -2    1    3    3    0  502  0.13659054263E+04  0.27103114083E+03  0.91393407737E+03  0.16656623339E+04  0.25500000920E-02 0.  1.
</event>
<event>
 5   0  0.1513502E-06  0.2488331E+04  0.7818609E-02  0.8407155E-01
       -2   -1    0    0    0  501  0.00000000000E+00  0.00000000000E+00  0.68474226481E+03  0.68474226481E+03  0.25500000920E-02 0. -1.
        2   -1    0    0  501    0  0.00000000000E+00  0.00000000000E+00 -0.22606275672E+04  0.22606275672E+04  0.25500000920E-02 0.  1.
    10030    2    1    2    0    0  0.00000000000E+00  0.00000000000E+00 -0.15758853024E+04  0.29453698320E+04  0.24883305570E+04 0.  0.
        3    1    3    3  502    0 -0.60059756562E+03 -0.96653736976E+03 -0.19252415211E+03  0.11541132883E+04  0.10100000352E+00 0. -1.
       -3    1    3    3    0  502  0.60059756562E+03  0.96653736976E+03 -0.13833611503E+04  0.17912565437E+04  0.10100000352E+00 0.  1.
</event>
<event>
 5   0  0.8423692E-07  0.3513913E+04  0.7818609E-02  0.8110501E-01
       -1   -1    0    0    0  501  0.00000000000E+00  0.00000000000E+00  0.11494032144E+04  0.11494032144E+04  0.50400001928E-02 0. -1.
        1   -1    0    0  501    0  0.00000000000E+00  0.00000000000E+00 -0.26856508558E+04  0.26856508558E+04  0.50400001928E-02 0.  1.
    10030    2    1    2    0    0  0.00000000000E+00  0.00000000000E+00 -0.15362476415E+04  0.38350540702E+04  0.35139127629E+04 0.  0.
        2    1    3    3  502    0  0.91369927684E+03  0.11001669273E+04 -0.18820287213E+04  0.23637355487E+04  0.25500000920E-02 0.  1.
       -2    1    3    3    0  502 -0.91369927684E+03 -0.11001669273E+04  0.34578107986E+03  0.14713185215E+04  0.25500000920E-02 0. -1.
</event>
<event>
 5   0  0.7754556E-07  0.3221342E+04  0.7818609E-02  0.8183204E-01
       -1   -1    0    0    0  501  0.00000000000E+00  0.00000000000E+00  0.15192184619E+04  0.15192184619E+04  0.50400001928E-02 0.  1.
        1   -1    0    0  501    0  0.00000000000E+00  0.00000000000E+00 -0.17076282812E+04  0.17076282812E+04  0.50400001928E-02 0. -1.
    10030    2    1    2    0    0  0.00000000000E+00  0.00000000000E+00 -0.18840981938E+03  0.32268467431E+04  0.32213415906E+04 0.  0.
        4    1    3    3  502    0 -0.20419438464E+02 -0.75170034709E+03 -0.15209945246E+04  0.16967310695E+04  0.12699999809E+01 0. -1.
       -4    1    3    3    0  502  0.20419438464E+02  0.75170034709E+03  0.13325847052E+04  0.15301156737E+04  0.12699999809E+01 0.  1.
</event>
<event>
 5   0  0.7754556E-07  0.3363608E+04  0.7818609E-02  0.8146896E-01
       -1   -1    0    0    0  501  0.00000000000E+00  0.00000000000E+00  0.14249210069E+04  0.14249210069E+04  0.50400001928E-02 0. -1.
        1   -1    0    0  501    0  0.00000000000E+00  0.00000000000E+00 -0.19849981103E+04  0.19849981103E+04  0.50400001928E-02 0.  1.
    10030    2    1    2    0    0  0.00000000000E+00  0.00000000000E+00 -0.56007710335E+03  0.34099191172E+04  0.33636084826E+04 0.  0.
        4    1    3    3  502    0  0.96670853071E+03 -0.10121711756E+04 -0.12253185104E+04  0.18602212065E+04  0.12699999809E+01 0.  1.
       -4    1    3    3    0  502 -0.96670853071E+03  0.10121711756E+04  0.66524140709E+03  0.15496979108E+04  0.12699999809E+01 0. -1.
</event>
<event>
 5   0  0.8452742E-07  0.3025724E+04  0.7818609E-02  0.8236423E-01
        1   -1    0    0  501    0  0.00000000000E+00  0.00000000000E+00  0.13231522008E+04  0.13231522008E+04  0.50400001928E-02 0. -1.
       -1   -1    0    0    0  501  0.00000000000E+00  0.00000000000E+00 -0.17297720021E+04  0.17297720021E+04  0.50400001928E-02 0.  1.
    10030    2    1    2    0    0  0.00000000000E+00  0.00000000000E+00 -0.40661980125E+03  0.30529242029E+04  0.30257241325E+04 0.  0.
        1    1    3    3  502    0 -0.11795610479E+02  0.15076003784E+04 -0.32995153772E+03  0.15433295354E+04  0.50400001928E-02 0.  1.
       -1    1    3    3    0  502  0.11795610479E+02 -0.15076003784E+04 -0.76668263533E+02  0.15095946675E+04  0.50400001928E-02 0. -1.
</event>
<event>
 5   0  0.1513502E-06  0.3464478E+04  0.7818609E-02  0.8122260E-01
        2   -1    0    0  501    0  0.00000000000E+00  0.00000000000E+00  0.16074673856E+04  0.16074673856E+04  0.25500000920E-02 0. -1.
       -2   -1    0    0    0  501  0.00000000000E+00  0.00000000000E+00 -0.18666958864E+04  0.18666958864E+04  0.25500000920E-02 0.  1.
    10030    2    1    2    0    0  0.00000000000E+00  0.00000000000E+00 -0.25922850075E+03  0.34741632720E+04  0.34644784636E+04 0.  0.
        3    1    3    3  502    0 -0.14362599149E+04  0.42194127095E+03  0.74447358766E+03  0.16718606138E+04  0.10100000352E+00 0. -1.
       -3    1    3    3    0  502  0.14362599149E+04 -0.42194127095E+03 -0.10037020884E+04  0.18023026582E+04  0.10100000352E+00 0.  1.
</event>
<event>
 5   0  0.2536619E-06  0.3551816E+04  0.7818609E-02  0.8101619E-01
       -2   -1    0    0    0  501  0.00000000000E+00  0.00000000000E+00  0.11735579491E+04  0.11735579491E+04  0.25500000920E-02 0.  1.
        2   -1    0    0  501    0  0.00000000000E+00  0.00000000000E+00 -0.26874248552E+04  0.26874248552E+04  0.25500000920E-02 0. -1.
    10030    2    1    2    0    0  0.00000000000E+00  0.00000000000E+00 -0.15138669062E+04  0.38609828043E+04  0.35518157618E+04 0.  0.
        1    1    3    3  502    0  0.10024651174E+04  0.60270273018E+03  0.69566994072E+03  0.13609348107E+04  0.50400001928E-02 0.  1.
       -1    1    3    3    0  502 -0.10024651174E+04 -0.60270273018E+03 -0.22095368469E+04  0.25000479936E+04  0.50400001928E-02 0. -1.
</event>
<event>
 5   0  0.8423692E-07  0.3374600E+04  0.7818609E-02  0.8144169E-01
        1   -1    0    0  501    0  0.00000000000E+00  0.00000000000E+00  0.23051212919E+04  0.23051212919E+04  0.50400001928E-02 0.  1.
       -1   -1    0    0    0  501  0.00000000000E+00  0.00000000000E+00 -0.12350681239E+04  0.12350681239E+04  0.50400001928E-02 0. -1.
    10030    2    1    2    0    0  0.00000000000E+00  0.00000000000E+00  0.10700531680E+04  0.35401894158E+04  0.33746003196E+04 0.  0.
        2    1    3    3  502    0 -0.81860810074E+02 -0.15753701546E+04 -0.93093071459E+02  0.15802400565E+04  0.25500000920E-02 0. -1.
       -2    1    3    3    0  502  0.81860810074E+02  0.15753701546E+04  0.11631462395E+04  0.19599493592E+04  0.25500000920E-02 0.  1.
</event>
<event>
 5   0  0.8452742E-07  0.3317467E+04  0.7818609E-02  0.8158465E-01
        1   -1    0    0  501    0  0.00000000000E+00  0.00000000000E+00  0.21862849837E+04  0.21862849837E+04  0.50400001928E-02 0.  1.
       -1   -1    0    0    0  501  0.00000000000E+00  0.00000000000E+00 -0.12584801882E+04  0.12584801882E+04  0.50400001928E-02 0. -1.
    10030    2    1    2    0    0  0.00000000000E+00  0.00000000000E+00  0.92780479546E+03  0.34447651719E+04  0.33174667068E+04 0.  0.
        1    1    3    3  502    0 -0.11110811050E+03  0.14641269880E+04  0.12651217706E+04  0.19381810916E+04  0.50400001928E-02 0.  1.
       -1    1    3    3    0  502  0.11110811050E+03 -0.14641269880E+04 -0.33731697515E+03  0.15065840803E+04  0.50400001928E-02 0. -1.
</event>
<event>
 5   0  0.1513502E-06  0.3733213E+04  0.7818609E-02  0.8060641E-01
        2   -1    0    0  501    0  0.00000000000E+00  0.00000000000E+00  0.27392591386E+04  0.27392591386E+04  0.25500000920E-02 0. -1.
       -2   -1    0    0    0  501  0.00000000000E+00  0.00000000000E+00 -0.12719567673E+04  0.12719567673E+04  0.25500000920E-02 0.  1.
    10030    2    1    2    0    0  0.00000000000E+00  0.00000000000E+00  0.14673023713E+04  0.40112159058E+04  0.37332126639E+04 0.  0.
        3    1    3    3  502    0  0.13331533996E+04  0.85499417028E+02  0.21344252158E+04  0.25180109510E+04  0.10100000352E+00 0. -1.
       -3    1    3    3    0  502 -0.13331533996E+04 -0.85499417028E+02 -0.66712284454E+03  0.14932049548E+04  0.10100000352E+00 0.  1.
</event>
<event>
 5   0  0.8452742E-07  0.3592800E+04  0.7818609E-02  0.8092143E-01
        1   -1    0    0  501    0  0.00000000000E+00  0.00000000000E+00  0.33128840746E+04  0.33128840747E+04  0.50400001928E-02 0.  1.
       -1   -1    0    0    0  501  0.00000000000E+00  0.00000000000E+00 -0.97409161307E+03  0.97409161309E+03  0.50400001928E-02 0. -1.
    10030    2    1    2    0    0  0.00000000000E+00  0.00000000000E+00  0.23387924616E+04  0.42869756877E+04  0.35927997953E+04 0.  0.
        1    1    3    3  502    0  0.79207911273E+03 -0.14056324073E+04  0.21118539038E+04  0.26576528547E+04  0.50400001928E-02 0.  1.
       -1    1    3    3    0  502 -0.79207911273E+03  0.14056324073E+04  0.22693855781E+03  0.16293228330E+04  0.50400001928E-02 0. -1.
</event>
<event>
 5   0  0.8452742E-07  0.2086360E+04  0.7818609E-02  0.8567276E-01
       -1   -1    0    0    0  501  0.00000000000E+00  0.00000000000E+00  0.83400816449E+03  0.83400816451E+03  0.50400001928E-02 0.  1.
        1   -1    0    0  501    0  0.00000000000E+00  0.00000000000E+00 -0.13048123353E+04  0.13048123353E+04  0.50400001928E-02 0. -1.
    10030    2    1    2    0    0  0.00000000000E+00  0.00000000000E+00 -0.47080417080E+03  0.21388204998E+04  0.20863596438E+04 0.  0.
        1    1    3    3  502    0  0.59933161294E+03  0.38792051470E+03  0.54434390183E+03  0.89777001035E+03  0.50400001928E-02 0.  1.
       -1    1    3    3    0  502 -0.59933161294E+03 -0.38792051470E+03 -0.10151480726E+04  0.12410504895E+04  0.50400001928E-02 0. -1.
</event>
<event>
 5   0  0.1566576E-06  0.3654560E+04  0.7818609E-02  0.8078107E-01
        2   -1    0    0  501    0  0.00000000000E+00  0.00000000000E+00  0.23560681625E+04  0.23560681625E+04  0.25500000920E-02 0.  1.
       -2   -1    0    0    0  501  0.00000000000E+00  0.00000000000E+00 -0.14171714703E+04  0.14171714703E+04  0.25500000920E-02 0. -1.
    10030    2    1    2    0    0  0.00000000000E+00  0.00000000000E+00  0.93889669218E+03  0.37732396328E+04  0.36545602099E+04 0.  0.
        4    1    3    3  502    0 -0.66467212841E+03 -0.65721962800E+03  0.20905396844E+04  0.22899966075E+04  0.12699999809E+01 0.  1.
       -4    1    3    3    0  502  0.66467212841E+03  0.65721962800E+03 -0.11516429922E+04  0.14832430253E+04  0.12699999809E+01 0. -1.
</event>
<event>
 5   0  0.2422436E-06  0.3574564E+04  0.7818609E-02  0.8096343E-01
        2   -1    0    0  501    0  0.00000000000E+00  0.00000000000E+00  0.26597867843E+04  0.26597867843E+04  0.25500000920E-02 0.  1.
       -2   -1    0    0    0  501  0.00000000000E+00  0.00000000000E+00 -0.12009895224E+04  0.12009895224E+04  0.25500000920E-02 0. -1.
    10030    2    1    2    0    0  0.00000000000E+00  0.00000000000E+00  0.14587972619E+04  0.38607763067E+04  0.35745635033E+04 0.  0.
        2    1    3    3  502    0  0.27528175730E+03 -0.15653901561E+04 -0.15345458356E+03  0.15968013953E+04  0.25500000920E-02 0. -1.
       -2    1    3    3    0  502 -0.27528175730E+03  0.15653901561E+04  0.16122518454E+04  0.22639749115E+04  0.25500000920E-02 0.  1.
</event>
<event>
 5   0  0.2382711E-06  0.3440933E+04  0.7818609E-02  0.8127932E-01
        2   -1    0    0  501    0  0.00000000000E+00  0.00000000000E+00  0.32353900493E+04  0.32353900493E+04  0.25500000920E-02 0.  1.
       -2   -1    0    0    0  501  0.00000000000E+00  0.00000000000E+00 -0.91488363479E+03  0.91488363479E+03  0.25500000920E-02 0. -1.
    10030    2    1    2    0    0  0.00000000000E+00  0.00000000000E+00  0.23205064145E+04  0.41502736841E+04  0.34409332503E+04 0.  0.
        5    1    3    3  502    0  0.14979588171E+04 -0.66046378880E+03  0.17983615171E+04  0.24319167893E+04  0.46999998093E+01 0. -1.
       -5    1    3    3    0  502 -0.14979588171E+04  0.66046378880E+03  0.52214489736E+03  0.17183568948E+04  0.46999998093E+01 0.  1.
</event>
<event>
 5   0  0.2422436E-06  0.3595656E+04  0.7818609E-02  0.8091487E-01
        2   -1    0    0  501    0  0.00000000000E+00  0.00000000000E+00  0.21304295676E+04  0.21304295676E+04  0.25500000920E-02 0.  1.
       -2   -1    0    0    0  501  0.00000000000E+00  0.00000000000E+00 -0.15171519525E+04  0.15171519525E+04  0.25500000920E-02 0. -1.
    10030    2    1    2    0    0  0.00000000000E+00  0.00000000000E+00  0.61327761513E+03  0.36475815201E+04  0.35956559225E+04 0.  0.
        2    1    3    3  502    0  0.83633438903E+03  0.15905173054E+04  0.36206174252E+03  0.18331091660E+04  0.25500000920E-02 0.  1.
       -2    1    3    3    0  502 -0.83633438903E+03 -0.15905173054E+04  0.25121587261E+03  0.18144723541E+04  0.25500000920E-02 0. -1.
</event>
<event>
 5   0  0.2382711E-06  0.2016284E+04  0.7818609E-02  0.8599045E-01
       -2   -1    0    0    0  501  0.00000000000E+00  0.00000000000E+00  0.12525647996E+04  0.12525647996E+04  0.25500000920E-02 0.  1.
        2   -1    0    0  501    0  0.00000000000E+00  0.00000000000E+00 -0.81141540131E+03  0.81141540132E+03  0.25500000920E-02 0. -1.
    10030    2    1    2    0    0  0.00000000000E+00  0.00000000000E+00  0.44114939826E+03  0.20639802009E+04  0.20162840767E+04 0.  0.
        5    1    3    3  502    0 -0.47244637773E+02 -0.89589981667E+03 -0.25015072539E+03  0.93137855500E+03  0.46999998093E+01 0.  1.
       -5    1    3    3    0  502  0.47244637773E+02  0.89589981667E+03  0.69130012364E+03  0.11326016459E+04  0.46999998093E+01 0. -1.
</event>
<event>
 5   0  0.7754556E-07  0.3492574E+04  0.7818609E-02  0.8115552E-01
       -1   -1    0    0    0  501  0.00000000000E+00  0.00000000000E+00  0.14076943988E+04  0.14076943988E+04  0.50400001928E-02 0. -1.
        1   -1    0    0  501    0  0.00000000000E+00  0.00000000000E+00 -0.21663214465E+04  0.21663214465E+04  0.50400001928E-02 0.  1.
    10030    2    1    2    0    0  0.00000000000E+00  0.00000000000E+00 -0.75862704767E+03  0.35740158453E+04  0.34925741602E+04 0.  0.
        4    1    3    3  502    0  0.13554876362E+04 -0.10686406070E+04 -0.10822589155E+03  0.17294663730E+04  0.12699999809E+01 0. -1.
       -4    1    3    3    0  502 -0.13554876362E+04  0.10686406070E+04 -0.65040115612E+03  0.18445494723E+04  0.12699999809E+01 0.  1.
</event>
<event>
 5   0  0.2422436E-06  0.3587428E+04  0.7818609E-02  0.8093378E-01
        2   -1    0    0  501    0  0.00000000000E+00  0.00000000000E+00  0.18094733114E+04  0.18094733114E+04  0.25500000920E-02 0.  1.
       -2   -1    0    0    0  501  0.00000000000E+00  0.00000000000E+00 -0.17780917281E+04  0.17780917281E+04  0.25500000920E-02 0. -1.
    10030    2    1    2    0    0  0.00000000000E+00  0.00000000000E+00  0.31381583334E+02  0.35875650395E+04  0.35874277845E+04 0.  0.
        2    1    3    3  502    0 -0.87103876403E+03  0.14958375539E+04  0.48599700622E+03  0.17978964392E+04  0.25500000920E-02 0.  1.
       -2    1    3    3    0  502  0.87103876403E+03 -0.14958375539E+04 -0.45461542288E+03  0.17896686003E+04  0.25500000920E-02 0. -1.
</event>
<event>
 5   0  0.1566576E-06  0.3296814E+04  0.7818609E-02  0.8163707E-01
        2   -1    0    0  501    0  0.00000000000E+00  0.00000000000E+00  0.15757678830E+04  0.15757678830E+04  0.25500000920E-02 0.  1.
       -2   -1    0    0    0  501  0.00000000000E+00  0.00000000000E+00 -0.17243945204E+04  0.17243945204E+04  0.25500000920E-02 0. -1.
    10030    2    1    2    0    0  0.00000000000E+00  0.00000000000E+00 -0.14862663739E+03  0.33001624035E+04  0.32968139183E+04 0.  0.
        4    1    3    3  502    0  0.45894613643E+03 -0.80987146824E+03  0.12874803155E+04  0.15887512476E+04  0.12699999809E+01 0.  1.
       -4    1    3    3    0  502 -0.45894613643E+03  0.80987146824E+03 -0.14361069529E+04  0.17114111558E+04  0.12699999809E+01 0. -1.
</event>
<event>
 5   0  0.1566576E-06  0.3607830E+04  0.7818609E-02  0.8088701E-01
        2   -1    0    0  501    0  0.00000000000E+00  0.00000000000E+00  0.18755653878E+04  0.18755653878E+04  0.25500000920E-02 0.  1.
       -2   -1    0    0    0  501  0.00000000000E+00  0.00000000000E+00 -0.17350016682E+04  0.17350016682E+04  0.25500000920E-02 0. -1.
    10030    2    1    2    0    0  0.00000000000E+00  0.00000000000E+00  0.14056371956E+03  0.36105670559E+04  0.36078298610E+04 0.  0.
        4    1    3    3  502    0 -0.71634264744E+03  0.52463824095E+03  0.16417328445E+04  0.18664620055E+04  0.12699999809E+01 0.  1.
       -4    1    3    3    0  502  0.71634264744E+03 -0.52463824095E+03 -0.15011691249E+04  0.17441050504E+04  0.12699999809E+01 0. -1.
</event>
<event>
 5   0  0.1566576E-06  0.2545833E+04  0.7818609E-02  0.8386837E-01
        2   -1    0    0  501    0  0.00000000000E+00  0.00000000000E+00  0.20029517945E+04  0.20029517945E+04  0.25500000920E-02 0.  1.
       -2   -1    0    0    0  501  0.00000000000E+00  0.00000000000E+00 -0.80896444579E+03  0.80896444580E+03  0.25500000920E-02 0. -1.
    10030    2    1    2    0    0  0.00000000000E+00  0.00000000000E+00  0.11939873487E+04  0.28119162403E+04  0.25458332925E+04 0.  0.
        4    1    3    3  502    0  0.12558176800E+04 -0.16936681137E+03  0.46375387836E+03  0.13493822419E+04  0.12699999809E+01 0. -1.
       -4    1    3    3    0  502 -0.12558176800E+04  0.16936681137E+03  0.73023347030E+03  0.14625339983E+04  0.12699999809E+01 0.  1.
</event>
<event>
 5   0  0.2382711E-06  0.2269409E+04  0.7818609E-02  0.8490081E-01
       -2   -1    0    0    0  501  0.00000000000E+00  0.00000000000E+00  0.12967937194E+04  0.12967937194E+04  0.25500000920E-02 0.  1.
        2   -1    0    0  501    0  0.00000000000E+00  0.00000000000E+00 -0.99287479400E+03  0.99287479400E+03  0.25500000920E-02 0. -1.
    10030    2    1    2    0    0  0.00000000000E+00  0.00000000000E+00  0.30391892535E+03  0.22896685134E+04  0.22694085546E+04 0.  0.
        5    1    3    3  502    0  0.11054535810E+03 -0.92700686276E+03 -0.49875547517E+03  0.10584616733E+04  0.46999998093E+01 0. -1.
       -5    1    3    3    0  502 -0.11054535810E+03  0.92700686276E+03  0.80267440052E+03  0.12312068401E+04  0.46999998093E+01 0.  1.
</event>
<event>
 5   0  0.2382711E-06  0.3359792E+04  0.7818609E-02  0.8147846E-01
       -2   -1    0    0    0  501  0.00000000000E+00  0.00000000000E+00  0.99927180481E+03  0.99927180481E+03  0.25500000920E-02 0.  1.
        2   -1    0    0  501    0  0.00000000000E+00  0.00000000000E+00 -0.28241076966E+04  0.28241076966E+04  0.25500000920E-02 0. -1.
    10030    2    1    2    0    0  0.00000000000E+00  0.00000000000E+00 -0.18248358918E+04  0.38233795015E+04  0.33597923716E+04 0.  0.
        5    1    3    3  502    0 -0.47962558103E+03  0.14674698512E+04 -0.15883686136E+03  0.15520179447E+04  0.46999998093E+01 0. -1.
       -5    1    3    3    0  502  0.47962558103E+03 -0.14674698512E+04 -0.16659990305E+04  0.22713615568E+04  0.46999998093E+01 0.  1.
</event>
<event>
 5   0  0.1566576E-06  0.3614977E+04  0.7818609E-02  0.8087070E-01
       -2   -1    0    0    0  501  0.00000000000E+00  0.00000000000E+00  0.11806696555E+04  0.11806696555E+04  0.25500000920E-02 0. -1.
        2   -1    0    0  501    0  0.00000000000E+00  0.00000000000E+00 -0.27670855494E+04  0.27670855494E+04  0.25500000920E-02 0.  1.
    10030    2    1    2    0    0  0.00000000000E+00  0.00000000000E+00 -0.15864158939E+04  0.39477552050E+04  0.36149765932E+04 0.  0.
        4    1    3    3  502    0  0.24931777251E+03 -0.16895043861E+04 -0.14396715339E+04  0.22336607086E+04  0.12699999809E+01 0. -1.
       -4    1    3    3    0  502 -0.24931777251E+03  0.16895043861E+04 -0.14674435999E+03  0.17140944964E+04  0.12699999809E+01 0.  1.
</event>
<event>
 5   0  0.1513502E-06  0.3486496E+04  0.7818609E-02  0.8116998E-01
       -2   -1    0    0    0  501  0.00000000000E+00  0.00000000000E+00  0.26182448373E+04  0.26182448373E+04  0.25500000920E-02 0.  1.
        2   -1    0    0  501    0  0.00000000000E+00  0.00000000000E+00 -0.11606680303E+04  0.11606680303E+04  0.25500000920E-02 0. -1.
    10030    2    1    2    0    0  0.00000000000E+00  0.00000000000E+00  0.14575768070E+04  0.37789128676E+04  0.34864957067E+04 0.  0.
        3    1    3    3  502    0 -0.81198656761E+03  0.11369233166E+04 -0.40124626443E+03  0.14535870764E+04  0.10100000352E+00 0. -1.
       -3    1    3    3    0  502  0.81198656761E+03 -0.11369233166E+04  0.18588230715E+04  0.23253257912E+04  0.10100000352E+00 0.  1.
</event>
<event>
 5   0  0.1566576E-06  0.3684990E+04  0.7818609E-02  0.8071296E-01
       -2   -1    0    0    0  501  0.00000000000E+00  0.00000000000E+00  0.20936017963E+04  0.20936017963E+04  0.25500000920E-02 0. -1.
        2   -1    0    0  501    0  0.00000000000E+00  0.00000000000E+00 -0.16215062662E+04  0.16215062662E+04  0.25500000920E-02 0.  1.
    10030    2    1    2    0    0  0.00000000000E+00  0.00000000000E+00  0.47209553004E+03  0.37151080625E+04  0.36849903292E+04 0.  0.
        4    1    3    3  502    0 -0.17096426685E+04  0.24285154977E+03  0.88389753662E+03  0.19398792224E+04  0.12699999809E+01 0. -1.
       -4    1    3    3    0  502  0.17096426685E+04 -0.24285154977E+03 -0.41180200658E+03  0.17752288401E+04  0.12699999809E+01 0.  1.
</event>
<event>
 5   0  0.7754556E-07  0.1890113E+04  0.7818609E-02  0.8659793E-01
       -1   -1    0    0    0  501  0.00000000000E+00  0.00000000000E+00  0.62613957210E+03  0.62613957212E+03  0.50400001928E-02 0.  1.
        1   -1    0    0  501    0  0.00000000000E+00  0.00000000000E+00 -0.14264102675E+04  0.14264102675E+04  0.50400001928E-02 0. -1.
    10030    2    1    2    0    0  0.00000000000E+00  0.00000000000E+00 -0.80027069541E+03  0.20525498396E+04  0.18901131337E+04 0.  0.
        4    1    3    3  502    0  0.75755858923E+03 -0.37487328833E+03  0.58930127241E+02  0.84728942588E+03  0.12699999809E+01 0.  1.
       -4    1    3    3    0  502 -0.75755858923E+03  0.37487328833E+03 -0.85920082265E+03  0.12052604138E+04  0.12699999809E+01 0. -1.
</event>
<event>
 5   0  0.1513502E-06  0.3418853E+04  0.7818609E-02  0.8133295E-01
        2   -1    0    0  501    0  0.00000000000E+00  0.00000000000E+00  0.24501907196E+04  0.24501907196E+04  0.25500000920E-02 0.  1.
       -2   -1    0    0    0  501  0.00000000000E+00  0.00000000000E+00 -0.11926167915E+04  0.11926167915E+04  0.25500000920E-02 0. -1.
    10030    2    1    2    0    0  0.00000000000E+00  0.00000000000E+00  0.12575739281E+04  0.36428075111E+04  0.34188527869E+04 0.  0.
        3    1    3    3  502    0  0.12372628843E+04  0.11683884307E+04  0.80121337656E+03  0.18809289872E+04  0.10100000352E+00 0. -1.
       -3    1    3    3    0  502 -0.12372628843E+04 -0.11683884307E+04  0.45636055150E+03  0.17618785239E+04  0.10100000352E+00 0.  1.
</event>
<event>
 5   0  0.1566576E-06  0.3545246E+04  0.7818609E-02  0.8103150E-01
        2   -1    0    0  501    0  0.00000000000E+00  0.00000000000E+00  0.13936123324E+04  0.13936123324E+04  0.25500000920E-02 0. -1.
       -2   -1    0    0    0  501  0.00000000000E+00  0.00000000000E+00 -0.22547109631E+04  0.22547109631E+04  0.25500000920E-02 0.  1.
    10030    2    1    2    0    0  0.00000000000E+00  0.00000000000E+00 -0.86109863067E+03  0.36483232955E+04  0.35452463972E+04 0.  0.
        4    1    3    3  502    0  0.14258284662E+04  0.37545002921E+03  0.58205276999E+03  0.15851613733E+04  0.12699999809E+01 0. -1.
       -4    1    3    3    0  502 -0.14258284662E+04 -0.37545002921E+03 -0.14431514007E+04  0.20631619223E+04  0.12699999809E+01 0.  1.
</event>
<event>
 5   0  0.8423692E-07  0.3336243E+04  0.7818609E-02  0.8153734E-01
        1   -1    0    0  501    0  0.00000000000E+00  0.00000000000E+00  0.15278800253E+04  0.15278800253E+04  0.50400001928E-02 0.  1.
       -1   -1    0    0    0  501  0.00000000000E+00  0.00000000000E+00 -0.18212356730E+04  0.18212356730E+04  0.50400001928E-02 0. -1.
    10030    2    1    2    0    0  0.00000000000E+00  0.00000000000E+00 -0.29335564773E+03  0.33491156983E+04  0.33362431603E+04 0.  0.
        2    1    3    3  502    0 -0.26631595090E+03  0.86488168163E+03  0.12600444904E+04  0.15513402679E+04  0.25500000920E-02 0.  1.
       -2    1    3    3    0  502  0.26631595090E+03 -0.86488168163E+03 -0.15534001382E+04  0.17977754304E+04  0.25500000920E-02 0. -1.
</event>
<event>
 5   0  0.1513502E-06  0.3306492E+04  0.7818609E-02  0.8161246E-01
        2   -1    0    0  501    0  0.00000000000E+00  0.00000000000E+00  0.22233814568E+04  0.22233814568E+04  0.25500000920E-02 0. -1.
       -2   -1    0    0    0  501  0.00000000000E+00  0.00000000000E+00 -0.12293084208E+04  0.12293084208E+04  0.25500000920E-02 0.  1.
    10030    2    1    2    0    0  0.00000000000E+00  0.00000000000E+00  0.99407303601E+03  0.34526898776E+04  0.33064915227E+04 0.  0.
        3    1    3    3  502    0  0.10151846664E+04 -0.31808169234E+03 -0.82439987216E+03  0.13458867074E+04  0.10100000352E+00 0.  1.
       -3    1    3    3    0  502 -0.10151846664E+04  0.31808169234E+03  0.18184729082E+04  0.21068031702E+04  0.10100000352E+00 0. -1.
</event>
<event>
 5   0  0.2536619E-06  0.3638200E+04  0.7818609E-02  0.8081797E-01
        2   -1    0    0  501    0  0.00000000000E+00  0.00000000000E+00  0.28449840039E+04  0.28449840039E+04  0.25500000920E-02 0.  1.
       -2   -1    0    0    0  501  0.00000000000E+00  0.00000000000E+00 -0.11631436833E+04  0.11631436833E+04  0.25500000920E-02 0. -1.
    10030    2    1    2    0    0  0.00000000000E+00  0.00000000000E+00  0.16818403207E+04  0.40081276872E+04  0.36382001996E+04 0.  0.
        1    1    3    3  502    0  0.52665648763E+03 -0.13344857317E+04 -0.39124034466E+03  0.14870400907E+04  0.50400001928E-02 0. -1.
       -1    1    3    3    0  502 -0.52665648763E+03  0.13344857317E+04  0.20730806653E+04  0.25210875965E+04  0.50400001928E-02 0.  1.
</event>
<event>
 5   0  0.2382711E-06  0.1941944E+04  0.7818609E-02  0.8634255E-01
       -2   -1    0    0    0  501  0.00000000000E+00  0.00000000000E+00  0.86283007326E+03  0.86283007326E+03  0.25500000920E-02 0.  1.
        2   -1    0    0  501    0  0.00000000000E+00  0.00000000000E+00 -0.10926683022E+04  0.10926683022E+04  0.25500000920E-02 0. -1.
    10030    2    1    2    0    0  0.00000000000E+00  0.00000000000E+00 -0.22983822893E+03  0.19554983754E+04  0.19419444598E+04 0.  0.
        5    1    3    3  502    0 -0.58531701253E+03  0.76311966486E+03  0.19494187217E+02  0.96195100779E+03  0.46999998093E+01 0.  1.
       -5    1    3    3    0  502  0.58531701253E+03 -0.76311966486E+03 -0.24933241615E+03  0.99354736766E+03  0.46999998093E+01 0. -1.
</event>
<event>
 5   0  0.1513502E-06  0.3376301E+04  0.7818609E-02  0.8143748E-01
        2   -1    0    0  501    0  0.00000000000E+00  0.00000000000E+00  0.10945780944E+04  0.10945780944E+04  0.25500000920E-02 0.  1.
       -2   -1    0    0    0  501  0.00000000000E+00  0.00000000000E+00 -0.26036071166E+04  0.26036071166E+04  0.25500000920E-02 0. -1.
    10030    2    1    2    0    0  0.00000000000E+00  0.00000000000E+00 -0.15090290223E+04  0.36981852110E+04  0.33763005294E+04 0.  0.
        3    1    3    3  502    0 -0.16321406217E+04  0.33355202526E+03 -0.10539069537E+04  0.19712584407E+04  0.10100000352E+00 0. -1.
       -3    1    3    3    0  502  0.16321406217E+04 -0.33355202526E+03 -0.45512206856E+03  0.17269267703E+04  0.10100000352E+00 0.  1.
</event>
<event>
 5   0  0.7754556E-07  0.2084772E+04  0.7818609E-02  0.8567981E-01
       -1   -1    0    0    0  501  0.00000000000E+00  0.00000000000E+00  0.67296736991E+03  0.67296736993E+03  0.50400001928E-02 0. -1.
        1   -1    0    0  501    0  0.00000000000E+00  0.00000000000E+00 -0.16145925603E+04  0.16145925603E+04  0.50400001928E-02 0.  1.
    10030    2    1    2    0    0  0.00000000000E+00  0.00000000000E+00 -0.94162519040E+03  0.22875599303E+04  0.20847715547E+04 0.  0.
        4    1    3    3  502    0  0.64255577889E+03  0.55367249837E+03  0.19404264866E+03  0.87010650315E+03  0.12699999809E+01 0. -1.
       -4    1    3    3    0  502 -0.64255577889E+03 -0.55367249837E+03 -0.11356678391E+04  0.14174534271E+04  0.12699999809E+01 0.  1.
</event>
<event>
 5   0  0.2536619E-06  0.2267332E+04  0.7818609E-02  0.8490914E-01
       -2   -1    0    0    0  501  0.00000000000E+00  0.00000000000E+00  0.86420747493E+03  0.86420747493E+03  0.25500000920E-02 0.  1.
        2   -1    0    0  501    0  0.00000000000E+00  0.00000000000E+00 -0.14871406412E+04  0.14871406412E+04  0.25500000920E-02 0. -1.
    10030    2    1    2    0    0  0.00000000000E+00  0.00000000000E+00 -0.62293316625E+03  0.23513481161E+04  0.22673315226E+04 0.  0.
        1    1    3    3  502    0  0.68964123257E+03 -0.72884480532E+02  0.61858230415E+03  0.92927996007E+03  0.50400001928E-02 0.  1.
       -1    1    3    3    0  502 -0.68964123257E+03  0.72884480532E+02 -0.12415154704E+04  0.14220681560E+04  0.50400001928E-02 0. -1.
</event>
<event>
 5   0  0.2422436E-06  0.3627549E+04  0.7818609E-02  0.8084210E-01
       -2   -1    0    0    0  501  0.00000000000E+00  0.00000000000E+00  0.19302038245E+04  0.19302038245E+04  0.25500000920E-02 0.  1.
        2   -1    0    0  501    0  0.00000000000E+00  0.00000000000E+00 -0.17043679308E+04  0.17043679308E+04  0.25500000920E-02 0. -1.
    10030    2    1    2    0    0  0.00000000000E+00  0.00000000000E+00  0.22583589371E+03  0.36345717553E+04  0.36275487583E+04 0.  0.
        2    1    3    3  502    0 -0.17741883174E+04  0.87889213900E+02  0.48010911015E+03  0.18401014802E+04  0.25500000920E-02 0. -1.
       -2    1    3    3    0  502  0.17741883174E+04 -0.87889213900E+02 -0.25427321643E+03  0.17944702751E+04  0.25500000920E-02 0.  1.
</event>
<event>
 5   0  0.7707500E-07  0.3777857E+04  0.7818609E-02  0.8050923E-01
        3   -1    0    0  501    0  0.00000000000E+00  0.00000000000E+00  0.14375589333E+04  0.14375589369E+04  0.10100000352E+00 0. -1.
       -3   -1    0    0    0  501  0.00000000000E+00  0.00000000000E+00 -0.24820203832E+04  0.24820203853E+04  0.10100000352E+00 0.  1.
    10030    2    1    2    0    0  0.00000000000E+00  0.00000000000E+00 -0.10444614499E+04  0.39195793222E+04  0.37778568452E+04 0.  0.
        2    1    3    3  502    0 -0.36090995698E+03  0.18385556715E+04 -0.77103434827E+03  0.20260890702E+04  0.25500000920E-02 0.  1.
       -2    1    3    3    0  502  0.36090995698E+03 -0.18385556715E+04 -0.27342710160E+03  0.18934902519E+04  0.25500000920E-02 0. -1.
</event>
<event>
 5   0  0.8452742E-07  0.2262571E+04  0.7818609E-02  0.8492827E-01
        1   -1    0    0  501    0  0.00000000000E+00  0.00000000000E+00  0.10070711767E+04  0.10070711768E+04  0.50400001928E-02 0.  1.
       -1   -1    0    0    0  501  0.00000000000E+00  0.00000000000E+00 -0.12708204298E+04  0.12708204299E+04  0.50400001928E-02 0. -1.
    10030    2    1    2    0    0  0.00000000000E+00  0.00000000000E+00 -0.26374925310E+03  0.22778916066E+04  0.22625707730E+04 0.  0.
        1    1    3    3  502    0 -0.16089174465E+03  0.47652745637E+03  0.88831923310E+03  0.10208210568E+04  0.50400001928E-02 0.  1.
       -1    1    3    3    0  502  0.16089174465E+03 -0.47652745637E+03 -0.11520684862E+04  0.12570705498E+04  0.50400001928E-02 0. -1.
</event>
<event>
 5   0  0.2536619E-06  0.3494884E+04  0.7818609E-02  0.8115003E-01
       -2   -1    0    0    0  501  0.00000000000E+00  0.00000000000E+00  0.20214644050E+04  0.20214644051E+04  0.25500000920E-02 0. -1.
        2   -1    0    0  501    0  0.00000000000E+00  0.00000000000E+00 -0.15105651863E+04  0.15105651863E+04  0.25500000920E-02 0.  1.
    10030    2    1    2    0    0  0.00000000000E+00  0.00000000000E+00  0.51089921873E+03  0.35320295914E+04  0.34948841215E+04 0.  0.
        1    1    3    3  502    0  0.91003892960E+03 -0.13823738115E+04 -0.31124680640E+03  0.16840435810E+04  0.50400001928E-02 0.  1.
       -1    1    3    3    0  502 -0.91003892960E+03  0.13823738115E+04  0.82214602513E+03  0.18479860104E+04  0.50400001928E-02 0. -1.
</event>
<event>
 5   0  0.1513502E-06  0.3583238E+04  0.7818609E-02  0.8094342E-01
        2   -1    0    0  501    0  0.00000000000E+00  0.00000000000E+00  0.11859944808E+04  0.11859944808E+04  0.25500000920E-02 0.  1.
       -2   -1    0    0    0  501  0.00000000000E+00  0.00000000000E+00 -0.27065044034E+04  0.27065044034E+04  0.25500000920E-02 0. -1.
    10030    2    1    2    0    0  0.00000000000E+00  0.00000000000E+00 -0.15205099226E+04  0.38924988842E+04  0.35832383592E+04 0.  0.
        3    1    3    3  502    0  0.12453731274E+04 -0.63917192784E+03 -0.19749801199E+04  0.24207522517E+04  0.10100000352E+00 0. -1.
       -3    1    3    3    0  502 -0.12453731274E+04  0.63917192784E+03  0.45447019731E+03  0.14717466325E+04  0.10100000352E+00 0.  1.
</event>
<event>
 5   0  0.7707500E-07  0.2337937E+04  0.7818609E-02  0.8463111E-01
        3   -1    0    0  501    0  0.00000000000E+00  0.00000000000E+00  0.91352691543E+03  0.91352692102E+03  0.10100000352E+00 0.  1.
       -3   -1    0    0    0  501  0.00000000000E+00  0.00000000000E+00 -0.14958371147E+04  0.14958371181E+04  0.10100000352E+00 0. -1.
    10030    2    1    2    0    0  0.00000000000E+00  0.00000000000E+00 -0.58231019930E+03  0.24093640392E+04  0.23379371046E+04 0.  0.
        2    1    3    3  502    0 -0.37499809495E+03 -0.10234237545E+02  0.84980951367E+03  0.92892654196E+03  0.25500000920E-02 0.  1.
       -2    1    3    3    0  502  0.37499809495E+03  0.10234237545E+02 -0.14321197130E+04  0.14804374972E+04  0.25500000920E-02 0. -1.
</event>
<event>
 5   0  0.1566576E-06  0.3574306E+04  0.7818609E-02  0.8096403E-01
        2   -1    0    0  501    0  0.00000000000E+00  0.00000000000E+00  0.19188567313E+04  0.19188567313E+04  0.25500000920E-02 0. -1.
       -2   -1    0    0    0  501  0.00000000000E+00  0.00000000000E+00 -0.16644886311E+04  0.16644886311E+04  0.25500000920E-02 0.  1.
    10030    2    1    2    0    0  0.00000000000E+00  0.00000000000E+00  0.25436810025E+03  0.35833453624E+04  0.35743056467E+04 0.  0.
        4    1    3    3  502    0 -0.10623998578E+04  0.12758378440E+04 -0.53589473256E+03  0.17446032326E+04  0.12699999809E+01 0.  1.
       -4    1    3    3    0  502  0.10623998578E+04 -0.12758378440E+04  0.79026283281E+03  0.18387421298E+04  0.12699999809E+01 0. -1.
</event>
<event>
 5   0  0.7754556E-07  0.3592525E+04  0.7818609E-02  0.8092206E-01
       -1   -1    0    0    0  501  0.00000000000E+00  0.00000000000E+00  0.22220252068E+04  0.22220252068E+04  0.50400001928E-02 0. -1.
        1   -1    0    0  501    0  0.00000000000E+00  0.00000000000E+00 -0.14520799499E+04  0.14520799499E+04  0.50400001928E-02 0.  1.
    10030    2    1    2    0    0  0.00000000000E+00  0.00000000000E+00  0.76994525691E+03  0.36741051567E+04  0.35925246003E+04 0.  0.
        4    1    3    3  502    0  0.86162507240E+03  0.40898684024E+03  0.19416707853E+04  0.21632741510E+04  0.12699999809E+01 0. -1.
       -4    1    3    3    0  502 -0.86162507240E+03 -0.40898684024E+03 -0.11717255284E+04  0.15108310057E+04  0.12699999809E+01 0.  1.
</event>
<event>
 5   0  0.2536619E-06  0.3610233E+04  0.7818609E-02  0.8088152E-01
       -2   -1    0    0    0  501  0.00000000000E+00  0.00000000000E+00  0.14940194670E+04  0.14940194670E+04  0.25500000920E-02 0.  1.
        2   -1    0    0  501    0  0.00000000000E+00  0.00000000000E+00 -0.21809922751E+04  0.21809922751E+04  0.25500000920E-02 0. -1.
    10030    2    1    2    0    0  0.00000000000E+00  0.00000000000E+00 -0.68697280810E+03  0.36750117421E+04  0.36102326332E+04 0.  0.
        1    1    3    3  502    0  0.15480057723E+04  0.33646720121E+03  0.53743911274E+03  0.16728337779E+04  0.50400001928E-02 0.  1.
       -1    1    3    3    0  502 -0.15480057723E+04 -0.33646720121E+03 -0.12244119208E+04  0.20021779642E+04  0.50400001928E-02 0. -1.
</event>
<event>
 5   0  0.1566576E-06  0.3417900E+04  0.7818609E-02  0.8133527E-01
       -2   -1    0    0    0  501  0.00000000000E+00  0.00000000000E+00  0.11475506081E+04  0.11475506081E+04  0.25500000920E-02 0. -1.
        2   -1    0    0  501    0  0.00000000000E+00  0.00000000000E+00 -0.25449948011E+04  0.25449948011E+04  0.25500000920E-02 0.  1.
    10030    2    1    2    0    0  0.00000000000E+00  0.00000000000E+00 -0.13974441930E+04  0.36925454092E+04  0.34179001341E+04 0.  0.
        4    1    3    3  502    0 -0.27415237479E+03 -0.32365831901E+03 -0.24872217712E+04  0.25231305919E+04  0.12699999809E+01 0.  1.
       -4    1    3    3    0  502  0.27415237479E+03  0.32365831901E+03  0.10897775782E+04  0.11694148173E+04  0.12699999809E+01 0. -1.
</event>
<event>
 5   0  0.2422436E-06  0.3159740E+04  0.7818609E-02  0.8199531E-01
       -2   -1    0    0    0  501  0.00000000000E+00  0.00000000000E+00  0.12778221577E+04  0.12778221577E+04  0.25500000920E-02 0.  1.
        2   -1    0    0  501    0  0.00000000000E+00  0.00000000000E+00 -0.19533147383E+04  0.19533147383E+04  0.25500000920E-02 0. -1.
    10030    2    1    2    0    0  0.00000000000E+00  0.00000000000E+00 -0.67549258054E+03  0.32311368960E+04  0.31597397700E+04 0.  0.
        2    1    3    3  502    0 -0.76051439635E+03 -0.16674764813E+03 -0.17435095412E+04  0.19094534416E+04  0.25500000920E-02 0. -1.
       -2    1    3    3    0  502  0.76051439635E+03  0.16674764813E+03  0.10680169607E+04  0.13216834544E+04  0.25500000920E-02 0.  1.
</event>
<event>
 5   0  0.1566576E-06  0.3554879E+04  0.7818609E-02  0.8100906E-01
       -2   -1    0    0    0  501  0.00000000000E+00  0.00000000000E+00  0.24212466010E+04  0.24212466010E+04  0.25500000920E-02 0. -1.
        2   -1    0    0  501    0  0.00000000000E+00  0.00000000000E+00 -0.13048199411E+04  0.13048199411E+04  0.25500000920E-02 0.  1.
    10030    2    1    2    0    0  0.00000000000E+00  0.00000000000E+00  0.11164266598E+04  0.37260665421E+04  0.35548788150E+04 0.  0.
        4    1    3    3  502    0  0.14814154897E+04  0.24182023782E+03 -0.43958486131E+03  0.15640669243E+04  0.12699999809E+01 0.  1.
       -4    1    3    3    0  502 -0.14814154897E+04 -0.24182023782E+03  0.15560115212E+04  0.21619996178E+04  0.12699999809E+01 0. -1.
</event>
<event>
 5   0  0.2536619E-06  0.2565101E+04  0.7818609E-02  0.8380153E-01
       -2   -1    0    0    0  501  0.00000000000E+00  0.00000000000E+00  0.92489146229E+03  0.92489146229E+03  0.25500000920E-02 0.  1.
        2   -1    0    0  501    0  0.00000000000E+00  0.00000000000E+00 -0.17785174840E+04  0.17785174840E+04  0.25500000920E-02 0. -1.
    10030    2    1    2    0    0  0.00000000000E+00  0.00000000000E+00 -0.85362602169E+03  0.27034089463E+04  0.25651008842E+04 0.  0.
        1    1    3    3  502    0 -0.11986336268E+04  0.28040110932E+03 -0.80620675397E+03  0.14715015065E+04  0.50400001928E-02 0.  1.
       -1    1    3    3    0  502  0.11986336268E+04 -0.28040110932E+03 -0.47419267719E+02  0.12319074398E+04  0.50400001928E-02 0. -1.
</event>
<event>
 5   0  0.7707500E-07  0.3190182E+04  0.7818609E-02  0.8191415E-01
       -3   -1    0    0    0  501  0.00000000000E+00  0.00000000000E+00  0.19059504815E+04  0.19059504842E+04  0.10100000352E+00 0.  1.
        3   -1    0    0  501    0  0.00000000000E+00  0.00000000000E+00 -0.13349325667E+04  0.13349325706E+04  0.10100000352E+00 0. -1.
    10030    2    1    2    0    0  0.00000000000E+00  0.00000000000E+00  0.57101791480E+03  0.32408830548E+04  0.31901820506E+04 0.  0.
        2    1    3    3  502    0  0.15168140294E+04 -0.30207238749E+03  0.68202332968E+03  0.16903042180E+04  0.25500000920E-02 0.  1.
       -2    1    3    3    0  502 -0.15168140294E+04  0.30207238749E+03 -0.11100541488E+03  0.15505788368E+04  0.25500000920E-02 0. -1.
</event>
<event>
 5   0  0.7754556E-07  0.3651570E+04  0.7818609E-02  0.8078780E-01
       -1   -1    0    0    0  501  0.00000000000E+00  0.00000000000E+00  0.13078954677E+04  0.13078954677E+04  0.50400001928E-02 0. -1.
        1   -1    0    0  501    0  0.00000000000E+00  0.00000000000E+00 -0.25487439459E+04  0.25487439459E+04  0.50400001928E-02 0.  1.
    10030    2    1    2    0    0  0.00000000000E+00  0.00000000000E+00 -0.12408484782E+04  0.38566394136E+04  0.36515698844E+04 0.  0.
        4    1    3    3  502    0  0.96242420294E+02 -0.46587562291E+03 -0.24821386835E+04  0.25273141389E+04  0.12699999809E+01 0.  1.
       -4    1    3    3    0  502 -0.96242420294E+02  0.46587562291E+03  0.12412902053E+04  0.13293252748E+04  0.12699999809E+01 0. -1.
</event>
<event>
 5   0  0.2536619E-06  0.3642430E+04  0.7818609E-02  0.8080841E-01
       -2   -1    0    0    0  501  0.00000000000E+00  0.00000000000E+00  0.10908277259E+04  0.10908277259E+04  0.25500000920E-02 0. -1.
        2   -1    0    0  501    0  0.00000000000E+00  0.00000000000E+00 -0.30406486002E+04  0.30406486002E+04  0.25500000920E-02 0.  1.
    10030    2    1    2    0    0  0.00000000000E+00  0.00000000000E+00 -0.19498208743E+04  0.41314763261E+04  0.36424298472E+04 0.  0.
        1    1    3    3  502    0 -0.11952436084E+03 -0.59441946051E+03  0.97298851032E+03  0.11464411058E+04  0.50400001928E-02 0. -1.
       -1    1    3    3    0  502  0.11952436084E+03  0.59441946051E+03 -0.29228093846E+04  0.29850352203E+04  0.50400001928E-02 0.  1.
</event>
<event>
 5   0  0.2382711E-06  0.3497635E+04  0.7818609E-02  0.8114351E-01
       -2   -1    0    0    0  501  0.00000000000E+00  0.00000000000E+00  0.19125052779E+04  0.19125052779E+04  0.25500000920E-02 0.  1.
        2   -1    0    0  501    0  0.00000000000E+00  0.00000000000E+00 -0.15991394421E+04  0.15991394421E+04  0.25500000920E-02 0. -1.
    10030    2    1    2    0    0  0.00000000000E+00  0.00000000000E+00  0.31336583585E+03  0.35116447200E+04  0.34976349856E+04 0.  0.
        5    1    3    3  502    0  0.19300560316E+03 -0.92331623953E+03  0.16351901712E+04  0.18877587312E+04  0.46999998093E+01 0.  1.
       -5    1    3    3    0  502 -0.19300560316E+03  0.92331623953E+03 -0.13218243354E+04  0.16238859888E+04  0.46999998093E+01 0. -1.
</event>
<event>
 5   0  0.8452742E-07  0.2444264E+04  0.7818609E-02  0.8423115E-01
        1   -1    0    0  501    0  0.00000000000E+00  0.00000000000E+00  0.12824854850E+04  0.12824854851E+04  0.50400001928E-02 0. -1.
       -1   -1    0    0    0  501  0.00000000000E+00  0.00000000000E+00 -0.11646189180E+04  0.11646189180E+04  0.50400001928E-02 0.  1.
    10030    2    1    2    0    0  0.00000000000E+00  0.00000000000E+00  0.11786656708E+03  0.24471044030E+04  0.24442641902E+04 0.  0.
        1    1    3    3  502    0 -0.90324171187E+03 -0.32903763456E+02  0.88249391437E+03  0.12632195995E+04  0.50400001928E-02 0. -1.
       -1    1    3    3    0  502  0.90324171187E+03  0.32903763456E+02 -0.76462734729E+03  0.11838848035E+04  0.50400001928E-02 0.  1.
</event>
<event>
 5   0  0.8423692E-07  0.3630540E+04  0.7818609E-02  0.8083532E-01
        1   -1    0    0  501    0  0.00000000000E+00  0.00000000000E+00  0.21799159734E+04  0.21799159734E+04  0.50400001928E-02 0.  1.
       -1   -1    0    0    0  501  0.00000000000E+00  0.00000000000E+00 -0.15116204799E+04  0.15116204799E+04  0.50400001928E-02 0. -1.
    10030    2    1    2    0    0  0.00000000000E+00  0.00000000000E+00  0.66829549353E+03  0.36915364534E+04  0.36305402518E+04 0.  0.
        2    1    3    3  502    0  0.82198460373E+03 -0.12773709480E+04  0.13447631008E+04  0.20287244822E+04  0.25500000920E-02 0.  1.
       -2    1    3    3    0  502 -0.82198460373E+03  0.12773709480E+04 -0.67646760725E+03  0.16628119711E+04  0.25500000920E-02 0. -1.
</event>
<event>
 5   0  0.1566576E-06  0.3535801E+04  0.7818609E-02  0.8105358E-01
        2   -1    0    0  501    0  0.00000000000E+00  0.00000000000E+00  0.20962566776E+04  0.20962566776E+04  0.25500000920E-02 0.  1.
       -2   -1    0    0    0  501  0.00000000000E+00  0.00000000000E+00 -0.14909774986E+04  0.14909774986E+04  0.25500000920E-02 0. -1.
    10030    2    1    2    0    0  0.00000000000E+00  0.00000000000E+00  0.60527917895E+03  0.35872341762E+04  0.35358006378E+04 0.  0.
        4    1    3    3  502    0 -0.51807636904E+03  0.14825789162E+04 -0.52097383520E+03  0.16546476111E+04  0.12699999809E+01 0. -1.
       -4    1    3    3    0  502  0.51807636904E+03 -0.14825789162E+04  0.11262530142E+04  0.19325865651E+04  0.12699999809E+01 0.  1.
</event>
<event>
 5   0  0.2382711E-06  0.3543053E+04  0.7818609E-02  0.8103662E-01
        2   -1    0    0  501    0  0.00000000000E+00  0.00000000000E+00  0.23393599179E+04  0.23393599179E+04  0.25500000920E-02 0.  1.
       -2   -1    0    0    0  501  0.00000000000E+00  0.00000000000E+00 -0.13415232658E+04  0.13415232658E+04  0.25500000920E-02 0. -1.
    10030    2    1    2    0    0  0.00000000000E+00  0.00000000000E+00  0.99783665204E+03  0.36808831837E+04  0.35430527837E+04 0.  0.
        5    1    3    3  502    0  0.65866953428E+03 -0.31470243897E+03  0.21758356735E+04  0.22950307511E+04  0.46999998093E+01 0.  1.
       -5    1    3    3    0  502 -0.65866953428E+03  0.31470243897E+03 -0.11779990215E+04  0.13858524326E+04  0.46999998093E+01 0. -1.
</event>
<event>
 5   0  0.1908273E-06  0.2603651E+04  0.7818609E-02  0.8366962E-01
       -1   -1    0    0    0  501  0.00000000000E+00  0.00000000000E+00  0.10462989657E+04  0.10462989657E+04  0.50400001928E-02 0.  1.
        1   -1    0    0  501    0  0.00000000000E+00  0.00000000000E+00 -0.16197565035E+04  0.16197565035E+04  0.50400001928E-02 0. -1.
    10030    2    1    2    0    0  0.00000000000E+00  0.00000000000E+00 -0.57345753779E+03  0.26660554692E+04  0.26036509400E+04 0.  0.
        3    1    3    3  502    0  0.21290268872E+03  0.12082228650E+04 -0.73261895846E+03  0.14289368757E+04  0.10100000352E+00 0. -1.
       -3    1    3    3    0  502 -0.21290268872E+03 -0.12082228650E+04  0.15916142066E+03  0.12371185935E+04  0.10100000352E+00 0.  1.
</event>
<event>
 5   0  0.1634374E-06  0.3605336E+04  0.7818609E-02  0.8089270E-01
        1   -1    0    0  501    0  0.00000000000E+00  0.00000000000E+00  0.28441151406E+04  0.28441151406E+04  0.50400001928E-02 0. -1.
       -1   -1    0    0    0  501  0.00000000000E+00  0.00000000000E+00 -0.11425741982E+04  0.11425741982E+04  0.50400001928E-02 0.  1.
    10030    2    1    2    0    0  0.00000000000E+00  0.00000000000E+00  0.17015409424E+04  0.39866893389E+04  0.36053363652E+04 0.  0.
        5    1    3    3  502    0  0.16546852285E+04  0.63202381630E+03  0.48045454047E+03  0.18352917929E+04  0.46999998093E+01 0. -1.
       -5    1    3    3    0  502 -0.16546852285E+04 -0.63202381630E+03  0.12210864019E+04  0.21513975459E+04  0.46999998093E+01 0.  1.
</event>
<event>
 5   0  0.2536619E-06  0.3639426E+04  0.7818609E-02  0.8081520E-01
       -2   -1    0    0    0  501  0.00000000000E+00  0.00000000000E+00  0.14175123713E+04  0.14175123713E+04  0.25500000920E-02 0. -1.
        2   -1    0    0  501    0  0.00000000000E+00  0.00000000000E+00 -0.23360327871E+04  0.23360327871E+04  0.25500000920E-02 0.  1.
    10030    2    1    2    0    0  0.00000000000E+00  0.00000000000E+00 -0.91852041583E+03  0.37535451584E+04  0.36394259853E+04 0.  0.
        1    1    3    3  502    0  0.15494843637E+04 -0.17383684242E+03  0.50836663114E+03  0.16399870953E+04  0.50400001928E-02 0. -1.
       -1    1    3    3    0  502 -0.15494843637E+04  0.17383684242E+03 -0.14268870470E+04  0.21135580631E+04  0.50400001928E-02 0.  1.
</event>
<event>
 5   0  0.1908273E-06  0.2822003E+04  0.7818609E-02  0.8296470E-01
       -1   -1    0    0    0  501  0.00000000000E+00  0.00000000000E+00  0.88922229460E+03  0.88922229461E+03  0.50400001928E-02 0. -1.
        1   -1    0    0  501    0  0.00000000000E+00  0.00000000000E+00 -0.22389506930E+04  0.22389506930E+04  0.50400001928E-02 0.  1.
    10030    2    1    2    0    0  0.00000000000E+00  0.00000000000E+00 -0.13497283984E+04  0.31281729876E+04  0.28220027447E+04 0.  0.
        3    1    3    3  502    0  0.11576817559E+04 -0.78203145383E+03 -0.45560471185E+03  0.14694815094E+04  0.10100000352E+00 0.  1.
       -3    1    3    3    0  502 -0.11576817559E+04  0.78203145383E+03 -0.89412368656E+03  0.16586914782E+04  0.10100000352E+00 0. -1.
</event>
<event>
 5   0  0.2422436E-06  0.3556652E+04  0.7818609E-02  0.8100494E-01
       -2   -1    0    0    0  501  0.00000000000E+00  0.00000000000E+00  0.15745785043E+04  0.15745785043E+04  0.25500000920E-02 0. -1.
        2   -1    0    0  501    0  0.00000000000E+00  0.00000000000E+00 -0.20084383962E+04  0.20084383962E+04  0.25500000920E-02 0.  1.
    10030    2    1    2    0    0  0.00000000000E+00  0.00000000000E+00 -0.43385989188E+03  0.35830169006E+04  0.35566523170E+04 0.  0.
        2    1    3    3  502    0 -0.67989338584E+03  0.89557731896E+03 -0.16048691429E+04  0.19595710541E+04  0.25500000920E-02 0.  1.
       -2    1    3    3    0  502  0.67989338584E+03 -0.89557731896E+03  0.11710092510E+04  0.16234458464E+04  0.25500000920E-02 0. -1.
</event>
<event>
 5   0  0.2382711E-06  0.3597550E+04  0.7818609E-02  0.8091053E-01
        2   -1    0    0  501    0  0.00000000000E+00  0.00000000000E+00  0.16444682057E+04  0.16444682057E+04  0.25500000920E-02 0.  1.
       -2   -1    0    0    0  501  0.00000000000E+00  0.00000000000E+00 -0.19675614976E+04  0.19675614976E+04  0.25500000920E-02 0. -1.
    10030    2    1    2    0    0  0.00000000000E+00  0.00000000000E+00 -0.32309329197E+03  0.36120297033E+04  0.35975504586E+04 0.  0.
        5    1    3    3  502    0  0.37243012998E+03  0.16991671780E+04 -0.62131646630E+03  0.18471409101E+04  0.46999998093E+01 0. -1.
       -5    1    3    3    0  502 -0.37243012998E+03 -0.16991671780E+04  0.29822317433E+03  0.17648887932E+04  0.46999998093E+01 0.  1.
</event>
<event>
 5   0  0.1513502E-06  0.3608235E+04  0.7818609E-02  0.8088608E-01
       -2   -1    0    0    0  501  0.00000000000E+00  0.00000000000E+00  0.19206006154E+04  0.19206006154E+04  0.25500000920E-02 0.  1.
        2   -1    0    0  501    0  0.00000000000E+00  0.00000000000E+00 -0.16946989198E+04  0.16946989198E+04  0.25500000920E-02 0. -1.
    10030    2    1    2    0    0  0.00000000000E+00  0.00000000000E+00  0.22590169558E+03  0.36152995351E+04  0.36082349082E+04 0.  0.
        3    1    3    3  502    0  0.69769443912E+03 -0.12354412258E+04 -0.10035680562E+04  0.17378841752E+04  0.10100000352E+00 0. -1.
       -3    1    3    3    0  502 -0.69769443912E+03  0.12354412258E+04  0.12294697518E+04  0.18774153599E+04  0.10100000352E+00 0.  1.
</event>
<event>
 5   0  0.1566576E-06  0.2954102E+04  0.7818609E-02  0.8256960E-01
       -2   -1    0    0    0  501  0.00000000000E+00  0.00000000000E+00  0.97849490309E+03  0.97849490309E+03  0.25500000920E-02 0.  1.
        2   -1    0    0  501    0  0.00000000000E+00  0.00000000000E+00 -0.22296284091E+04  0.22296284091E+04  0.25500000920E-02 0. -1.
    10030    2    1    2    0    0  0.00000000000E+00  0.00000000000E+00 -0.12511335060E+04  0.32081233121E+04  0.29541022555E+04 0.  0.
        4    1    3    3  502    0 -0.90670969547E+03 -0.91894544397E+03 -0.14049827028E+04  0.19080254739E+04  0.12699999809E+01 0. -1.
       -4    1    3    3    0  502  0.90670969547E+03  0.91894544397E+03  0.15384919683E+03  0.13000978383E+04  0.12699999809E+01 0.  1.
</event>
<event>
 5   0  0.1566576E-06  0.2902053E+04  0.7818609E-02  0.8272267E-01
       -2   -1    0    0    0  501  0.00000000000E+00  0.00000000000E+00  0.10879995605E+04  0.10879995605E+04  0.25500000920E-02 0. -1.
        2   -1    0    0  501    0  0.00000000000E+00  0.00000000000E+00 -0.19351820183E+04  0.19351820183E+04  0.25500000920E-02 0.  1.
    10030    2    1    2    0    0  0.00000000000E+00  0.00000000000E+00 -0.84718245785E+03  0.30231815788E+04  0.29020525050E+04 0.  0.
        4    1    3    3  502    0  0.72551439017E+03  0.11608194296E+04 -0.92492939798E+03  0.16520801683E+04  0.12699999809E+01 0.  1.
       -4    1    3    3    0  502 -0.72551439017E+03 -0.11608194296E+04  0.77746940128E+02  0.13711014105E+04  0.12699999809E+01 0. -1.
</event>
<event>
 5   0  0.7707500E-07  0.3546036E+04  0.7818609E-02  0.8102966E-01
       -3   -1    0    0    0  501  0.00000000000E+00  0.00000000000E+00  0.11866634574E+04  0.11866634617E+04  0.10100000352E+00 0. -1.
        3   -1    0    0  501    0  0.00000000000E+00  0.00000000000E+00 -0.26491025743E+04  0.26491025762E+04  0.10100000352E+00 0.  1.
    10030    2    1    2    0    0  0.00000000000E+00  0.00000000000E+00 -0.14624391168E+04  0.38357660379E+04  0.35460362276E+04 0.  0.
        2    1    3    3  502    0 -0.12610912293E+04  0.50500025092E+03 -0.19637071877E+04  0.23877860585E+04  0.25500000920E-02 0.  1.
       -2    1    3    3    0  502  0.12610912293E+04 -0.50500025092E+03  0.50126807085E+03  0.14479799794E+04  0.25500000920E-02 0. -1.
</event>
<event>
 5   0  0.7707500E-07  0.3554059E+04  0.7818609E-02  0.8101097E-01
        3   -1    0    0  501    0  0.00000000000E+00  0.00000000000E+00  0.22706943542E+04  0.22706943564E+04  0.10100000352E+00 0.  1.
       -3   -1    0    0    0  501  0.00000000000E+00  0.00000000000E+00 -0.13906907161E+04  0.13906907198E+04  0.10100000352E+00 0. -1.
    10030    2    1    2    0    0  0.00000000000E+00  0.00000000000E+00  0.88000363807E+03  0.36613850762E+04  0.35540588450E+04 0.  0.
        3    1    3    3  502    0  0.99055711975E+03 -0.14374703166E+04  0.97843787732E+02  0.17484558146E+04  0.10100000352E+00 0. -1.
       -3    1    3    3    0  502 -0.99055711975E+03  0.14374703166E+04  0.78215985033E+03  0.19129292617E+04  0.10100000352E+00 0.  1.
</event>
<event>
 5   0  0.1634374E-06  0.2879567E+04  0.7818609E-02  0.8278983E-01
       -1   -1    0    0    0  501  0.00000000000E+00  0.00000000000E+00  0.11217154154E+04  0.11217154154E+04  0.50400001928E-02 0. -1.
        1   -1    0    0  501    0  0.00000000000E+00  0.00000000000E+00 -0.18480414432E+04  0.18480414432E+04  0.50400001928E-02 0.  1.
    10030    2    1    2    0    0  0.00000000000E+00  0.00000000000E+00 -0.72632602773E+03  0.29697568586E+04  0.28795670335E+04 0.  0.
        5    1    3    3  502    0  0.25649879477E+03 -0.12173697814E+04 -0.11105493826E+04  0.16676698827E+04  0.46999998093E+01 0.  1.
       -5    1    3    3    0  502 -0.25649879477E+03  0.12173697814E+04  0.38422335490E+03  0.13020869759E+04  0.46999998093E+01 0. -1.
</event>
<event>
 5   0  0.1566576E-06  0.3416375E+04  0.7818609E-02  0.8133899E-01
       -2   -1    0    0    0  501  0.00000000000E+00  0.00000000000E+00  0.13593089793E+04  0.13593089793E+04  0.25500000920E-02 0. -1.
        2   -1    0    0  501    0  0.00000000000E+00  0.00000000000E+00 -0.21466083932E+04  0.21466083932E+04  0.25500000920E-02 0.  1.
    10030    2    1    2    0    0  0.00000000000E+00  0.00000000000E+00 -0.78729941389E+03  0.35059173724E+04  0.34163747241E+04 0.  0.
        4    1    3    3  502    0  0.27778620568E+03  0.82850993580E+03 -0.18998756722E+04  0.20912013467E+04  0.12699999809E+01 0.  1.
       -4    1    3    3    0  502 -0.27778620568E+03 -0.82850993580E+03  0.11125762583E+04  0.14147160257E+04  0.12699999809E+01 0. -1.
</event>
<event>
 5   0  0.1513502E-06  0.3457818E+04  0.7818609E-02  0.8123860E-01
       -2   -1    0    0    0  501  0.00000000000E+00  0.00000000000E+00  0.18991779538E+04  0.18991779538E+04  0.25500000920E-02 0. -1.
        2   -1    0    0  501    0  0.00000000000E+00  0.00000000000E+00 -0.15739052729E+04  0.15739052730E+04  0.25500000920E-02 0.  1.
    10030    2    1    2    0    0  0.00000000000E+00  0.00000000000E+00  0.32527268088E+03  0.34730832268E+04  0.34578179222E+04 0.  0.
        3    1    3    3  502    0  0.10107056487E+04 -0.31664875388E+03  0.15351733188E+04  0.18650869875E+04  0.10100000352E+00 0. -1.
       -3    1    3    3    0  502 -0.10107056487E+04  0.31664875388E+03 -0.12099006380E+04  0.16079962393E+04  0.10100000352E+00 0.  1.
</event>
<event>
 5   0  0.8452742E-07  0.3548677E+04  0.7818609E-02  0.8102350E-01
       -1   -1    0    0    0  501  0.00000000000E+00  0.00000000000E+00  0.22788288904E+04  0.22788288904E+04  0.50400001928E-02 0. -1.
        1   -1    0    0  501    0  0.00000000000E+00  0.00000000000E+00 -0.13815332301E+04  0.13815332301E+04  0.50400001928E-02 0.  1.
    10030    2    1    2    0    0  0.00000000000E+00  0.00000000000E+00  0.89729566029E+03  0.36603621205E+04  0.35486774087E+04 0.  0.
        1    1    3    3  502    0  0.17474120648E+02  0.94684056182E+03  0.19963599141E+04  0.22095848707E+04  0.50400001928E-02 0. -1.
       -1    1    3    3    0  502 -0.17474120648E+02 -0.94684056182E+03 -0.10990642538E+04  0.14507772497E+04  0.50400001928E-02 0.  1.
</event>
<event>
 5   0  0.1566576E-06  0.3613319E+04  0.7818609E-02  0.8087448E-01
       -2   -1    0    0    0  501  0.00000000000E+00  0.00000000000E+00  0.14703061611E+04  0.14703061611E+04  0.25500000920E-02 0.  1.
        2   -1    0    0  501    0  0.00000000000E+00  0.00000000000E+00 -0.22199585631E+04  0.22199585631E+04  0.25500000920E-02 0. -1.
    10030    2    1    2    0    0  0.00000000000E+00  0.00000000000E+00 -0.74965240202E+03  0.36902647242E+04  0.36133191127E+04 0.  0.
        4    1    3    3  502    0  0.40929996681E+03  0.17090608483E+04 -0.80279839568E+03  0.19320720284E+04  0.12699999809E+01 0. -1.
       -4    1    3    3    0  502 -0.40929996681E+03 -0.17090608483E+04  0.53145993662E+02  0.17581926958E+04  0.12699999809E+01 0.  1.
</event>
<event>
 5   0  0.2536619E-06  0.3561804E+04  0.7818609E-02  0.8099297E-01
        2   -1    0    0  501    0  0.00000000000E+00  0.00000000000E+00  0.22302139614E+04  0.22302139614E+04  0.25500000920E-02 0. -1.
       -2   -1    0    0    0  501  0.00000000000E+00  0.00000000000E+00 -0.14221108878E+04  0.14221108878E+04  0.25500000920E-02 0.  1.
    10030    2    1    2    0    0  0.00000000000E+00  0.00000000000E+00  0.80810307359E+03  0.36523248493E+04  0.35618037884E+04 0.  0.
        1    1    3    3  502    0  0.13507734730E+04 -0.14821015138E+03 -0.77631415404E+03  0.15649980480E+04  0.50400001928E-02 0.  1.
       -1    1    3    3    0  502 -0.13507734730E+04  0.14821015138E+03  0.15844172276E+04  0.20873268013E+04  0.50400001928E-02 0. -1.
</event>
<event>
 5   0  0.8452742E-07  0.3281463E+04  0.7818609E-02  0.8167628E-01
       -1   -1    0    0    0  501  0.00000000000E+00  0.00000000000E+00  0.30429285227E+04  0.30429285227E+04  0.50400001928E-02 0. -1.
        1   -1    0    0  501    0  0.00000000000E+00  0.00000000000E+00 -0.88467396400E+03  0.88467396402E+03  0.50400001928E-02 0.  1.
    10030    2    1    2    0    0  0.00000000000E+00  0.00000000000E+00  0.21582545587E+04  0.39276024867E+04  0.32814628679E+04 0.  0.
        1    1    3    3  502    0  0.88770422529E+03 -0.13788721979E+04  0.11412316922E+04  0.19979282032E+04  0.50400001928E-02 0. -1.
       -1    1    3    3    0  502 -0.88770422529E+03  0.13788721979E+04  0.10170228664E+04  0.19296742835E+04  0.50400001928E-02 0.  1.
</event>
<event>
 5   0  0.1513502E-06  0.3438356E+04  0.7818609E-02  0.8128556E-01
        2   -1    0    0  501    0  0.00000000000E+00  0.00000000000E+00  0.23157750102E+04  0.23157750102E+04  0.25500000920E-02 0. -1.
       -2   -1    0    0    0  501  0.00000000000E+00  0.00000000000E+00 -0.12762777799E+04  0.12762777799E+04  0.25500000920E-02 0.  1.
    10030    2    1    2    0    0  0.00000000000E+00  0.00000000000E+00  0.10394972303E+04  0.35920527901E+04  0.34383555306E+04 0.  0.
        3    1    3    3  502    0 -0.31693521380E+03  0.93593349622E+03 -0.94996116838E+03  0.13707099149E+04  0.10100000352E+00 0.  1.
       -3    1    3    3    0  502  0.31693521380E+03 -0.93593349622E+03  0.19894583986E+04  0.22213428752E+04  0.10100000352E+00 0. -1.
</event>
<event>
 5   0  0.8452742E-07  0.3640551E+04  0.7818609E-02  0.8081266E-01
       -1   -1    0    0    0  501  0.00000000000E+00  0.00000000000E+00  0.25092335985E+04  0.25092335985E+04  0.50400001928E-02 0. -1.
        1   -1    0    0  501    0  0.00000000000E+00  0.00000000000E+00 -0.13204841982E+04  0.13204841982E+04  0.50400001928E-02 0.  1.
    10030    2    1    2    0    0  0.00000000000E+00  0.00000000000E+00  0.11887494004E+04  0.38297177967E+04  0.36405512310E+04 0.  0.
        1    1    3    3  502    0  0.10561301271E+04 -0.87022542343E+03  0.18570347267E+04  0.23067902179E+04  0.50400001928E-02 0. -1.
       -1    1    3    3    0  502 -0.10561301271E+04  0.87022542343E+03 -0.66828532632E+03  0.15229275789E+04  0.50400001928E-02 0.  1.
</event>
<event>
 5   0  0.1634374E-06  0.2107605E+04  0.7818609E-02  0.8557901E-01
       -1   -1    0    0    0  501  0.00000000000E+00  0.00000000000E+00  0.65346214758E+03  0.65346214760E+03  0.50400001928E-02 0. -1.
        1   -1    0    0  501    0  0.00000000000E+00  0.00000000000E+00 -0.16994100914E+04  0.16994100914E+04  0.50400001928E-02 0.  1.
    10030    2    1    2    0    0  0.00000000000E+00  0.00000000000E+00 -0.10459479438E+04  0.23528722390E+04  0.21076054355E+04 0.  0.
        5    1    3    3  502    0 -0.93555049151E+03 -0.25084562257E+03 -0.98636909567E+03  0.13824342051E+04  0.46999998093E+01 0.  1.
       -5    1    3    3    0  502  0.93555049151E+03  0.25084562257E+03 -0.59578848145E+02  0.97043803391E+03  0.46999998093E+01 0. -1.
</event>
<event>
 5   0  0.7754556E-07  0.2247406E+04  0.7818609E-02  0.8498952E-01
        1   -1    0    0  501    0  0.00000000000E+00  0.00000000000E+00  0.12211469044E+04  0.12211469044E+04  0.50400001928E-02 0. -1.
       -1   -1    0    0    0  501  0.00000000000E+00  0.00000000000E+00 -0.10340347632E+04  0.10340347632E+04  0.50400001928E-02 0.  1.
    10030    2    1    2    0    0  0.00000000000E+00  0.00000000000E+00  0.18711214115E+03  0.22551816676E+04  0.22474059269E+04 0.  0.
        4    1    3    3  502    0  0.62058279377E+03  0.36676313181E+03 -0.77144062310E+03  0.10558221662E+04  0.12699999809E+01 0.  1.
       -4    1    3    3    0  502 -0.62058279377E+03 -0.36676313181E+03  0.95855276425E+03  0.11993595014E+04  0.12699999809E+01 0. -1.
</event>
<event>
 5   0  0.7754556E-07  0.3017650E+04  0.7818609E-02  0.8238709E-01
        1   -1    0    0  501    0  0.00000000000E+00  0.00000000000E+00  0.23515305657E+04  0.23515305658E+04  0.50400001928E-02 0. -1.
       -1   -1    0    0    0  501  0.00000000000E+00  0.00000000000E+00 -0.96811545110E+03  0.96811545111E+03  0.50400001928E-02 0.  1.
    10030    2    1    2    0    0  0.00000000000E+00  0.00000000000E+00  0.13834151147E+04  0.33196460169E+04  0.30176501285E+04 0.  0.
        4    1    3    3  502    0  0.59157396416E+03 -0.20618073578E+03 -0.81827767492E+03  0.10305582065E+04  0.12699999809E+01 0.  1.
       -4    1    3    3    0  502 -0.59157396416E+03  0.20618073578E+03  0.22016927896E+04  0.22890878103E+04  0.12699999809E+01 0. -1.
</event>
<event>
 5   0  0.1513502E-06  0.3534465E+04  0.7818609E-02  0.8105670E-01
        2   -1    0    0  501    0  0.00000000000E+00  0.00000000000E+00  0.22173674057E+04  0.22173674057E+04  0.25500000920E-02 0.  1.
       -2   -1    0    0    0  501  0.00000000000E+00  0.00000000000E+00 -0.14084771458E+04  0.14084771458E+04  0.25500000920E-02 0. -1.
    10030    2    1    2    0    0  0.00000000000E+00  0.00000000000E+00  0.80889025986E+03  0.36258445516E+04  0.35344653428E+04 0.  0.
        3    1    3    3  502    0  0.44854339442E+03 -0.10318886429E+04  0.18024417887E+04  0.21248015813E+04  0.10100000352E+00 0.  1.
       -3    1    3    3    0  502 -0.44854339442E+03  0.10318886429E+04 -0.99355152880E+03  0.15010429703E+04  0.10100000352E+00 0. -1.
</event>
<event>
 5   0  0.7754556E-07  0.2311914E+04  0.7818609E-02  0.8473238E-01
        1   -1    0    0  501    0  0.00000000000E+00  0.00000000000E+00  0.18576508982E+04  0.18576508982E+04  0.50400001928E-02 0. -1.
       -1   -1    0    0    0  501  0.00000000000E+00  0.00000000000E+00 -0.71931549511E+03  0.71931549513E+03  0.50400001928E-02 0.  1.
    10030    2    1    2    0    0  0.00000000000E+00  0.00000000000E+00  0.11383354031E+04  0.25769663934E+04  0.23119144237E+04 0.  0.
        4    1    3    3  502    0 -0.24212362725E+03  0.10300013053E+04  0.50277586775E+02  0.10592714423E+04  0.12699999809E+01 0.  1.
       -4    1    3    3    0  502  0.24212362725E+03 -0.10300013053E+04  0.10880578163E+04  0.15176949511E+04  0.12699999809E+01 0. -1.
</event>
<event>
 5   0  0.2382711E-06  0.3079927E+04  0.7818609E-02  0.8221268E-01
        2   -1    0    0  501    0  0.00000000000E+00  0.00000000000E+00  0.17813078510E+04  0.17813078510E+04  0.25500000920E-02 0. -1.
       -2   -1    0    0    0  501  0.00000000000E+00  0.00000000000E+00 -0.13313185529E+04  0.13313185529E+04  0.25500000920E-02 0.  1.
    10030    2    1    2    0    0  0.00000000000E+00  0.00000000000E+00  0.44998929814E+03  0.31126264039E+04  0.30799273956E+04 0.  0.
        5    1    3    3  502    0 -0.15056021291E+04 -0.20473613000E+03 -0.28086575423E+02  0.15197255015E+04  0.46999998093E+01 0. -1.
       -5    1    3    3    0  502  0.15056021291E+04  0.20473613000E+03  0.47807587357E+03  0.15929009025E+04  0.46999998093E+01 0.  1.
</event>
<event>
 5   0  0.1908273E-06  0.2742136E+04  0.7818609E-02  0.8321461E-01
        1   -1    0    0  501    0  0.00000000000E+00  0.00000000000E+00  0.21470767209E+04  0.21470767209E+04  0.50400001928E-02 0.  1.
       -1   -1    0    0    0  501  0.00000000000E+00  0.00000000000E+00 -0.87552892680E+03  0.87552892682E+03  0.50400001928E-02 0. -1.
    10030    2    1    2    0    0  0.00000000000E+00  0.00000000000E+00  0.12715477941E+04  0.30226056477E+04  0.27421362309E+04 0.  0.
        3    1    3    3  502    0 -0.48391445782E+03 -0.38255879034E+03 -0.71392600455E+03  0.94351193990E+03  0.10100000352E+00 0. -1.
       -3    1    3    3    0  502  0.48391445782E+03  0.38255879034E+03  0.19854737986E+04  0.20790937078E+04  0.10100000352E+00 0.  1.
</event>
<event>
 5   0  0.1566576E-06  0.3618643E+04  0.7818609E-02  0.8086235E-01
        2   -1    0    0  501    0  0.00000000000E+00  0.00000000000E+00  0.25502837476E+04  0.25502837476E+04  0.25500000920E-02 0. -1.
       -2   -1    0    0    0  501  0.00000000000E+00  0.00000000000E+00 -0.12836389888E+04  0.12836389888E+04  0.25500000920E-02 0.  1.
    10030    2    1    2    0    0  0.00000000000E+00  0.00000000000E+00  0.12666447588E+04  0.38339227364E+04  0.36186426466E+04 0.  0.
        4    1    3    3  502    0 -0.16865532516E+04  0.37829680336E+03  0.66646007484E+02  0.17297438091E+04  0.12699999809E+01 0.  1.
       -4    1    3    3    0  502  0.16865532516E+04 -0.37829680336E+03  0.11999987513E+04  0.21041789273E+04  0.12699999809E+01 0. -1.
</event>
<event>
 5   0  0.1513502E-06  0.2220572E+04  0.7818609E-02  0.8509914E-01
       -2   -1    0    0    0  501  0.00000000000E+00  0.00000000000E+00  0.73262481868E+03  0.73262481868E+03  0.25500000920E-02 0.  1.
        2   -1    0    0  501    0  0.00000000000E+00  0.00000000000E+00 -0.16826275681E+04  0.16826275681E+04  0.25500000920E-02 0. -1.
    10030    2    1    2    0    0  0.00000000000E+00  0.00000000000E+00 -0.95000274941E+03  0.24152523868E+04  0.22205717435E+04 0.  0.
        3    1    3    3  502    0  0.69835057149E+03  0.14127434377E+03 -0.14011730524E+04  0.15719217201E+04  0.10100000352E+00 0. -1.
       -3    1    3    3    0  502 -0.69835057149E+03 -0.14127434377E+03  0.45117030302E+03  0.84333066672E+03  0.10100000352E+00 0.  1.
</event>
<event>
 5   0  0.7754556E-07  0.3314047E+04  0.7818609E-02  0.8159330E-01
        1   -1    0    0  501    0  0.00000000000E+00  0.00000000000E+00  0.23211781969E+04  0.23211781969E+04  0.50400001928E-02 0.  1.
       -1   -1    0    0    0  501  0.00000000000E+00  0.00000000000E+00 -0.11829023198E+04  0.11829023198E+04  0.50400001928E-02 0. -1.
    10030    2    1    2    0    0  0.00000000000E+00  0.00000000000E+00  0.11382758771E+04  0.35040805167E+04  0.33140471172E+04 0.  0.
        4    1    3    3  502    0  0.88739767696E+03 -0.36504017422E+03 -0.85925079329E+03  0.12880382388E+04  0.12699999809E+01 0. -1.
       -4    1    3    3    0  502 -0.88739767696E+03  0.36504017422E+03  0.19975266704E+04  0.22160422780E+04  0.12699999809E+01 0.  1.
</event>
<event>
 5   0  0.2382711E-06  0.2051529E+04  0.7818609E-02  0.8582901E-01
        2   -1    0    0  501    0  0.00000000000E+00  0.00000000000E+00  0.18490641506E+04  0.18490641506E+04  0.25500000920E-02 0. -1.
       -2   -1    0    0    0  501  0.00000000000E+00  0.00000000000E+00 -0.56904047325E+03  0.56904047325E+03  0.25500000920E-02 0.  1.
    10030    2    1    2    0    0  0.00000000000E+00  0.00000000000E+00  0.12800236774E+04  0.24181046239E+04  0.20515285417E+04 0.  0.
        5    1    3    3  502    0 -0.30538806441E+03  0.74646708477E+03 -0.10703164781E+03  0.81360484399E+03  0.46999998093E+01 0.  1.
       -5    1    3    3    0  502  0.30538806441E+03 -0.74646708477E+03  0.13870553252E+04  0.16044997799E+04  0.46999998093E+01 0. -1.
</event>
<event>
 5   0  0.8423692E-07  0.3169242E+04  0.7818609E-02  0.8196988E-01
        1   -1    0    0  501    0  0.00000000000E+00  0.00000000000E+00  0.20942504235E+04  0.20942504235E+04  0.50400001928E-02 0.  1.
       -1   -1    0    0    0  501  0.00000000000E+00  0.00000000000E+00 -0.11990085958E+04  0.11990085958E+04  0.50400001928E-02 0. -1.
    10030    2    1    2    0    0  0.00000000000E+00  0.00000000000E+00  0.89524182766E+03  0.32932590193E+04  0.31692423445E+04 0.  0.
        2    1    3    3  502    0 -0.98455988478E+03 -0.22177577573E+03 -0.82185636581E+03  0.13015339210E+04  0.25500000920E-02 0. -1.
       -2    1    3    3    0  502  0.98455988478E+03  0.22177577573E+03  0.17170981935E+04  0.19917250984E+04  0.25500000920E-02 0.  1.
</event>
<event>
 5   0  0.8452742E-07  0.3394743E+04  0.7818609E-02  0.8139198E-01
        1   -1    0    0  501    0  0.00000000000E+00  0.00000000000E+00  0.21855908597E+04  0.21855908597E+04  0.50400001928E-02 0. -1.
       -1   -1    0    0    0  501  0.00000000000E+00  0.00000000000E+00 -0.13182113575E+04  0.13182113575E+04  0.50400001928E-02 0.  1.
    10030    2    1    2    0    0  0.00000000000E+00  0.00000000000E+00  0.86737950216E+03  0.35038022172E+04  0.33947434037E+04 0.  0.
        1    1    3    3  502    0  0.69512738379E+03  0.11349513555E+04 -0.65360175766E+03  0.14827379798E+04  0.50400001928E-02 0.  1.
       -1    1    3    3    0  502 -0.69512738379E+03 -0.11349513555E+04  0.15209812598E+04  0.20210642374E+04  0.50400001928E-02 0. -1.
</event>
<event>
 5   0  0.7754556E-07  0.3658517E+04  0.7818609E-02  0.8077218E-01
       -1   -1    0    0    0  501  0.00000000000E+00  0.00000000000E+00  0.12405801438E+04  0.12405801439E+04  0.50400001928E-02 0. -1.
        1   -1    0    0  501    0  0.00000000000E+00  0.00000000000E+00 -0.26972753754E+04  0.26972753754E+04  0.50400001928E-02 0.  1.
    10030    2    1    2    0    0  0.00000000000E+00  0.00000000000E+00 -0.14566952316E+04  0.39378555193E+04  0.36585167887E+04 0.  0.
        4    1    3    3  502    0 -0.80046655535E+03 -0.16069847543E+04 -0.35079778922E+03  0.18292641713E+04  0.12699999809E+01 0. -1.
       -4    1    3    3    0  502  0.80046655535E+03  0.16069847543E+04 -0.11058974424E+04  0.21085913479E+04  0.12699999809E+01 0.  1.
</event>
<event>
 5   0  0.1566576E-06  0.2700546E+04  0.7818609E-02  0.8334828E-01
       -2   -1    0    0    0  501  0.00000000000E+00  0.00000000000E+00  0.10588226863E+04  0.10588226863E+04  0.25500000920E-02 0.  1.
        2   -1    0    0  501    0  0.00000000000E+00  0.00000000000E+00 -0.17219469606E+04  0.17219469606E+04  0.25500000920E-02 0. -1.
    10030    2    1    2    0    0  0.00000000000E+00  0.00000000000E+00 -0.66312427426E+03  0.27807696469E+04  0.27005455053E+04 0.  0.
        4    1    3    3  502    0 -0.61235939592E+03  0.10399012110E+04 -0.95524171888E+03  0.15391123782E+04  0.12699999809E+01 0.  1.
       -4    1    3    3    0  502  0.61235939592E+03 -0.10399012110E+04  0.29211744462E+03  0.12416572687E+04  0.12699999809E+01 0. -1.
</event>
<event>
 5   0  0.2359092E-06  0.1842734E+04  0.7818609E-02  0.8683898E-01
        2   -1    0    0  501    0  0.00000000000E+00  0.00000000000E+00  0.14876338973E+04  0.14876338973E+04  0.25500000920E-02 0.  1.
       -2   -1    0    0    0  501  0.00000000000E+00  0.00000000000E+00 -0.57064940753E+03  0.57064940753E+03  0.25500000920E-02 0. -1.
    10030    2    1    2    0    0  0.00000000000E+00  0.00000000000E+00  0.91698448979E+03  0.20582833048E+04  0.18427342751E+04 0.  0.
        4    1    3    3  502    0  0.28620431127E+03 -0.35583042899E+03 -0.43535620272E+03  0.63092379740E+03  0.12699999809E+01 0. -1.
       -4    1    3    3    0  502 -0.28620431127E+03  0.35583042899E+03  0.13523406925E+04  0.14273595074E+04  0.12699999809E+01 0.  1.
</event>
<event>
 5   0  0.7754556E-07  0.1884474E+04  0.7818609E-02  0.8662623E-01
       -1   -1    0    0    0  501  0.00000000000E+00  0.00000000000E+00  0.60952232177E+03  0.60952232179E+03  0.50400001928E-02 0. -1.
        1   -1    0    0  501    0  0.00000000000E+00  0.00000000000E+00 -0.14565682078E+04  0.14565682078E+04  0.50400001928E-02 0.  1.
    10030    2    1    2    0    0  0.00000000000E+00  0.00000000000E+00 -0.84704588599E+03  0.20660905296E+04  0.18844742883E+04 0.  0.
        4    1    3    3  502    0 -0.27506044267E+03  0.80146252164E+03  0.28269778448E+02  0.84782145172E+03  0.12699999809E+01 0. -1.
       -4    1    3    3    0  502  0.27506044267E+03 -0.80146252164E+03 -0.87531566444E+03  0.12182690778E+04  0.12699999809E+01 0.  1.
</event>
<event>
 5   0  0.8423692E-07  0.3569318E+04  0.7818609E-02  0.8097556E-01
       -1   -1    0    0    0  501  0.00000000000E+00  0.00000000000E+00  0.15755276730E+04  0.15755276730E+04  0.50400001928E-02 0.  1.
        1   -1    0    0  501    0  0.00000000000E+00  0.00000000000E+00 -0.20215503755E+04  0.20215503755E+04  0.50400001928E-02 0. -1.
    10030    2    1    2    0    0  0.00000000000E+00  0.00000000000E+00 -0.44602270248E+03  0.35970780485E+04  0.35693184554E+04 0.  0.
        2    1    3    3  502    0  0.34793137045E+03 -0.12696862186E+04  0.99128676814E+03  0.16479711129E+04  0.25500000920E-02 0.  1.
       -2    1    3    3    0  502 -0.34793137045E+03  0.12696862186E+04 -0.14373094706E+04  0.19491069356E+04  0.25500000920E-02 0. -1.
</event>
<event>
 5   0  0.1566576E-06  0.2146481E+04  0.7818609E-02  0.8541040E-01
        2   -1    0    0  501    0  0.00000000000E+00  0.00000000000E+00  0.22059125923E+04  0.22059125923E+04  0.25500000920E-02 0.  1.
       -2   -1    0    0    0  501  0.00000000000E+00  0.00000000000E+00 -0.52216289426E+03  0.52216289427E+03  0.25500000920E-02 0. -1.
    10030    2    1    2    0    0  0.00000000000E+00  0.00000000000E+00  0.16837496980E+04  0.27280754865E+04  0.21464814965E+04 0.  0.
        4    1    3    3  502    0 -0.70408619294E+03 -0.34225181666E+03 -0.91189720367E+02  0.78815661584E+03  0.12699999809E+01 0. -1.
       -4    1    3    3    0  502  0.70408619294E+03  0.34225181666E+03  0.17749394184E+04  0.19399188707E+04  0.12699999809E+01 0.  1.
</event>
<event>
 5   0  0.1566576E-06  0.1854784E+04  0.7818609E-02  0.8677696E-01
       -2   -1    0    0    0  501  0.00000000000E+00  0.00000000000E+00  0.14386185897E+04  0.14386185897E+04  0.25500000920E-02 0. -1.
        2   -1    0    0  501    0  0.00000000000E+00  0.00000000000E+00 -0.59783472442E+03  0.59783472442E+03  0.25500000920E-02 0.  1.
    10030    2    1    2    0    0  0.00000000000E+00  0.00000000000E+00  0.84078386528E+03  0.20364533141E+04  0.18547842442E+04 0.  0.
        4    1    3    3  502    0 -0.35713917597E+03  0.11772562170E+03 -0.51037043355E+03  0.63394582210E+03  0.12699999809E+01 0.  1.
       -4    1    3    3    0  502  0.35713917597E+03 -0.11772562170E+03  0.13511542988E+04  0.14025074920E+04  0.12699999809E+01 0. -1.
</event>
<event>
 5   0  0.1513502E-06  0.3641415E+04  0.7818609E-02  0.8081070E-01
       -2   -1    0    0    0  501  0.00000000000E+00  0.00000000000E+00  0.20415913391E+04  0.20415913391E+04  0.25500000920E-02 0. -1.
        2   -1    0    0  501    0  0.00000000000E+00  0.00000000000E+00 -0.16237214230E+04  0.16237214230E+04  0.25500000920E-02 0.  1.
    10030    2    1    2    0    0  0.00000000000E+00  0.00000000000E+00  0.41786991612E+03  0.36653127621E+04  0.36414148868E+04 0.  0.
        3    1    3    3  502    0 -0.10106768082E+04 -0.15132528973E+04  0.26910723136E+03  0.18395164185E+04  0.10100000352E+00 0. -1.
       -3    1    3    3    0  502  0.10106768082E+04  0.15132528973E+04  0.14876268475E+03  0.18257963436E+04  0.10100000352E+00 0.  1.
</event>
<event>
 5   0  0.2536619E-06  0.3396128E+04  0.7818609E-02  0.8138857E-01
        2   -1    0    0  501    0  0.00000000000E+00  0.00000000000E+00  0.17463957211E+04  0.17463957211E+04  0.25500000920E-02 0. -1.
       -2   -1    0    0    0  501  0.00000000000E+00  0.00000000000E+00 -0.16510700338E+04  0.16510700338E+04  0.25500000920E-02 0.  1.
    10030    2    1    2    0    0  0.00000000000E+00  0.00000000000E+00  0.95325687263E+02  0.33974657548E+04  0.33961281732E+04 0.  0.
        1    1    3    3  502    0  0.18284128529E+01 -0.88653280502E+03 -0.14011747642E+04  0.16580815653E+04  0.50400001928E-02 0.  1.
       -1    1    3    3    0  502 -0.18284128529E+01  0.88653280502E+03  0.14965004515E+04  0.17393841895E+04  0.50400001928E-02 0. -1.
</event>
<event>
 5   0  0.7707500E-07  0.3695862E+04  0.7818609E-02  0.8068880E-01
        3   -1    0    0  501    0  0.00000000000E+00  0.00000000000E+00  0.22594523791E+04  0.22594523814E+04  0.10100000352E+00 0.  1.
       -3   -1    0    0    0  501  0.00000000000E+00  0.00000000000E+00 -0.15113610649E+04  0.15113610683E+04  0.10100000352E+00 0. -1.
    10030    2    1    2    0    0  0.00000000000E+00  0.00000000000E+00  0.74809131422E+03  0.37708134497E+04  0.36958616665E+04 0.  0.
        2    1    3    3  502    0 -0.93780838991E+03 -0.81594784856E+03 -0.10210142724E+04  0.16086409208E+04  0.25500000920E-02 0. -1.
       -2    1    3    3    0  502  0.93780838991E+03  0.81594784856E+03  0.17691055866E+04  0.21621725288E+04  0.25500000920E-02 0.  1.
</event>
<event>
 5   0  0.1513502E-06  0.3552883E+04  0.7818609E-02  0.8101371E-01
        2   -1    0    0  501    0  0.00000000000E+00  0.00000000000E+00  0.19350925524E+04  0.19350925524E+04  0.25500000920E-02 0. -1.
       -2   -1    0    0    0  501  0.00000000000E+00  0.00000000000E+00 -0.16307973467E+04  0.16307973467E+04  0.25500000920E-02 0.  1.
    10030    2    1    2    0    0  0.00000000000E+00  0.00000000000E+00  0.30429520574E+03  0.35658898991E+04  0.35528826606E+04 0.  0.
        3    1    3    3  502    0  0.48240366765E+03 -0.52370970787E+03 -0.14813114713E+04  0.16435537235E+04  0.10100000352E+00 0.  1.
       -3    1    3    3    0  502 -0.48240366765E+03  0.52370970787E+03  0.17856066771E+04  0.19223361756E+04  0.10100000352E+00 0. -1.
</event>
<event>
 5   0  0.2382711E-06  0.3592189E+04  0.7818609E-02  0.8092283E-01
        2   -1    0    0  501    0  0.00000000000E+00  0.00000000000E+00  0.25049400987E+04  0.25049400987E+04  0.25500000920E-02 0.  1.
       -2   -1    0    0    0  501  0.00000000000E+00  0.00000000000E+00 -0.12878376505E+04  0.12878376506E+04  0.25500000920E-02 0. -1.
    10030    2    1    2    0    0  0.00000000000E+00  0.00000000000E+00  0.12171024482E+04  0.37927777493E+04  0.35921894001E+04 0.  0.
        5    1    3    3  502    0  0.10859630407E+04 -0.14304036098E+04  0.58347932611E+03  0.18883433021E+04  0.46999998093E+01 0. -1.
       -5    1    3    3    0  502 -0.10859630407E+04  0.14304036098E+04  0.63362312206E+03  0.19044344472E+04  0.46999998093E+01 0.  1.
</event>
<event>
 5   0  0.1513502E-06  0.2275863E+04  0.7818609E-02  0.8487499E-01
        2   -1    0    0  501    0  0.00000000000E+00  0.00000000000E+00  0.18131735100E+04  0.18131735100E+04  0.25500000920E-02 0.  1.
       -2   -1    0    0    0  501  0.00000000000E+00  0.00000000000E+00 -0.71415575943E+03  0.71415575944E+03  0.25500000920E-02 0. -1.
    10030    2    1    2    0    0  0.00000000000E+00  0.00000000000E+00  0.10990177505E+04  0.25273292694E+04  0.22758631813E+04 0.  0.
        3    1    3    3  502    0 -0.23649107982E+03 -0.96757398661E+03  0.11605430927E+04  0.15293749477E+04  0.10100000352E+00 0.  1.
       -3    1    3    3    0  502  0.23649107982E+03  0.96757398661E+03 -0.61525342116E+02  0.99795432176E+03  0.10100000352E+00 0. -1.
</event>
<event>
 5   0  0.8452742E-07  0.3551073E+04  0.7818609E-02  0.8101792E-01
        1   -1    0    0  501    0  0.00000000000E+00  0.00000000000E+00  0.15428417624E+04  0.15428417624E+04  0.50400001928E-02 0.  1.
       -1   -1    0    0    0  501  0.00000000000E+00  0.00000000000E+00 -0.20433269946E+04  0.20433269946E+04  0.50400001928E-02 0. -1.
    10030    2    1    2    0    0  0.00000000000E+00  0.00000000000E+00 -0.50048523223E+03  0.35861687570E+04  0.35510732020E+04 0.  0.
        1    1    3    3  502    0  0.74719489050E+03  0.23060337269E+03 -0.18600647065E+04  0.20177509342E+04  0.50400001928E-02 0. -1.
       -1    1    3    3    0  502 -0.74719489050E+03 -0.23060337269E+03  0.13595794743E+04  0.15684178228E+04  0.50400001928E-02 0.  1.
</event>
<event>
 5   0  0.8423692E-07  0.3191097E+04  0.7818609E-02  0.8191172E-01
        1   -1    0    0  501    0  0.00000000000E+00  0.00000000000E+00  0.24004409440E+04  0.24004409441E+04  0.50400001928E-02 0.  1.
       -1   -1    0    0    0  501  0.00000000000E+00  0.00000000000E+00 -0.10605445472E+04  0.10605445472E+04  0.50400001928E-02 0. -1.
    10030    2    1    2    0    0  0.00000000000E+00  0.00000000000E+00  0.13398963969E+04  0.34609854912E+04  0.31910967106E+04 0.  0.
        2    1    3    3  502    0  0.70737922709E+03  0.11566013607E+04  0.15823221888E+04  0.20837119733E+04  0.25500000920E-02 0.  1.
       -2    1    3    3    0  502 -0.70737922709E+03 -0.11566013607E+04 -0.24242579193E+03  0.13772735179E+04  0.25500000920E-02 0. -1.
</event>
<event>
 5   0  0.8452742E-07  0.1811500E+04  0.7818609E-02  0.8700208E-01
        1   -1    0    0  501    0  0.00000000000E+00  0.00000000000E+00  0.10632869507E+04  0.10632869507E+04  0.50400001928E-02 0. -1.
       -1   -1    0    0    0  501  0.00000000000E+00  0.00000000000E+00 -0.77155407984E+03  0.77155407985E+03  0.50400001928E-02 0.  1.
    10030    2    1    2    0    0  0.00000000000E+00  0.00000000000E+00  0.29173287085E+03  0.18348410306E+04  0.18115003559E+04 0.  0.
        1    1    3    3  502    0 -0.19112299974E+03 -0.59785274038E+03 -0.51556162248E+03  0.81225592446E+03  0.50400001928E-02 0.  1.
       -1    1    3    3    0  502  0.19112299974E+03  0.59785274038E+03  0.80729449334E+03  0.10225851061E+04  0.50400001928E-02 0. -1.
</event>
<event>
 5   0  0.8452742E-07  0.3300197E+04  0.7818609E-02  0.8162845E-01
        1   -1    0    0  501    0  0.00000000000E+00  0.00000000000E+00  0.16332199823E+04  0.16332199823E+04  0.50400001928E-02 0.  1.
       -1   -1    0    0    0  501  0.00000000000E+00  0.00000000000E+00 -0.16671518513E+04  0.16671518513E+04  0.50400001928E-02 0. -1.
    10030    2    1    2    0    0  0.00000000000E+00  0.00000000000E+00 -0.33931869004E+02  0.33003718335E+04  0.33001973983E+04 0.  0.
        1    1    3    3  502    0 -0.13573144226E+03 -0.44594951724E+03  0.15660048777E+04  0.16339110360E+04  0.50400001928E-02 0.  1.
       -1    1    3    3    0  502  0.13573144226E+03  0.44594951724E+03 -0.15999367467E+04  0.16664607976E+04  0.50400001928E-02 0. -1.
</event>
<event>
 5   0  0.2422436E-06  0.3680779E+04  0.7818609E-02  0.8072235E-01
        2   -1    0    0  501    0  0.00000000000E+00  0.00000000000E+00  0.22761978803E+04  0.22761978803E+04  0.25500000920E-02 0.  1.
       -2   -1    0    0    0  501  0.00000000000E+00  0.00000000000E+00 -0.14880223029E+04  0.14880223029E+04  0.25500000920E-02 0. -1.
    10030    2    1    2    0    0  0.00000000000E+00  0.00000000000E+00  0.78817557738E+03  0.37642201832E+04  0.36807788370E+04 0.  0.
        2    1    3    3  502    0 -0.94442365905E+03  0.15161335249E+03 -0.12138499940E+04  0.15454301875E+04  0.25500000920E-02 0. -1.
       -2    1    3    3    0  502  0.94442365905E+03 -0.15161335249E+03  0.20020255714E+04  0.22187899957E+04  0.25500000920E-02 0.  1.
</event>
<event>
 5   0  0.1908273E-06  0.3740771E+04  0.7818609E-02  0.8058986E-01
        1   -1    0    0  501    0  0.00000000000E+00  0.00000000000E+00  0.15433758879E+04  0.15433758879E+04  0.50400001928E-02 0.  1.
       -1   -1    0    0    0  501  0.00000000000E+00  0.00000000000E+00 -0.22666812748E+04  0.22666812748E+04  0.50400001928E-02 0. -1.
    10030    2    1    2    0    0  0.00000000000E+00  0.00000000000E+00 -0.72330538696E+03  0.38100571627E+04  0.37407706292E+04 0.  0.
        3    1    3    3  502    0 -0.11649988415E+04 -0.14565816761E+04 -0.21946492486E+03  0.18780355010E+04  0.10100000352E+00 0.  1.
       -3    1    3    3    0  502  0.11649988415E+04  0.14565816761E+04 -0.50384046211E+03  0.19320216617E+04  0.10100000352E+00 0. -1.
</event>
<event>
 5   0  0.2382711E-06  0.3676521E+04  0.7818609E-02  0.8073185E-01
        2   -1    0    0  501    0  0.00000000000E+00  0.00000000000E+00  0.15246359053E+04  0.15246359053E+04  0.25500000920E-02 0.  1.
       -2   -1    0    0    0  501  0.00000000000E+00  0.00000000000E+00 -0.22163988023E+04  0.22163988023E+04  0.25500000920E-02 0. -1.
    10030    2    1    2    0    0  0.00000000000E+00  0.00000000000E+00 -0.69176289703E+03  0.37410347077E+04  0.36765207436E+04 0.  0.
        5    1    3    3  502    0  0.14937813508E+04 -0.16393386780E+03 -0.14231957528E+04  0.20697258944E+04  0.46999998093E+01 0. -1.
       -5    1    3    3    0  502 -0.14937813508E+04  0.16393386780E+03  0.73143285578E+03  0.16713088133E+04  0.46999998093E+01 0.  1.
</event>
<event>
 5   0  0.8452742E-07  0.3600900E+04  0.7818609E-02  0.8090286E-01
        1   -1    0    0  501    0  0.00000000000E+00  0.00000000000E+00  0.19953074547E+04  0.19953074547E+04  0.50400001928E-02 0.  1.
       -1   -1    0    0    0  501  0.00000000000E+00  0.00000000000E+00 -0.16246220338E+04  0.16246220338E+04  0.50400001928E-02 0. -1.
    10030    2    1    2    0    0  0.00000000000E+00  0.00000000000E+00  0.37068542094E+03  0.36199294885E+04  0.36009001403E+04 0.  0.
        1    1    3    3  502    0  0.37955212036E+03 -0.30811801622E+01  0.19546296703E+04  0.19911419974E+04  0.50400001928E-02 0.  1.
       -1    1    3    3    0  502 -0.37955212036E+03  0.30811801622E+01 -0.15839442494E+04  0.16287874910E+04  0.50400001928E-02 0. -1.
</event>
<event>
 5   0  0.1566576E-06  0.3256444E+04  0.7818609E-02  0.8174067E-01
        2   -1    0    0  501    0  0.00000000000E+00  0.00000000000E+00  0.31562194262E+04  0.31562194262E+04  0.25500000920E-02 0. -1.
       -2   -1    0    0    0  501  0.00000000000E+00  0.00000000000E+00 -0.83996292516E+03  0.83996292517E+03  0.25500000920E-02 0.  1.
    10030    2    1    2    0    0  0.00000000000E+00  0.00000000000E+00  0.23162565010E+04  0.39961823513E+04  0.32564442582E+04 0.  0.
        4    1    3    3  502    0  0.13225004173E+04  0.10218159392E+03 -0.65076820080E+00  0.13264427874E+04  0.12699999809E+01 0.  1.
       -4    1    3    3    0  502 -0.13225004173E+04 -0.10218159392E+03  0.23169072692E+04  0.26697395639E+04  0.12699999809E+01 0. -1.
</event>
<event>
 5   0  0.2422436E-06  0.3632698E+04  0.7818609E-02  0.8083043E-01
       -2   -1    0    0    0  501  0.00000000000E+00  0.00000000000E+00  0.19053304029E+04  0.19053304029E+04  0.25500000920E-02 0. -1.
        2   -1    0    0  501    0  0.00000000000E+00  0.00000000000E+00 -0.17315229081E+04  0.17315229081E+04  0.25500000920E-02 0.  1.
    10030    2    1    2    0    0  0.00000000000E+00  0.00000000000E+00  0.17380749482E+03  0.36368533111E+04  0.36326977525E+04 0.  0.
        2    1    3    3  502    0 -0.14808133796E+04  0.26786746289E+01 -0.96611112847E+03  0.17681024159E+04  0.25500000920E-02 0.  1.
       -2    1    3    3    0  502  0.14808133796E+04 -0.26786746289E+01  0.11399186233E+04  0.18687508952E+04  0.25500000920E-02 0. -1.
</event>
<event>
 5   0  0.8452742E-07  0.3558157E+04  0.7818609E-02  0.8100144E-01
        1   -1    0    0  501    0  0.00000000000E+00  0.00000000000E+00  0.28758115312E+04  0.28758115312E+04  0.50400001928E-02 0.  1.
       -1   -1    0    0    0  501  0.00000000000E+00  0.00000000000E+00 -0.11006006815E+04  0.11006006815E+04  0.50400001928E-02 0. -1.
    10030    2    1    2    0    0  0.00000000000E+00  0.00000000000E+00  0.17752108498E+04  0.39764122127E+04  0.35581568999E+04 0.  0.
        1    1    3    3  502    0  0.47317425280E+03  0.10101355618E+04  0.24364694832E+04  0.26796737244E+04  0.50400001928E-02 0.  1.
       -1    1    3    3    0  502 -0.47317425280E+03 -0.10101355618E+04 -0.66125863345E+03  0.12967384883E+04  0.50400001928E-02 0. -1.
</event>
<event>
 5   0  0.2536619E-06  0.3701254E+04  0.7818609E-02  0.8067684E-01
       -2   -1    0    0    0  501  0.00000000000E+00  0.00000000000E+00  0.12796505627E+04  0.12796505627E+04  0.25500000920E-02 0.  1.
        2   -1    0    0  501    0  0.00000000000E+00  0.00000000000E+00 -0.26763713642E+04  0.26763713642E+04  0.25500000920E-02 0. -1.
    10030    2    1    2    0    0  0.00000000000E+00  0.00000000000E+00 -0.13967208015E+04  0.39560219269E+04  0.37012539076E+04 0.  0.
        1    1    3    3  502    0 -0.22290836196E+03 -0.18190376110E+04 -0.42328559975E+03  0.18808925188E+04  0.50400001928E-02 0. -1.
       -1    1    3    3    0  502  0.22290836196E+03  0.18190376110E+04 -0.97343520175E+03  0.20751294081E+04  0.50400001928E-02 0.  1.
</event>
<event>
 5   0  0.7754556E-07  0.1772441E+04  0.7818609E-02  0.8721094E-01
       -1   -1    0    0    0  501  0.00000000000E+00  0.00000000000E+00  0.14335559966E+04  0.14335559966E+04  0.50400001928E-02 0.  1.
        1   -1    0    0  501    0  0.00000000000E+00  0.00000000000E+00 -0.54785914338E+03  0.54785914340E+03  0.50400001928E-02 0. -1.
    10030    2    1    2    0    0  0.00000000000E+00  0.00000000000E+00  0.88569685322E+03  0.19814151400E+04  0.17724409839E+04 0.  0.
        4    1    3    3  502    0  0.12550948014E+03  0.26456773748E+03 -0.49221248185E+03  0.57273332146E+03  0.12699999809E+01 0. -1.
       -4    1    3    3    0  502 -0.12550948014E+03 -0.26456773748E+03  0.13779093351E+04  0.14086818185E+04  0.12699999809E+01 0.  1.
</event>
<event>
 5   0  0.8452742E-07  0.3464888E+04  0.7818609E-02  0.8122162E-01
       -1   -1    0    0    0  501  0.00000000000E+00  0.00000000000E+00  0.12718668919E+04  0.12718668919E+04  0.50400001928E-02 0.  1.
        1   -1    0    0  501    0  0.00000000000E+00  0.00000000000E+00 -0.23598082809E+04  0.23598082809E+04  0.50400001928E-02 0. -1.
    10030    2    1    2    0    0  0.00000000000E+00  0.00000000000E+00 -0.10879413891E+04  0.36316751728E+04  0.34648878907E+04 0.  0.
        1    1    3    3  502    0  0.50064575732E+03 -0.16415347007E+04 -0.29575996169E+03  0.17414810659E+04  0.50400001928E-02 0.  1.
       -1    1    3    3    0  502 -0.50064575732E+03  0.16415347007E+04 -0.79218142737E+03  0.18901941069E+04  0.50400001928E-02 0. -1.
</event>
<event>
 5   0  0.1566576E-06  0.3563604E+04  0.7818609E-02  0.8098880E-01
        2   -1    0    0  501    0  0.00000000000E+00  0.00000000000E+00  0.16562443178E+04  0.16562443178E+04  0.25500000920E-02 0. -1.
       -2   -1    0    0    0  501  0.00000000000E+00  0.00000000000E+00 -0.19168782610E+04  0.19168782610E+04  0.25500000920E-02 0.  1.
    10030    2    1    2    0    0  0.00000000000E+00  0.00000000000E+00 -0.26063394318E+03  0.35731225788E+04  0.35636042024E+04 0.  0.
        4    1    3    3  502    0  0.34065513171E+03 -0.13547586668E+04 -0.12393454993E+04  0.18674570527E+04  0.12699999809E+01 0.  1.
       -4    1    3    3    0  502 -0.34065513171E+03  0.13547586668E+04  0.97871155613E+03  0.17056655261E+04  0.12699999809E+01 0. -1.
</event>
<event>
 5   0  0.2382711E-06  0.2235475E+04  0.7818609E-02  0.8503806E-01
       -2   -1    0    0    0  501  0.00000000000E+00  0.00000000000E+00  0.14320145135E+04  0.14320145135E+04  0.25500000920E-02 0. -1.
        2   -1    0    0  501    0  0.00000000000E+00  0.00000000000E+00 -0.87243349469E+03  0.87243349469E+03  0.25500000920E-02 0.  1.
    10030    2    1    2    0    0  0.00000000000E+00  0.00000000000E+00  0.55958101878E+03  0.23044480082E+04  0.22354752751E+04 0.  0.
        5    1    3    3  502    0 -0.86027129114E+03  0.70162065977E+03  0.41410680101E+03  0.11848395576E+04  0.46999998093E+01 0. -1.
       -5    1    3    3    0  502  0.86027129114E+03 -0.70162065977E+03  0.14547421777E+03  0.11196084506E+04  0.46999998093E+01 0.  1.
</event>
<event>
 5   0  0.2536619E-06  0.1837791E+04  0.7818609E-02  0.8686457E-01
       -2   -1    0    0    0  501  0.00000000000E+00  0.00000000000E+00  0.55518709484E+03  0.55518709485E+03  0.25500000920E-02 0. -1.
        2   -1    0    0  501    0  0.00000000000E+00  0.00000000000E+00 -0.15208725841E+04  0.15208725841E+04  0.25500000920E-02 0.  1.
    10030    2    1    2    0    0  0.00000000000E+00  0.00000000000E+00 -0.96568548925E+03  0.20760596789E+04  0.18377908821E+04 0.  0.
        1    1    3    3  502    0 -0.40569050773E+03 -0.76112800189E+03 -0.12478087934E+03  0.87147627116E+03  0.50400001928E-02 0.  1.
       -1    1    3    3    0  502  0.40569050773E+03  0.76112800189E+03 -0.84090460990E+03  0.12045834078E+04  0.50400001928E-02 0. -1.
</event>
<event>
 5   0  0.1513502E-06  0.3605692E+04  0.7818609E-02  0.8089189E-01
        2   -1    0    0  501    0  0.00000000000E+00  0.00000000000E+00  0.23400431605E+04  0.23400431605E+04  0.25500000920E-02 0.  1.
       -2   -1    0    0    0  501  0.00000000000E+00  0.00000000000E+00 -0.13889720102E+04  0.13889720102E+04  0.25500000920E-02 0. -1.
    10030    2    1    2    0    0  0.00000000000E+00  0.00000000000E+00  0.95107115028E+03  0.37290151707E+04  0.36056924176E+04 0.  0.
        3    1    3    3  502    0  0.31941976398E+03  0.21921639929E+03 -0.13454151842E+04  0.14000810132E+04  0.10100000352E+00 0. -1.
       -3    1    3    3    0  502 -0.31941976398E+03 -0.21921639929E+03  0.22964863345E+04  0.23289341575E+04  0.10100000352E+00 0.  1.
</event>
<event>
 5   0  0.1566576E-06  0.3613093E+04  0.7818609E-02  0.8087499E-01
        2   -1    0    0  501    0  0.00000000000E+00  0.00000000000E+00  0.12467115676E+04  0.12467115676E+04  0.25500000920E-02 0.  1.
       -2   -1    0    0    0  501  0.00000000000E+00  0.00000000000E+00 -0.26177745105E+04  0.26177745105E+04  0.25500000920E-02 0. -1.
    10030    2    1    2    0    0  0.00000000000E+00  0.00000000000E+00 -0.13710629429E+04  0.38644860781E+04  0.36130927270E+04 0.  0.
        4    1    3    3  502    0 -0.17742846842E+04 -0.16339233316E+03 -0.10043034506E+04  0.20453386588E+04  0.12699999809E+01 0. -1.
       -4    1    3    3    0  502  0.17742846842E+04  0.16339233316E+03 -0.36675949230E+03  0.18191474193E+04  0.12699999809E+01 0.  1.
</event>
<event>
 5   0  0.8452742E-07  0.2123422E+04  0.7818609E-02  0.8550996E-01
        1   -1    0    0  501    0  0.00000000000E+00  0.00000000000E+00  0.17161604093E+04  0.17161604093E+04  0.50400001928E-02 0.  1.
       -1   -1    0    0    0  501  0.00000000000E+00  0.00000000000E+00 -0.65683238376E+03  0.65683238378E+03  0.50400001928E-02 0. -1.
    10030    2    1    2    0    0  0.00000000000E+00  0.00000000000E+00  0.10593280255E+04  0.23729927931E+04  0.21234215150E+04 0.  0.
        1    1    3    3  502    0 -0.53114932619E+03 -0.71358507789E+03  0.11773572843E+04  0.14756332352E+04  0.50400001928E-02 0.  1.
       -1    1    3    3    0  502  0.53114932619E+03  0.71358507789E+03 -0.11802925874E+03  0.89735955784E+03  0.50400001928E-02 0. -1.
</event>
<event>
 5   0  0.8452742E-07  0.3638431E+04  0.7818609E-02  0.8081745E-01
       -1   -1    0    0    0  501  0.00000000000E+00  0.00000000000E+00  0.14941320310E+04  0.14941320310E+04  0.50400001928E-02 0. -1.
        1   -1    0    0  501    0  0.00000000000E+00  0.00000000000E+00 -0.22150283368E+04  0.22150283368E+04  0.50400001928E-02 0.  1.
    10030    2    1    2    0    0  0.00000000000E+00  0.00000000000E+00 -0.72089630574E+03  0.37091603678E+04  0.36384308638E+04 0.  0.
        1    1    3    3  502    0 -0.65279873280E+03 -0.76343776994E+03 -0.19066934636E+04  0.21551017095E+04  0.50400001928E-02 0.  1.
       -1    1    3    3    0  502  0.65279873280E+03  0.76343776994E+03  0.11857971578E+04  0.15540586584E+04  0.50400001928E-02 0. -1.
</event>
<event>
 5   0  0.1513502E-06  0.3576940E+04  0.7818609E-02  0.8095794E-01
        2   -1    0    0  501    0  0.00000000000E+00  0.00000000000E+00  0.23161610264E+04  0.23161610264E+04  0.25500000920E-02 0.  1.
       -2   -1    0    0    0  501  0.00000000000E+00  0.00000000000E+00 -0.13810031046E+04  0.13810031046E+04  0.25500000920E-02 0. -1.
    10030    2    1    2    0    0  0.00000000000E+00  0.00000000000E+00  0.93515792177E+03  0.36971641310E+04  0.35769403507E+04 0.  0.
        3    1    3    3  502    0 -0.38250041127E+03  0.89492099232E+03 -0.10833316928E+04  0.14562958882E+04  0.10100000352E+00 0. -1.
       -3    1    3    3    0  502  0.38250041127E+03 -0.89492099232E+03  0.20184896146E+04  0.22408682428E+04  0.10100000352E+00 0.  1.
</event>
<event>
 5   0  0.1566576E-06  0.3515650E+04  0.7818609E-02  0.8110091E-01
        2   -1    0    0  501    0  0.00000000000E+00  0.00000000000E+00  0.23685939803E+04  0.23685939803E+04  0.25500000920E-02 0. -1.
       -2   -1    0    0    0  501  0.00000000000E+00  0.00000000000E+00 -0.13045500817E+04  0.13045500817E+04  0.25500000920E-02 0.  1.
    10030    2    1    2    0    0  0.00000000000E+00  0.00000000000E+00  0.10640438986E+04  0.36731440620E+04  0.35156504209E+04 0.  0.
        4    1    3    3  502    0  0.80171670889E+03 -0.13572617553E+04  0.13447099658E+04  0.20719931609E+04  0.12699999809E+01 0. -1.
       -4    1    3    3    0  502 -0.80171670889E+03  0.13572617553E+04 -0.28066606722E+03  0.16011509011E+04  0.12699999809E+01 0.  1.
</event>
<event>
 5   0  0.8423692E-07  0.2791774E+04  0.7818609E-02  0.8305827E-01
       -1   -1    0    0    0  501  0.00000000000E+00  0.00000000000E+00  0.11124367003E+04  0.11124367004E+04  0.50400001928E-02 0. -1.
        1   -1    0    0  501    0  0.00000000000E+00  0.00000000000E+00 -0.17515613640E+04  0.17515613640E+04  0.50400001928E-02 0.  1.
    10030    2    1    2    0    0  0.00000000000E+00  0.00000000000E+00 -0.63912466368E+03  0.28639980644E+04  0.27917744495E+04 0.  0.
        2    1    3    3  502    0 -0.44803472650E+03 -0.12690055141E+04 -0.69981440173E+03  0.15168554011E+04  0.25500000920E-02 0.  1.
       -2    1    3    3    0  502  0.44803472650E+03  0.12690055141E+04  0.60689738048E+02  0.13471426633E+04  0.25500000920E-02 0. -1.
</event>
<event>
 5   0  0.9774338E-07  0.2011221E+04  0.7818609E-02  0.8601393E-01
        1   -1    0    0  501    0  0.00000000000E+00  0.00000000000E+00  0.12105321533E+04  0.12105321533E+04  0.50400001928E-02 0.  1.
       -1   -1    0    0    0  501  0.00000000000E+00  0.00000000000E+00 -0.83537818427E+03  0.83537818429E+03  0.50400001928E-02 0. -1.
    10030    2    1    2    0    0  0.00000000000E+00  0.00000000000E+00  0.37515396899E+03  0.20459103376E+04  0.20112206763E+04 0.  0.
        4    1    3    3  502    0  0.24832297663E+03 -0.44137584960E+03  0.10713387766E+04  0.11850085774E+04  0.12699999809E+01 0.  1.
       -4    1    3    3    0  502 -0.24832297663E+03  0.44137584960E+03 -0.69618480764E+03  0.86090176014E+03  0.12699999809E+01 0. -1.
</event>
<event>
 5   0  0.2382711E-06  0.1843724E+04  0.7818609E-02  0.8683387E-01
       -2   -1    0    0    0  501  0.00000000000E+00  0.00000000000E+00  0.13503284804E+04  0.13503284804E+04  0.25500000920E-02 0. -1.
        2   -1    0    0  501    0  0.00000000000E+00  0.00000000000E+00 -0.62935056579E+03  0.62935056579E+03  0.25500000920E-02 0.  1.
    10030    2    1    2    0    0  0.00000000000E+00  0.00000000000E+00  0.72097791457E+03  0.19796790461E+04  0.18437244839E+04 0.  0.
        5    1    3    3  502    0  0.44299387724E+03 -0.80834758144E+03  0.34785184526E+03  0.98523722217E+03  0.46999998093E+01 0.  1.
       -5    1    3    3    0  502 -0.44299387724E+03  0.80834758144E+03  0.37312606931E+03  0.99444182398E+03  0.46999998093E+01 0. -1.
</event>
<event>
 5   0  0.1566576E-06  0.2285274E+04  0.7818609E-02  0.8483750E-01
        2   -1    0    0  501    0  0.00000000000E+00  0.00000000000E+00  0.28483247384E+04  0.28483247384E+04  0.25500000920E-02 0. -1.
       -2   -1    0    0    0  501  0.00000000000E+00  0.00000000000E+00 -0.45838165924E+03  0.45838165925E+03  0.25500000920E-02 0.  1.
    10030    2    1    2    0    0  0.00000000000E+00  0.00000000000E+00  0.23899430791E+04  0.33067063976E+04  0.22852744427E+04 0.  0.
        4    1    3    3  502    0 -0.16226832339E+03 -0.11080858543E+04  0.15231257171E+04  0.18905287176E+04  0.12699999809E+01 0. -1.
       -4    1    3    3    0  502  0.16226832339E+03  0.11080858543E+04  0.86681736202E+03  0.14161776800E+04  0.12699999809E+01 0.  1.
</event>
<event>
 5   0  0.1566576E-06  0.3853405E+04  0.7818609E-02  0.8034790E-01
       -2   -1    0    0    0  501  0.00000000000E+00  0.00000000000E+00  0.20822629504E+04  0.20822629504E+04  0.25500000920E-02 0.  1.
        2   -1    0    0  501    0  0.00000000000E+00  0.00000000000E+00 -0.17827637683E+04  0.17827637683E+04  0.25500000920E-02 0. -1.
    10030    2    1    2    0    0  0.00000000000E+00  0.00000000000E+00  0.29949918217E+03  0.38650267187E+04  0.38534052183E+04 0.  0.
        4    1    3    3  502    0  0.61304917555E+01  0.24586930918E+03 -0.17669537118E+04  0.17839888824E+04  0.12699999809E+01 0. -1.
       -4    1    3    3    0  502 -0.61304917555E+01 -0.24586930918E+03  0.20664528940E+04  0.20810378363E+04  0.12699999809E+01 0.  1.
</event>
<event>
 5   0  0.1513502E-06  0.3802572E+04  0.7818609E-02  0.8045603E-01
       -2   -1    0    0    0  501  0.00000000000E+00  0.00000000000E+00  0.16635544429E+04  0.16635544429E+04  0.25500000920E-02 0. -1.
        2   -1    0    0  501    0  0.00000000000E+00  0.00000000000E+00 -0.21729902466E+04  0.21729902466E+04  0.25500000920E-02 0.  1.
    10030    2    1    2    0    0  0.00000000000E+00  0.00000000000E+00 -0.50943580369E+03  0.38365446896E+04  0.38025715400E+04 0.  0.
        3    1    3    3  502    0  0.19213668903E+03  0.37554380592E+03  0.16157433303E+04  0.16699030442E+04  0.10100000352E+00 0. -1.
       -3    1    3    3    0  502 -0.19213668903E+03 -0.37554380592E+03 -0.21251791340E+04  0.21666416453E+04  0.10100000352E+00 0.  1.
</event>
<event>
 5   0  0.8452742E-07  0.3590032E+04  0.7818609E-02  0.8092779E-01
        1   -1    0    0  501    0  0.00000000000E+00  0.00000000000E+00  0.17779448227E+04  0.17779448227E+04  0.50400001928E-02 0. -1.
       -1   -1    0    0    0  501  0.00000000000E+00  0.00000000000E+00 -0.18122514749E+04  0.18122514750E+04  0.50400001928E-02 0.  1.
    10030    2    1    2    0    0  0.00000000000E+00  0.00000000000E+00 -0.34306652237E+02  0.35901962977E+04  0.35900323828E+04 0.  0.
        1    1    3    3  502    0  0.22525906388E+03 -0.84933638410E+03  0.15481558817E+04  0.17801406050E+04  0.50400001928E-02 0. -1.
       -1    1    3    3    0  502 -0.22525906388E+03  0.84933638410E+03 -0.15824625340E+04  0.18100556927E+04  0.50400001928E-02 0.  1.
</event>
<event>
 5   0  0.2382711E-06  0.3530808E+04  0.7818609E-02  0.8106527E-01
        2   -1    0    0  501    0  0.00000000000E+00  0.00000000000E+00  0.17821964835E+04  0.17821964835E+04  0.25500000920E-02 0.  1.
       -2   -1    0    0    0  501  0.00000000000E+00  0.00000000000E+00 -0.17487702303E+04  0.17487702303E+04  0.25500000920E-02 0. -1.
    10030    2    1    2    0    0  0.00000000000E+00  0.00000000000E+00  0.33426253220E+02  0.35309667138E+04  0.35308084937E+04 0.  0.
        5    1    3    3  502    0  0.12556160897E+04 -0.11820030961E+04  0.39478691659E+03  0.17690624306E+04  0.46999998093E+01 0. -1.
       -5    1    3    3    0  502 -0.12556160897E+04  0.11820030961E+04 -0.36136066337E+03  0.17619042831E+04  0.46999998093E+01 0.  1.
</event>
<event>
 5   0  0.1566576E-06  0.3560982E+04  0.7818609E-02  0.8099488E-01
        2   -1    0    0  501    0  0.00000000000E+00  0.00000000000E+00  0.22562306794E+04  0.22562306794E+04  0.25500000920E-02 0.  1.
       -2   -1    0    0    0  501  0.00000000000E+00  0.00000000000E+00 -0.14050639375E+04  0.14050639375E+04  0.25500000920E-02 0. -1.
    10030    2    1    2    0    0  0.00000000000E+00  0.00000000000E+00  0.85116674187E+03  0.36612946170E+04  0.35609820906E+04 0.  0.
        4    1    3    3  502    0 -0.41218450664E+03 -0.10013813354E+03  0.22035216445E+04  0.22439770418E+04  0.12699999809E+01 0.  1.
       -4    1    3    3    0  502  0.41218450664E+03  0.10013813354E+03 -0.13523549026E+04  0.14173175752E+04  0.12699999809E+01 0. -1.
</event>
<event>
 5   0  0.8423692E-07  0.3631638E+04  0.7818609E-02  0.8083283E-01
       -1   -1    0    0    0  501  0.00000000000E+00  0.00000000000E+00  0.14712172584E+04  0.14712172584E+04  0.50400001928E-02 0. -1.
        1   -1    0    0  501    0  0.00000000000E+00  0.00000000000E+00 -0.22411366811E+04  0.22411366811E+04  0.50400001928E-02 0.  1.
    10030    2    1    2    0    0  0.00000000000E+00  0.00000000000E+00 -0.76991942271E+03  0.37123539395E+04  0.36316381779E+04 0.  0.
        2    1    3    3  502    0  0.63875537824E+03 -0.11554536766E+03 -0.21184808721E+04  0.22156986191E+04  0.25500000920E-02 0.  1.
       -2    1    3    3    0  502 -0.63875537824E+03  0.11554536766E+03  0.13485614494E+04  0.14966553204E+04  0.25500000920E-02 0. -1.
</event>
<event>
 5   0  0.1566576E-06  0.3612395E+04  0.7818609E-02  0.8087658E-01
        2   -1    0    0  501    0  0.00000000000E+00  0.00000000000E+00  0.22275234912E+04  0.22275234912E+04  0.25500000920E-02 0. -1.
       -2   -1    0    0    0  501  0.00000000000E+00  0.00000000000E+00 -0.14645630127E+04  0.14645630127E+04  0.25500000920E-02 0.  1.
    10030    2    1    2    0    0  0.00000000000E+00  0.00000000000E+00  0.76296047857E+03  0.36920865039E+04  0.36123945051E+04 0.  0.
        4    1    3    3  502    0  0.12691845972E+04  0.12155379475E+04 -0.44836536013E+02  0.17579459524E+04  0.12699999809E+01 0.  1.
       -4    1    3    3    0  502 -0.12691845972E+04 -0.12155379475E+04  0.80779701458E+03  0.19341405516E+04  0.12699999809E+01 0. -1.
</event>
<event>
 5   0  0.2422436E-06  0.3573842E+04  0.7818609E-02  0.8096510E-01
       -2   -1    0    0    0  501  0.00000000000E+00  0.00000000000E+00  0.11245463003E+04  0.11245463003E+04  0.25500000920E-02 0.  1.
        2   -1    0    0  501    0  0.00000000000E+00  0.00000000000E+00 -0.28394437118E+04  0.28394437118E+04  0.25500000920E-02 0. -1.
    10030    2    1    2    0    0  0.00000000000E+00  0.00000000000E+00 -0.17148974115E+04  0.39639900121E+04  0.35738415863E+04 0.  0.
        2    1    3    3  502    0  0.37918929658E+03  0.16050958905E+04 -0.94643937453E+02  0.16519911668E+04  0.25500000920E-02 0.  1.
       -2    1    3    3    0  502 -0.37918929658E+03 -0.16050958905E+04 -0.16202534740E+04  0.23119988453E+04  0.25500000920E-02 0. -1.
</event>
<event>
 5   0  0.7754556E-07  0.2405332E+04  0.7818609E-02  0.8437510E-01
        1   -1    0    0  501    0  0.00000000000E+00  0.00000000000E+00  0.27288580303E+04  0.27288580303E+04  0.50400001928E-02 0. -1.
       -1   -1    0    0    0  501  0.00000000000E+00  0.00000000000E+00 -0.53004057097E+03  0.53004057099E+03  0.50400001928E-02 0.  1.
    10030    2    1    2    0    0  0.00000000000E+00  0.00000000000E+00  0.21988174593E+04  0.32588986013E+04  0.24053319675E+04 0.  0.
        4    1    3    3  502    0  0.54436654685E+03  0.52106740148E+03 -0.17052472652E+03  0.77261016656E+03  0.12699999809E+01 0.  1.
       -4    1    3    3    0  502 -0.54436654685E+03 -0.52106740148E+03  0.23693421858E+04  0.24862884347E+04  0.12699999809E+01 0. -1.
</event>
<event>
 5   0  0.1566576E-06  0.3144463E+04  0.7818609E-02  0.8203640E-01
       -2   -1    0    0    0  501  0.00000000000E+00  0.00000000000E+00  0.92528525592E+03  0.92528525592E+03  0.25500000920E-02 0.  1.
        2   -1    0    0  501    0  0.00000000000E+00  0.00000000000E+00 -0.26715128285E+04  0.26715128285E+04  0.25500000920E-02 0. -1.
    10030    2    1    2    0    0  0.00000000000E+00  0.00000000000E+00 -0.17462275726E+04  0.35967980844E+04  0.31444627085E+04 0.  0.
        4    1    3    3  502    0  0.10988525807E+04 -0.60927543713E+02 -0.21574509347E+04  0.24219383370E+04  0.12699999809E+01 0. -1.
       -4    1    3    3    0  502 -0.10988525807E+04  0.60927543713E+02  0.41122336215E+03  0.11748597474E+04  0.12699999809E+01 0.  1.
</event>
<event>
 5   0  0.8452742E-07  0.1979768E+04  0.7818609E-02  0.8616138E-01
       -1   -1    0    0    0  501  0.00000000000E+00  0.00000000000E+00  0.79578347845E+03  0.79578347846E+03  0.50400001928E-02 0. -1.
        1   -1    0    0  501    0  0.00000000000E+00  0.00000000000E+00 -0.12313282418E+04  0.12313282418E+04  0.50400001928E-02 0.  1.
    10030    2    1    2    0    0  0.00000000000E+00  0.00000000000E+00 -0.43554476332E+03  0.20271117202E+04  0.19797683414E+04 0.  0.
        1    1    3    3  502    0 -0.22010176695E+03 -0.86174902159E+03  0.22714665615E+03  0.91796065681E+03  0.50400001928E-02 0. -1.
       -1    1    3    3    0  502  0.22010176695E+03  0.86174902159E+03 -0.66269141947E+03  0.11091510634E+04  0.50400001928E-02 0.  1.
</event>
<event>
 5   0  0.1513502E-06  0.3603681E+04  0.7818609E-02  0.8089649E-01
        2   -1    0    0  501    0  0.00000000000E+00  0.00000000000E+00  0.10493050159E+04  0.10493050159E+04  0.25500000920E-02 0.  1.
       -2   -1    0    0    0  501  0.00000000000E+00  0.00000000000E+00 -0.30940749613E+04  0.30940749613E+04  0.25500000920E-02 0. -1.
    10030    2    1    2    0    0  0.00000000000E+00  0.00000000000E+00 -0.20447699453E+04  0.41433799772E+04  0.36036805500E+04 0.  0.
        3    1    3    3  502    0  0.58728828758E+03 -0.62537147269E+03  0.79941189656E+03  0.11726279897E+04  0.10100000352E+00 0.  1.
       -3    1    3    3    0  502 -0.58728828758E+03  0.62537147269E+03 -0.28441818419E+04  0.29707519876E+04  0.10100000352E+00 0. -1.
</event>
<event>
 5   0  0.1513502E-06  0.3779339E+04  0.7818609E-02  0.8050603E-01
       -2   -1    0    0    0  501  0.00000000000E+00  0.00000000000E+00  0.19539299352E+04  0.19539299352E+04  0.25500000920E-02 0.  1.
        2   -1    0    0  501    0  0.00000000000E+00  0.00000000000E+00 -0.18275222166E+04  0.18275222166E+04  0.25500000920E-02 0. -1.
    10030    2    1    2    0    0  0.00000000000E+00  0.00000000000E+00  0.12640771862E+03  0.37814521519E+04  0.37793387603E+04 0.  0.
        3    1    3    3  502    0 -0.15578833439E+04 -0.95535775742E+03  0.54424437469E+03  0.19068064682E+04  0.10100000352E+00 0.  1.
       -3    1    3    3    0  502  0.15578833439E+04  0.95535775742E+03 -0.41783665607E+03  0.18746456836E+04  0.10100000352E+00 0. -1.
</event>
<event>
 5   0  0.2536619E-06  0.3674259E+04  0.7818609E-02  0.8073690E-01
        2   -1    0    0  501    0  0.00000000000E+00  0.00000000000E+00  0.12336908171E+04  0.12336908171E+04  0.25500000920E-02 0. -1.
       -2   -1    0    0    0  501  0.00000000000E+00  0.00000000000E+00 -0.27357302746E+04  0.27357302746E+04  0.25500000920E-02 0.  1.
    10030    2    1    2    0    0  0.00000000000E+00  0.00000000000E+00 -0.15020394575E+04  0.39694210916E+04  0.36742592819E+04 0.  0.
        1    1    3    3  502    0 -0.10078875904E+04 -0.15315711149E+04 -0.87653297320E+03  0.20322050900E+04  0.50400001928E-02 0. -1.
       -1    1    3    3    0  502  0.10078875904E+04  0.15315711149E+04 -0.62550648428E+03  0.19372160016E+04  0.50400001928E-02 0.  1.
</event>
<event>
 5   0  0.8423692E-07  0.3723018E+04  0.7818609E-02  0.8062880E-01
        1   -1    0    0  501    0  0.00000000000E+00  0.00000000000E+00  0.25210821477E+04  0.25210821477E+04  0.50400001928E-02 0. -1.
       -1   -1    0    0    0  501  0.00000000000E+00  0.00000000000E+00 -0.13744957370E+04  0.13744957370E+04  0.50400001928E-02 0.  1.
    10030    2    1    2    0    0  0.00000000000E+00  0.00000000000E+00  0.11465864107E+04  0.38955778847E+04  0.37230184876E+04 0.  0.
        2    1    3    3  502    0 -0.41473511891E+02  0.96086979749E+02 -0.13714150424E+04  0.13754024787E+04  0.25500000920E-02 0.  1.
       -2    1    3    3    0  502  0.41473511891E+02 -0.96086979749E+02  0.25180014530E+04  0.25201754061E+04  0.25500000920E-02 0. -1.
</event>
<event>
 5   0  0.8452742E-07  0.3539316E+04  0.7818609E-02  0.8104535E-01
       -1   -1    0    0    0  501  0.00000000000E+00  0.00000000000E+00  0.28398619859E+04  0.28398619859E+04  0.50400001928E-02 0. -1.
        1   -1    0    0  501    0  0.00000000000E+00  0.00000000000E+00 -0.11027608600E+04  0.11027608600E+04  0.50400001928E-02 0.  1.
    10030    2    1    2    0    0  0.00000000000E+00  0.00000000000E+00  0.17371011259E+04  0.39426228459E+04  0.35393155530E+04 0.  0.
        1    1    3    3  502    0  0.29019814774E+03  0.13560868525E+04  0.20931376049E+04  0.25108587275E+04  0.50400001928E-02 0. -1.
       -1    1    3    3    0  502 -0.29019814774E+03 -0.13560868525E+04 -0.35603647900E+03  0.14317641184E+04  0.50400001928E-02 0.  1.
</event>
<event>
 5   0  0.8452742E-07  0.3328674E+04  0.7818609E-02  0.8155637E-01
       -1   -1    0    0    0  501  0.00000000000E+00  0.00000000000E+00  0.11672082569E+04  0.11672082569E+04  0.50400001928E-02 0.  1.
        1   -1    0    0  501    0  0.00000000000E+00  0.00000000000E+00 -0.23731991413E+04  0.23731991413E+04  0.50400001928E-02 0. -1.
    10030    2    1    2    0    0  0.00000000000E+00  0.00000000000E+00 -0.12059908844E+04  0.35404073982E+04  0.33286739901E+04 0.  0.
        1    1    3    3  502    0 -0.12314379120E+04  0.10088289433E+04 -0.86468499211E+02  0.15942559296E+04  0.50400001928E-02 0.  1.
       -1    1    3    3    0  502  0.12314379120E+04 -0.10088289433E+04 -0.11195223852E+04  0.19461514686E+04  0.50400001928E-02 0. -1.
</event>
<event>
 5   0  0.1566576E-06  0.3653251E+04  0.7818609E-02  0.8078402E-01
       -2   -1    0    0    0  501  0.00000000000E+00  0.00000000000E+00  0.13320348168E+04  0.13320348168E+04  0.25500000920E-02 0. -1.
        2   -1    0    0  501    0  0.00000000000E+00  0.00000000000E+00 -0.25048596332E+04  0.25048596332E+04  0.25500000920E-02 0.  1.
    10030    2    1    2    0    0  0.00000000000E+00  0.00000000000E+00 -0.11728248164E+04  0.38368944500E+04  0.36532507401E+04 0.  0.
        4    1    3    3  502    0  0.70159047076E+03 -0.10782658831E+04 -0.19483933616E+04  0.23347644009E+04  0.12699999809E+01 0.  1.
       -4    1    3    3    0  502 -0.70159047076E+03  0.10782658831E+04  0.77556854515E+03  0.15021300491E+04  0.12699999809E+01 0. -1.
</event>
<event>
 5   0  0.1867323E-06  0.1879816E+04  0.7818609E-02  0.8664969E-01
        1   -1    0    0  501    0  0.00000000000E+00  0.00000000000E+00  0.99898682787E+03  0.99898682788E+03  0.50400001928E-02 0. -1.
       -1   -1    0    0    0  501  0.00000000000E+00  0.00000000000E+00 -0.88432285233E+03  0.88432285234E+03  0.50400001928E-02 0.  1.
    10030    2    1    2    0    0  0.00000000000E+00  0.00000000000E+00  0.11466397554E+03  0.18833096802E+04  0.18798158219E+04 0.  0.
        5    1    3    3  502    0  0.74968287743E+03  0.26612415777E+03 -0.44415635368E+03  0.91112207775E+03  0.46999998093E+01 0.  1.
       -5    1    3    3    0  502 -0.74968287743E+03 -0.26612415777E+03  0.55882032922E+03  0.97218760247E+03  0.46999998093E+01 0. -1.
</event>
<event>
 5   0  0.7754556E-07  0.3513897E+04  0.7818609E-02  0.8110505E-01
       -1   -1    0    0    0  501  0.00000000000E+00  0.00000000000E+00  0.15610889531E+04  0.15610889531E+04  0.50400001928E-02 0. -1.
        1   -1    0    0  501    0  0.00000000000E+00  0.00000000000E+00 -0.19773808044E+04  0.19773808045E+04  0.50400001928E-02 0.  1.
    10030    2    1    2    0    0  0.00000000000E+00  0.00000000000E+00 -0.41629185138E+03  0.35384697575E+04  0.35138966006E+04 0.  0.
        4    1    3    3  502    0 -0.55547239101E+03 -0.74378964588E+02  0.14686666517E+04  0.15719621987E+04  0.12699999809E+01 0. -1.
       -4    1    3    3    0  502  0.55547239101E+03  0.74378964588E+02 -0.18849585031E+04  0.19665075588E+04  0.12699999809E+01 0.  1.
</event>
<event>
 5   0  0.2382711E-06  0.2507486E+04  0.7818609E-02  0.8400324E-01
        2   -1    0    0  501    0  0.00000000000E+00  0.00000000000E+00  0.17114312613E+04  0.17114312613E+04  0.25500000920E-02 0. -1.
       -2   -1    0    0    0  501  0.00000000000E+00  0.00000000000E+00 -0.91845411153E+03  0.91845411153E+03  0.25500000920E-02 0.  1.
    10030    2    1    2    0    0  0.00000000000E+00  0.00000000000E+00  0.79297714978E+03  0.26298853728E+04  0.25074856558E+04 0.  0.
        5    1    3    3  502    0  0.66077705302E+03 -0.12766122157E+02  0.15138861246E+04  0.16518663916E+04  0.46999998093E+01 0. -1.
       -5    1    3    3    0  502 -0.66077705302E+03  0.12766122157E+02 -0.72090897479E+03  0.97801898120E+03  0.46999998093E+01 0.  1.
</event>
<event>
 5   0  0.2536619E-06  0.3482623E+04  0.7818609E-02  0.8117920E-01
       -2   -1    0    0    0  501  0.00000000000E+00  0.00000000000E+00  0.16040252463E+04  0.16040252463E+04  0.25500000920E-02 0. -1.
        2   -1    0    0  501    0  0.00000000000E+00  0.00000000000E+00 -0.18903482624E+04  0.18903482624E+04  0.25500000920E-02 0.  1.
    10030    2    1    2    0    0  0.00000000000E+00  0.00000000000E+00 -0.28632301610E+03  0.34943735086E+04  0.34826233428E+04 0.  0.
        1    1    3    3  502    0 -0.44569599738E+03 -0.75927761562E+03  0.13642451085E+04  0.16236724225E+04  0.50400001928E-02 0. -1.
       -1    1    3    3    0  502  0.44569599738E+03  0.75927761562E+03 -0.16505681246E+04  0.18707010861E+04  0.50400001928E-02 0.  1.
</event>
<event>
 5   0  0.1566576E-06  0.3632365E+04  0.7818609E-02  0.8083118E-01
        2   -1    0    0  501    0  0.00000000000E+00  0.00000000000E+00  0.27550770315E+04  0.27550770315E+04  0.25500000920E-02 0.  1.
       -2   -1    0    0    0  501  0.00000000000E+00  0.00000000000E+00 -0.11972511319E+04  0.11972511319E+04  0.25500000920E-02 0. -1.
    10030    2    1    2    0    0  0.00000000000E+00  0.00000000000E+00  0.15578258996E+04  0.39523281634E+04  0.36323651217E+04 0.  0.
        4    1    3    3  502    0 -0.10438928336E+04 -0.67226937397E+03 -0.66330856226E+03  0.14077067240E+04  0.12699999809E+01 0. -1.
       -4    1    3    3    0  502  0.10438928336E+04  0.67226937397E+03  0.22211344618E+04  0.25446214393E+04  0.12699999809E+01 0.  1.
</event>
<event>
 5   0  0.2536619E-06  0.2175424E+04  0.7818609E-02  0.8528727E-01
       -2   -1    0    0    0  501  0.00000000000E+00  0.00000000000E+00  0.10399021816E+04  0.10399021816E+04  0.25500000920E-02 0.  1.
        2   -1    0    0  501    0  0.00000000000E+00  0.00000000000E+00 -0.11377200067E+04  0.11377200067E+04  0.25500000920E-02 0. -1.
    10030    2    1    2    0    0  0.00000000000E+00  0.00000000000E+00 -0.97817825109E+02  0.21776221883E+04  0.21754241122E+04 0.  0.
        1    1    3    3  502    0 -0.26717342696E+03 -0.27142515177E+03  0.97097493879E+03  0.10429983628E+04  0.50400001928E-02 0.  1.
       -1    1    3    3    0  502  0.26717342696E+03  0.27142515177E+03 -0.10687927639E+04  0.11346238254E+04  0.50400001928E-02 0. -1.
</event>
<event>
 5   0  0.2536619E-06  0.2702915E+04  0.7818609E-02  0.8334060E-01
        2   -1    0    0  501    0  0.00000000000E+00  0.00000000000E+00  0.13030498303E+04  0.13030498303E+04  0.25500000920E-02 0. -1.
       -2   -1    0    0    0  501  0.00000000000E+00  0.00000000000E+00 -0.14016632679E+04  0.14016632679E+04  0.25500000920E-02 0.  1.
    10030    2    1    2    0    0  0.00000000000E+00  0.00000000000E+00 -0.98613437615E+02  0.27047130982E+04  0.27029147847E+04 0.  0.
        1    1    3    3  502    0  0.13313919380E+04  0.49619339469E+02 -0.27610815349E+03  0.13606256957E+04  0.50400001928E-02 0.  1.
       -1    1    3    3    0  502 -0.13313919380E+04 -0.49619339469E+02  0.17749471588E+03  0.13440874025E+04  0.50400001928E-02 0. -1.
</event>
<event>
 5   0  0.1634374E-06  0.3551909E+04  0.7818609E-02  0.8101597E-01
       -1   -1    0    0    0  501  0.00000000000E+00  0.00000000000E+00  0.22659867238E+04  0.22659867238E+04  0.50400001928E-02 0. -1.
        1   -1    0    0  501    0  0.00000000000E+00  0.00000000000E+00 -0.13918943572E+04  0.13918943572E+04  0.50400001928E-02 0.  1.
    10030    2    1    2    0    0  0.00000000000E+00  0.00000000000E+00  0.87409236665E+03  0.36578810810E+04  0.35519088583E+04 0.  0.
        5    1    3    3  502    0  0.17329346023E+04  0.30988604773E+03  0.19574730183E+03  0.17712794231E+04  0.46999998093E+01 0. -1.
       -5    1    3    3    0  502 -0.17329346023E+04 -0.30988604773E+03  0.67834506482E+03  0.18866016579E+04  0.46999998093E+01 0.  1.
</event>
<event>
 5   0  0.8423692E-07  0.1950007E+04  0.7818609E-02  0.8630357E-01
       -1   -1    0    0    0  501  0.00000000000E+00  0.00000000000E+00  0.43976766294E+03  0.43976766297E+03  0.50400001928E-02 0. -1.
        1   -1    0    0  501    0  0.00000000000E+00  0.00000000000E+00 -0.21616682345E+04  0.21616682345E+04  0.50400001928E-02 0.  1.
    10030    2    1    2    0    0  0.00000000000E+00  0.00000000000E+00 -0.17219005716E+04  0.26014358975E+04  0.19500069616E+04 0.  0.
        2    1    3    3  502    0 -0.37542991869E+03  0.88737727581E+03 -0.10599261218E+04  0.14324208310E+04  0.25500000920E-02 0.  1.
       -2    1    3    3    0  502  0.37542991869E+03 -0.88737727581E+03 -0.66197444978E+03  0.11690150665E+04  0.25500000920E-02 0. -1.
</event>
<event>
 5   0  0.1908273E-06  0.3630199E+04  0.7818609E-02  0.8083609E-01
       -1   -1    0    0    0  501  0.00000000000E+00  0.00000000000E+00  0.14763242442E+04  0.14763242442E+04  0.50400001928E-02 0. -1.
        1   -1    0    0  501    0  0.00000000000E+00  0.00000000000E+00 -0.22316147239E+04  0.22316147239E+04  0.50400001928E-02 0.  1.
    10030    2    1    2    0    0  0.00000000000E+00  0.00000000000E+00 -0.75529047971E+03  0.37079389682E+04  0.36301993999E+04 0.  0.
        3    1    3    3  502    0 -0.25053484777E+02  0.10992448901E+04  0.10974486973E+04  0.15534994880E+04  0.10100000352E+00 0. -1.
       -3    1    3    3    0  502  0.25053484777E+02 -0.10992448901E+04 -0.18527391771E+04  0.21544394802E+04  0.10100000352E+00 0.  1.
</event>
<event>
 5   0  0.7754556E-07  0.3612415E+04  0.7818609E-02  0.8087654E-01
       -1   -1    0    0    0  501  0.00000000000E+00  0.00000000000E+00  0.27183342112E+04  0.27183342112E+04  0.50400001928E-02 0. -1.
        1   -1    0    0  501    0  0.00000000000E+00  0.00000000000E+00 -0.12001412101E+04  0.12001412101E+04  0.50400001928E-02 0.  1.
    10030    2    1    2    0    0  0.00000000000E+00  0.00000000000E+00  0.15181930011E+04  0.39184754214E+04  0.36124146549E+04 0.  0.
        4    1    3    3  502    0 -0.62366472923E+03  0.15407965700E+04 -0.74374976060E+01  0.16622480844E+04  0.12699999809E+01 0.  1.
       -4    1    3    3    0  502  0.62366472923E+03 -0.15407965700E+04  0.15256304987E+04  0.22562273370E+04  0.12699999809E+01 0. -1.
</event>
<event>
 5   0  0.1566576E-06  0.3460455E+04  0.7818609E-02  0.8123226E-01
       -2   -1    0    0    0  501  0.00000000000E+00  0.00000000000E+00  0.19670633208E+04  0.19670633208E+04  0.25500000920E-02 0. -1.
        2   -1    0    0  501    0  0.00000000000E+00  0.00000000000E+00 -0.15219066666E+04  0.15219066666E+04  0.25500000920E-02 0.  1.
    10030    2    1    2    0    0  0.00000000000E+00  0.00000000000E+00  0.44515665418E+03  0.34889699874E+04  0.34604547571E+04 0.  0.
        4    1    3    3  502    0 -0.12588183877E+04 -0.43647936555E+03 -0.89039622887E+03  0.16024808975E+04  0.12699999809E+01 0.  1.
       -4    1    3    3    0  502  0.12588183877E+04  0.43647936555E+03  0.13355528830E+04  0.18864890898E+04  0.12699999809E+01 0. -1.
</event>
<event>
 5   0  0.1566576E-06  0.3725426E+04  0.7818609E-02  0.8062350E-01
        2   -1    0    0  501    0  0.00000000000E+00  0.00000000000E+00  0.21555796589E+04  0.21555796589E+04  0.25500000920E-02 0.  1.
       -2   -1    0    0    0  501  0.00000000000E+00  0.00000000000E+00 -0.16096364553E+04  0.16096364553E+04  0.25500000920E-02 0. -1.
    10030    2    1    2    0    0  0.00000000000E+00  0.00000000000E+00  0.54594320358E+03  0.37652161143E+04  0.37254259361E+04 0.  0.
        4    1    3    3  502    0  0.65166074803E+03  0.11116148821E+04 -0.10865155287E+04  0.16854871651E+04  0.12699999809E+01 0. -1.
       -4    1    3    3    0  502 -0.65166074803E+03 -0.11116148821E+04  0.16324587323E+04  0.20797289492E+04  0.12699999809E+01 0.  1.
</event>
<event>
 5   0  0.2422436E-06  0.3712657E+04  0.7818609E-02  0.8065163E-01
        2   -1    0    0  501    0  0.00000000000E+00  0.00000000000E+00  0.21772993753E+04  0.21772993753E+04  0.25500000920E-02 0. -1.
       -2   -1    0    0    0  501  0.00000000000E+00  0.00000000000E+00 -0.15826745184E+04  0.15826745184E+04  0.25500000920E-02 0.  1.
    10030    2    1    2    0    0  0.00000000000E+00  0.00000000000E+00  0.59462485696E+03  0.37599738937E+04  0.37126573988E+04 0.  0.
        2    1    3    3  502    0  0.14791651269E+04 -0.20636485066E+03 -0.81920825744E+03  0.17034136589E+04  0.25500000920E-02 0.  1.
       -2    1    3    3    0  502 -0.14791651269E+04  0.20636485066E+03  0.14138331144E+04  0.20565602348E+04  0.25500000920E-02 0. -1.
</event>
<event>
 5   0  0.8452742E-07  0.3605749E+04  0.7818609E-02  0.8089176E-01
        1   -1    0    0  501    0  0.00000000000E+00  0.00000000000E+00  0.14612694875E+04  0.14612694875E+04  0.50400001928E-02 0. -1.
       -1   -1    0    0    0  501  0.00000000000E+00  0.00000000000E+00 -0.22243376005E+04  0.22243376005E+04  0.50400001928E-02 0.  1.
    10030    2    1    2    0    0  0.00000000000E+00  0.00000000000E+00 -0.76306811300E+03  0.36856070879E+04  0.36057491124E+04 0.  0.
        1    1    3    3  502    0  0.54291712581E+02 -0.10778000352E+04 -0.18577343814E+04  0.21484360678E+04  0.50400001928E-02 0.  1.
       -1    1    3    3    0  502 -0.54291712581E+02  0.10778000352E+04  0.10946662684E+04  0.15371710201E+04  0.50400001928E-02 0. -1.
</event>
<event>
 5   0  0.1513502E-06  0.1916443E+04  0.7818609E-02  0.8646715E-01
        2   -1    0    0  501    0  0.00000000000E+00  0.00000000000E+00  0.12145382964E+04  0.12145382964E+04  0.25500000920E-02 0. -1.
       -2   -1    0    0    0  501  0.00000000000E+00  0.00000000000E+00 -0.75599772475E+03  0.75599772475E+03  0.25500000920E-02 0.  1.
    10030    2    1    2    0    0  0.00000000000E+00  0.00000000000E+00  0.45854057169E+03  0.19705360212E+04  0.19164427346E+04 0.  0.
        3    1    3    3  502    0  0.59521758813E+03 -0.68160105848E+03 -0.94782728703E+02  0.90986139384E+03  0.10100000352E+00 0. -1.
       -3    1    3    3    0  502 -0.59521758813E+03  0.68160105848E+03  0.55332330040E+03  0.10606746273E+04  0.10100000352E+00 0.  1.
</event>
<event>
 5   0  0.1513502E-06  0.3614671E+04  0.7818609E-02  0.8087139E-01
       -2   -1    0    0    0  501  0.00000000000E+00  0.00000000000E+00  0.14941042476E+04  0.14941042476E+04  0.25500000920E-02 0. -1.
        2   -1    0    0  501    0  0.00000000000E+00  0.00000000000E+00 -0.21862341060E+04  0.21862341060E+04  0.25500000920E-02 0.  1.
    10030    2    1    2    0    0  0.00000000000E+00  0.00000000000E+00 -0.69212985844E+03  0.36803383536E+04  0.36146710301E+04 0.  0.
        3    1    3    3  502    0  0.30266667908E+03 -0.37573901136E+03  0.14273218897E+04  0.15066634363E+04  0.10100000352E+00 0. -1.
       -3    1    3    3    0  502 -0.30266667908E+03  0.37573901136E+03 -0.21194517481E+04  0.21736749173E+04  0.10100000352E+00 0.  1.
</event>
<event>
 5   0  0.1566576E-06  0.2973013E+04  0.7818609E-02  0.8251480E-01
        2   -1    0    0  501    0  0.00000000000E+00  0.00000000000E+00  0.20792749452E+04  0.20792749452E+04  0.25500000920E-02 0. -1.
       -2   -1    0    0    0  501  0.00000000000E+00  0.00000000000E+00 -0.10627266790E+04  0.10627266790E+04  0.25500000920E-02 0.  1.
    10030    2    1    2    0    0  0.00000000000E+00  0.00000000000E+00  0.10165482662E+04  0.31420016241E+04  0.29730125847E+04 0.  0.
        4    1    3    3  502    0 -0.73942610707E+03 -0.83345976921E+03 -0.53167739228E+03  0.12345398402E+04  0.12699999809E+01 0.  1.
       -4    1    3    3    0  502  0.73942610707E+03  0.83345976921E+03  0.15482256585E+04  0.19074617839E+04  0.12699999809E+01 0. -1.
</event>
<event>
 5   0  0.8452742E-07  0.2426460E+04  0.7818609E-02  0.8429663E-01
        1   -1    0    0  501    0  0.00000000000E+00  0.00000000000E+00  0.26102390004E+04  0.26102390004E+04  0.50400001928E-02 0. -1.
       -1   -1    0    0    0  501  0.00000000000E+00  0.00000000000E+00 -0.56390494518E+03  0.56390494520E+03  0.50400001928E-02 0.  1.
    10030    2    1    2    0    0  0.00000000000E+00  0.00000000000E+00  0.20463340552E+04  0.31741439456E+04  0.24264597095E+04 0.  0.
        1    1    3    3  502    0 -0.47462257304E+03 -0.14979533735E+03 -0.42421616734E+03  0.65396069193E+03  0.50400001928E-02 0.  1.
       -1    1    3    3    0  502  0.47462257304E+03  0.14979533735E+03  0.24705502226E+04  0.25201832537E+04  0.50400001928E-02 0. -1.
</event>
<event>
 5   0  0.8423692E-07  0.1903622E+04  0.7818609E-02  0.8653056E-01
        1   -1    0    0  501    0  0.00000000000E+00  0.00000000000E+00  0.84024644797E+03  0.84024644798E+03  0.50400001928E-02 0.  1.
       -1   -1    0    0    0  501  0.00000000000E+00  0.00000000000E+00 -0.10781885350E+04  0.10781885350E+04  0.50400001928E-02 0. -1.
    10030    2    1    2    0    0  0.00000000000E+00  0.00000000000E+00 -0.23794208699E+03  0.19184349830E+04  0.19036219023E+04 0.  0.
        2    1    3    3  502    0  0.61711339933E+03 -0.35451704261E+03 -0.75589598768E+03  0.10382148262E+04  0.25500000920E-02 0. -1.
       -2    1    3    3    0  502 -0.61711339933E+03  0.35451704261E+03  0.51795390068E+03  0.88022015676E+03  0.25500000920E-02 0.  1.
</event>
<event>
 5   0  0.8452742E-07  0.3606841E+04  0.7818609E-02  0.8088927E-01
       -1   -1    0    0    0  501  0.00000000000E+00  0.00000000000E+00  0.18438402163E+04  0.18438402163E+04  0.50400001928E-02 0. -1.
        1   -1    0    0  501    0  0.00000000000E+00  0.00000000000E+00 -0.17638865180E+04  0.17638865180E+04  0.50400001928E-02 0.  1.
    10030    2    1    2    0    0  0.00000000000E+00  0.00000000000E+00  0.79953698311E+02  0.36077267343E+04  0.36068406668E+04 0.  0.
        1    1    3    3  502    0  0.46619225533E+03 -0.12497667520E+03 -0.16980836183E+04  0.17653448283E+04  0.50400001928E-02 0.  1.
       -1    1    3    3    0  502 -0.46619225533E+03  0.12497667520E+03  0.17780373166E+04  0.18423819060E+04  0.50400001928E-02 0. -1.
</event>
<event>
 5   0  0.1566576E-06  0.3459359E+04  0.7818609E-02  0.8123490E-01
        2   -1    0    0  501    0  0.00000000000E+00  0.00000000000E+00  0.21060929459E+04  0.21060929459E+04  0.25500000920E-02 0.  1.
       -2   -1    0    0    0  501  0.00000000000E+00  0.00000000000E+00 -0.14205405682E+04  0.14205405682E+04  0.25500000920E-02 0. -1.
    10030    2    1    2    0    0  0.00000000000E+00  0.00000000000E+00  0.68555237773E+03  0.35266335141E+04  0.34593585938E+04 0.  0.
        4    1    3    3  502    0  0.94528214050E+03 -0.87199574799E+03 -0.83637393155E+03  0.15340983919E+04  0.12699999809E+01 0. -1.
       -4    1    3    3    0  502 -0.94528214050E+03  0.87199574799E+03  0.15219263093E+04  0.19925351223E+04  0.12699999809E+01 0.  1.
</event>
<event>
 5   0  0.1513502E-06  0.3156628E+04  0.7818609E-02  0.8200366E-01
       -2   -1    0    0    0  501  0.00000000000E+00  0.00000000000E+00  0.12981532914E+04  0.12981532914E+04  0.25500000920E-02 0.  1.
        2   -1    0    0  501    0  0.00000000000E+00  0.00000000000E+00 -0.19189379387E+04  0.19189379387E+04  0.25500000920E-02 0. -1.
    10030    2    1    2    0    0  0.00000000000E+00  0.00000000000E+00 -0.62078464728E+03  0.32170912301E+04  0.31566283286E+04 0.  0.
        3    1    3    3  502    0 -0.64997948407E+03 -0.14271507540E+04 -0.49225635903E+03  0.16436389317E+04  0.10100000352E+00 0.  1.
       -3    1    3    3    0  502  0.64997948407E+03  0.14271507540E+04 -0.12852828825E+03  0.15734522985E+04  0.10100000352E+00 0. -1.
</event>
<event>
 5   0  0.2422436E-06  0.2265018E+04  0.7818609E-02  0.8491843E-01
       -2   -1    0    0    0  501  0.00000000000E+00  0.00000000000E+00  0.42174211119E+03  0.42174211119E+03  0.25500000920E-02 0. -1.
        2   -1    0    0  501    0  0.00000000000E+00  0.00000000000E+00 -0.30411408630E+04  0.30411408630E+04  0.25500000920E-02 0.  1.
    10030    2    1    2    0    0  0.00000000000E+00  0.00000000000E+00 -0.26193987518E+04  0.34628829742E+04  0.22650184706E+04 0.  0.
        2    1    3    3  502    0 -0.40337631836E+03  0.70491095551E+03 -0.25163956758E+04  0.26442123792E+04  0.25500000920E-02 0.  1.
       -2    1    3    3    0  502  0.40337631836E+03 -0.70491095551E+03 -0.10300307606E+03  0.81867059498E+03  0.25500000920E-02 0. -1.
</event>
<event>
 5   0  0.2536619E-06  0.3627589E+04  0.7818609E-02  0.8084201E-01
        2   -1    0    0  501    0  0.00000000000E+00  0.00000000000E+00  0.27236516781E+04  0.27236516781E+04  0.25500000920E-02 0. -1.
       -2   -1    0    0    0  501  0.00000000000E+00  0.00000000000E+00 -0.12078824315E+04  0.12078824315E+04  0.25500000920E-02 0.  1.
    10030    2    1    2    0    0  0.00000000000E+00  0.00000000000E+00  0.15157692466E+04  0.39315341096E+04  0.36275892885E+04 0.  0.
        1    1    3    3  502    0 -0.56726903752E+03  0.56564015176E+03 -0.10057628861E+04  0.12858078882E+04  0.50400001928E-02 0.  1.
       -1    1    3    3    0  502  0.56726903752E+03 -0.56564015176E+03  0.25215321327E+04  0.26457262214E+04  0.50400001928E-02 0. -1.
</event>
<event>
 5   0  0.2422436E-06  0.2362154E+04  0.7818609E-02  0.8453810E-01
        2   -1    0    0  501    0  0.00000000000E+00  0.00000000000E+00  0.10012737038E+04  0.10012737038E+04  0.25500000920E-02 0. -1.
       -2   -1    0    0    0  501  0.00000000000E+00  0.00000000000E+00 -0.13931678337E+04  0.13931678337E+04  0.25500000920E-02 0.  1.
    10030    2    1    2    0    0  0.00000000000E+00  0.00000000000E+00 -0.39189412987E+03  0.23944415375E+04  0.23621535233E+04 0.  0.
        2    1    3    3  502    0 -0.43663885647E+03  0.10972510829E+04 -0.21433019357E+03  0.12002295038E+04  0.25500000920E-02 0. -1.
       -2    1    3    3    0  502  0.43663885647E+03 -0.10972510829E+04 -0.17756393631E+03  0.11942120337E+04  0.25500000920E-02 0.  1.
</event>
<event>
 5   0  0.1513502E-06  0.3655432E+04  0.7818609E-02  0.8077911E-01
       -2   -1    0    0    0  501  0.00000000000E+00  0.00000000000E+00  0.13700143606E+04  0.13700143607E+04  0.25500000920E-02 0.  1.
        2   -1    0    0  501    0  0.00000000000E+00  0.00000000000E+00 -0.24383285126E+04  0.24383285126E+04  0.25500000920E-02 0. -1.
    10030    2    1    2    0    0  0.00000000000E+00  0.00000000000E+00 -0.10683141520E+04  0.38083428733E+04  0.36554316179E+04 0.  0.
        3    1    3    3  502    0 -0.98089458489E+02 -0.71120468152E+03 -0.22852740947E+04  0.23953937754E+04  0.10100000352E+00 0. -1.
       -3    1    3    3    0  502  0.98089458489E+02  0.71120468152E+03  0.12169599427E+04  0.14129490979E+04  0.10100000352E+00 0.  1.
</event>
<event>
 5   0  0.1513502E-06  0.3571210E+04  0.7818609E-02  0.8097118E-01
       -2   -1    0    0    0  501  0.00000000000E+00  0.00000000000E+00  0.13048357199E+04  0.13048357199E+04  0.25500000920E-02 0. -1.
        2   -1    0    0  501    0  0.00000000000E+00  0.00000000000E+00 -0.24435143128E+04  0.24435143128E+04  0.25500000920E-02 0.  1.
    10030    2    1    2    0    0  0.00000000000E+00  0.00000000000E+00 -0.11386785929E+04  0.37483500327E+04  0.35712097432E+04 0.  0.
        3    1    3    3  502    0 -0.17850536213E+04  0.13627325882E+02 -0.61365454834E+03  0.18876371606E+04  0.10100000352E+00 0.  1.
       -3    1    3    3    0  502  0.17850536213E+04 -0.13627325882E+02 -0.52502404456E+03  0.18607128722E+04  0.10100000352E+00 0. -1.
</event>
<event>
 5   0  0.1566576E-06  0.3672047E+04  0.7818609E-02  0.8074185E-01
       -2   -1    0    0    0  501  0.00000000000E+00  0.00000000000E+00  0.14269592608E+04  0.14269592608E+04  0.25500000920E-02 0. -1.
        2   -1    0    0  501    0  0.00000000000E+00  0.00000000000E+00 -0.23623541902E+04  0.23623541902E+04  0.25500000920E-02 0.  1.
    10030    2    1    2    0    0  0.00000000000E+00  0.00000000000E+00 -0.93539492933E+03  0.37893134510E+04  0.36720474883E+04 0.  0.
        4    1    3    3  502    0  0.18685189365E+03  0.17796090454E+04 -0.43398326091E+02  0.17899181580E+04  0.12699999809E+01 0.  1.
       -4    1    3    3    0  502 -0.18685189365E+03 -0.17796090454E+04 -0.89199660324E+03  0.19993952930E+04  0.12699999809E+01 0. -1.
</event>
<event>
 5   0  0.1908273E-06  0.3656315E+04  0.7818609E-02  0.8077713E-01
       -1   -1    0    0    0  501  0.00000000000E+00  0.00000000000E+00  0.13143063207E+04  0.13143063207E+04  0.50400001928E-02 0.  1.
        1   -1    0    0  501    0  0.00000000000E+00  0.00000000000E+00 -0.25429074773E+04  0.25429074773E+04  0.50400001928E-02 0. -1.
    10030    2    1    2    0    0  0.00000000000E+00  0.00000000000E+00 -0.12286011566E+04  0.38572137980E+04  0.36563147405E+04 0.  0.
        3    1    3    3  502    0 -0.67202275513E+03 -0.16991356408E+04 -0.55204223294E+03  0.19087763479E+04  0.10100000352E+00 0. -1.
       -3    1    3    3    0  502  0.67202275513E+03  0.16991356408E+04 -0.67655892366E+03  0.19484374500E+04  0.10100000352E+00 0.  1.
</event>
<event>
 5   0  0.7707500E-07  0.2698006E+04  0.7818609E-02  0.8335652E-01
        4   -1    0    0  501    0  0.00000000000E+00  0.00000000000E+00  0.15568553327E+04  0.15568558507E+04  0.12699999809E+01 0. -1.
       -4   -1    0    0    0  501  0.00000000000E+00  0.00000000000E+00 -0.11688994703E+04  0.11689001602E+04  0.12699999809E+01 0.  1.
    10030    2    1    2    0    0  0.00000000000E+00  0.00000000000E+00  0.38795586240E+03  0.27257560109E+04  0.26980059451E+04 0.  0.
        4    1    3    3  502    0 -0.55099015321E+03  0.73735000978E+03  0.11902915702E+04  0.15046829636E+04  0.12699999809E+01 0. -1.
       -4    1    3    3    0  502  0.55099015321E+03 -0.73735000978E+03 -0.80233570783E+03  0.12210730473E+04  0.12699999809E+01 0.  1.
</event>
<event>
 5   0  0.2382711E-06  0.3581253E+04  0.7818609E-02  0.8094800E-01
       -2   -1    0    0    0  501  0.00000000000E+00  0.00000000000E+00  0.22778753526E+04  0.22778753526E+04  0.25500000920E-02 0. -1.
        2   -1    0    0  501    0  0.00000000000E+00  0.00000000000E+00 -0.14076024180E+04  0.14076024180E+04  0.25500000920E-02 0.  1.
    10030    2    1    2    0    0  0.00000000000E+00  0.00000000000E+00  0.87027293455E+03  0.36854777706E+04  0.35812527720E+04 0.  0.
        5    1    3    3  502    0 -0.45777185345E+03 -0.37237534915E+03 -0.13046570362E+04  0.14319114995E+04  0.46999998093E+01 0.  1.
       -5    1    3    3    0  502  0.45777185345E+03  0.37237534915E+03  0.21749299707E+04  0.22535662710E+04  0.46999998093E+01 0. -1.
</event>
<event>
 5   0  0.8452742E-07  0.3598763E+04  0.7818609E-02  0.8090775E-01
       -1   -1    0    0    0  501  0.00000000000E+00  0.00000000000E+00  0.26574517159E+04  0.26574517159E+04  0.50400001928E-02 0.  1.
        1   -1    0    0  501    0  0.00000000000E+00  0.00000000000E+00 -0.12183750649E+04  0.12183750649E+04  0.50400001928E-02 0. -1.
    10030    2    1    2    0    0  0.00000000000E+00  0.00000000000E+00  0.14390766510E+04  0.38758267809E+04  0.35987625134E+04 0.  0.
        1    1    3    3  502    0  0.42191734152E+00  0.15035425629E+04  0.17841418468E+04  0.23331957796E+04  0.50400001928E-02 0.  1.
       -1    1    3    3    0  502 -0.42191734152E+00 -0.15035425629E+04 -0.34506519580E+03  0.15426310012E+04  0.50400001928E-02 0. -1.
</event>
<event>
 5   0  0.2536619E-06  0.1830185E+04  0.7818609E-02  0.8690410E-01
        2   -1    0    0  501    0  0.00000000000E+00  0.00000000000E+00  0.10236971975E+04  0.10236971975E+04  0.25500000920E-02 0. -1.
       -2   -1    0    0    0  501  0.00000000000E+00  0.00000000000E+00 -0.81800949545E+03  0.81800949545E+03  0.25500000920E-02 0.  1.
    10030    2    1    2    0    0  0.00000000000E+00  0.00000000000E+00  0.20568770210E+03  0.18417066930E+04  0.18301847208E+04 0.  0.
        1    1    3    3  502    0  0.13140766497E+03 -0.26155863069E+03 -0.76962837541E+03  0.82341285389E+03  0.50400001928E-02 0.  1.
       -1    1    3    3    0  502 -0.13140766497E+03  0.26155863069E+03  0.97531607750E+03  0.10182938391E+04  0.50400001928E-02 0. -1.
</event>
<event>
 5   0  0.8452742E-07  0.2120113E+04  0.7818609E-02  0.8552435E-01
        1   -1    0    0  501    0  0.00000000000E+00  0.00000000000E+00  0.24318554844E+04  0.24318554844E+04  0.50400001928E-02 0.  1.
       -1   -1    0    0    0  501  0.00000000000E+00  0.00000000000E+00 -0.46208308319E+03  0.46208308322E+03  0.50400001928E-02 0. -1.
    10030    2    1    2    0    0  0.00000000000E+00  0.00000000000E+00  0.19697724012E+04  0.28939385677E+04  0.21201125255E+04 0.  0.
        1    1    3    3  502    0 -0.24109918025E+03 -0.10051546912E+04  0.13057452336E+04  0.16653634388E+04  0.50400001928E-02 0.  1.
       -1    1    3    3    0  502  0.24109918025E+03  0.10051546912E+04  0.66402716760E+03  0.12285751289E+04  0.50400001928E-02 0. -1.
</event>
<event>
 5   0  0.1513502E-06  0.3148870E+04  0.7818609E-02  0.8202453E-01
       -2   -1    0    0    0  501  0.00000000000E+00  0.00000000000E+00  0.10191853430E+04  0.10191853430E+04  0.25500000920E-02 0. -1.
        2   -1    0    0  501    0  0.00000000000E+00  0.00000000000E+00 -0.24321831932E+04  0.24321831932E+04  0.25500000920E-02 0.  1.
    10030    2    1    2    0    0  0.00000000000E+00  0.00000000000E+00 -0.14129978502E+04  0.34513685362E+04  0.31488699319E+04 0.  0.
        3    1    3    3  502    0  0.48332621791E+03 -0.13593747602E+04 -0.13974042921E+04  0.20085424410E+04  0.10100000352E+00 0.  1.
       -3    1    3    3    0  502 -0.48332621791E+03  0.13593747602E+04 -0.15593558022E+02  0.14428260951E+04  0.10100000352E+00 0. -1.
</event>
<event>
 5   0  0.7754556E-07  0.3691963E+04  0.7818609E-02  0.8069745E-01
       -1   -1    0    0    0  501  0.00000000000E+00  0.00000000000E+00  0.13031119338E+04  0.13031119339E+04  0.50400001928E-02 0. -1.
        1   -1    0    0  501    0  0.00000000000E+00  0.00000000000E+00 -0.26150070624E+04  0.26150070624E+04  0.50400001928E-02 0.  1.
    10030    2    1    2    0    0  0.00000000000E+00  0.00000000000E+00 -0.13118951285E+04  0.39181189963E+04  0.36919625730E+04 0.  0.
        4    1    3    3  502    0 -0.30211081916E+03 -0.74558901797E+03 -0.24191896992E+04  0.25494419672E+04  0.12699999809E+01 0.  1.
       -4    1    3    3    0  502  0.30211081916E+03  0.74558901797E+03  0.11072945706E+04  0.13686770290E+04  0.12699999809E+01 0. -1.
</event>
<event>
 5   0  0.1566576E-06  0.3205261E+04  0.7818609E-02  0.8187429E-01
        2   -1    0    0  501    0  0.00000000000E+00  0.00000000000E+00  0.19344127133E+04  0.19344127133E+04  0.25500000920E-02 0.  1.
       -2   -1    0    0    0  501  0.00000000000E+00  0.00000000000E+00 -0.13277540024E+04  0.13277540024E+04  0.25500000920E-02 0. -1.
    10030    2    1    2    0    0  0.00000000000E+00  0.00000000000E+00  0.60665871090E+03  0.32621667156E+04  0.32052608145E+04 0.  0.
        4    1    3    3  502    0  0.11288615962E+04 -0.10202543706E+04 -0.20876889833E+03  0.15358494554E+04  0.12699999809E+01 0. -1.
       -4    1    3    3    0  502 -0.11288615962E+04  0.10202543706E+04  0.81542760923E+03  0.17263172602E+04  0.12699999809E+01 0.  1.
</event>
<event>
 5   0  0.1566576E-06  0.3418103E+04  0.7818609E-02  0.8133477E-01
       -2   -1    0    0    0  501  0.00000000000E+00  0.00000000000E+00  0.11753533028E+04  0.11753533028E+04  0.25500000920E-02 0. -1.
        2   -1    0    0  501    0  0.00000000000E+00  0.00000000000E+00 -0.24850886723E+04  0.24850886723E+04  0.25500000920E-02 0.  1.
    10030    2    1    2    0    0  0.00000000000E+00  0.00000000000E+00 -0.13097353695E+04  0.36604419752E+04  0.34181030873E+04 0.  0.
        4    1    3    3  502    0  0.13060376337E+04  0.78102655751E+03  0.17817774628E+03  0.15321506800E+04  0.12699999809E+01 0. -1.
       -4    1    3    3    0  502 -0.13060376337E+04 -0.78102655751E+03 -0.14879131158E+04  0.21282912951E+04  0.12699999809E+01 0.  1.
</event>
<event>
 5   0  0.1908273E-06  0.3626401E+04  0.7818609E-02  0.8084471E-01
        1   -1    0    0  501    0  0.00000000000E+00  0.00000000000E+00  0.20295354967E+04  0.20295354967E+04  0.50400001928E-02 0.  1.
       -1   -1    0    0    0  501  0.00000000000E+00  0.00000000000E+00 -0.16199257393E+04  0.16199257393E+04  0.50400001928E-02 0. -1.
    10030    2    1    2    0    0  0.00000000000E+00  0.00000000000E+00  0.40960975744E+03  0.36494612361E+04  0.36264014064E+04 0.  0.
        3    1    3    3  502    0  0.15800573893E+04 -0.85927233215E+03  0.43597514059E+03  0.18506768026E+04  0.10100000352E+00 0. -1.
       -3    1    3    3    0  502 -0.15800573893E+04  0.85927233215E+03 -0.26365383149E+02  0.17987844334E+04  0.10100000352E+00 0.  1.
</event>
<event>
 5   0  0.8452742E-07  0.3663711E+04  0.7818609E-02  0.8076052E-01
        1   -1    0    0  501    0  0.00000000000E+00  0.00000000000E+00  0.16644863241E+04  0.16644863241E+04  0.50400001928E-02 0.  1.
       -1   -1    0    0    0  501  0.00000000000E+00  0.00000000000E+00 -0.20160536630E+04  0.20160536630E+04  0.50400001928E-02 0. -1.
    10030    2    1    2    0    0  0.00000000000E+00  0.00000000000E+00 -0.35156733891E+03  0.36805399871E+04  0.36637105512E+04 0.  0.
        1    1    3    3  502    0 -0.32537880663E+03  0.62616887490E+03  0.15224652867E+04  0.16780522569E+04  0.50400001928E-02 0.  1.
       -1    1    3    3    0  502  0.32537880663E+03 -0.62616887490E+03 -0.18740326256E+04  0.20024877302E+04  0.50400001928E-02 0. -1.
</event>
<event>
 5   0  0.2382711E-06  0.3591411E+04  0.7818609E-02  0.8092462E-01
       -2   -1    0    0    0  501  0.00000000000E+00  0.00000000000E+00  0.16154839131E+04  0.16154839131E+04  0.25500000920E-02 0. -1.
        2   -1    0    0  501    0  0.00000000000E+00  0.00000000000E+00 -0.19960319749E+04  0.19960319749E+04  0.25500000920E-02 0.  1.
    10030    2    1    2    0    0  0.00000000000E+00  0.00000000000E+00 -0.38054806175E+03  0.36115158880E+04  0.35914106117E+04 0.  0.
        5    1    3    3  502    0 -0.12529535941E+04 -0.12745264294E+04 -0.36510104366E+03  0.18241795938E+04  0.46999998093E+01 0. -1.
       -5    1    3    3    0  502  0.12529535941E+04  0.12745264294E+04 -0.15447018086E+02  0.17873362942E+04  0.46999998093E+01 0.  1.
</event>
<event>
 5   0  0.1566576E-06  0.2815305E+04  0.7818609E-02  0.8298532E-01
        2   -1    0    0  501    0  0.00000000000E+00  0.00000000000E+00  0.25556020238E+04  0.25556020238E+04  0.25500000920E-02 0. -1.
       -2   -1    0    0    0  501  0.00000000000E+00  0.00000000000E+00 -0.77535009071E+03  0.77535009071E+03  0.25500000920E-02 0.  1.
    10030    2    1    2    0    0  0.00000000000E+00  0.00000000000E+00  0.17802519331E+04  0.33309521145E+04  0.28153054975E+04 0.  0.
        4    1    3    3  502    0 -0.11870691417E+04 -0.52290532944E+03  0.24324935365E+03  0.13197480789E+04  0.12699999809E+01 0.  1.
       -4    1    3    3    0  502  0.11870691417E+04  0.52290532944E+03  0.15370025795E+04  0.20112040357E+04  0.12699999809E+01 0. -1.
</event>
<event>
 5   0  0.8452742E-07  0.3592054E+04  0.7818609E-02  0.8092314E-01
        1   -1    0    0  501    0  0.00000000000E+00  0.00000000000E+00  0.19591030709E+04  0.19591030709E+04  0.50400001928E-02 0. -1.
       -1   -1    0    0    0  501  0.00000000000E+00  0.00000000000E+00 -0.16465256649E+04  0.16465256649E+04  0.50400001928E-02 0.  1.
    10030    2    1    2    0    0  0.00000000000E+00  0.00000000000E+00  0.31257740598E+03  0.36056287358E+04  0.35920542793E+04 0.  0.
        1    1    3    3  502    0 -0.53007733423E+03 -0.28468771623E+03  0.18549261470E+04  0.19500718158E+04  0.50400001928E-02 0. -1.
       -1    1    3    3    0  502  0.53007733423E+03  0.28468771623E+03 -0.15423487410E+04  0.16555569199E+04  0.50400001928E-02 0.  1.
</event>
<event>
 5   0  0.2422436E-06  0.3527244E+04  0.7818609E-02  0.8107364E-01
       -2   -1    0    0    0  501  0.00000000000E+00  0.00000000000E+00  0.17907848495E+04  0.17907848495E+04  0.25500000920E-02 0.  1.
        2   -1    0    0  501    0  0.00000000000E+00  0.00000000000E+00 -0.17368708446E+04  0.17368708446E+04  0.25500000920E-02 0. -1.
    10030    2    1    2    0    0  0.00000000000E+00  0.00000000000E+00  0.53914004848E+02  0.35276556941E+04  0.35272436797E+04 0.  0.
        2    1    3    3  502    0 -0.61960526028E+03  0.12368761282E+04 -0.10670577691E+04  0.17471077579E+04  0.25500000920E-02 0. -1.
       -2    1    3    3    0  502  0.61960526028E+03 -0.12368761282E+04  0.11209717739E+04  0.17805479362E+04  0.25500000920E-02 0.  1.
</event>
<event>
 5   0  0.1903447E-06  0.1771918E+04  0.7818609E-02  0.8721377E-01
        2   -1    0    0  501    0  0.00000000000E+00  0.00000000000E+00  0.99866483125E+03  0.99866483126E+03  0.25500000920E-02 0.  1.
       -2   -1    0    0    0  501  0.00000000000E+00  0.00000000000E+00 -0.78597301452E+03  0.78597301453E+03  0.25500000920E-02 0. -1.
    10030    2    1    2    0    0  0.00000000000E+00  0.00000000000E+00  0.21269181673E+03  0.17846378458E+04  0.17719182915E+04 0.  0.
        4    1    3    3  502    0  0.26598336544E+03  0.81544304789E+03 -0.11711945053E+03  0.86568648692E+03  0.12699999809E+01 0.  1.
       -4    1    3    3    0  502 -0.26598336544E+03 -0.81544304789E+03  0.32981126726E+03  0.91895135886E+03  0.12699999809E+01 0. -1.
</event>
<event>
 5   0  0.1634374E-06  0.3486937E+04  0.7818609E-02  0.8116893E-01
        1   -1    0    0  501    0  0.00000000000E+00  0.00000000000E+00  0.21135395872E+04  0.21135395872E+04  0.50400001928E-02 0.  1.
       -1   -1    0    0    0  501  0.00000000000E+00  0.00000000000E+00 -0.14381952297E+04  0.14381952297E+04  0.50400001928E-02 0. -1.
    10030    2    1    2    0    0  0.00000000000E+00  0.00000000000E+00  0.67534435756E+03  0.35517348169E+04  0.34869370812E+04 0.  0.
        5    1    3    3  502    0  0.97856113713E+03 -0.99613464719E+03  0.14010037121E+04  0.19780545053E+04  0.46999998093E+01 0.  1.
       -5    1    3    3    0  502 -0.97856113713E+03  0.99613464719E+03 -0.72565935457E+03  0.15736803117E+04  0.46999998093E+01 0. -1.
</event>
<event>
 5   0  0.2382711E-06  0.3501240E+04  0.7818609E-02  0.8113496E-01
       -2   -1    0    0    0  501  0.00000000000E+00  0.00000000000E+00  0.14273707605E+04  0.14273707605E+04  0.25500000920E-02 0.  1.
        2   -1    0    0  501    0  0.00000000000E+00  0.00000000000E+00 -0.21470733450E+04  0.21470733450E+04  0.25500000920E-02 0. -1.
    10030    2    1    2    0    0  0.00000000000E+00  0.00000000000E+00 -0.71970258454E+03  0.35744441055E+04  0.35012396166E+04 0.  0.
        5    1    3    3  502    0  0.45541475011E+03  0.43202967420E+03 -0.20282149610E+04  0.21231415996E+04  0.46999998093E+01 0. -1.
       -5    1    3    3    0  502 -0.45541475011E+03 -0.43202967420E+03  0.13085123765E+04  0.14513025058E+04  0.46999998093E+01 0.  1.
</event>
<event>
 5   0  0.2422436E-06  0.2742245E+04  0.7818609E-02  0.8321427E-01
       -2   -1    0    0    0  501  0.00000000000E+00  0.00000000000E+00  0.17685777854E+04  0.17685777854E+04  0.25500000920E-02 0.  1.
        2   -1    0    0  501    0  0.00000000000E+00  0.00000000000E+00 -0.10629880481E+04  0.10629880481E+04  0.25500000920E-02 0. -1.
    10030    2    1    2    0    0  0.00000000000E+00  0.00000000000E+00  0.70558973727E+03  0.28315658336E+04  0.27422451007E+04 0.  0.
        2    1    3    3  502    0  0.92655554139E+03  0.80106887603E+03  0.98911447952E+03  0.15743455685E+04  0.25500000920E-02 0.  1.
       -2    1    3    3    0  502 -0.92655554139E+03 -0.80106887603E+03 -0.28352474225E+03  0.12572202651E+04  0.25500000920E-02 0. -1.
</event>
<event>
 5   0  0.1513502E-06  0.3387253E+04  0.7818609E-02  0.8141042E-01
       -2   -1    0    0    0  501  0.00000000000E+00  0.00000000000E+00  0.13965045718E+04  0.13965045718E+04  0.25500000920E-02 0. -1.
        2   -1    0    0  501    0  0.00000000000E+00  0.00000000000E+00 -0.20539644031E+04  0.20539644031E+04  0.25500000920E-02 0.  1.
    10030    2    1    2    0    0  0.00000000000E+00  0.00000000000E+00 -0.65745983133E+03  0.34504689749E+04  0.33872529750E+04 0.  0.
        3    1    3    3  502    0 -0.27724487877E+03  0.73645517950E+03  0.11989723090E+04  0.14341427970E+04  0.10100000352E+00 0. -1.
       -3    1    3    3    0  502  0.27724487877E+03 -0.73645517950E+03 -0.18564321403E+04  0.20163261780E+04  0.10100000352E+00 0.  1.
</event>
<event>
 5   0  0.1513502E-06  0.3587213E+04  0.7818609E-02  0.8093427E-01
       -2   -1    0    0    0  501  0.00000000000E+00  0.00000000000E+00  0.10509763580E+04  0.10509763580E+04  0.25500000920E-02 0. -1.
        2   -1    0    0  501    0  0.00000000000E+00  0.00000000000E+00 -0.30609866314E+04  0.30609866314E+04  0.25500000920E-02 0.  1.
    10030    2    1    2    0    0  0.00000000000E+00  0.00000000000E+00 -0.20100102734E+04  0.41119629894E+04  0.35872131700E+04 0.  0.
        3    1    3    3  502    0  0.70099951389E+03  0.81722856687E+03  0.63932703479E+03  0.12521988327E+04  0.10100000352E+00 0. -1.
       -3    1    3    3    0  502 -0.70099951389E+03 -0.81722856687E+03 -0.26493373082E+04  0.28597641567E+04  0.10100000352E+00 0.  1.
</event>
<event>
 5   0  0.2382711E-06  0.2080167E+04  0.7818609E-02  0.8570031E-01
        2   -1    0    0  501    0  0.00000000000E+00  0.00000000000E+00  0.80500196049E+03  0.80500196050E+03  0.25500000920E-02 0. -1.
       -2   -1    0    0    0  501  0.00000000000E+00  0.00000000000E+00 -0.13438152938E+04  0.13438152939E+04  0.25500000920E-02 0.  1.
    10030    2    1    2    0    0  0.00000000000E+00  0.00000000000E+00 -0.53881333336E+03  0.21488172543E+04  0.20801672491E+04 0.  0.
        5    1    3    3  502    0 -0.51129085936E+02  0.31483512423E+03  0.75322191289E+03  0.81798574494E+03  0.46999998093E+01 0. -1.
       -5    1    3    3    0  502  0.51129085936E+02 -0.31483512423E+03 -0.12920352462E+04  0.13308315094E+04  0.46999998093E+01 0.  1.
</event>
<event>
 5   0  0.2422436E-06  0.1769025E+04  0.7818609E-02  0.8722947E-01
        2   -1    0    0  501    0  0.00000000000E+00  0.00000000000E+00  0.72890173006E+03  0.72890173007E+03  0.25500000920E-02 0. -1.
       -2   -1    0    0    0  501  0.00000000000E+00  0.00000000000E+00 -0.10733442808E+04  0.10733442808E+04  0.25500000920E-02 0.  1.
    10030    2    1    2    0    0  0.00000000000E+00  0.00000000000E+00 -0.34444255073E+03  0.18022460109E+04  0.17690251589E+04 0.  0.
        2    1    3    3  502    0  0.26062220515E+03 -0.64405232497E+03 -0.72989021826E+03  0.10077038562E+04  0.25500000920E-02 0.  1.
       -2    1    3    3    0  502 -0.26062220515E+03  0.64405232497E+03  0.38544766753E+03  0.79454215465E+03  0.25500000920E-02 0. -1.
</event>
<event>
 5   0  0.2382711E-06  0.2663784E+04  0.7818609E-02  0.8346852E-01
       -2   -1    0    0    0  501  0.00000000000E+00  0.00000000000E+00  0.10026622756E+04  0.10026622756E+04  0.25500000920E-02 0.  1.
        2   -1    0    0  501    0  0.00000000000E+00  0.00000000000E+00 -0.17692258942E+04  0.17692258942E+04  0.25500000920E-02 0. -1.
    10030    2    1    2    0    0  0.00000000000E+00  0.00000000000E+00 -0.76656361856E+03  0.27718881698E+04  0.26637838210E+04 0.  0.
        5    1    3    3  502    0 -0.53951082657E+03  0.87491719491E+03  0.49806308741E+03  0.11422088071E+04  0.46999998093E+01 0.  1.
       -5    1    3    3    0  502  0.53951082657E+03 -0.87491719491E+03 -0.12646267060E+04  0.16296793628E+04  0.46999998093E+01 0. -1.
</event>
<event>
 5   0  0.1513502E-06  0.3503298E+04  0.7818609E-02  0.8113009E-01
       -2   -1    0    0    0  501  0.00000000000E+00  0.00000000000E+00  0.12846202258E+04  0.12846202258E+04  0.25500000920E-02 0.  1.
        2   -1    0    0  501    0  0.00000000000E+00  0.00000000000E+00 -0.23884678584E+04  0.23884678584E+04  0.25500000920E-02 0. -1.
    10030    2    1    2    0    0  0.00000000000E+00  0.00000000000E+00 -0.11038476326E+04  0.36730880842E+04  0.35032979431E+04 0.  0.
        3    1    3    3  502    0  0.10357103942E+04  0.19619043865E+03 -0.20186849033E+04  0.22773395570E+04  0.10100000352E+00 0. -1.
       -3    1    3    3    0  502 -0.10357103942E+04 -0.19619043865E+03  0.91483727073E+03  0.13957485271E+04  0.10100000352E+00 0.  1.
</event>
<event>
 5   0  0.7754556E-07  0.2218242E+04  0.7818609E-02  0.8510874E-01
       -1   -1    0    0    0  501  0.00000000000E+00  0.00000000000E+00  0.47711689342E+03  0.47711689344E+03  0.50400001928E-02 0.  1.
        1   -1    0    0  501    0  0.00000000000E+00  0.00000000000E+00 -0.25782966401E+04  0.25782966401E+04  0.50400001928E-02 0. -1.
    10030    2    1    2    0    0  0.00000000000E+00  0.00000000000E+00 -0.21011797467E+04  0.30554135335E+04  0.22182415408E+04 0.  0.
        4    1    3    3  502    0 -0.65631132087E+03  0.22017095090E+03  0.14301383831E+03  0.70687648735E+03  0.12699999809E+01 0.  1.
       -4    1    3    3    0  502  0.65631132087E+03 -0.22017095090E+03 -0.22441935850E+04  0.23485370462E+04  0.12699999809E+01 0. -1.
</event>
<event>
 5   0  0.8423692E-07  0.3741455E+04  0.7818609E-02  0.8058837E-01
       -1   -1    0    0    0  501  0.00000000000E+00  0.00000000000E+00  0.16495088619E+04  0.16495088619E+04  0.50400001928E-02 0.  1.
        1   -1    0    0  501    0  0.00000000000E+00  0.00000000000E+00 -0.21216137177E+04  0.21216137177E+04  0.50400001928E-02 0. -1.
    10030    2    1    2    0    0  0.00000000000E+00  0.00000000000E+00 -0.47210485584E+03  0.37711225796E+04  0.37414545989E+04 0.  0.
        2    1    3    3  502    0 -0.99141276924E+03  0.15589531943E+04 -0.53229848309E+03  0.19226481779E+04  0.25500000920E-02 0. -1.
       -2    1    3    3    0  502  0.99141276924E+03 -0.15589531943E+04  0.60193627250E+02  0.18484744017E+04  0.25500000920E-02 0.  1.
</event>
<event>
 5   0  0.7754556E-07  0.1834627E+04  0.7818609E-02  0.8688099E-01
       -1   -1    0    0    0  501  0.00000000000E+00  0.00000000000E+00  0.29372419956E+03  0.29372419960E+03  0.50400001928E-02 0.  1.
        1   -1    0    0  501    0  0.00000000000E+00  0.00000000000E+00 -0.28648094018E+04  0.28648094018E+04  0.50400001928E-02 0. -1.
    10030    2    1    2    0    0  0.00000000000E+00  0.00000000000E+00 -0.25710852022E+04  0.31585336014E+04  0.18346267724E+04 0.  0.
        4    1    3    3  502    0  0.15258681169E+03  0.75606274908E+03 -0.43069428104E+03  0.88340975332E+03  0.12699999809E+01 0.  1.
       -4    1    3    3    0  502 -0.15258681169E+03 -0.75606274908E+03 -0.21403909212E+04  0.22751238481E+04  0.12699999809E+01 0. -1.
</event>
<event>
 5   0  0.1513502E-06  0.3538746E+04  0.7818609E-02  0.8104669E-01
       -2   -1    0    0    0  501  0.00000000000E+00  0.00000000000E+00  0.12063393511E+04  0.12063393511E+04  0.25500000920E-02 0.  1.
        2   -1    0    0  501    0  0.00000000000E+00  0.00000000000E+00 -0.25951910688E+04  0.25951910688E+04  0.25500000920E-02 0. -1.
    10030    2    1    2    0    0  0.00000000000E+00  0.00000000000E+00 -0.13888517178E+04  0.38015304199E+04  0.35387461677E+04 0.  0.
        3    1    3    3  502    0 -0.12138076451E+04 -0.52206239066E+03 -0.19585887849E+04  0.23626146909E+04  0.10100000352E+00 0. -1.
       -3    1    3    3    0  502  0.12138076451E+04  0.52206239066E+03  0.56973706715E+03  0.14389157290E+04  0.10100000352E+00 0.  1.
</event>
<event>
 5   0  0.1634374E-06  0.2141318E+04  0.7818609E-02  0.8543258E-01
       -1   -1    0    0    0  501  0.00000000000E+00  0.00000000000E+00  0.98282800779E+03  0.98282800780E+03  0.50400001928E-02 0.  1.
        1   -1    0    0  501    0  0.00000000000E+00  0.00000000000E+00 -0.11663390676E+04  0.11663390676E+04  0.50400001928E-02 0. -1.
    10030    2    1    2    0    0  0.00000000000E+00  0.00000000000E+00 -0.18351105984E+03  0.21491670754E+04  0.21413180075E+04 0.  0.
        5    1    3    3  502    0 -0.41127423965E+03 -0.96865751589E+03  0.10605757392E+03  0.10576928582E+04  0.46999998093E+01 0.  1.
       -5    1    3    3    0  502  0.41127423965E+03  0.96865751589E+03 -0.28956863376E+03  0.10914742173E+04  0.46999998093E+01 0. -1.
</event>
<event>
 5   0  0.8452742E-07  0.3660966E+04  0.7818609E-02  0.8076668E-01
        1   -1    0    0  501    0  0.00000000000E+00  0.00000000000E+00  0.16422636458E+04  0.16422636458E+04  0.50400001928E-02 0. -1.
       -1   -1    0    0    0  501  0.00000000000E+00  0.00000000000E+00 -0.20402743282E+04  0.20402743282E+04  0.50400001928E-02 0.  1.
    10030    2    1    2    0    0  0.00000000000E+00  0.00000000000E+00 -0.39801068240E+03  0.36825379739E+04  0.36609661875E+04 0.  0.
        1    1    3    3  502    0 -0.14683734051E+04 -0.44960210993E+02  0.89945790841E+03  0.17225464889E+04  0.50400001928E-02 0. -1.
       -1    1    3    3    0  502  0.14683734051E+04  0.44960210993E+02 -0.12974685908E+04  0.19599914851E+04  0.50400001928E-02 0.  1.
</event>
<event>
 5   0  0.2536619E-06  0.2977938E+04  0.7818609E-02  0.8250059E-01
        2   -1    0    0  501    0  0.00000000000E+00  0.00000000000E+00  0.24570277983E+04  0.24570277983E+04  0.25500000920E-02 0.  1.
       -2   -1    0    0    0  501  0.00000000000E+00  0.00000000000E+00 -0.90232148922E+03  0.90232148922E+03  0.25500000920E-02 0. -1.
    10030    2    1    2    0    0  0.00000000000E+00  0.00000000000E+00  0.15547063091E+04  0.33593492875E+04  0.29779382009E+04 0.  0.
        1    1    3    3  502    0 -0.28737111444E+03  0.28735807003E+03  0.23932537124E+04  0.24275131616E+04  0.50400001928E-02 0.  1.
       -1    1    3    3    0  502  0.28737111444E+03 -0.28735807003E+03 -0.83854740335E+03  0.93183612589E+03  0.50400001928E-02 0. -1.
</event>
<event>
 5   0  0.8452742E-07  0.3586076E+04  0.7818609E-02  0.8093689E-01
       -1   -1    0    0    0  501  0.00000000000E+00  0.00000000000E+00  0.15855857366E+04  0.15855857366E+04  0.50400001928E-02 0.  1.
        1   -1    0    0  501    0  0.00000000000E+00  0.00000000000E+00 -0.20276328814E+04  0.20276328814E+04  0.50400001928E-02 0. -1.
    10030    2    1    2    0    0  0.00000000000E+00  0.00000000000E+00 -0.44204714478E+03  0.36132186181E+04  0.35860762825E+04 0.  0.
        1    1    3    3  502    0 -0.74343432348E+03 -0.57940889463E+02 -0.18639892748E+04  0.20076124518E+04  0.50400001928E-02 0. -1.
       -1    1    3    3    0  502  0.74343432348E+03  0.57940889463E+02  0.14219421300E+04  0.16056061663E+04  0.50400001928E-02 0.  1.
</event>
<event>
 5   0  0.2536619E-06  0.3610369E+04  0.7818609E-02  0.8088121E-01
        2   -1    0    0  501    0  0.00000000000E+00  0.00000000000E+00  0.19985438262E+04  0.19985438262E+04  0.25500000920E-02 0.  1.
       -2   -1    0    0    0  501  0.00000000000E+00  0.00000000000E+00 -0.16305324719E+04  0.16305324719E+04  0.25500000920E-02 0. -1.
    10030    2    1    2    0    0  0.00000000000E+00  0.00000000000E+00  0.36801135436E+03  0.36290762981E+04  0.36103687375E+04 0.  0.
        1    1    3    3  502    0  0.83976653789E+03  0.74797987648E+03 -0.12354050468E+04  0.16706008989E+04  0.50400001928E-02 0. -1.
       -1    1    3    3    0  502 -0.83976653789E+03 -0.74797987648E+03  0.16034164011E+04  0.19584753992E+04  0.50400001928E-02 0.  1.
</event>
<event>
 5   0  0.7754556E-07  0.1874809E+04  0.7818609E-02  0.8667498E-01
       -1   -1    0    0    0  501  0.00000000000E+00  0.00000000000E+00  0.76686428259E+03  0.76686428261E+03  0.50400001928E-02 0. -1.
        1   -1    0    0  501    0  0.00000000000E+00  0.00000000000E+00 -0.11458702786E+04  0.11458702787E+04  0.50400001928E-02 0.  1.
    10030    2    1    2    0    0  0.00000000000E+00  0.00000000000E+00 -0.37900599606E+03  0.19127345613E+04  0.18748087787E+04 0.  0.
        4    1    3    3  502    0  0.65480491307E+03  0.38936884970E+03  0.36775864025E+03  0.84594657378E+03  0.12699999809E+01 0. -1.
       -4    1    3    3    0  502 -0.65480491307E+03 -0.38936884970E+03 -0.74676463631E+03  0.10667879875E+04  0.12699999809E+01 0.  1.
</event>
<event>
 5   0  0.7754556E-07  0.2207808E+04  0.7818609E-02  0.8515185E-01
       -1   -1    0    0    0  501  0.00000000000E+00  0.00000000000E+00  0.78512839267E+03  0.78512839269E+03  0.50400001928E-02 0.  1.
        1   -1    0    0  501    0  0.00000000000E+00  0.00000000000E+00 -0.15521072948E+04  0.15521072948E+04  0.50400001928E-02 0. -1.
    10030    2    1    2    0    0  0.00000000000E+00  0.00000000000E+00 -0.76697890208E+03  0.23372356874E+04  0.22078075148E+04 0.  0.
        4    1    3    3  502    0  0.60166058853E+03 -0.91852946429E+03 -0.50377274144E+03  0.12080895780E+04  0.12699999809E+01 0.  1.
       -4    1    3    3    0  502 -0.60166058853E+03  0.91852946429E+03 -0.26320616064E+03  0.11291461094E+04  0.12699999809E+01 0. -1.
</event>
<event>
 5   0  0.1566576E-06  0.3511570E+04  0.7818609E-02  0.8111053E-01
       -2   -1    0    0    0  501  0.00000000000E+00  0.00000000000E+00  0.14275334950E+04  0.14275334950E+04  0.25500000920E-02 0. -1.
        2   -1    0    0  501    0  0.00000000000E+00  0.00000000000E+00 -0.21595160367E+04  0.21595160367E+04  0.25500000920E-02 0.  1.
    10030    2    1    2    0    0  0.00000000000E+00  0.00000000000E+00 -0.73198254173E+03  0.35870495317E+04  0.35115702900E+04 0.  0.
        4    1    3    3  502    0 -0.14182919753E+04 -0.10202872046E+04 -0.18835178589E+03  0.17572751962E+04  0.12699999809E+01 0.  1.
       -4    1    3    3    0  502  0.14182919753E+04  0.10202872046E+04 -0.54363075584E+03  0.18297743355E+04  0.12699999809E+01 0. -1.
</event>
<event>
 5   0  0.8452742E-07  0.3451830E+04  0.7818609E-02  0.8125301E-01
        1   -1    0    0  501    0  0.00000000000E+00  0.00000000000E+00  0.19782791491E+04  0.19782791492E+04  0.50400001928E-02 0.  1.
       -1   -1    0    0    0  501  0.00000000000E+00  0.00000000000E+00 -0.15057446143E+04  0.15057446143E+04  0.50400001928E-02 0. -1.
    10030    2    1    2    0    0  0.00000000000E+00  0.00000000000E+00  0.47253453484E+03  0.34840237635E+04  0.34518303402E+04 0.  0.
        1    1    3    3  502    0 -0.54043764001E+03 -0.14746050260E+04 -0.48612451715E+03  0.16440346321E+04  0.50400001928E-02 0. -1.
       -1    1    3    3    0  502  0.54043764001E+03  0.14746050260E+04  0.95865905200E+03  0.18399891313E+04  0.50400001928E-02 0.  1.
</event>
<event>
 5   0  0.7754556E-07  0.3737985E+04  0.7818609E-02  0.8059596E-01
        1   -1    0    0  501    0  0.00000000000E+00  0.00000000000E+00  0.20188674673E+04  0.20188674673E+04  0.50400001928E-02 0.  1.
       -1   -1    0    0    0  501  0.00000000000E+00  0.00000000000E+00 -0.17302441909E+04  0.17302441910E+04  0.50400001928E-02 0. -1.
    10030    2    1    2    0    0  0.00000000000E+00  0.00000000000E+00  0.28862327631E+03  0.37491116582E+04  0.37379853973E+04 0.  0.
        4    1    3    3  502    0 -0.12986891719E+04 -0.99228569495E+03 -0.76497808024E+03  0.18045546657E+04  0.12699999809E+01 0. -1.
       -4    1    3    3    0  502  0.12986891719E+04  0.99228569495E+03  0.10536013566E+04  0.19445569925E+04  0.12699999809E+01 0.  1.
</event>
<event>
 5   0  0.2536619E-06  0.3589257E+04  0.7818609E-02  0.8092957E-01
        2   -1    0    0  501    0  0.00000000000E+00  0.00000000000E+00  0.21112529695E+04  0.21112529695E+04  0.25500000920E-02 0. -1.
       -2   -1    0    0    0  501  0.00000000000E+00  0.00000000000E+00 -0.15254880632E+04  0.15254880632E+04  0.25500000920E-02 0.  1.
    10030    2    1    2    0    0  0.00000000000E+00  0.00000000000E+00  0.58576490634E+03  0.36367410327E+04  0.35892568609E+04 0.  0.
        1    1    3    3  502    0 -0.10885675880E+03 -0.45118817260E+03 -0.14636235235E+04  0.15354525000E+04  0.50400001928E-02 0.  1.
       -1    1    3    3    0  502  0.10885675880E+03  0.45118817260E+03  0.20493884299E+04  0.21012885327E+04  0.50400001928E-02 0. -1.
</event>
<event>
 5   0  0.1513502E-06  0.3548276E+04  0.7818609E-02  0.8102444E-01
       -2   -1    0    0    0  501  0.00000000000E+00  0.00000000000E+00  0.22168542841E+04  0.22168542841E+04  0.25500000920E-02 0. -1.
        2   -1    0    0  501    0  0.00000000000E+00  0.00000000000E+00 -0.14198339896E+04  0.14198339896E+04  0.25500000920E-02 0.  1.
    10030    2    1    2    0    0  0.00000000000E+00  0.00000000000E+00  0.79702029451E+03  0.36366882736E+04  0.35482756727E+04 0.  0.
        3    1    3    3  502    0  0.64976661987E+03  0.12351387067E+04  0.15211573282E+04  0.20643846329E+04  0.10100000352E+00 0. -1.
       -3    1    3    3    0  502 -0.64976661987E+03 -0.12351387067E+04 -0.72413703365E+03  0.15723036408E+04  0.10100000352E+00 0.  1.
</event>
<event>
 5   0  0.2422436E-06  0.3575563E+04  0.7818609E-02  0.8096112E-01
       -2   -1    0    0    0  501  0.00000000000E+00  0.00000000000E+00  0.11730133815E+04  0.11730133815E+04  0.25500000920E-02 0. -1.
        2   -1    0    0  501    0  0.00000000000E+00  0.00000000000E+00 -0.27247455050E+04  0.27247455050E+04  0.25500000920E-02 0.  1.
    10030    2    1    2    0    0  0.00000000000E+00  0.00000000000E+00 -0.15517321235E+04  0.38977588865E+04  0.35755631381E+04 0.  0.
        2    1    3    3  502    0 -0.13621947317E+04 -0.11499653537E+04 -0.92280121644E+03  0.20073756218E+04  0.25500000920E-02 0. -1.
       -2    1    3    3    0  502  0.13621947317E+04  0.11499653537E+04 -0.62893090702E+03  0.18903832647E+04  0.25500000920E-02 0.  1.
</event>
<event>
 5   0  0.2422436E-06  0.3322603E+04  0.7818609E-02  0.8157168E-01
        2   -1    0    0  501    0  0.00000000000E+00  0.00000000000E+00  0.13028876697E+04  0.13028876697E+04  0.25500000920E-02 0.  1.
       -2   -1    0    0    0  501  0.00000000000E+00  0.00000000000E+00 -0.21183118392E+04  0.21183118392E+04  0.25500000920E-02 0. -1.
    10030    2    1    2    0    0  0.00000000000E+00  0.00000000000E+00 -0.81542416955E+03  0.34211995089E+04  0.33226028206E+04 0.  0.
        2    1    3    3  502    0  0.11148058751E+04 -0.99908008336E+03 -0.11494846615E+04  0.18873971864E+04  0.25500000920E-02 0.  1.
       -2    1    3    3    0  502 -0.11148058751E+04  0.99908008336E+03  0.33406049196E+03  0.15338023225E+04  0.25500000920E-02 0. -1.
</event>
<event>
 5   0  0.2536619E-06  0.3430946E+04  0.7818609E-02  0.8130353E-01
        2   -1    0    0  501    0  0.00000000000E+00  0.00000000000E+00  0.16770655430E+04  0.16770655430E+04  0.25500000920E-02 0. -1.
       -2   -1    0    0    0  501  0.00000000000E+00  0.00000000000E+00 -0.17547596725E+04  0.17547596725E+04  0.25500000920E-02 0.  1.
    10030    2    1    2    0    0  0.00000000000E+00  0.00000000000E+00 -0.77694129500E+02  0.34318252154E+04  0.34309456323E+04 0.  0.
        1    1    3    3  502    0  0.31365438462E+03  0.10301984805E+04 -0.13745391723E+04  0.17461517455E+04  0.50400001928E-02 0.  1.
       -1    1    3    3    0  502 -0.31365438462E+03 -0.10301984805E+04  0.12968450428E+04  0.16856734699E+04  0.50400001928E-02 0. -1.
</event>
<event>
 5   0  0.2382711E-06  0.3536929E+04  0.7818609E-02  0.8105094E-01
       -2   -1    0    0    0  501  0.00000000000E+00  0.00000000000E+00  0.17978930743E+04  0.17978930743E+04  0.25500000920E-02 0. -1.
        2   -1    0    0  501    0  0.00000000000E+00  0.00000000000E+00 -0.17395178090E+04  0.17395178090E+04  0.25500000920E-02 0.  1.
    10030    2    1    2    0    0  0.00000000000E+00  0.00000000000E+00  0.58375265269E+02  0.35374108833E+04  0.35369291887E+04 0.  0.
        5    1    3    3  502    0  0.11748532018E+04  0.26044677437E+03 -0.12668794225E+04  0.17473174094E+04  0.46999998093E+01 0.  1.
       -5    1    3    3    0  502 -0.11748532018E+04 -0.26044677437E+03  0.13252546878E+04  0.17900934739E+04  0.46999998093E+01 0. -1.
</event>
<event>
 5   0  0.1566576E-06  0.2968266E+04  0.7818609E-02  0.8252851E-01
        2   -1    0    0  501    0  0.00000000000E+00  0.00000000000E+00  0.20585173760E+04  0.20585173760E+04  0.25500000920E-02 0.  1.
       -2   -1    0    0    0  501  0.00000000000E+00  0.00000000000E+00 -0.10700181086E+04  0.10700181086E+04  0.25500000920E-02 0. -1.
    10030    2    1    2    0    0  0.00000000000E+00  0.00000000000E+00  0.98849926740E+03  0.31285354847E+04  0.29682660725E+04 0.  0.
        4    1    3    3  502    0 -0.53013189493E+03 -0.59243936650E+03 -0.82666427726E+03  0.11469087449E+04  0.12699999809E+01 0. -1.
       -4    1    3    3    0  502  0.53013189493E+03  0.59243936650E+03  0.18151635447E+04  0.19816267398E+04  0.12699999809E+01 0.  1.
</event>
<event>
 5   0  0.8452742E-07  0.3604205E+04  0.7818609E-02  0.8089529E-01
        1   -1    0    0  501    0  0.00000000000E+00  0.00000000000E+00  0.23942064674E+04  0.23942064674E+04  0.50400001928E-02 0.  1.
       -1   -1    0    0    0  501  0.00000000000E+00  0.00000000000E+00 -0.13564296168E+04  0.13564296168E+04  0.50400001928E-02 0. -1.
    10030    2    1    2    0    0  0.00000000000E+00  0.00000000000E+00  0.10377768506E+04  0.37506360842E+04  0.36042045231E+04 0.  0.
        1    1    3    3  502    0  0.13694972727E+04  0.71504054780E+03 -0.44658039567E+03  0.16081790369E+04  0.50400001928E-02 0. -1.
       -1    1    3    3    0  502 -0.13694972727E+04 -0.71504054780E+03  0.14843572463E+04  0.21424570473E+04  0.50400001928E-02 0.  1.
</event>
<event>
 5   0  0.8452742E-07  0.3591905E+04  0.7818609E-02  0.8092348E-01
       -1   -1    0    0    0  501  0.00000000000E+00  0.00000000000E+00  0.12392845624E+04  0.12392845624E+04  0.50400001928E-02 0.  1.
        1   -1    0    0  501    0  0.00000000000E+00  0.00000000000E+00 -0.26026673956E+04  0.26026673956E+04  0.50400001928E-02 0. -1.
    10030    2    1    2    0    0  0.00000000000E+00  0.00000000000E+00 -0.13633828332E+04  0.38419519580E+04  0.35919050792E+04 0.  0.
        1    1    3    3  502    0 -0.68681433560E+03  0.16172041199E+04 -0.28379726967E+03  0.17797763869E+04  0.50400001928E-02 0.  1.
       -1    1    3    3    0  502  0.68681433560E+03 -0.16172041199E+04 -0.10795855635E+04  0.20621755711E+04  0.50400001928E-02 0. -1.
</event>
<event>
 5   0  0.8423692E-07  0.3665894E+04  0.7818609E-02  0.8075562E-01
        1   -1    0    0  501    0  0.00000000000E+00  0.00000000000E+00  0.17984609286E+04  0.17984609286E+04  0.50400001928E-02 0.  1.
       -1   -1    0    0    0  501  0.00000000000E+00  0.00000000000E+00 -0.18680948172E+04  0.18680948172E+04  0.50400001928E-02 0. -1.
    10030    2    1    2    0    0  0.00000000000E+00  0.00000000000E+00 -0.69633888644E+02  0.36665557458E+04  0.36658944555E+04 0.  0.
        2    1    3    3  502    0 -0.84656956579E+03 -0.90131437285E+03 -0.13880753940E+04  0.18589784635E+04  0.25500000920E-02 0. -1.
       -2    1    3    3    0  502  0.84656956579E+03  0.90131437285E+03  0.13184415054E+04  0.18075772823E+04  0.25500000920E-02 0.  1.
</event>
<event>
 5   0  0.1566576E-06  0.3651939E+04  0.7818609E-02  0.8078697E-01
        2   -1    0    0  501    0  0.00000000000E+00  0.00000000000E+00  0.17996681367E+04  0.17996681367E+04  0.25500000920E-02 0.  1.
       -2   -1    0    0    0  501  0.00000000000E+00  0.00000000000E+00 -0.18526551210E+04  0.18526551210E+04  0.25500000920E-02 0. -1.
    10030    2    1    2    0    0  0.00000000000E+00  0.00000000000E+00 -0.52986984310E+02  0.36523232576E+04  0.36519388765E+04 0.  0.
        4    1    3    3  502    0 -0.15246363305E+04 -0.97761555690E+03 -0.25871323563E+03  0.18295306143E+04  0.12699999809E+01 0.  1.
       -4    1    3    3    0  502  0.15246363305E+04  0.97761555690E+03  0.20572625132E+03  0.18227926434E+04  0.12699999809E+01 0. -1.
</event>
<event>
 5   0  0.8452742E-07  0.3368419E+04  0.7818609E-02  0.8145701E-01
        1   -1    0    0  501    0  0.00000000000E+00  0.00000000000E+00  0.18562279612E+04  0.18562279612E+04  0.50400001928E-02 0. -1.
       -1   -1    0    0    0  501  0.00000000000E+00  0.00000000000E+00 -0.15281324464E+04  0.15281324464E+04  0.50400001928E-02 0.  1.
    10030    2    1    2    0    0  0.00000000000E+00  0.00000000000E+00  0.32809551472E+03  0.33843604076E+04  0.33684193180E+04 0.  0.
        1    1    3    3  502    0 -0.81357431437E+03 -0.51540589567E+03  0.15522579051E+04  0.18267597013E+04  0.50400001928E-02 0. -1.
       -1    1    3    3    0  502  0.81357431437E+03  0.51540589567E+03 -0.12241623904E+04  0.15576007063E+04  0.50400001928E-02 0.  1.
</event>
<event>
 5   0  0.1513502E-06  0.3394968E+04  0.7818609E-02  0.8139142E-01
        2   -1    0    0  501    0  0.00000000000E+00  0.00000000000E+00  0.24839185046E+04  0.24839185046E+04  0.25500000920E-02 0. -1.
       -2   -1    0    0    0  501  0.00000000000E+00  0.00000000000E+00 -0.11600427619E+04  0.11600427619E+04  0.25500000920E-02 0.  1.
    10030    2    1    2    0    0  0.00000000000E+00  0.00000000000E+00  0.13238757427E+04  0.36439612665E+04  0.33949678540E+04 0.  0.
        3    1    3    3  502    0 -0.13939840971E+04  0.67302179434E+03  0.14096664502E+04  0.20936354768E+04  0.10100000352E+00 0. -1.
       -3    1    3    3    0  502  0.13939840971E+04 -0.67302179434E+03 -0.85790707522E+02  0.15503257897E+04  0.10100000352E+00 0.  1.
</event>
<event>
 5   0  0.8452742E-07  0.2910317E+04  0.7818609E-02  0.8269814E-01
        1   -1    0    0  501    0  0.00000000000E+00  0.00000000000E+00  0.19738642080E+04  0.19738642080E+04  0.50400001928E-02 0. -1.
       -1   -1    0    0    0  501  0.00000000000E+00  0.00000000000E+00 -0.10727620379E+04  0.10727620379E+04  0.50400001928E-02 0.  1.
    10030    2    1    2    0    0  0.00000000000E+00  0.00000000000E+00  0.90110217013E+03  0.30466262459E+04  0.29103172269E+04 0.  0.
        1    1    3    3  502    0 -0.77327818237E+03  0.10559005849E+03  0.17362342883E+04  0.19035802877E+04  0.50400001928E-02 0. -1.
       -1    1    3    3    0  502  0.77327818237E+03 -0.10559005849E+03 -0.83513211817E+03  0.11430459582E+04  0.50400001928E-02 0.  1.
</event>
<event>
 5   0  0.1566576E-06  0.3193337E+04  0.7818609E-02  0.8190579E-01
        2   -1    0    0  501    0  0.00000000000E+00  0.00000000000E+00  0.25477800314E+04  0.25477800314E+04  0.25500000920E-02 0. -1.
       -2   -1    0    0    0  501  0.00000000000E+00  0.00000000000E+00 -0.10006162152E+04  0.10006162152E+04  0.25500000920E-02 0.  1.
    10030    2    1    2    0    0  0.00000000000E+00  0.00000000000E+00  0.15471638162E+04  0.35483962466E+04  0.31933368204E+04 0.  0.
        4    1    3    3  502    0 -0.12254682476E+04  0.62584933704E+03 -0.12633501209E+03  0.13818183552E+04  0.12699999809E+01 0.  1.
       -4    1    3    3    0  502  0.12254682476E+04 -0.62584933704E+03  0.16734988283E+04  0.21665778914E+04  0.12699999809E+01 0. -1.
</event>
<event>
 5   0  0.8452742E-07  0.3620158E+04  0.7818609E-02  0.8085890E-01
       -1   -1    0    0    0  501  0.00000000000E+00  0.00000000000E+00  0.18292129588E+04  0.18292129588E+04  0.50400001928E-02 0. -1.
        1   -1    0    0  501    0  0.00000000000E+00  0.00000000000E+00 -0.17911450499E+04  0.17911450499E+04  0.50400001928E-02 0.  1.
    10030    2    1    2    0    0  0.00000000000E+00  0.00000000000E+00  0.38067908887E+02  0.36203580086E+04  0.36201578619E+04 0.  0.
        1    1    3    3  502    0 -0.43965134694E+03 -0.54265004972E+03  0.16890434482E+04  0.18277390824E+04  0.50400001928E-02 0. -1.
       -1    1    3    3    0  502  0.43965134694E+03  0.54265004972E+03 -0.16509755393E+04  0.17926189263E+04  0.50400001928E-02 0.  1.
</event>
<event>
 5   0  0.1513502E-06  0.3480673E+04  0.7818609E-02  0.8118386E-01
        2   -1    0    0  501    0  0.00000000000E+00  0.00000000000E+00  0.17271103329E+04  0.17271103329E+04  0.25500000920E-02 0.  1.
       -2   -1    0    0    0  501  0.00000000000E+00  0.00000000000E+00 -0.17536636839E+04  0.17536636839E+04  0.25500000920E-02 0. -1.
    10030    2    1    2    0    0  0.00000000000E+00  0.00000000000E+00 -0.26553351056E+02  0.34807740168E+04  0.34806727332E+04 0.  0.
        3    1    3    3  502    0 -0.11132518477E+04  0.77408381305E+03 -0.11042874467E+04  0.17487098676E+04  0.10100000352E+00 0. -1.
       -3    1    3    3    0  502  0.11132518477E+04 -0.77408381305E+03  0.10777340956E+04  0.17320641492E+04  0.10100000352E+00 0.  1.
</event>
<event>
 5   0  0.2446689E-06  0.1870451E+04  0.7818609E-02  0.8669706E-01
       -2   -1    0    0    0  501  0.00000000000E+00  0.00000000000E+00  0.44335543660E+03  0.44335543660E+03  0.25500000920E-02 0.  1.
        2   -1    0    0  501    0  0.00000000000E+00  0.00000000000E+00 -0.19727898381E+04  0.19727898381E+04  0.25500000920E-02 0. -1.
    10030    2    1    2    0    0  0.00000000000E+00  0.00000000000E+00 -0.15294344015E+04  0.24161452747E+04  0.18704513893E+04 0.  0.
        3    1    3    3  502    0  0.43457058109E+03 -0.51738274674E+03 -0.15999781991E+04  0.17367978421E+04  0.10100000352E+00 0. -1.
       -3    1    3    3    0  502 -0.43457058109E+03  0.51738274674E+03  0.70543797604E+02  0.67934743258E+03  0.10100000352E+00 0.  1.
</event>
<event>
 5   0  0.1513502E-06  0.2811174E+04  0.7818609E-02  0.8299808E-01
       -2   -1    0    0    0  501  0.00000000000E+00  0.00000000000E+00  0.11531255621E+04  0.11531255621E+04  0.25500000920E-02 0.  1.
        2   -1    0    0  501    0  0.00000000000E+00  0.00000000000E+00 -0.17133213593E+04  0.17133213593E+04  0.25500000920E-02 0. -1.
    10030    2    1    2    0    0  0.00000000000E+00  0.00000000000E+00 -0.56019579717E+03  0.28664469213E+04  0.28111738868E+04 0.  0.
        3    1    3    3  502    0  0.77265295544E+03 -0.11363386375E+04 -0.58157410524E+03  0.14921415947E+04  0.10100000352E+00 0. -1.
       -3    1    3    3    0  502 -0.77265295544E+03  0.11363386375E+04  0.21378308065E+02  0.13743053266E+04  0.10100000352E+00 0.  1.
</event>
<event>
 5   0  0.7754556E-07  0.3641423E+04  0.7818609E-02  0.8081069E-01
       -1   -1    0    0    0  501  0.00000000000E+00  0.00000000000E+00  0.20947280535E+04  0.20947280535E+04  0.50400001928E-02 0. -1.
        1   -1    0    0  501    0  0.00000000000E+00  0.00000000000E+00 -0.15825394975E+04  0.15825394975E+04  0.50400001928E-02 0.  1.
    10030    2    1    2    0    0  0.00000000000E+00  0.00000000000E+00  0.51218855600E+03  0.36772675510E+04  0.36414227336E+04 0.  0.
        4    1    3    3  502    0 -0.38178352842E+03  0.16890179025E+04  0.82416891245E+03  0.19177581043E+04  0.12699999809E+01 0. -1.
       -4    1    3    3    0  502  0.38178352842E+03 -0.16890179025E+04 -0.31198035645E+03  0.17595094467E+04  0.12699999809E+01 0.  1.
</event>
<event>
 5   0  0.8423692E-07  0.3505651E+04  0.7818609E-02  0.8112452E-01
        1   -1    0    0  501    0  0.00000000000E+00  0.00000000000E+00  0.19736830947E+04  0.19736830947E+04  0.50400001928E-02 0. -1.
       -1   -1    0    0    0  501  0.00000000000E+00  0.00000000000E+00 -0.15566825739E+04  0.15566825740E+04  0.50400001928E-02 0.  1.
    10030    2    1    2    0    0  0.00000000000E+00  0.00000000000E+00  0.41700052073E+03  0.35303656686E+04  0.35056514830E+04 0.  0.
        2    1    3    3  502    0 -0.48359348398E+03  0.13014355148E+04  0.12859969818E+04  0.18924548328E+04  0.25500000920E-02 0. -1.
       -2    1    3    3    0  502  0.48359348398E+03 -0.13014355148E+04 -0.86899646110E+03  0.16379108359E+04  0.25500000920E-02 0.  1.
</event>
<event>
 5   0  0.7754556E-07  0.2159744E+04  0.7818609E-02  0.8535373E-01
        1   -1    0    0  501    0  0.00000000000E+00  0.00000000000E+00  0.94741952316E+03  0.94741952318E+03  0.50400001928E-02 0.  1.
       -1   -1    0    0    0  501  0.00000000000E+00  0.00000000000E+00 -0.12308421435E+04  0.12308421435E+04  0.50400001928E-02 0. -1.
    10030    2    1    2    0    0  0.00000000000E+00  0.00000000000E+00 -0.28342262037E+03  0.21782616667E+04  0.21597443152E+04 0.  0.
        4    1    3    3  502    0 -0.67301281925E+03  0.43166791610E+03 -0.87377116788E+03  0.11843821644E+04  0.12699999809E+01 0. -1.
       -4    1    3    3    0  502  0.67301281925E+03 -0.43166791610E+03  0.59034854751E+03  0.99387950231E+03  0.12699999809E+01 0.  1.
</event>
<event>
 5   0  0.7707500E-07  0.3662988E+04  0.7818609E-02  0.8076214E-01
       -3   -1    0    0    0  501  0.00000000000E+00  0.00000000000E+00  0.25448082344E+04  0.25448082364E+04  0.10100000352E+00 0. -1.
        3   -1    0    0  501    0  0.00000000000E+00  0.00000000000E+00 -0.13181227255E+04  0.13181227293E+04  0.10100000352E+00 0.  1.
    10030    2    1    2    0    0  0.00000000000E+00  0.00000000000E+00  0.12266855090E+04  0.38629309658E+04  0.36629876206E+04 0.  0.
        3    1    3    3  502    0 -0.13623803911E+04  0.81466955700E+03 -0.35008998762E+03  0.16255244774E+04  0.10100000352E+00 0.  1.
       -3    1    3    3    0  502  0.13623803911E+04 -0.81466955700E+03  0.15767754966E+04  0.22374064883E+04  0.10100000352E+00 0. -1.
</event>
<event>
 5   0  0.1908273E-06  0.3447810E+04  0.7818609E-02  0.8126271E-01
        1   -1    0    0  501    0  0.00000000000E+00  0.00000000000E+00  0.18936574225E+04  0.18936574225E+04  0.50400001928E-02 0. -1.
       -1   -1    0    0    0  501  0.00000000000E+00  0.00000000000E+00 -0.15693699765E+04  0.15693699765E+04  0.50400001928E-02 0.  1.
    10030    2    1    2    0    0  0.00000000000E+00  0.00000000000E+00  0.32428744604E+03  0.34630273990E+04  0.34478103804E+04 0.  0.
        3    1    3    3  502    0  0.21377746161E+03  0.16092237279E+04  0.74483108747E+03  0.17860781530E+04  0.10100000352E+00 0. -1.
       -3    1    3    3    0  502 -0.21377746161E+03 -0.16092237279E+04 -0.42054364143E+03  0.16769492461E+04  0.10100000352E+00 0.  1.
</event>
<event>
 5   0  0.8423692E-07  0.1963817E+04  0.7818609E-02  0.8623727E-01
       -1   -1    0    0    0  501  0.00000000000E+00  0.00000000000E+00  0.61283665443E+03  0.61283665446E+03  0.50400001928E-02 0. -1.
        1   -1    0    0  501    0  0.00000000000E+00  0.00000000000E+00 -0.15732480762E+04  0.15732480762E+04  0.50400001928E-02 0.  1.
    10030    2    1    2    0    0  0.00000000000E+00  0.00000000000E+00 -0.96041142177E+03  0.21860847307E+04  0.19638167813E+04 0.  0.
        2    1    3    3  502    0  0.17809913373E+03  0.96491037211E+03 -0.43896146826E+03  0.10749225545E+04  0.25500000920E-02 0. -1.
       -2    1    3    3    0  502 -0.17809913373E+03 -0.96491037211E+03 -0.52144995351E+03  0.11111621761E+04  0.25500000920E-02 0.  1.
</event>
<event>
 5   0  0.2382711E-06  0.3530575E+04  0.7818609E-02  0.8106582E-01
        2   -1    0    0  501    0  0.00000000000E+00  0.00000000000E+00  0.21451437587E+04  0.21451437587E+04  0.25500000920E-02 0.  1.
       -2   -1    0    0    0  501  0.00000000000E+00  0.00000000000E+00 -0.14526952965E+04  0.14526952965E+04  0.25500000920E-02 0. -1.
    10030    2    1    2    0    0  0.00000000000E+00  0.00000000000E+00  0.69244846222E+03  0.35978390552E+04  0.35305751648E+04 0.  0.
        5    1    3    3  502    0 -0.56165007252E+03 -0.16556458008E+04  0.59501553754E+03  0.18468024804E+04  0.46999998093E+01 0.  1.
       -5    1    3    3    0  502  0.56165007252E+03  0.16556458008E+04  0.97432924678E+02  0.17510365748E+04  0.46999998093E+01 0. -1.
</event>
<event>
 5   0  0.2422436E-06  0.3565724E+04  0.7818609E-02  0.8098389E-01
       -2   -1    0    0    0  501  0.00000000000E+00  0.00000000000E+00  0.25409763796E+04  0.25409763796E+04  0.25500000920E-02 0. -1.
        2   -1    0    0  501    0  0.00000000000E+00  0.00000000000E+00 -0.12509350470E+04  0.12509350470E+04  0.25500000920E-02 0.  1.
    10030    2    1    2    0    0  0.00000000000E+00  0.00000000000E+00  0.12900413326E+04  0.37919114266E+04  0.35657237172E+04 0.  0.
        2    1    3    3  502    0 -0.44901199375E+03 -0.60607040216E+03 -0.10728985354E+04  0.13115046207E+04  0.25500000920E-02 0.  1.
       -2    1    3    3    0  502  0.44901199375E+03  0.60607040216E+03  0.23629398680E+04  0.24804068059E+04  0.25500000920E-02 0. -1.
</event>
<event>
 5   0  0.1908273E-06  0.3493596E+04  0.7818609E-02  0.8115309E-01
       -1   -1    0    0    0  501  0.00000000000E+00  0.00000000000E+00  0.11329776183E+04  0.11329776183E+04  0.50400001928E-02 0. -1.
        1   -1    0    0  501    0  0.00000000000E+00  0.00000000000E+00 -0.26931714421E+04  0.26931714421E+04  0.50400001928E-02 0.  1.
    10030    2    1    2    0    0  0.00000000000E+00  0.00000000000E+00 -0.15601938238E+04  0.38261490604E+04  0.34935958359E+04 0.  0.
        3    1    3    3  502    0 -0.52922909008E+03  0.28982787903E+02 -0.26029801793E+04  0.26563940325E+04  0.10100000352E+00 0.  1.
       -3    1    3    3    0  502  0.52922909008E+03 -0.28982787903E+02  0.10427863555E+04  0.11697550279E+04  0.10100000352E+00 0. -1.
</event>
<event>
 5   0  0.8452742E-07  0.3557977E+04  0.7818609E-02  0.8100186E-01
       -1   -1    0    0    0  501  0.00000000000E+00  0.00000000000E+00  0.18812189000E+04  0.18812189000E+04  0.50400001928E-02 0.  1.
        1   -1    0    0  501    0  0.00000000000E+00  0.00000000000E+00 -0.16823134415E+04  0.16823134415E+04  0.50400001928E-02 0. -1.
    10030    2    1    2    0    0  0.00000000000E+00  0.00000000000E+00  0.19890545853E+03  0.35635323415E+04  0.35579768644E+04 0.  0.
        1    1    3    3  502    0  0.16776756907E+04 -0.56780022823E+03  0.26646747036E+03  0.17910884220E+04  0.50400001928E-02 0. -1.
       -1    1    3    3    0  502 -0.16776756907E+04  0.56780022823E+03 -0.67562011833E+02  0.17724439196E+04  0.50400001928E-02 0.  1.
</event>
<event>
 5   0  0.2422436E-06  0.1786023E+04  0.7818609E-02  0.8713768E-01
        2   -1    0    0  501    0  0.00000000000E+00  0.00000000000E+00  0.19726982325E+04  0.19726982326E+04  0.25500000920E-02 0.  1.
       -2   -1    0    0    0  501  0.00000000000E+00  0.00000000000E+00 -0.40425312781E+03  0.40425312782E+03  0.25500000920E-02 0. -1.
    10030    2    1    2    0    0  0.00000000000E+00  0.00000000000E+00  0.15684451047E+04  0.23769513604E+04  0.17860228786E+04 0.  0.
        2    1    3    3  502    0 -0.57937582227E+02 -0.47568473769E+03  0.17870933957E+04  0.18502258073E+04  0.25500000920E-02 0.  1.
       -2    1    3    3    0  502  0.57937582227E+02  0.47568473769E+03 -0.21864829095E+03  0.52672555307E+03  0.25500000920E-02 0. -1.
</event>
<event>
 5   0  0.2382711E-06  0.2713647E+04  0.7818609E-02  0.8330591E-01
       -2   -1    0    0    0  501  0.00000000000E+00  0.00000000000E+00  0.97584745325E+03  0.97584745326E+03  0.25500000920E-02 0. -1.
        2   -1    0    0  501    0  0.00000000000E+00  0.00000000000E+00 -0.18865346660E+04  0.18865346660E+04  0.25500000920E-02 0.  1.
    10030    2    1    2    0    0  0.00000000000E+00  0.00000000000E+00 -0.91068721278E+03  0.28623821193E+04  0.27136470289E+04 0.  0.
        5    1    3    3  502    0 -0.87002291380E+03  0.59856889110E+01 -0.15535484057E+04  0.17805927209E+04  0.46999998093E+01 0.  1.
       -5    1    3    3    0  502  0.87002291380E+03 -0.59856889110E+01  0.64286119293E+03  0.10817893983E+04  0.46999998093E+01 0. -1.
</event>
<event>
 5   0  0.1908273E-06  0.3532081E+04  0.7818609E-02  0.8106229E-01
        1   -1    0    0  501    0  0.00000000000E+00  0.00000000000E+00  0.14847056880E+04  0.14847056880E+04  0.50400001928E-02 0.  1.
       -1   -1    0    0    0  501  0.00000000000E+00  0.00000000000E+00 -0.21006850400E+04  0.21006850400E+04  0.50400001928E-02 0. -1.
    10030    2    1    2    0    0  0.00000000000E+00  0.00000000000E+00 -0.61597935203E+03  0.35853907280E+04  0.35320809886E+04 0.  0.
        3    1    3    3  502    0  0.58018559929E+03  0.15878660048E+03  0.13775142710E+04  0.15031214492E+04  0.10100000352E+00 0.  1.
       -3    1    3    3    0  502 -0.58018559929E+03 -0.15878660048E+03 -0.19934936230E+04  0.20822692788E+04  0.10100000352E+00 0. -1.
</event>
<event>
 5   0  0.1566576E-06  0.3606349E+04  0.7818609E-02  0.8089039E-01
        2   -1    0    0  501    0  0.00000000000E+00  0.00000000000E+00  0.16427635030E+04  0.16427635031E+04  0.25500000920E-02 0. -1.
       -2   -1    0    0    0  501  0.00000000000E+00  0.00000000000E+00 -0.19792488519E+04  0.19792488519E+04  0.25500000920E-02 0.  1.
    10030    2    1    2    0    0  0.00000000000E+00  0.00000000000E+00 -0.33648534882E+03  0.36220123549E+04  0.36063487226E+04 0.  0.
        4    1    3    3  502    0  0.77950071510E+03 -0.71701308308E+03 -0.16339327296E+04  0.19471689459E+04  0.12699999809E+01 0.  1.
       -4    1    3    3    0  502 -0.77950071510E+03  0.71701308308E+03  0.12974473807E+04  0.16748434090E+04  0.12699999809E+01 0. -1.
</event>
<event>
 5   0  0.2422436E-06  0.1780859E+04  0.7818609E-02  0.8716545E-01
       -2   -1    0    0    0  501  0.00000000000E+00  0.00000000000E+00  0.33552679238E+03  0.33552679239E+03  0.25500000920E-02 0. -1.
        2   -1    0    0  501    0  0.00000000000E+00  0.00000000000E+00 -0.23630435446E+04  0.23630435446E+04  0.25500000920E-02 0.  1.
    10030    2    1    2    0    0  0.00000000000E+00  0.00000000000E+00 -0.20275167522E+04  0.26985703370E+04  0.17808586927E+04 0.  0.
        2    1    3    3  502    0  0.45220250763E+03 -0.72581260295E+02 -0.21708806562E+04  0.22186658087E+04  0.25500000920E-02 0.  1.
       -2    1    3    3    0  502 -0.45220250763E+03  0.72581260295E+02  0.14336390402E+03  0.47990452825E+03  0.25500000920E-02 0. -1.
</event>
<event>
 5   0  0.1566576E-06  0.3596780E+04  0.7818609E-02  0.8091230E-01
       -2   -1    0    0    0  501  0.00000000000E+00  0.00000000000E+00  0.15919130375E+04  0.15919130375E+04  0.25500000920E-02 0. -1.
        2   -1    0    0  501    0  0.00000000000E+00  0.00000000000E+00 -0.20316483092E+04  0.20316483092E+04  0.25500000920E-02 0.  1.
    10030    2    1    2    0    0  0.00000000000E+00  0.00000000000E+00 -0.43973527179E+03  0.36235613467E+04  0.35967804665E+04 0.  0.
        4    1    3    3  502    0 -0.89196196994E+02  0.12749364618E+04 -0.14945102821E+04  0.19664642227E+04  0.12699999809E+01 0.  1.
       -4    1    3    3    0  502  0.89196196994E+02 -0.12749364618E+04  0.10547750103E+04  0.16570971240E+04  0.12699999809E+01 0. -1.
</event>
<event>
 5   0  0.1513502E-06  0.3672027E+04  0.7818609E-02  0.8074189E-01
       -2   -1    0    0    0  501  0.00000000000E+00  0.00000000000E+00  0.22734866523E+04  0.22734866523E+04  0.25500000920E-02 0.  1.
        2   -1    0    0  501    0  0.00000000000E+00  0.00000000000E+00 -0.14827209596E+04  0.14827209596E+04  0.25500000920E-02 0. -1.
    10030    2    1    2    0    0  0.00000000000E+00  0.00000000000E+00  0.79076569264E+03  0.37562076119E+04  0.36720274022E+04 0.  0.
        3    1    3    3  502    0 -0.16157779618E+04  0.86079311318E+03  0.53728243444E+03  0.19079768422E+04  0.10100000352E+00 0. -1.
       -3    1    3    3    0  502  0.16157779618E+04 -0.86079311318E+03  0.25348325820E+03  0.18482307697E+04  0.10100000352E+00 0.  1.
</event>
<event>
 5   0  0.1566576E-06  0.3645231E+04  0.7818609E-02  0.8080209E-01
       -2   -1    0    0    0  501  0.00000000000E+00  0.00000000000E+00  0.11557083700E+04  0.11557083700E+04  0.25500000920E-02 0.  1.
        2   -1    0    0  501    0  0.00000000000E+00  0.00000000000E+00 -0.28743641306E+04  0.28743641306E+04  0.25500000920E-02 0. -1.
    10030    2    1    2    0    0  0.00000000000E+00  0.00000000000E+00 -0.17186557606E+04  0.40300725006E+04  0.36452306836E+04 0.  0.
        4    1    3    3  502    0  0.10988191425E+04 -0.86590053485E+03 -0.21508815463E+04  0.25658293558E+04  0.12699999809E+01 0. -1.
       -4    1    3    3    0  502 -0.10988191425E+04  0.86590053485E+03  0.43222578571E+03  0.14642431447E+04  0.12699999809E+01 0.  1.
</event>
<event>
 5   0  0.2536619E-06  0.3563001E+04  0.7818609E-02  0.8099020E-01
        2   -1    0    0  501    0  0.00000000000E+00  0.00000000000E+00  0.17715637035E+04  0.17715637035E+04  0.25500000920E-02 0.  1.
       -2   -1    0    0    0  501  0.00000000000E+00  0.00000000000E+00 -0.17914928743E+04  0.17914928743E+04  0.25500000920E-02 0. -1.
    10030    2    1    2    0    0  0.00000000000E+00  0.00000000000E+00 -0.19929170771E+02  0.35630565778E+04  0.35630008426E+04 0.  0.
        1    1    3    3  502    0 -0.47373791802E+02  0.13470425260E+04 -0.11748758962E+04  0.17880439633E+04  0.50400001928E-02 0. -1.
       -1    1    3    3    0  502  0.47373791802E+02 -0.13470425260E+04  0.11549467254E+04  0.17750126145E+04  0.50400001928E-02 0.  1.
</event>
<event>
 5   0  0.8423692E-07  0.3876451E+04  0.7818609E-02  0.8029945E-01
        1   -1    0    0  501    0  0.00000000000E+00  0.00000000000E+00  0.20092186970E+04  0.20092186970E+04  0.50400001928E-02 0. -1.
       -1   -1    0    0    0  501  0.00000000000E+00  0.00000000000E+00 -0.18697407301E+04  0.18697407301E+04  0.50400001928E-02 0.  1.
    10030    2    1    2    0    0  0.00000000000E+00  0.00000000000E+00  0.13947796690E+03  0.38789594271E+04  0.38764509714E+04 0.  0.
        2    1    3    3  502    0 -0.16794853504E+04  0.85550867691E+03 -0.38238510808E+03  0.19232224285E+04  0.25500000920E-02 0.  1.
       -2    1    3    3    0  502  0.16794853504E+04 -0.85550867691E+03  0.52186307498E+03  0.19557369986E+04  0.25500000920E-02 0. -1.
</event>
<event>
 5   0  0.2422436E-06  0.3586542E+04  0.7818609E-02  0.8093581E-01
        2   -1    0    0  501    0  0.00000000000E+00  0.00000000000E+00  0.26507211859E+04  0.26507211859E+04  0.25500000920E-02 0.  1.
       -2   -1    0    0    0  501  0.00000000000E+00  0.00000000000E+00 -0.12131874187E+04  0.12131874187E+04  0.25500000920E-02 0. -1.
    10030    2    1    2    0    0  0.00000000000E+00  0.00000000000E+00  0.14375337671E+04  0.38639086046E+04  0.35865423981E+04 0.  0.
        2    1    3    3  502    0  0.16833373434E+04  0.90842622820E+02  0.13775682766E+04  0.21770556608E+04  0.25500000920E-02 0.  1.
       -2    1    3    3    0  502 -0.16833373434E+04 -0.90842622820E+02  0.59965490543E+02  0.16868529438E+04  0.25500000920E-02 0. -1.
</event>
<event>
 5   0  0.1513502E-06  0.3550488E+04  0.7818609E-02  0.8101928E-01
        2   -1    0    0  501    0  0.00000000000E+00  0.00000000000E+00  0.23696412026E+04  0.23696412026E+04  0.25500000920E-02 0.  1.
       -2   -1    0    0    0  501  0.00000000000E+00  0.00000000000E+00 -0.13299443228E+04  0.13299443228E+04  0.25500000920E-02 0. -1.
    10030    2    1    2    0    0  0.00000000000E+00  0.00000000000E+00  0.10396968798E+04  0.36995855254E+04  0.35504877775E+04 0.  0.
        3    1    3    3  502    0 -0.19030949715E+03  0.46797503086E+01  0.23589748845E+04  0.23666436404E+04  0.10100000352E+00 0.  1.
       -3    1    3    3    0  502  0.19030949715E+03 -0.46797503086E+01 -0.13192780047E+04  0.13329418850E+04  0.10100000352E+00 0. -1.
</event>
<event>
 5   0  0.2382711E-06  0.3412052E+04  0.7818609E-02  0.8134955E-01
        2   -1    0    0  501    0  0.00000000000E+00  0.00000000000E+00  0.14566232051E+04  0.14566232051E+04  0.25500000920E-02 0.  1.
       -2   -1    0    0    0  501  0.00000000000E+00  0.00000000000E+00 -0.19981312424E+04  0.19981312424E+04  0.25500000920E-02 0. -1.
    10030    2    1    2    0    0  0.00000000000E+00  0.00000000000E+00 -0.54150803733E+03  0.34547544475E+04  0.34120517784E+04 0.  0.
        5    1    3    3  502    0  0.27145527719E+03 -0.43726746941E+03 -0.19176440520E+04  0.19855154513E+04  0.46999998093E+01 0. -1.
       -5    1    3    3    0  502 -0.27145527719E+03  0.43726746941E+03  0.13761360146E+04  0.14692389962E+04  0.46999998093E+01 0.  1.
</event>
<event>
 5   0  0.2536619E-06  0.3355952E+04  0.7818609E-02  0.8148803E-01
        2   -1    0    0  501    0  0.00000000000E+00  0.00000000000E+00  0.18429061874E+04  0.18429061874E+04  0.25500000920E-02 0.  1.
       -2   -1    0    0    0  501  0.00000000000E+00  0.00000000000E+00 -0.15278063232E+04  0.15278063232E+04  0.25500000920E-02 0. -1.
    10030    2    1    2    0    0  0.00000000000E+00  0.00000000000E+00  0.31509986428E+03  0.33707125106E+04  0.33559521607E+04 0.  0.
        1    1    3    3  502    0 -0.81648234649E+03  0.10406192954E+03 -0.13111164343E+04  0.15480628577E+04  0.50400001928E-02 0. -1.
       -1    1    3    3    0  502  0.81648234649E+03 -0.10406192954E+03  0.16262162985E+04  0.18226496528E+04  0.50400001928E-02 0.  1.
</event>
<event>
 5   0  0.7754556E-07  0.2043746E+04  0.7818609E-02  0.8586437E-01
        1   -1    0    0  501    0  0.00000000000E+00  0.00000000000E+00  0.88542484195E+03  0.88542484196E+03  0.50400001928E-02 0.  1.
       -1   -1    0    0    0  501  0.00000000000E+00  0.00000000000E+00 -0.11793485231E+04  0.11793485231E+04  0.50400001928E-02 0. -1.
    10030    2    1    2    0    0  0.00000000000E+00  0.00000000000E+00 -0.29392368118E+03  0.20647733651E+04  0.20437460505E+04 0.  0.
        4    1    3    3  502    0  0.59836609720E+03  0.30607901131E+03  0.63069565126E+03  0.92168593613E+03  0.12699999809E+01 0.  1.
       -4    1    3    3    0  502 -0.59836609720E+03 -0.30607901131E+03 -0.92461933244E+03  0.11430874290E+04  0.12699999809E+01 0. -1.
</event>
<event>
 5   0  0.2422436E-06  0.3417188E+04  0.7818609E-02  0.8133701E-01
        2   -1    0    0  501    0  0.00000000000E+00  0.00000000000E+00  0.27168049196E+04  0.27168049196E+04  0.25500000920E-02 0. -1.
       -2   -1    0    0    0  501  0.00000000000E+00  0.00000000000E+00 -0.10745320363E+04  0.10745320363E+04  0.25500000920E-02 0.  1.
    10030    2    1    2    0    0  0.00000000000E+00  0.00000000000E+00  0.16422728833E+04  0.37913369559E+04  0.34171882726E+04 0.  0.
        2    1    3    3  502    0  0.72203486037E+03  0.23940675819E+03 -0.87629076210E+03  0.11604031348E+04  0.25500000920E-02 0.  1.
       -2    1    3    3    0  502 -0.72203486037E+03 -0.23940675819E+03  0.25185636454E+04  0.26309338212E+04  0.25500000920E-02 0. -1.
</event>
<event>
 5   0  0.1908273E-06  0.3488770E+04  0.7818609E-02  0.8116456E-01
        1   -1    0    0  501    0  0.00000000000E+00  0.00000000000E+00  0.11167851255E+04  0.11167851256E+04  0.50400001928E-02 0. -1.
       -1   -1    0    0    0  501  0.00000000000E+00  0.00000000000E+00 -0.27246779781E+04  0.27246779781E+04  0.50400001928E-02 0.  1.
    10030    2    1    2    0    0  0.00000000000E+00  0.00000000000E+00 -0.16078928525E+04  0.38414631037E+04  0.34887704641E+04 0.  0.
        3    1    3    3  502    0  0.14009880012E+04  0.54505842353E+03  0.17039628421E+03  0.15129081164E+04  0.10100000352E+00 0.  1.
       -3    1    3    3    0  502 -0.14009880012E+04 -0.54505842353E+03 -0.17782891368E+04  0.23285549873E+04  0.10100000352E+00 0. -1.
</event>
<event>
 5   0  0.1513502E-06  0.3517215E+04  0.7818609E-02  0.8109722E-01
        2   -1    0    0  501    0  0.00000000000E+00  0.00000000000E+00  0.18745801798E+04  0.18745801798E+04  0.25500000920E-02 0.  1.
       -2   -1    0    0    0  501  0.00000000000E+00  0.00000000000E+00 -0.16498091922E+04  0.16498091922E+04  0.25500000920E-02 0. -1.
    10030    2    1    2    0    0  0.00000000000E+00  0.00000000000E+00  0.22477098760E+03  0.35243893720E+04  0.35172145867E+04 0.  0.
        3    1    3    3  502    0  0.16218039141E+03 -0.16321635848E+04  0.74806049348E+03  0.18027354102E+04  0.10100000352E+00 0. -1.
       -3    1    3    3    0  502 -0.16218039141E+03  0.16321635848E+04 -0.52328950588E+03  0.17216539618E+04  0.10100000352E+00 0.  1.
</event>
<event>
 5   0  0.8423692E-07  0.3763776E+04  0.7818609E-02  0.8053973E-01
        1   -1    0    0  501    0  0.00000000000E+00  0.00000000000E+00  0.12031617427E+04  0.12031617427E+04  0.50400001928E-02 0. -1.
       -1   -1    0    0    0  501  0.00000000000E+00  0.00000000000E+00 -0.29434970047E+04  0.29434970047E+04  0.50400001928E-02 0.  1.
    10030    2    1    2    0    0  0.00000000000E+00  0.00000000000E+00 -0.17403352620E+04  0.41466587474E+04  0.37637762877E+04 0.  0.
        2    1    3    3  502    0 -0.10570618629E+04  0.10584817458E+04  0.38780132147E+03  0.15453650873E+04  0.25500000920E-02 0. -1.
       -2    1    3    3    0  502  0.10570618629E+04 -0.10584817458E+04 -0.21281365835E+04  0.26012936601E+04  0.25500000920E-02 0.  1.
</event>
<event>
 5   0  0.2564751E-06  0.1795945E+04  0.7818609E-02  0.8708459E-01
       -2   -1    0    0    0  501  0.00000000000E+00  0.00000000000E+00  0.65425734154E+03  0.65425734155E+03  0.25500000920E-02 0. -1.
        2   -1    0    0  501    0  0.00000000000E+00  0.00000000000E+00 -0.12324727191E+04  0.12324727191E+04  0.25500000920E-02 0.  1.
    10030    2    1    2    0    0  0.00000000000E+00  0.00000000000E+00 -0.57821537753E+03  0.18867300606E+04  0.17959446815E+04 0.  0.
        4    1    3    3  502    0  0.27562139972E+03 -0.12825616551E+03  0.59855185655E+03  0.67132908313E+03  0.12699999809E+01 0. -1.
       -4    1    3    3    0  502 -0.27562139972E+03  0.12825616551E+03 -0.11767672341E+04  0.12154009775E+04  0.12699999809E+01 0.  1.
</event>
<event>
 5   0  0.7754556E-07  0.1978639E+04  0.7818609E-02  0.8616673E-01
        1   -1    0    0  501    0  0.00000000000E+00  0.00000000000E+00  0.11475802467E+04  0.11475802467E+04  0.50400001928E-02 0.  1.
       -1   -1    0    0    0  501  0.00000000000E+00  0.00000000000E+00 -0.85288422966E+03  0.85288422968E+03  0.50400001928E-02 0. -1.
    10030    2    1    2    0    0  0.00000000000E+00  0.00000000000E+00  0.29469601702E+03  0.20004644764E+04  0.19786390218E+04 0.  0.
        4    1    3    3  502    0 -0.91073999354E+03  0.36685065795E+03  0.27003205789E+03  0.10183052913E+04  0.12699999809E+01 0.  1.
       -4    1    3    3    0  502  0.91073999354E+03 -0.36685065795E+03  0.24663959134E+02  0.98215918508E+03  0.12699999809E+01 0. -1.
</event>
<event>
 5   0  0.2536619E-06  0.3416050E+04  0.7818609E-02  0.8133978E-01
       -2   -1    0    0    0  501  0.00000000000E+00  0.00000000000E+00  0.27401934553E+04  0.27401934553E+04  0.25500000920E-02 0.  1.
        2   -1    0    0  501    0  0.00000000000E+00  0.00000000000E+00 -0.10646510078E+04  0.10646510078E+04  0.25500000920E-02 0. -1.
    10030    2    1    2    0    0  0.00000000000E+00  0.00000000000E+00  0.16755424475E+04  0.38048444631E+04  0.34160501891E+04 0.  0.
        1    1    3    3  502    0 -0.10464387278E+04  0.10217247127E+04  0.18204520799E+04  0.23351661986E+04  0.50400001928E-02 0.  1.
       -1    1    3    3    0  502  0.10464387278E+04 -0.10217247127E+04 -0.14490963234E+03  0.14696782645E+04  0.50400001928E-02 0. -1.
</event>
<event>
 5   0  0.8423692E-07  0.3599124E+04  0.7818609E-02  0.8090692E-01
        1   -1    0    0  501    0  0.00000000000E+00  0.00000000000E+00  0.22329917906E+04  0.22329917907E+04  0.50400001928E-02 0.  1.
       -1   -1    0    0    0  501  0.00000000000E+00  0.00000000000E+00 -0.14502618101E+04  0.14502618101E+04  0.50400001928E-02 0. -1.
    10030    2    1    2    0    0  0.00000000000E+00  0.00000000000E+00  0.78272998056E+03  0.36832536007E+04  0.35991236246E+04 0.  0.
        2    1    3    3  502    0  0.42786516401E+03  0.16910490395E+04 -0.61364026050E+02  0.17454171410E+04  0.25500000920E-02 0. -1.
       -2    1    3    3    0  502 -0.42786516401E+03 -0.16910490395E+04  0.84409400661E+03  0.19378364597E+04  0.25500000920E-02 0.  1.
</event>
<event>
 5   0  0.1513502E-06  0.3204398E+04  0.7818609E-02  0.8187657E-01
       -2   -1    0    0    0  501  0.00000000000E+00  0.00000000000E+00  0.11286926415E+04  0.11286926415E+04  0.25500000920E-02 0.  1.
        2   -1    0    0  501    0  0.00000000000E+00  0.00000000000E+00 -0.22743493334E+04  0.22743493334E+04  0.25500000920E-02 0. -1.
    10030    2    1    2    0    0  0.00000000000E+00  0.00000000000E+00 -0.11456566918E+04  0.34030419749E+04  0.32043978260E+04 0.  0.
        3    1    3    3  502    0 -0.47695831487E+03 -0.17449702543E+03  0.10409449362E+04  0.11582334896E+04  0.10100000352E+00 0.  1.
       -3    1    3    3    0  502  0.47695831487E+03  0.17449702543E+03 -0.21866016280E+04  0.22448084853E+04  0.10100000352E+00 0. -1.
</event>
<event>
 5   0  0.8452742E-07  0.1890648E+04  0.7818609E-02  0.8659525E-01
        1   -1    0    0  501    0  0.00000000000E+00  0.00000000000E+00  0.14165594799E+04  0.14165594799E+04  0.50400001928E-02 0.  1.
       -1   -1    0    0    0  501  0.00000000000E+00  0.00000000000E+00 -0.63085074587E+03  0.63085074589E+03  0.50400001928E-02 0. -1.
    10030    2    1    2    0    0  0.00000000000E+00  0.00000000000E+00  0.78570873402E+03  0.20474102258E+04  0.18906481476E+04 0.  0.
        1    1    3    3  502    0  0.84891932645E+03  0.12105236032E+02  0.84304868214E+03  0.11964704928E+04  0.50400001928E-02 0.  1.
       -1    1    3    3    0  502 -0.84891932645E+03 -0.12105236032E+02 -0.57339948126E+02  0.85093973302E+03  0.50400001928E-02 0. -1.
</event>
<event>
 5   0  0.2536619E-06  0.3605771E+04  0.7818609E-02  0.8089171E-01
        2   -1    0    0  501    0  0.00000000000E+00  0.00000000000E+00  0.30284127659E+04  0.30284127659E+04  0.25500000920E-02 0.  1.
       -2   -1    0    0    0  501  0.00000000000E+00  0.00000000000E+00 -0.10733003501E+04  0.10733003501E+04  0.25500000920E-02 0. -1.
    10030    2    1    2    0    0  0.00000000000E+00  0.00000000000E+00  0.19551124158E+04  0.41017131159E+04  0.36057711973E+04 0.  0.
        1    1    3    3  502    0 -0.17090436680E+04  0.24466705806E+03  0.38679630023E+03  0.17692664034E+04  0.50400001928E-02 0. -1.
       -1    1    3    3    0  502  0.17090436680E+04 -0.24466705806E+03  0.15683161156E+04  0.23324467125E+04  0.50400001928E-02 0.  1.
</event>
<event>
 5   0  0.8423692E-07  0.3534833E+04  0.7818609E-02  0.8105584E-01
       -1   -1    0    0    0  501  0.00000000000E+00  0.00000000000E+00  0.12054576127E+04  0.12054576127E+04  0.50400001928E-02 0.  1.
        1   -1    0    0  501    0  0.00000000000E+00  0.00000000000E+00 -0.25913488428E+04  0.25913488428E+04  0.50400001928E-02 0. -1.
    10030    2    1    2    0    0  0.00000000000E+00  0.00000000000E+00 -0.13858912301E+04  0.37968064555E+04  0.35348330596E+04 0.  0.
        2    1    3    3  502    0  0.10654566183E+04 -0.61429738039E+03 -0.20563496111E+04  0.23960661093E+04  0.25500000920E-02 0. -1.
       -2    1    3    3    0  502 -0.10654566183E+04  0.61429738039E+03  0.67045838098E+03  0.14007403463E+04  0.25500000920E-02 0.  1.
</event>
<event>
 5   0  0.2536619E-06  0.1956071E+04  0.7818609E-02  0.8627439E-01
        2   -1    0    0  501    0  0.00000000000E+00  0.00000000000E+00  0.15416864964E+04  0.15416864964E+04  0.25500000920E-02 0.  1.
       -2   -1    0    0    0  501  0.00000000000E+00  0.00000000000E+00 -0.62045913399E+03  0.62045913400E+03  0.25500000920E-02 0. -1.
    10030    2    1    2    0    0  0.00000000000E+00  0.00000000000E+00  0.92122736236E+03  0.21621456304E+04  0.19560710298E+04 0.  0.
        1    1    3    3  502    0  0.32513660706E+03  0.76950175653E+03 -0.10160356155E+03  0.84152840136E+03  0.50400001928E-02 0. -1.
       -1    1    3    3    0  502 -0.32513660706E+03 -0.76950175653E+03  0.10228309239E+04  0.13206172290E+04  0.50400001928E-02 0.  1.
</event>
<event>
 5   0  0.8423692E-07  0.3687224E+04  0.7818609E-02  0.8070799E-01
        1   -1    0    0  501    0  0.00000000000E+00  0.00000000000E+00  0.12998891592E+04  0.12998891592E+04  0.50400001928E-02 0. -1.
       -1   -1    0    0    0  501  0.00000000000E+00  0.00000000000E+00 -0.26147652188E+04  0.26147652188E+04  0.50400001928E-02 0.  1.
    10030    2    1    2    0    0  0.00000000000E+00  0.00000000000E+00 -0.13148760596E+04  0.39146543780E+04  0.36872238672E+04 0.  0.
        2    1    3    3  502    0 -0.45612904887E+03  0.17849263520E+04 -0.58320255079E+03  0.19323925601E+04  0.25500000920E-02 0.  1.
       -2    1    3    3    0  502  0.45612904887E+03 -0.17849263520E+04 -0.73167350882E+03  0.19822618179E+04  0.25500000920E-02 0. -1.
</event>
<event>
 5   0  0.7707500E-07  0.3725131E+04  0.7818609E-02  0.8062415E-01
       -3   -1    0    0    0  501  0.00000000000E+00  0.00000000000E+00  0.18143659027E+04  0.18143659055E+04  0.10100000352E+00 0. -1.
        3   -1    0    0  501    0  0.00000000000E+00  0.00000000000E+00 -0.19120457479E+04  0.19120457506E+04  0.10100000352E+00 0.  1.
    10030    2    1    2    0    0  0.00000000000E+00  0.00000000000E+00 -0.97679845205E+02  0.37264116562E+04  0.37251312029E+04 0.  0.
        5    1    3    3  502    0 -0.13812696808E+04  0.11734692364E+04 -0.47816404025E+03  0.18744596339E+04  0.46999998093E+01 0.  1.
       -5    1    3    3    0  502  0.13812696808E+04 -0.11734692364E+04  0.38048419505E+03  0.18519520222E+04  0.46999998093E+01 0. -1.
</event>
<event>
 5   0  0.8423692E-07  0.3385473E+04  0.7818609E-02  0.8141481E-01
       -1   -1    0    0    0  501  0.00000000000E+00  0.00000000000E+00  0.29885642461E+04  0.29885642461E+04  0.50400001928E-02 0.  1.
        1   -1    0    0  501    0  0.00000000000E+00  0.00000000000E+00 -0.95877393052E+03  0.95877393053E+03  0.50400001928E-02 0. -1.
    10030    2    1    2    0    0  0.00000000000E+00  0.00000000000E+00  0.20297903156E+04  0.39473381766E+04  0.33854733724E+04 0.  0.
        2    1    3    3  502    0  0.58157709699E+03 -0.14416534444E+04  0.17959696321E+04  0.23753112413E+04  0.25500000920E-02 0. -1.
       -2    1    3    3    0  502 -0.58157709699E+03  0.14416534444E+04  0.23382068343E+03  0.15720269353E+04  0.25500000920E-02 0.  1.
</event>
<event>
 5   0  0.1908273E-06  0.2692520E+04  0.7818609E-02  0.8337436E-01
       -1   -1    0    0    0  501  0.00000000000E+00  0.00000000000E+00  0.14181659045E+04  0.14181659045E+04  0.50400001928E-02 0.  1.
        1   -1    0    0  501    0  0.00000000000E+00  0.00000000000E+00 -0.12779999220E+04  0.12779999221E+04  0.50400001928E-02 0. -1.
    10030    2    1    2    0    0  0.00000000000E+00  0.00000000000E+00  0.14016598246E+03  0.26961658266E+04  0.26925199464E+04 0.  0.
        3    1    3    3  502    0  0.94344415166E+03 -0.92839870509E+03  0.31618983560E+03  0.13608773072E+04  0.10100000352E+00 0. -1.
       -3    1    3    3    0  502 -0.94344415166E+03  0.92839870509E+03 -0.17602385314E+03  0.13352885194E+04  0.10100000352E+00 0.  1.
</event>
<event>
 5   0  0.2422436E-06  0.3675171E+04  0.7818609E-02  0.8073487E-01
        2   -1    0    0  501    0  0.00000000000E+00  0.00000000000E+00  0.29548103439E+04  0.29548103439E+04  0.25500000920E-02 0. -1.
       -2   -1    0    0    0  501  0.00000000000E+00  0.00000000000E+00 -0.11427878069E+04  0.11427878069E+04  0.25500000920E-02 0.  1.
    10030    2    1    2    0    0  0.00000000000E+00  0.00000000000E+00  0.18120225371E+04  0.40975981508E+04  0.36751714151E+04 0.  0.
        2    1    3    3  502    0  0.90150990750E+03 -0.13644433264E+04  0.18403658442E+04  0.24619854071E+04  0.25500000920E-02 0. -1.
       -2    1    3    3    0  502 -0.90150990750E+03  0.13644433264E+04 -0.28343307148E+02  0.16356127437E+04  0.25500000920E-02 0.  1.
</event>
<event>
 5   0  0.1566576E-06  0.3622333E+04  0.7818609E-02  0.8085395E-01
        2   -1    0    0  501    0  0.00000000000E+00  0.00000000000E+00  0.24698720327E+04  0.24698720327E+04  0.25500000920E-02 0. -1.
       -2   -1    0    0    0  501  0.00000000000E+00  0.00000000000E+00 -0.13281351976E+04  0.13281351976E+04  0.25500000920E-02 0.  1.
    10030    2    1    2    0    0  0.00000000000E+00  0.00000000000E+00  0.11417368351E+04  0.37980072302E+04  0.36223329389E+04 0.  0.
        4    1    3    3  502    0  0.97792312217E+03 -0.11553508768E+04  0.16136639867E+04  0.22124833008E+04  0.12699999809E+01 0. -1.
       -4    1    3    3    0  502 -0.97792312217E+03  0.11553508768E+04 -0.47192715159E+03  0.15855239294E+04  0.12699999809E+01 0.  1.
</event>
<event>
 5   0  0.1513502E-06  0.3484677E+04  0.7818609E-02  0.8117431E-01
       -2   -1    0    0    0  501  0.00000000000E+00  0.00000000000E+00  0.11917940667E+04  0.11917940667E+04  0.25500000920E-02 0.  1.
        2   -1    0    0  501    0  0.00000000000E+00  0.00000000000E+00 -0.25472040280E+04  0.25472040280E+04  0.25500000920E-02 0. -1.
    10030    2    1    2    0    0  0.00000000000E+00  0.00000000000E+00 -0.13554099613E+04  0.37389980947E+04  0.34846765401E+04 0.  0.
        3    1    3    3  502    0  0.10715939077E+04  0.48847681156E+03  0.70007330210E+03  0.13700458886E+04  0.10100000352E+00 0.  1.
       -3    1    3    3    0  502 -0.10715939077E+04 -0.48847681156E+03 -0.20554832634E+04  0.23689522061E+04  0.10100000352E+00 0. -1.
</event>
<event>
 5   0  0.1513502E-06  0.3606035E+04  0.7818609E-02  0.8089111E-01
        2   -1    0    0  501    0  0.00000000000E+00  0.00000000000E+00  0.15745525116E+04  0.15745525116E+04  0.25500000920E-02 0.  1.
       -2   -1    0    0    0  501  0.00000000000E+00  0.00000000000E+00 -0.20646323369E+04  0.20646323369E+04  0.25500000920E-02 0. -1.
    10030    2    1    2    0    0  0.00000000000E+00  0.00000000000E+00 -0.49007982529E+03  0.36391848485E+04  0.36060349591E+04 0.  0.
        3    1    3    3  502    0 -0.96599560097E+03 -0.14889460801E+04  0.75311820954E+02  0.17764514660E+04  0.10100000352E+00 0.  1.
       -3    1    3    3    0  502  0.96599560097E+03  0.14889460801E+04 -0.56539164624E+03  0.18627333825E+04  0.10100000352E+00 0. -1.
</event>
<event>
 5   0  0.8423692E-07  0.1927445E+04  0.7818609E-02  0.8641314E-01
       -1   -1    0    0    0  501  0.00000000000E+00  0.00000000000E+00  0.10540436768E+04  0.10540436768E+04  0.50400001928E-02 0.  1.
        1   -1    0    0  501    0  0.00000000000E+00  0.00000000000E+00 -0.88114120837E+03  0.88114120839E+03  0.50400001928E-02 0. -1.
    10030    2    1    2    0    0  0.00000000000E+00  0.00000000000E+00  0.17290246843E+03  0.19351848852E+04  0.19274452719E+04 0.  0.
        2    1    3    3  502    0  0.55468026015E+03 -0.96047940069E+02  0.87181080461E+03  0.10377617630E+04  0.25500000920E-02 0.  1.
       -2    1    3    3    0  502 -0.55468026015E+03  0.96047940069E+02 -0.69890833618E+03  0.89742312216E+03  0.25500000920E-02 0. -1.
</event>
<event>
 5   0  0.7754556E-07  0.3580768E+04  0.7818609E-02  0.8094911E-01
        1   -1    0    0  501    0  0.00000000000E+00  0.00000000000E+00  0.19087676488E+04  0.19087676488E+04  0.50400001928E-02 0.  1.
       -1   -1    0    0    0  501  0.00000000000E+00  0.00000000000E+00 -0.16793427413E+04  0.16793427413E+04  0.50400001928E-02 0. -1.
    10030    2    1    2    0    0  0.00000000000E+00  0.00000000000E+00  0.22942490746E+03  0.35881103901E+04  0.35807681276E+04 0.  0.
        4    1    3    3  502    0  0.40836537962E+03 -0.64050939823E+03 -0.15098641438E+04  0.16901792562E+04  0.12699999809E+01 0. -1.
       -4    1    3    3    0  502 -0.40836537962E+03  0.64050939823E+03  0.17392890512E+04  0.18979311339E+04  0.12699999809E+01 0.  1.
</event>
<event>
 5   0  0.2536619E-06  0.3511874E+04  0.7818609E-02  0.8110982E-01
        2   -1    0    0  501    0  0.00000000000E+00  0.00000000000E+00  0.20457709238E+04  0.20457709238E+04  0.25500000920E-02 0. -1.
       -2   -1    0    0    0  501  0.00000000000E+00  0.00000000000E+00 -0.15071651889E+04  0.15071651889E+04  0.25500000920E-02 0.  1.
    10030    2    1    2    0    0  0.00000000000E+00  0.00000000000E+00  0.53860573495E+03  0.35529361127E+04  0.35118739845E+04 0.  0.
        1    1    3    3  502    0  0.63054147755E+03 -0.16187151612E+04  0.52821190979E+03  0.18157172549E+04  0.50400001928E-02 0. -1.
       -1    1    3    3    0  502 -0.63054147755E+03  0.16187151612E+04  0.10393825163E+02  0.17372188578E+04  0.50400001928E-02 0.  1.
</event>
<event>
 5   0  0.2536619E-06  0.3694258E+04  0.7818609E-02  0.8069236E-01
        2   -1    0    0  501    0  0.00000000000E+00  0.00000000000E+00  0.22937627273E+04  0.22937627273E+04  0.25500000920E-02 0.  1.
       -2   -1    0    0    0  501  0.00000000000E+00  0.00000000000E+00 -0.14874620146E+04  0.14874620146E+04  0.25500000920E-02 0. -1.
    10030    2    1    2    0    0  0.00000000000E+00  0.00000000000E+00  0.80630071265E+03  0.37812247419E+04  0.36942576669E+04 0.  0.
        1    1    3    3  502    0 -0.16986687471E+04  0.72028905242E+03  0.31396064652E+03  0.18715937377E+04  0.50400001928E-02 0. -1.
       -1    1    3    3    0  502  0.16986687471E+04 -0.72028905242E+03  0.49234006614E+03  0.19096310042E+04  0.50400001928E-02 0.  1.
</event>
<event>
 5   0  0.1513502E-06  0.2045890E+04  0.7818609E-02  0.8585461E-01
        2   -1    0    0  501    0  0.00000000000E+00  0.00000000000E+00  0.14145405609E+04  0.14145405609E+04  0.25500000920E-02 0.  1.
       -2   -1    0    0    0  501  0.00000000000E+00  0.00000000000E+00 -0.73975748598E+03  0.73975748599E+03  0.25500000920E-02 0. -1.
    10030    2    1    2    0    0  0.00000000000E+00  0.00000000000E+00  0.67478307494E+03  0.21542980469E+04  0.20458904850E+04 0.  0.
        3    1    3    3  502    0  0.67130746535E+03  0.24313011632E+03 -0.43399023716E+03  0.83553186812E+03  0.10100000352E+00 0. -1.
       -3    1    3    3    0  502 -0.67130746535E+03 -0.24313011632E+03  0.11087733121E+04  0.13187661788E+04  0.10100000352E+00 0.  1.
</event>
<event>
 5   0  0.8452742E-07  0.1965766E+04  0.7818609E-02  0.8622795E-01
       -1   -1    0    0    0  501  0.00000000000E+00  0.00000000000E+00  0.16385343065E+04  0.16385343065E+04  0.50400001928E-02 0.  1.
        1   -1    0    0  501    0  0.00000000000E+00  0.00000000000E+00 -0.58958747304E+03  0.58958747307E+03  0.50400001928E-02 0. -1.
    10030    2    1    2    0    0  0.00000000000E+00  0.00000000000E+00  0.10489468334E+04  0.22281217796E+04  0.19657663150E+04 0.  0.
        1    1    3    3  502    0 -0.70015573742E+03 -0.14094276354E+03 -0.24090852118E+03  0.75373724522E+03  0.50400001928E-02 0. -1.
       -1    1    3    3    0  502  0.70015573742E+03  0.14094276354E+03  0.12898553546E+04  0.14743845343E+04  0.50400001928E-02 0.  1.
</event>
<event>
 5   0  0.2422436E-06  0.3615014E+04  0.7818609E-02  0.8087061E-01
       -2   -1    0    0    0  501  0.00000000000E+00  0.00000000000E+00  0.16198501448E+04  0.16198501448E+04  0.25500000920E-02 0.  1.
        2   -1    0    0  501    0  0.00000000000E+00  0.00000000000E+00 -0.20169040544E+04  0.20169040544E+04  0.25500000920E-02 0. -1.
    10030    2    1    2    0    0  0.00000000000E+00  0.00000000000E+00 -0.39705390953E+03  0.36367541992E+04  0.36150144257E+04 0.  0.
        2    1    3    3  502    0 -0.57161511588E+02 -0.10628948882E+04 -0.16681575266E+04  0.19788285715E+04  0.25500000920E-02 0.  1.
       -2    1    3    3    0  502  0.57161511588E+02  0.10628948882E+04  0.12711036171E+04  0.16579256277E+04  0.25500000920E-02 0. -1.
</event>
<event>
 5   0  0.7754556E-07  0.3917610E+04  0.7818609E-02  0.8021377E-01
        1   -1    0    0  501    0  0.00000000000E+00  0.00000000000E+00  0.18836773465E+04  0.18836773465E+04  0.50400001928E-02 0. -1.
       -1   -1    0    0    0  501  0.00000000000E+00  0.00000000000E+00 -0.20369292576E+04  0.20369292576E+04  0.50400001928E-02 0.  1.
    10030    2    1    2    0    0  0.00000000000E+00  0.00000000000E+00 -0.15325191103E+03  0.39206066041E+04  0.39176102404E+04 0.  0.
        4    1    3    3  502    0  0.16101760177E+04  0.53286508895E+03 -0.10573264214E+04  0.19986377323E+04  0.12699999809E+01 0.  1.
       -4    1    3    3    0  502 -0.16101760177E+04 -0.53286508895E+03  0.90407451035E+03  0.19219688718E+04  0.12699999809E+01 0. -1.
</event>
<event>
 5   0  0.2536619E-06  0.2241971E+04  0.7818609E-02  0.8501159E-01
        2   -1    0    0  501    0  0.00000000000E+00  0.00000000000E+00  0.84198231850E+03  0.84198231851E+03  0.25500000920E-02 0.  1.
       -2   -1    0    0    0  501  0.00000000000E+00  0.00000000000E+00 -0.14924401620E+04  0.14924401620E+04  0.25500000920E-02 0. -1.
    10030    2    1    2    0    0  0.00000000000E+00  0.00000000000E+00 -0.65045784353E+03  0.23344224805E+04  0.22419707651E+04 0.  0.
        1    1    3    3  502    0 -0.80395376066E+03  0.51259441901E+03  0.28858308160E+03  0.99618014570E+03  0.50400001928E-02 0.  1.
       -1    1    3    3    0  502  0.80395376066E+03 -0.51259441901E+03 -0.93904092513E+03  0.13382423348E+04  0.50400001928E-02 0. -1.
</event>
<event>
 5   0  0.2422436E-06  0.3381004E+04  0.7818609E-02  0.8142584E-01
        2   -1    0    0  501    0  0.00000000000E+00  0.00000000000E+00  0.21357699421E+04  0.21357699421E+04  0.25500000920E-02 0. -1.
       -2   -1    0    0    0  501  0.00000000000E+00  0.00000000000E+00 -0.13380637337E+04  0.13380637337E+04  0.25500000920E-02 0.  1.
    10030    2    1    2    0    0  0.00000000000E+00  0.00000000000E+00  0.79770620840E+03  0.34738336759E+04  0.33810035807E+04 0.  0.
        2    1    3    3  502    0 -0.35768673840E+03 -0.97095477583E+03 -0.97467712349E+03  0.14215092242E+04  0.25500000920E-02 0.  1.
       -2    1    3    3    0  502  0.35768673840E+03  0.97095477583E+03  0.17723833319E+04  0.20523244516E+04  0.25500000920E-02 0. -1.
</event>
<event>
 5   0  0.7754556E-07  0.3550181E+04  0.7818609E-02  0.8102000E-01
        1   -1    0    0  501    0  0.00000000000E+00  0.00000000000E+00  0.10993426898E+04  0.10993426898E+04  0.50400001928E-02 0. -1.
       -1   -1    0    0    0  501  0.00000000000E+00  0.00000000000E+00 -0.28662086511E+04  0.28662086511E+04  0.50400001928E-02 0.  1.
    10030    2    1    2    0    0  0.00000000000E+00  0.00000000000E+00 -0.17668659613E+04  0.39655513409E+04  0.35501805746E+04 0.  0.
        4    1    3    3  502    0 -0.11169073772E+04 -0.89685481021E+02  0.65438761465E+03  0.12975940574E+04  0.12699999809E+01 0. -1.
       -4    1    3    3    0  502  0.11169073772E+04  0.89685481021E+02 -0.24212535759E+04  0.26679572835E+04  0.12699999809E+01 0.  1.
</event>
<event>
 5   0  0.1513502E-06  0.3104482E+04  0.7818609E-02  0.8214509E-01
       -2   -1    0    0    0  501  0.00000000000E+00  0.00000000000E+00  0.19461380392E+04  0.19461380392E+04  0.25500000920E-02 0. -1.
        2   -1    0    0  501    0  0.00000000000E+00  0.00000000000E+00 -0.12380686867E+04  0.12380686867E+04  0.25500000920E-02 0.  1.
    10030    2    1    2    0    0  0.00000000000E+00  0.00000000000E+00  0.70806935259E+03  0.31842067259E+04  0.31044822862E+04 0.  0.
        3    1    3    3  502    0 -0.39992198128E+03  0.14930889152E+04  0.20825645145E+03  0.15596867826E+04  0.10100000352E+00 0.  1.
       -3    1    3    3    0  502  0.39992198128E+03 -0.14930889152E+04  0.49981290114E+03  0.16245199433E+04  0.10100000352E+00 0. -1.
</event>
<event>
 5   0  0.2422436E-06  0.3476536E+04  0.7818609E-02  0.8119373E-01
       -2   -1    0    0    0  501  0.00000000000E+00  0.00000000000E+00  0.19707530586E+04  0.19707530586E+04  0.25500000920E-02 0. -1.
        2   -1    0    0  501    0  0.00000000000E+00  0.00000000000E+00 -0.15332088673E+04  0.15332088673E+04  0.25500000920E-02 0.  1.
    10030    2    1    2    0    0  0.00000000000E+00  0.00000000000E+00  0.43754419127E+03  0.35039619259E+04  0.34765362445E+04 0.  0.
        2    1    3    3  502    0  0.16417367799E+04  0.10763831715E+03 -0.34662603246E+03  0.16813789782E+04  0.25500000920E-02 0.  1.
       -2    1    3    3    0  502 -0.16417367799E+04 -0.10763831715E+03  0.78417022373E+03  0.18225829478E+04  0.25500000920E-02 0. -1.
</event>
<event>
 5   0  0.1513502E-06  0.2039521E+04  0.7818609E-02  0.8588363E-01
       -2   -1    0    0    0  501  0.00000000000E+00  0.00000000000E+00  0.13663049563E+04  0.13663049563E+04  0.25500000920E-02 0.  1.
        2   -1    0    0  501    0  0.00000000000E+00  0.00000000000E+00 -0.76111247631E+03  0.76111247632E+03  0.25500000920E-02 0. -1.
    10030    2    1    2    0    0  0.00000000000E+00  0.00000000000E+00  0.60519247994E+03  0.21274174326E+04  0.20395212660E+04 0.  0.
        3    1    3    3  502    0  0.10010734473E+03  0.10147495122E+04  0.28884929290E+03  0.10597980832E+04  0.10100000352E+00 0.  1.
       -3    1    3    3    0  502 -0.10010734473E+03 -0.10147495122E+04  0.31634318704E+03  0.10676193494E+04  0.10100000352E+00 0. -1.
</event>
<event>
 5   0  0.7754556E-07  0.2095282E+04  0.7818609E-02  0.8563325E-01
       -1   -1    0    0    0  501  0.00000000000E+00  0.00000000000E+00  0.11960792962E+04  0.11960792962E+04  0.50400001928E-02 0.  1.
        1   -1    0    0  501    0  0.00000000000E+00  0.00000000000E+00 -0.91762447316E+03  0.91762447318E+03  0.50400001928E-02 0. -1.
    10030    2    1    2    0    0  0.00000000000E+00  0.00000000000E+00  0.27845482301E+03  0.21137037694E+04  0.20952819706E+04 0.  0.
        4    1    3    3  502    0 -0.65949540613E+03  0.72181627652E+03  0.51882969403E+03  0.11068598791E+04  0.12699999809E+01 0.  1.
       -4    1    3    3    0  502  0.65949540613E+03 -0.72181627652E+03 -0.24037487102E+03  0.10068438902E+04  0.12699999809E+01 0. -1.
</event>
<event>
 5   0  0.1566576E-06  0.3604095E+04  0.7818609E-02  0.8089554E-01
       -2   -1    0    0    0  501  0.00000000000E+00  0.00000000000E+00  0.20886897580E+04  0.20886897580E+04  0.25500000920E-02 0.  1.
        2   -1    0    0  501    0  0.00000000000E+00  0.00000000000E+00 -0.15547424788E+04  0.15547424789E+04  0.25500000920E-02 0. -1.
    10030    2    1    2    0    0  0.00000000000E+00  0.00000000000E+00  0.53394727916E+03  0.36434322369E+04  0.36040947224E+04 0.  0.
        4    1    3    3  502    0 -0.42025793241E+03 -0.15078693280E+04  0.11695152016E+04  0.19539841503E+04  0.12699999809E+01 0. -1.
       -4    1    3    3    0  502  0.42025793241E+03  0.15078693280E+04 -0.63556792247E+03  0.16894480865E+04  0.12699999809E+01 0.  1.
</event>
<event>
 5   0  0.1513502E-06  0.3594656E+04  0.7818609E-02  0.8091717E-01
       -2   -1    0    0    0  501  0.00000000000E+00  0.00000000000E+00  0.14229608113E+04  0.14229608113E+04  0.25500000920E-02 0.  1.
        2   -1    0    0  501    0  0.00000000000E+00  0.00000000000E+00 -0.22701872113E+04  0.22701872113E+04  0.25500000920E-02 0. -1.
    10030    2    1    2    0    0  0.00000000000E+00  0.00000000000E+00 -0.84722639996E+03  0.36931480226E+04  0.35946557198E+04 0.  0.
        3    1    3    3  502    0  0.10753874646E+04  0.10760222918E+04 -0.14069722064E+04  0.20721614250E+04  0.10100000352E+00 0. -1.
       -3    1    3    3    0  502 -0.10753874646E+04 -0.10760222918E+04  0.55974580642E+03  0.16209865976E+04  0.10100000352E+00 0.  1.
</event>
<event>
 5   0  0.1513502E-06  0.2993185E+04  0.7818609E-02  0.8245680E-01
        2   -1    0    0  501    0  0.00000000000E+00  0.00000000000E+00  0.22065673937E+04  0.22065673937E+04  0.25500000920E-02 0.  1.
       -2   -1    0    0    0  501  0.00000000000E+00  0.00000000000E+00 -0.10150559274E+04  0.10150559274E+04  0.25500000920E-02 0. -1.
    10030    2    1    2    0    0  0.00000000000E+00  0.00000000000E+00  0.11915114662E+04  0.32216233211E+04  0.29931851344E+04 0.  0.
        3    1    3    3  502    0 -0.11063575419E+04 -0.89703126422E+03  0.10902740924E+04  0.17937083672E+04  0.10100000352E+00 0.  1.
       -3    1    3    3    0  502  0.11063575419E+04  0.89703126422E+03  0.10123737380E+03  0.14279149539E+04  0.10100000352E+00 0. -1.
</event>
<event>
 5   0  0.1513502E-06  0.3615610E+04  0.7818609E-02  0.8086925E-01
       -2   -1    0    0    0  501  0.00000000000E+00  0.00000000000E+00  0.16540665737E+04  0.16540665737E+04  0.25500000920E-02 0. -1.
        2   -1    0    0  501    0  0.00000000000E+00  0.00000000000E+00 -0.19758330123E+04  0.19758330123E+04  0.25500000920E-02 0.  1.
    10030    2    1    2    0    0  0.00000000000E+00  0.00000000000E+00 -0.32176643863E+03  0.36298995860E+04  0.36156102339E+04 0.  0.
        3    1    3    3  502    0  0.28099229269E+03 -0.67754258095E+03 -0.18197265114E+04  0.19619952100E+04  0.10100000352E+00 0.  1.
       -3    1    3    3    0  502 -0.28099229269E+03  0.67754258095E+03  0.14979600728E+04  0.16679043760E+04  0.10100000352E+00 0. -1.
</event>
<event>
 5   0  0.8452742E-07  0.3509126E+04  0.7818609E-02  0.8111631E-01
        1   -1    0    0  501    0  0.00000000000E+00  0.00000000000E+00  0.17599781089E+04  0.17599781089E+04  0.50400001928E-02 0. -1.
       -1   -1    0    0    0  501  0.00000000000E+00  0.00000000000E+00 -0.17491646366E+04  0.17491646366E+04  0.50400001928E-02 0.  1.
    10030    2    1    2    0    0  0.00000000000E+00  0.00000000000E+00  0.10813472337E+02  0.35091427455E+04  0.35091260845E+04 0.  0.
        1    1    3    3  502    0 -0.14868109276E+03 -0.39775841399E+03 -0.16970036628E+04  0.17493253713E+04  0.50400001928E-02 0.  1.
       -1    1    3    3    0  502  0.14868109276E+03  0.39775841399E+03  0.17078171351E+04  0.17598173741E+04  0.50400001928E-02 0. -1.
</event>
<event>
 5   0  0.8452742E-07  0.3548594E+04  0.7818609E-02  0.8102369E-01
       -1   -1    0    0    0  501  0.00000000000E+00  0.00000000000E+00  0.27708506895E+04  0.27708506895E+04  0.50400001928E-02 0. -1.
        1   -1    0    0  501    0  0.00000000000E+00  0.00000000000E+00 -0.11361600984E+04  0.11361600984E+04  0.50400001928E-02 0.  1.
    10030    2    1    2    0    0  0.00000000000E+00  0.00000000000E+00  0.16346905911E+04  0.39070107880E+04  0.35485940834E+04 0.  0.
        1    1    3    3  502    0  0.57445722812E+03 -0.16219405656E+04  0.34067647573E+03  0.17540674919E+04  0.50400001928E-02 0.  1.
       -1    1    3    3    0  502 -0.57445722812E+03  0.16219405656E+04  0.12940141153E+04  0.21529432960E+04  0.50400001928E-02 0. -1.
</event>
<event>
 5   0  0.1566576E-06  0.3630607E+04  0.7818609E-02  0.8083517E-01
        2   -1    0    0  501    0  0.00000000000E+00  0.00000000000E+00  0.17701127089E+04  0.17701127089E+04  0.25500000920E-02 0. -1.
       -2   -1    0    0    0  501  0.00000000000E+00  0.00000000000E+00 -0.18616481757E+04  0.18616481757E+04  0.25500000920E-02 0.  1.
    10030    2    1    2    0    0  0.00000000000E+00  0.00000000000E+00 -0.91535466830E+02  0.36317608846E+04  0.36306071643E+04 0.  0.
        4    1    3    3  502    0  0.56530934944E+03 -0.96819145276E+03  0.13823960599E+04  0.17798847797E+04  0.12699999809E+01 0. -1.
       -4    1    3    3    0  502 -0.56530934944E+03  0.96819145276E+03 -0.14739315267E+04  0.18518761049E+04  0.12699999809E+01 0.  1.
</event>
<event>
 5   0  0.2394008E-06  0.1838758E+04  0.7818609E-02  0.8685956E-01
       -1   -1    0    0    0  501  0.00000000000E+00  0.00000000000E+00  0.48973619553E+03  0.48973619555E+03  0.50400001928E-02 0.  1.
        1   -1    0    0  501    0  0.00000000000E+00  0.00000000000E+00 -0.17259448203E+04  0.17259448203E+04  0.50400001928E-02 0. -1.
    10030    2    1    2    0    0  0.00000000000E+00  0.00000000000E+00 -0.12362086248E+04  0.22156810159E+04  0.18387578960E+04 0.  0.
        5    1    3    3  502    0 -0.99468800422E+02 -0.23211232992E+03  0.44711138702E+03  0.51351811882E+03  0.46999998093E+01 0.  1.
       -5    1    3    3    0  502  0.99468800422E+02  0.23211232992E+03 -0.16833200118E+04  0.17021628970E+04  0.46999998093E+01 0. -1.
</event>
<event>
 5   0  0.8452742E-07  0.3415067E+04  0.7818609E-02  0.8134218E-01
        1   -1    0    0  501    0  0.00000000000E+00  0.00000000000E+00  0.13266154342E+04  0.13266154342E+04  0.50400001928E-02 0.  1.
       -1   -1    0    0    0  501  0.00000000000E+00  0.00000000000E+00 -0.21978260999E+04  0.21978260999E+04  0.50400001928E-02 0. -1.
    10030    2    1    2    0    0  0.00000000000E+00  0.00000000000E+00 -0.87121066575E+03  0.35244415341E+04  0.34150666323E+04 0.  0.
        1    1    3    3  502    0  0.46525575277E+02 -0.16307171705E+04 -0.95600384775E+03  0.18908586611E+04  0.50400001928E-02 0. -1.
       -1    1    3    3    0  502 -0.46525575277E+02  0.16307171705E+04  0.84793182002E+02  0.16335828730E+04  0.50400001928E-02 0.  1.
</event>
<event>
 5   0  0.8452742E-07  0.3653268E+04  0.7818609E-02  0.8078398E-01
        1   -1    0    0  501    0  0.00000000000E+00  0.00000000000E+00  0.22478579029E+04  0.22478579029E+04  0.50400001928E-02 0.  1.
       -1   -1    0    0    0  501  0.00000000000E+00  0.00000000000E+00 -0.14843432118E+04  0.14843432118E+04  0.50400001928E-02 0. -1.
    10030    2    1    2    0    0  0.00000000000E+00  0.00000000000E+00  0.76351469118E+03  0.37322011147E+04  0.36532684650E+04 0.  0.
        1    1    3    3  502    0  0.12007847909E+04  0.69915063730E+03 -0.82956627387E+03  0.16182941421E+04  0.50400001928E-02 0. -1.
       -1    1    3    3    0  502 -0.12007847909E+04 -0.69915063730E+03  0.15930809651E+04  0.21139069726E+04  0.50400001928E-02 0.  1.
</event>
<event>
 5   0  0.2536619E-06  0.4207076E+04  0.7818609E-02  0.7964028E-01
       -2   -1    0    0    0  501  0.00000000000E+00  0.00000000000E+00  0.11929467871E+04  0.11929467871E+04  0.25500000920E-02 0.  1.
        2   -1    0    0  501    0  0.00000000000E+00  0.00000000000E+00 -0.37091944729E+04  0.37091944729E+04  0.25500000920E-02 0. -1.
    10030    2    1    2    0    0  0.00000000000E+00  0.00000000000E+00 -0.25162476859E+04  0.49021412600E+04  0.42070757678E+04 0.  0.
        1    1    3    3  502    0  0.22406606480E+03 -0.19463879487E+04 -0.36596290394E+03  0.19931283189E+04  0.50400001928E-02 0. -1.
       -1    1    3    3    0  502 -0.22406606480E+03  0.19463879487E+04 -0.21502847819E+04  0.29090129412E+04  0.50400001928E-02 0.  1.
</event>
<event>
 5   0  0.2382711E-06  0.3418084E+04  0.7818609E-02  0.8133482E-01
        2   -1    0    0  501    0  0.00000000000E+00  0.00000000000E+00  0.15356420735E+04  0.15356420735E+04  0.25500000920E-02 0. -1.
       -2   -1    0    0    0  501  0.00000000000E+00  0.00000000000E+00 -0.19020216670E+04  0.19020216670E+04  0.25500000920E-02 0.  1.
    10030    2    1    2    0    0  0.00000000000E+00  0.00000000000E+00 -0.36637959353E+03  0.34376637405E+04  0.34180839642E+04 0.  0.
        5    1    3    3  502    0  0.19693993136E+03 -0.15277020418E+04  0.56141840777E+03  0.16394729591E+04  0.46999998093E+01 0.  1.
       -5    1    3    3    0  502 -0.19693993136E+03  0.15277020418E+04 -0.92779800130E+03  0.17981907814E+04  0.46999998093E+01 0. -1.
</event>
<event>
 5   0  0.8452742E-07  0.1839046E+04  0.7818609E-02  0.8685807E-01
        1   -1    0    0  501    0  0.00000000000E+00  0.00000000000E+00  0.11677312157E+04  0.11677312157E+04  0.50400001928E-02 0.  1.
       -1   -1    0    0    0  501  0.00000000000E+00  0.00000000000E+00 -0.72407264558E+03  0.72407264560E+03  0.50400001928E-02 0. -1.
    10030    2    1    2    0    0  0.00000000000E+00  0.00000000000E+00  0.44365857007E+03  0.18918038613E+04  0.18390456554E+04 0.  0.
        1    1    3    3  502    0 -0.39050580930E+03  0.36435900258E+03 -0.54815571641E+03  0.76532800766E+03  0.50400001928E-02 0. -1.
       -1    1    3    3    0  502  0.39050580930E+03 -0.36435900258E+03  0.99181428648E+03  0.11264758536E+04  0.50400001928E-02 0.  1.
</event>
<event>
 5   0  0.2382711E-06  0.3504200E+04  0.7818609E-02  0.8112795E-01
        2   -1    0    0  501    0  0.00000000000E+00  0.00000000000E+00  0.27705921919E+04  0.27705921919E+04  0.25500000920E-02 0. -1.
       -2   -1    0    0    0  501  0.00000000000E+00  0.00000000000E+00 -0.11080140999E+04  0.11080140999E+04  0.25500000920E-02 0.  1.
    10030    2    1    2    0    0  0.00000000000E+00  0.00000000000E+00  0.16625780920E+04  0.38786062918E+04  0.35042004587E+04 0.  0.
        5    1    3    3  502    0  0.17366257519E+03  0.22631905287E+03 -0.10821298207E+04  0.11191094864E+04  0.46999998093E+01 0.  1.
       -5    1    3    3    0  502 -0.17366257519E+03 -0.22631905287E+03  0.27447079126E+04  0.27594968055E+04  0.46999998093E+01 0. -1.
</event>
<event>
 5   0  0.8452742E-07  0.3353833E+04  0.7818609E-02  0.8149331E-01
        1   -1    0    0  501    0  0.00000000000E+00  0.00000000000E+00  0.18672942482E+04  0.18672942482E+04  0.50400001928E-02 0.  1.
       -1   -1    0    0    0  501  0.00000000000E+00  0.00000000000E+00 -0.15059481655E+04  0.15059481655E+04  0.50400001928E-02 0. -1.
    10030    2    1    2    0    0  0.00000000000E+00  0.00000000000E+00  0.36134608273E+03  0.33732424137E+04  0.33538326420E+04 0.  0.
        1    1    3    3  502    0  0.17920931627E+03 -0.81723037514E+03  0.16423789363E+04  0.18432010296E+04  0.50400001928E-02 0.  1.
       -1    1    3    3    0  502 -0.17920931627E+03  0.81723037514E+03 -0.12810328536E+04  0.15300413841E+04  0.50400001928E-02 0. -1.
</event>
<event>
 5   0  0.1513502E-06  0.3480148E+04  0.7818609E-02  0.8118511E-01
        2   -1    0    0  501    0  0.00000000000E+00  0.00000000000E+00  0.11427344818E+04  0.11427344818E+04  0.25500000920E-02 0.  1.
       -2   -1    0    0    0  501  0.00000000000E+00  0.00000000000E+00 -0.26496591197E+04  0.26496591197E+04  0.25500000920E-02 0. -1.
    10030    2    1    2    0    0  0.00000000000E+00  0.00000000000E+00 -0.15069246378E+04  0.37923936015E+04  0.34801476067E+04 0.  0.
        3    1    3    3  502    0 -0.10682490537E+04  0.50887326217E+03 -0.21437652287E+04  0.24486399090E+04  0.10100000352E+00 0. -1.
       -3    1    3    3    0  502  0.10682490537E+04 -0.50887326217E+03  0.63684059091E+03  0.13437536925E+04  0.10100000352E+00 0.  1.
</event>
<event>
 5   0  0.2536619E-06  0.3648689E+04  0.7818609E-02  0.8079429E-01
        2   -1    0    0  501    0  0.00000000000E+00  0.00000000000E+00  0.24545542218E+04  0.24545542218E+04  0.25500000920E-02 0.  1.
       -2   -1    0    0    0  501  0.00000000000E+00  0.00000000000E+00 -0.13559420356E+04  0.13559420356E+04  0.25500000920E-02 0. -1.
    10030    2    1    2    0    0  0.00000000000E+00  0.00000000000E+00  0.10986121862E+04  0.38104962573E+04  0.36486892155E+04 0.  0.
        1    1    3    3  502    0  0.18869383167E+03  0.17043672917E+04 -0.10101251538E+03  0.17177534036E+04  0.50400001928E-02 0. -1.
       -1    1    3    3    0  502 -0.18869383167E+03 -0.17043672917E+04  0.11996247016E+04  0.20927428537E+04  0.50400001928E-02 0.  1.
</event>
<event>
 5   0  0.7754556E-07  0.3596929E+04  0.7818609E-02  0.8091196E-01
       -1   -1    0    0    0  501  0.00000000000E+00  0.00000000000E+00  0.19324972274E+04  0.19324972274E+04  0.50400001928E-02 0.  1.
        1   -1    0    0  501    0  0.00000000000E+00  0.00000000000E+00 -0.16737275484E+04  0.16737275484E+04  0.50400001928E-02 0. -1.
    10030    2    1    2    0    0  0.00000000000E+00  0.00000000000E+00  0.25876967901E+03  0.36062247758E+04  0.35969286046E+04 0.  0.
        4    1    3    3  502    0  0.47923489872E+03 -0.86433332863E+03 -0.13770743324E+04  0.16950143129E+04  0.12699999809E+01 0. -1.
       -4    1    3    3    0  502 -0.47923489872E+03  0.86433332863E+03  0.16358440114E+04  0.19112104629E+04  0.12699999809E+01 0.  1.
</event>
<event>
 5   0  0.2422436E-06  0.2092208E+04  0.7818609E-02  0.8564684E-01
       -2   -1    0    0    0  501  0.00000000000E+00  0.00000000000E+00  0.48517845669E+03  0.48517845670E+03  0.25500000920E-02 0.  1.
        2   -1    0    0  501    0  0.00000000000E+00  0.00000000000E+00 -0.22555277897E+04  0.22555277897E+04  0.25500000920E-02 0. -1.
    10030    2    1    2    0    0  0.00000000000E+00  0.00000000000E+00 -0.17703493330E+04  0.27407062464E+04  0.20922079170E+04 0.  0.
        2    1    3    3  502    0 -0.24425234701E+03 -0.88356780871E+03 -0.22499932659E+03  0.94391523909E+03  0.25500000920E-02 0.  1.
       -2    1    3    3    0  502  0.24425234701E+03  0.88356780871E+03 -0.15453500064E+04  0.17967910073E+04  0.25500000920E-02 0. -1.
</event>
<event>
 5   0  0.1513502E-06  0.3567531E+04  0.7818609E-02  0.8097970E-01
       -2   -1    0    0    0  501  0.00000000000E+00  0.00000000000E+00  0.17391979036E+04  0.17391979036E+04  0.25500000920E-02 0. -1.
        2   -1    0    0  501    0  0.00000000000E+00  0.00000000000E+00 -0.18294747743E+04  0.18294747743E+04  0.25500000920E-02 0.  1.
    10030    2    1    2    0    0  0.00000000000E+00  0.00000000000E+00 -0.90276870731E+02  0.35686726780E+04  0.35675306262E+04 0.  0.
        3    1    3    3  502    0 -0.68304391364E+03 -0.16051946160E+04  0.32729773935E+03  0.17749148046E+04  0.10100000352E+00 0.  1.
       -3    1    3    3    0  502  0.68304391364E+03  0.16051946160E+04 -0.41757461008E+03  0.17937578734E+04  0.10100000352E+00 0. -1.
</event>
<event>
 5   0  0.2382711E-06  0.3132716E+04  0.7818609E-02  0.8206816E-01
        2   -1    0    0  501    0  0.00000000000E+00  0.00000000000E+00  0.14706035006E+04  0.14706035006E+04  0.25500000920E-02 0. -1.
       -2   -1    0    0    0  501  0.00000000000E+00  0.00000000000E+00 -0.16683477122E+04  0.16683477122E+04  0.25500000920E-02 0.  1.
    10030    2    1    2    0    0  0.00000000000E+00  0.00000000000E+00 -0.19774421162E+03  0.31389512127E+04  0.31327163840E+04 0.  0.
        5    1    3    3  502    0 -0.68727214094E+02  0.15084662253E+04  0.31820398133E+03  0.15432011037E+04  0.46999998093E+01 0. -1.
       -5    1    3    3    0  502  0.68727214094E+02 -0.15084662253E+04 -0.51594819295E+03  0.15957501090E+04  0.46999998093E+01 0.  1.
</event>
<event>
 5   0  0.2422436E-06  0.3640451E+04  0.7818609E-02  0.8081288E-01
       -2   -1    0    0    0  501  0.00000000000E+00  0.00000000000E+00  0.20793010644E+04  0.20793010644E+04  0.25500000920E-02 0.  1.
        2   -1    0    0  501    0  0.00000000000E+00  0.00000000000E+00 -0.15934297741E+04  0.15934297741E+04  0.25500000920E-02 0. -1.
    10030    2    1    2    0    0  0.00000000000E+00  0.00000000000E+00  0.48587129030E+03  0.36727308385E+04  0.36404506453E+04 0.  0.
        2    1    3    3  502    0  0.12509255765E+04  0.12906722707E+04  0.53283447068E+03  0.18747165870E+04  0.25500000920E-02 0. -1.
       -2    1    3    3    0  502 -0.12509255765E+04 -0.12906722707E+04 -0.46963180381E+02  0.17980142515E+04  0.25500000920E-02 0.  1.
</event>
<event>
 5   0  0.1513502E-06  0.2283641E+04  0.7818609E-02  0.8484399E-01
       -2   -1    0    0    0  501  0.00000000000E+00  0.00000000000E+00  0.80426120199E+03  0.80426120199E+03  0.25500000920E-02 0.  1.
        2   -1    0    0  501    0  0.00000000000E+00  0.00000000000E+00 -0.16210574876E+04  0.16210574876E+04  0.25500000920E-02 0. -1.
    10030    2    1    2    0    0  0.00000000000E+00  0.00000000000E+00 -0.81679628563E+03  0.24253186896E+04  0.22836406403E+04 0.  0.
        3    1    3    3  502    0 -0.40846230358E+03 -0.63534243505E+03 -0.13178249018E+04  0.15189351353E+04  0.10100000352E+00 0. -1.
       -3    1    3    3    0  502  0.40846230358E+03  0.63534243505E+03  0.50102861612E+03  0.90638355435E+03  0.10100000352E+00 0.  1.
</event>
<event>
 5   0  0.7707500E-07  0.1805045E+04  0.7818609E-02  0.8703621E-01
        3   -1    0    0  501    0  0.00000000000E+00  0.00000000000E+00  0.83553914635E+03  0.83553915246E+03  0.10100000352E+00 0.  1.
       -3   -1    0    0    0  501  0.00000000000E+00  0.00000000000E+00 -0.97487550147E+03  0.97487550670E+03  0.10100000352E+00 0. -1.
    10030    2    1    2    0    0  0.00000000000E+00  0.00000000000E+00 -0.13933635512E+03  0.18104146592E+04  0.18050447690E+04 0.  0.
        3    1    3    3  502    0 -0.11983302799E+03  0.13573683344E+03 -0.95647170902E+03  0.97345908127E+03  0.10100000352E+00 0. -1.
       -3    1    3    3    0  502  0.11983302799E+03 -0.13573683344E+03  0.81713535391E+03  0.83695557789E+03  0.10100000352E+00 0.  1.
</event>
<event>
 5   0  0.1908273E-06  0.2495755E+04  0.7818609E-02  0.8404499E-01
       -1   -1    0    0    0  501  0.00000000000E+00  0.00000000000E+00  0.78748276478E+03  0.78748276479E+03  0.50400001928E-02 0.  1.
        1   -1    0    0  501    0  0.00000000000E+00  0.00000000000E+00 -0.19774385960E+04  0.19774385960E+04  0.50400001928E-02 0. -1.
    10030    2    1    2    0    0  0.00000000000E+00  0.00000000000E+00 -0.11899558312E+04  0.27649213608E+04  0.24957554470E+04 0.  0.
        3    1    3    3  502    0 -0.17308669814E+03  0.12355715444E+04 -0.56777900223E+03  0.13707549205E+04  0.10100000352E+00 0. -1.
       -3    1    3    3    0  502  0.17308669814E+03 -0.12355715444E+04 -0.62217682896E+03  0.13941664403E+04  0.10100000352E+00 0.  1.
</event>
<event>
 5   0  0.2536619E-06  0.3617037E+04  0.7818609E-02  0.8086600E-01
       -2   -1    0    0    0  501  0.00000000000E+00  0.00000000000E+00  0.15229872032E+04  0.15229872032E+04  0.25500000920E-02 0.  1.
        2   -1    0    0  501    0  0.00000000000E+00  0.00000000000E+00 -0.21475816802E+04  0.21475816802E+04  0.25500000920E-02 0. -1.
    10030    2    1    2    0    0  0.00000000000E+00  0.00000000000E+00 -0.62459447696E+03  0.36705688834E+04  0.36170371393E+04 0.  0.
        1    1    3    3  502    0  0.19804573466E+02  0.47737823398E+03  0.14577817650E+04  0.15340827467E+04  0.50400001928E-02 0.  1.
       -1    1    3    3    0  502 -0.19804573466E+02 -0.47737823398E+03 -0.20823762419E+04  0.21364861367E+04  0.50400001928E-02 0. -1.
</event>
<event>
 5   0  0.8423692E-07  0.3533824E+04  0.7818609E-02  0.8105821E-01
        1   -1    0    0  501    0  0.00000000000E+00  0.00000000000E+00  0.19887302756E+04  0.19887302756E+04  0.50400001928E-02 0.  1.
       -1   -1    0    0    0  501  0.00000000000E+00  0.00000000000E+00 -0.15698348988E+04  0.15698348988E+04  0.50400001928E-02 0. -1.
    10030    2    1    2    0    0  0.00000000000E+00  0.00000000000E+00  0.41889537688E+03  0.35585651744E+04  0.35338240991E+04 0.  0.
        2    1    3    3  502    0 -0.50858874991E+03 -0.15921322835E+04 -0.36765316228E+03  0.17113493426E+04  0.25500000920E-02 0.  1.
       -2    1    3    3    0  502  0.50858874991E+03  0.15921322835E+04  0.78654853916E+03  0.18472158318E+04  0.25500000920E-02 0. -1.
</event>
<event>
 5   0  0.2382711E-06  0.3632477E+04  0.7818609E-02  0.8083093E-01
       -2   -1    0    0    0  501  0.00000000000E+00  0.00000000000E+00  0.14246642865E+04  0.14246642865E+04  0.25500000920E-02 0. -1.
        2   -1    0    0  501    0  0.00000000000E+00  0.00000000000E+00 -0.23154383715E+04  0.23154383715E+04  0.25500000920E-02 0.  1.
    10030    2    1    2    0    0  0.00000000000E+00  0.00000000000E+00 -0.89077408495E+03  0.37401026580E+04  0.36324770367E+04 0.  0.
        5    1    3    3  502    0  0.13102799129E+04  0.11680845141E+04  0.34739528231E+02  0.17557003751E+04  0.46999998093E+01 0. -1.
       -5    1    3    3    0  502 -0.13102799129E+04 -0.11680845141E+04 -0.92551361318E+03  0.19844022829E+04  0.46999998093E+01 0.  1.
</event>
<event>
 5   0  0.1566576E-06  0.3576498E+04  0.7818609E-02  0.8095896E-01
        2   -1    0    0  501    0  0.00000000000E+00  0.00000000000E+00  0.32749079112E+04  0.32749079112E+04  0.25500000920E-02 0.  1.
       -2   -1    0    0    0  501  0.00000000000E+00  0.00000000000E+00 -0.97646565152E+03  0.97646565153E+03  0.25500000920E-02 0. -1.
    10030    2    1    2    0    0  0.00000000000E+00  0.00000000000E+00  0.22984422597E+04  0.42513735627E+04  0.35764983362E+04 0.  0.
        4    1    3    3  502    0 -0.11732649107E+03  0.14757320086E+04  0.23416467806E+04  0.27703540793E+04  0.12699999809E+01 0.  1.
       -4    1    3    3    0  502  0.11732649107E+03 -0.14757320086E+04 -0.43204520923E+02  0.14810194834E+04  0.12699999809E+01 0. -1.
</event>
<event>
 5   0  0.2422436E-06  0.3484410E+04  0.7818609E-02  0.8117494E-01
        2   -1    0    0  501    0  0.00000000000E+00  0.00000000000E+00  0.23640380458E+04  0.23640380458E+04  0.25500000920E-02 0. -1.
       -2   -1    0    0    0  501  0.00000000000E+00  0.00000000000E+00 -0.12839383392E+04  0.12839383392E+04  0.25500000920E-02 0.  1.
    10030    2    1    2    0    0  0.00000000000E+00  0.00000000000E+00  0.10800997065E+04  0.36479763850E+04  0.34844104709E+04 0.  0.
        2    1    3    3  502    0  0.47271089572E+03 -0.98903652370E+03 -0.87763137948E+03  0.14042384678E+04  0.25500000920E-02 0.  1.
       -2    1    3    3    0  502 -0.47271089572E+03  0.98903652370E+03  0.19577310860E+04  0.22437379173E+04  0.25500000920E-02 0. -1.
</event>
<event>
 5   0  0.1513502E-06  0.3217907E+04  0.7818609E-02  0.8184104E-01
       -2   -1    0    0    0  501  0.00000000000E+00  0.00000000000E+00  0.20099653228E+04  0.20099653228E+04  0.25500000920E-02 0. -1.
        2   -1    0    0  501    0  0.00000000000E+00  0.00000000000E+00 -0.12879483836E+04  0.12879483836E+04  0.25500000920E-02 0.  1.
    10030    2    1    2    0    0  0.00000000000E+00  0.00000000000E+00  0.72201693929E+03  0.32979137064E+04  0.32179071388E+04 0.  0.
        3    1    3    3  502    0  0.77635724543E+03 -0.83634712257E+02 -0.10807395458E+04  0.13333129092E+04  0.10100000352E+00 0.  1.
       -3    1    3    3    0  502 -0.77635724543E+03  0.83634712257E+02  0.18027564851E+04  0.19646007972E+04  0.10100000352E+00 0. -1.
</event>
<event>
 5   0  0.2382711E-06  0.3635375E+04  0.7818609E-02  0.8082436E-01
        2   -1    0    0  501    0  0.00000000000E+00  0.00000000000E+00  0.24094813527E+04  0.24094813527E+04  0.25500000920E-02 0. -1.
       -2   -1    0    0    0  501  0.00000000000E+00  0.00000000000E+00 -0.13712442203E+04  0.13712442203E+04  0.25500000920E-02 0.  1.
    10030    2    1    2    0    0  0.00000000000E+00  0.00000000000E+00  0.10382371324E+04  0.37807255730E+04  0.36353747421E+04 0.  0.
        5    1    3    3  502    0  0.16533304451E+04  0.29596700466E+03 -0.20355113948E+03  0.16919081491E+04  0.46999998093E+01 0.  1.
       -5    1    3    3    0  502 -0.16533304451E+04 -0.29596700466E+03  0.12417882718E+04  0.20888174239E+04  0.46999998093E+01 0. -1.
</event>
<event>
 5   0  0.1566576E-06  0.3807270E+04  0.7818609E-02  0.8044597E-01
       -2   -1    0    0    0  501  0.00000000000E+00  0.00000000000E+00  0.26742393487E+04  0.26742393487E+04  0.25500000920E-02 0. -1.
        2   -1    0    0  501    0  0.00000000000E+00  0.00000000000E+00 -0.13550866055E+04  0.13550866055E+04  0.25500000920E-02 0.  1.
    10030    2    1    2    0    0  0.00000000000E+00  0.00000000000E+00  0.13191527432E+04  0.40293259542E+04  0.38072698466E+04 0.  0.
        4    1    3    3  502    0 -0.48020483546E+01  0.80531721780E+03  0.24850753738E+04  0.26123093437E+04  0.12699999809E+01 0. -1.
       -4    1    3    3    0  502  0.48020483546E+01 -0.80531721780E+03 -0.11659226305E+04  0.14170166104E+04  0.12699999809E+01 0.  1.
</event>
<event>
 5   0  0.2536619E-06  0.3574596E+04  0.7818609E-02  0.8096336E-01
        2   -1    0    0  501    0  0.00000000000E+00  0.00000000000E+00  0.19119519937E+04  0.19119519937E+04  0.25500000920E-02 0. -1.
       -2   -1    0    0    0  501  0.00000000000E+00  0.00000000000E+00 -0.16707710559E+04  0.16707710559E+04  0.25500000920E-02 0.  1.
    10030    2    1    2    0    0  0.00000000000E+00  0.00000000000E+00  0.24118093778E+03  0.35827230495E+04  0.35745959499E+04 0.  0.
        1    1    3    3  502    0  0.50717570446E+03  0.15685428283E+04 -0.57154474873E+03  0.17447685232E+04  0.50400001928E-02 0.  1.
       -1    1    3    3    0  502 -0.50717570446E+03 -0.15685428283E+04  0.81272568651E+03  0.18379545264E+04  0.50400001928E-02 0. -1.
</event>
<event>
 5   0  0.8452742E-07  0.3002127E+04  0.7818609E-02  0.8243124E-01
        1   -1    0    0  501    0  0.00000000000E+00  0.00000000000E+00  0.90881785226E+03  0.90881785227E+03  0.50400001928E-02 0.  1.
       -1   -1    0    0    0  501  0.00000000000E+00  0.00000000000E+00 -0.24792547942E+04  0.24792547942E+04  0.50400001928E-02 0. -1.
    10030    2    1    2    0    0  0.00000000000E+00  0.00000000000E+00 -0.15704369419E+04  0.33880726464E+04  0.30021265911E+04 0.  0.
        1    1    3    3  502    0  0.17486219604E+03  0.12955162309E+04  0.47357168348E+02  0.13081214751E+04  0.50400001928E-02 0.  1.
       -1    1    3    3    0  502 -0.17486219604E+03 -0.12955162309E+04 -0.16177941102E+04  0.20799511714E+04  0.50400001928E-02 0. -1.
</event>
<event>
 5   0  0.2536619E-06  0.2396056E+04  0.7818609E-02  0.8440981E-01
       -2   -1    0    0    0  501  0.00000000000E+00  0.00000000000E+00  0.85079235634E+03  0.85079235635E+03  0.25500000920E-02 0. -1.
        2   -1    0    0  501    0  0.00000000000E+00  0.00000000000E+00 -0.16869822461E+04  0.16869822461E+04  0.25500000920E-02 0.  1.
    10030    2    1    2    0    0  0.00000000000E+00  0.00000000000E+00 -0.83618988978E+03  0.25377746025E+04  0.23960564270E+04 0.  0.
        1    1    3    3  502    0 -0.71194963733E+03  0.52571690997E+03 -0.12733325958E+04  0.15506858015E+04  0.50400001928E-02 0.  1.
       -1    1    3    3    0  502  0.71194963733E+03 -0.52571690997E+03  0.43714270601E+03  0.98708880095E+03  0.50400001928E-02 0. -1.
</event>
<event>
 5   0  0.2382711E-06  0.3456520E+04  0.7818609E-02  0.8124172E-01
       -2   -1    0    0    0  501  0.00000000000E+00  0.00000000000E+00  0.23643932291E+04  0.23643932291E+04  0.25500000920E-02 0.  1.
        2   -1    0    0  501    0  0.00000000000E+00  0.00000000000E+00 -0.12632767292E+04  0.12632767292E+04  0.25500000920E-02 0. -1.
    10030    2    1    2    0    0  0.00000000000E+00  0.00000000000E+00  0.11011165000E+04  0.36276699583E+04  0.34565201836E+04 0.  0.
        5    1    3    3  502    0  0.13759647163E+04  0.34680999845E+03  0.15859700244E+04  0.21281163229E+04  0.46999998093E+01 0.  1.
       -5    1    3    3    0  502 -0.13759647163E+04 -0.34680999845E+03 -0.48485352441E+03  0.14995536354E+04  0.46999998093E+01 0. -1.
</event>
<event>
 5   0  0.7754556E-07  0.1787518E+04  0.7818609E-02  0.8712965E-01
       -1   -1    0    0    0  501  0.00000000000E+00  0.00000000000E+00  0.70082040027E+03  0.70082040029E+03  0.50400001928E-02 0.  1.
        1   -1    0    0  501    0  0.00000000000E+00  0.00000000000E+00 -0.11398146546E+04  0.11398146546E+04  0.50400001928E-02 0. -1.
    10030    2    1    2    0    0  0.00000000000E+00  0.00000000000E+00 -0.43899425436E+03  0.18406350549E+04  0.17875182377E+04 0.  0.
        4    1    3    3  502    0  0.50281907661E+03  0.58180539954E+03 -0.68853130775E+03  0.10321828914E+04  0.12699999809E+01 0. -1.
       -4    1    3    3    0  502 -0.50281907661E+03 -0.58180539954E+03  0.24953705339E+03  0.80845216349E+03  0.12699999809E+01 0.  1.
</event>
<event>
 5   0  0.1566576E-06  0.3611570E+04  0.7818609E-02  0.8087847E-01
       -2   -1    0    0    0  501  0.00000000000E+00  0.00000000000E+00  0.23209059983E+04  0.23209059983E+04  0.25500000920E-02 0.  1.
        2   -1    0    0  501    0  0.00000000000E+00  0.00000000000E+00 -0.14049939211E+04  0.14049939211E+04  0.25500000920E-02 0. -1.
    10030    2    1    2    0    0  0.00000000000E+00  0.00000000000E+00  0.91591207723E+03  0.37258999194E+04  0.36115696416E+04 0.  0.
        4    1    3    3  502    0 -0.76456078935E+03 -0.34675604292E+03  0.21073373703E+04  0.22684059071E+04  0.12699999809E+01 0.  1.
       -4    1    3    3    0  502  0.76456078935E+03  0.34675604292E+03 -0.11914252931E+04  0.14574940123E+04  0.12699999809E+01 0. -1.
</event>
<event>
 5   0  0.1566576E-06  0.3580491E+04  0.7818609E-02  0.8094975E-01
        2   -1    0    0  501    0  0.00000000000E+00  0.00000000000E+00  0.25149637220E+04  0.25149637220E+04  0.25500000920E-02 0.  1.
       -2   -1    0    0    0  501  0.00000000000E+00  0.00000000000E+00 -0.12743640016E+04  0.12743640016E+04  0.25500000920E-02 0. -1.
    10030    2    1    2    0    0  0.00000000000E+00  0.00000000000E+00  0.12405997204E+04  0.37893277236E+04  0.35804911578E+04 0.  0.
        4    1    3    3  502    0 -0.14192170187E+04  0.51188008049E+03  0.16402427675E+04  0.22285861240E+04  0.12699999809E+01 0.  1.
       -4    1    3    3    0  502  0.14192170187E+04 -0.51188008049E+03 -0.39964304707E+03  0.15607415996E+04  0.12699999809E+01 0. -1.
</event>
<event>
 5   0  0.1566576E-06  0.3579305E+04  0.7818609E-02  0.8095249E-01
       -2   -1    0    0    0  501  0.00000000000E+00  0.00000000000E+00  0.24703501822E+04  0.24703501822E+04  0.25500000920E-02 0.  1.
        2   -1    0    0  501    0  0.00000000000E+00  0.00000000000E+00 -0.12965187350E+04  0.12965187350E+04  0.25500000920E-02 0. -1.
    10030    2    1    2    0    0  0.00000000000E+00  0.00000000000E+00  0.11738314472E+04  0.37668689172E+04  0.35793045655E+04 0.  0.
        4    1    3    3  502    0  0.92806310333E+02 -0.17730385606E+04  0.35024229357E+03  0.18096822997E+04  0.12699999809E+01 0. -1.
       -4    1    3    3    0  502 -0.92806310333E+02  0.17730385606E+04  0.82358915361E+03  0.19571866175E+04  0.12699999809E+01 0.  1.
</event>
<event>
 5   0  0.7754556E-07  0.3515608E+04  0.7818609E-02  0.8110101E-01
        1   -1    0    0  501    0  0.00000000000E+00  0.00000000000E+00  0.23455065292E+04  0.23455065292E+04  0.50400001928E-02 0.  1.
       -1   -1    0    0    0  501  0.00000000000E+00  0.00000000000E+00 -0.13173596374E+04  0.13173596374E+04  0.50400001928E-02 0. -1.
    10030    2    1    2    0    0  0.00000000000E+00  0.00000000000E+00  0.10281468918E+04  0.36628661667E+04  0.35156084145E+04 0.  0.
        4    1    3    3  502    0 -0.50663947525E+03 -0.24836793044E+03  0.22485893932E+04  0.23183024088E+04  0.12699999809E+01 0.  1.
       -4    1    3    3    0  502  0.50663947525E+03  0.24836793044E+03 -0.12204425014E+04  0.13445637578E+04  0.12699999809E+01 0. -1.
</event>
<event>
 5   0  0.1513502E-06  0.2679632E+04  0.7818609E-02  0.8341644E-01
       -2   -1    0    0    0  501  0.00000000000E+00  0.00000000000E+00  0.11322650772E+04  0.11322650772E+04  0.25500000920E-02 0. -1.
        2   -1    0    0  501    0  0.00000000000E+00  0.00000000000E+00 -0.15854127780E+04  0.15854127780E+04  0.25500000920E-02 0.  1.
    10030    2    1    2    0    0  0.00000000000E+00  0.00000000000E+00 -0.45314770082E+03  0.27176778551E+04  0.26796324535E+04 0.  0.
        3    1    3    3  502    0  0.10012479780E+04 -0.93762038404E+02  0.67133148197E+03  0.12091215002E+04  0.10100000352E+00 0. -1.
       -3    1    3    3    0  502 -0.10012479780E+04  0.93762038404E+02 -0.11244791828E+04  0.15085563550E+04  0.10100000352E+00 0.  1.
</event>
<event>
 5   0  0.2536619E-06  0.3598623E+04  0.7818609E-02  0.8090807E-01
       -2   -1    0    0    0  501  0.00000000000E+00  0.00000000000E+00  0.23706612012E+04  0.23706612012E+04  0.25500000920E-02 0. -1.
        2   -1    0    0  501    0  0.00000000000E+00  0.00000000000E+00 -0.13656619870E+04  0.13656619870E+04  0.25500000920E-02 0.  1.
    10030    2    1    2    0    0  0.00000000000E+00  0.00000000000E+00  0.10049992143E+04  0.37363231882E+04  0.35986230069E+04 0.  0.
        1    1    3    3  502    0  0.74151774783E+03 -0.56412137652E+03  0.21006990559E+04  0.22980465664E+04  0.50400001928E-02 0. -1.
       -1    1    3    3    0  502 -0.74151774783E+03  0.56412137652E+03 -0.10956998416E+04  0.14382766218E+04  0.50400001928E-02 0.  1.
</event>
<event>
 5   0  0.2382711E-06  0.2202454E+04  0.7818609E-02  0.8517407E-01
       -2   -1    0    0    0  501  0.00000000000E+00  0.00000000000E+00  0.10533319818E+04  0.10533319818E+04  0.25500000920E-02 0. -1.
        2   -1    0    0  501    0  0.00000000000E+00  0.00000000000E+00 -0.11513002480E+04  0.11513002480E+04  0.25500000920E-02 0.  1.
    10030    2    1    2    0    0  0.00000000000E+00  0.00000000000E+00 -0.97968266153E+02  0.22046322298E+04  0.22024544235E+04 0.  0.
        5    1    3    3  502    0 -0.16345289010E+03 -0.54810005580E+02  0.10397301975E+04  0.10539364106E+04  0.46999998093E+01 0. -1.
       -5    1    3    3    0  502  0.16345289010E+03  0.54810005580E+02 -0.11376984637E+04  0.11506958192E+04  0.46999998093E+01 0.  1.
</event>
<event>
 5   0  0.7754556E-07  0.3639982E+04  0.7818609E-02  0.8081394E-01
       -1   -1    0    0    0  501  0.00000000000E+00  0.00000000000E+00  0.13804349077E+04  0.13804349077E+04  0.50400001928E-02 0.  1.
        1   -1    0    0  501    0  0.00000000000E+00  0.00000000000E+00 -0.23995104886E+04  0.23995104886E+04  0.50400001928E-02 0. -1.
    10030    2    1    2    0    0  0.00000000000E+00  0.00000000000E+00 -0.10190755809E+04  0.37799453963E+04  0.36399824394E+04 0.  0.
        4    1    3    3  502    0  0.15028709081E+04 -0.40210989518E+03 -0.14903403475E+04  0.21543976649E+04  0.12699999809E+01 0. -1.
       -4    1    3    3    0  502 -0.15028709081E+04  0.40210989518E+03  0.47126476658E+03  0.16255477314E+04  0.12699999809E+01 0.  1.
</event>
<event>
 5   0  0.2382711E-06  0.3680370E+04  0.7818609E-02  0.8072326E-01
        2   -1    0    0  501    0  0.00000000000E+00  0.00000000000E+00  0.21584761744E+04  0.21584761744E+04  0.25500000920E-02 0.  1.
       -2   -1    0    0    0  501  0.00000000000E+00  0.00000000000E+00 -0.15688292021E+04  0.15688292021E+04  0.25500000920E-02 0. -1.
    10030    2    1    2    0    0  0.00000000000E+00  0.00000000000E+00  0.58964697230E+03  0.37273053764E+04  0.36803697935E+04 0.  0.
        5    1    3    3  502    0 -0.51228851843E+03  0.16215084423E+04  0.10070194243E+04  0.19763196517E+04  0.46999998093E+01 0. -1.
       -5    1    3    3    0  502  0.51228851843E+03 -0.16215084423E+04 -0.41737245205E+03  0.17509857248E+04  0.46999998093E+01 0.  1.
</event>
<event>
 5   0  0.1513502E-06  0.3642521E+04  0.7818609E-02  0.8080821E-01
       -2   -1    0    0    0  501  0.00000000000E+00  0.00000000000E+00  0.19323363231E+04  0.19323363231E+04  0.25500000920E-02 0.  1.
        2   -1    0    0  501    0  0.00000000000E+00  0.00000000000E+00 -0.17165695623E+04  0.17165695623E+04  0.25500000920E-02 0. -1.
    10030    2    1    2    0    0  0.00000000000E+00  0.00000000000E+00  0.21576676085E+03  0.36489058854E+04  0.36425209492E+04 0.  0.
        3    1    3    3  502    0  0.11181338939E+04 -0.19761161584E+02  0.15478925483E+04  0.19096034299E+04  0.10100000352E+00 0.  1.
       -3    1    3    3    0  502 -0.11181338939E+04  0.19761161584E+02 -0.13321257874E+04  0.17393024556E+04  0.10100000352E+00 0. -1.
</event>
<event>
 5   0  0.2382711E-06  0.2006544E+04  0.7818609E-02  0.8603567E-01
       -2   -1    0    0    0  501  0.00000000000E+00  0.00000000000E+00  0.46912900761E+03  0.46912900762E+03  0.25500000920E-02 0. -1.
        2   -1    0    0  501    0  0.00000000000E+00  0.00000000000E+00 -0.21455822843E+04  0.21455822843E+04  0.25500000920E-02 0.  1.
    10030    2    1    2    0    0  0.00000000000E+00  0.00000000000E+00 -0.16764532767E+04  0.26147112919E+04  0.20065441812E+04 0.  0.
        5    1    3    3  502    0  0.37429774527E+03  0.74452907726E+03 -0.15662229346E+04  0.17741191391E+04  0.46999998093E+01 0.  1.
       -5    1    3    3    0  502 -0.37429774527E+03 -0.74452907726E+03 -0.11023034210E+03  0.84059215278E+03  0.46999998093E+01 0. -1.
</event>
<event>
 5   0  0.1566576E-06  0.3650535E+04  0.7818609E-02  0.8079013E-01
        2   -1    0    0  501    0  0.00000000000E+00  0.00000000000E+00  0.20927296087E+04  0.20927296087E+04  0.25500000920E-02 0.  1.
       -2   -1    0    0    0  501  0.00000000000E+00  0.00000000000E+00 -0.15919882256E+04  0.15919882256E+04  0.25500000920E-02 0. -1.
    10030    2    1    2    0    0  0.00000000000E+00  0.00000000000E+00  0.50074138317E+03  0.36847178343E+04  0.36505346986E+04 0.  0.
        4    1    3    3  502    0  0.46289244093E+03 -0.19813480042E+03 -0.15205013283E+04  0.16017030665E+04  0.12699999809E+01 0. -1.
       -4    1    3    3    0  502 -0.46289244093E+03  0.19813480042E+03  0.20212427115E+04  0.20830147678E+04  0.12699999809E+01 0.  1.
</event>
<event>
 5   0  0.8452742E-07  0.1812948E+04  0.7818609E-02  0.8699444E-01
        1   -1    0    0  501    0  0.00000000000E+00  0.00000000000E+00  0.15417007441E+04  0.15417007441E+04  0.50400001928E-02 0. -1.
       -1   -1    0    0    0  501  0.00000000000E+00  0.00000000000E+00 -0.53297978463E+03  0.53297978465E+03  0.50400001928E-02 0.  1.
    10030    2    1    2    0    0  0.00000000000E+00  0.00000000000E+00  0.10087209594E+04  0.20746805287E+04  0.18129482404E+04 0.  0.
        1    1    3    3  502    0 -0.52508011172E+03  0.53684312076E+03  0.10853860052E+04  0.13198380357E+04  0.50400001928E-02 0. -1.
       -1    1    3    3    0  502  0.52508011172E+03 -0.53684312076E+03 -0.76665045810E+02  0.75484249304E+03  0.50400001928E-02 0.  1.
</event>
<event>
 5   0  0.7754556E-07  0.2569801E+04  0.7818609E-02  0.8378532E-01
        1   -1    0    0  501    0  0.00000000000E+00  0.00000000000E+00  0.15194648223E+04  0.15194648223E+04  0.50400001928E-02 0.  1.
       -1   -1    0    0    0  501  0.00000000000E+00  0.00000000000E+00 -0.10865462916E+04  0.10865462916E+04  0.50400001928E-02 0. -1.
    10030    2    1    2    0    0  0.00000000000E+00  0.00000000000E+00  0.43291853074E+03  0.26060111139E+04  0.25698006676E+04 0.  0.
        4    1    3    3  502    0  0.29703258759E+03 -0.90568971083E+03  0.10902648817E+04  0.14481648165E+04  0.12699999809E+01 0.  1.
       -4    1    3    3    0  502 -0.29703258759E+03  0.90568971083E+03 -0.65734635099E+03  0.11578462974E+04  0.12699999809E+01 0. -1.
</event>
<event>
 5   0  0.1566576E-06  0.2041884E+04  0.7818609E-02  0.8587285E-01
        2   -1    0    0  501    0  0.00000000000E+00  0.00000000000E+00  0.83400284802E+03  0.83400284803E+03  0.25500000920E-02 0. -1.
       -2   -1    0    0    0  501  0.00000000000E+00  0.00000000000E+00 -0.12497833116E+04  0.12497833116E+04  0.25500000920E-02 0.  1.
    10030    2    1    2    0    0  0.00000000000E+00  0.00000000000E+00 -0.41578046353E+03  0.20837861596E+04  0.20418842683E+04 0.  0.
        4    1    3    3  502    0 -0.44240145655E+02 -0.48391918371E+03  0.70841406373E+03  0.85906173553E+03  0.12699999809E+01 0. -1.
       -4    1    3    3    0  502  0.44240145655E+02  0.48391918371E+03 -0.11241945273E+04  0.12247244241E+04  0.12699999809E+01 0.  1.
</event>
<event>
 5   0  0.1513502E-06  0.3632341E+04  0.7818609E-02  0.8083123E-01
        2   -1    0    0  501    0  0.00000000000E+00  0.00000000000E+00  0.30530370812E+04  0.30530370812E+04  0.25500000920E-02 0. -1.
       -2   -1    0    0    0  501  0.00000000000E+00  0.00000000000E+00 -0.10803915543E+04  0.10803915543E+04  0.25500000920E-02 0.  1.
    10030    2    1    2    0    0  0.00000000000E+00  0.00000000000E+00  0.19726455269E+04  0.41334286355E+04  0.36323411059E+04 0.  0.
        3    1    3    3  502    0 -0.10051682967E+04 -0.10326089952E+04 -0.27152869377E+03  0.14664148401E+04  0.10100000352E+00 0.  1.
       -3    1    3    3    0  502  0.10051682967E+04  0.10326089952E+04  0.22441742206E+04  0.26670137953E+04  0.10100000352E+00 0. -1.
</event>
<event>
 5   0  0.2382711E-06  0.3251102E+04  0.7818609E-02  0.8175450E-01
        2   -1    0    0  501    0  0.00000000000E+00  0.00000000000E+00  0.17033526018E+04  0.17033526018E+04  0.25500000920E-02 0. -1.
       -2   -1    0    0    0  501  0.00000000000E+00  0.00000000000E+00 -0.15513028355E+04  0.15513028355E+04  0.25500000920E-02 0.  1.
    10030    2    1    2    0    0  0.00000000000E+00  0.00000000000E+00  0.15204976634E+03  0.32546554374E+04  0.32511017955E+04 0.  0.
        5    1    3    3  502    0 -0.61251686709E+03 -0.24374261524E+03 -0.14114681129E+04  0.15578355814E+04  0.46999998093E+01 0.  1.
       -5    1    3    3    0  502  0.61251686709E+03  0.24374261524E+03  0.15635178792E+04  0.16968198560E+04  0.46999998093E+01 0. -1.
</event>
<event>
 5   0  0.8423692E-07  0.3324124E+04  0.7818609E-02  0.8156784E-01
       -1   -1    0    0    0  501  0.00000000000E+00  0.00000000000E+00  0.20581910121E+04  0.20581910121E+04  0.50400001928E-02 0.  1.
        1   -1    0    0  501    0  0.00000000000E+00  0.00000000000E+00 -0.13421735909E+04  0.13421735909E+04  0.50400001928E-02 0. -1.
    10030    2    1    2    0    0  0.00000000000E+00  0.00000000000E+00  0.71601742120E+03  0.34003646030E+04  0.33241237170E+04 0.  0.
        2    1    3    3  502    0 -0.47541549324E+02 -0.73548300722E+03 -0.11658750109E+04  0.13792969201E+04  0.25500000920E-02 0. -1.
       -2    1    3    3    0  502  0.47541549324E+02  0.73548300722E+03  0.18818924321E+04  0.20210676829E+04  0.25500000920E-02 0.  1.
</event>
<event>
 5   0  0.7754556E-07  0.3637981E+04  0.7818609E-02  0.8081847E-01
        1   -1    0    0  501    0  0.00000000000E+00  0.00000000000E+00  0.21625556528E+04  0.21625556528E+04  0.50400001928E-02 0.  1.
       -1   -1    0    0    0  501  0.00000000000E+00  0.00000000000E+00 -0.15300076821E+04  0.15300076821E+04  0.50400001928E-02 0. -1.
    10030    2    1    2    0    0  0.00000000000E+00  0.00000000000E+00  0.63254797068E+03  0.36925633350E+04  0.36379811774E+04 0.  0.
        4    1    3    3  502    0  0.12115442836E+04 -0.54784951854E+03 -0.94361738342E+03  0.16304582255E+04  0.12699999809E+01 0. -1.
       -4    1    3    3    0  502 -0.12115442836E+04  0.54784951854E+03  0.15761653541E+04  0.20621051094E+04  0.12699999809E+01 0.  1.
</event>
<event>
 5   0  0.1634374E-06  0.2198910E+04  0.7818609E-02  0.8518882E-01
        1   -1    0    0  501    0  0.00000000000E+00  0.00000000000E+00  0.17934080329E+04  0.17934080329E+04  0.50400001928E-02 0. -1.
       -1   -1    0    0    0  501  0.00000000000E+00  0.00000000000E+00 -0.67402444093E+03  0.67402444094E+03  0.50400001928E-02 0.  1.
    10030    2    1    2    0    0  0.00000000000E+00  0.00000000000E+00  0.11193835920E+04  0.24674324739E+04  0.21989095905E+04 0.  0.
        5    1    3    3  502    0 -0.46250078261E+03  0.78618794160E+03  0.12484741280E+04  0.15461915119E+04  0.46999998093E+01 0. -1.
       -5    1    3    3    0  502  0.46250078261E+03 -0.78618794160E+03 -0.12909053597E+03  0.92124096192E+03  0.46999998093E+01 0.  1.
</event>
<event>
 5   0  0.8452742E-07  0.3590855E+04  0.7818609E-02  0.8092590E-01
       -1   -1    0    0    0  501  0.00000000000E+00  0.00000000000E+00  0.13919685064E+04  0.13919685064E+04  0.50400001928E-02 0.  1.
        1   -1    0    0  501    0  0.00000000000E+00  0.00000000000E+00 -0.23158285345E+04  0.23158285345E+04  0.50400001928E-02 0. -1.
    10030    2    1    2    0    0  0.00000000000E+00  0.00000000000E+00 -0.92386002809E+03  0.37077970410E+04  0.35908552666E+04 0.  0.
        1    1    3    3  502    0 -0.97169518755E+03 -0.13746778744E+04  0.18260129523E+03  0.16933026985E+04  0.50400001928E-02 0. -1.
       -1    1    3    3    0  502  0.97169518755E+03  0.13746778744E+04 -0.11064613233E+04  0.20144943425E+04  0.50400001928E-02 0.  1.
</event>
<event>
 5   0  0.1566576E-06  0.3611857E+04  0.7818609E-02  0.8087781E-01
       -2   -1    0    0    0  501  0.00000000000E+00  0.00000000000E+00  0.18671383016E+04  0.18671383016E+04  0.25500000920E-02 0.  1.
        2   -1    0    0  501    0  0.00000000000E+00  0.00000000000E+00 -0.17467248636E+04  0.17467248636E+04  0.25500000920E-02 0. -1.
    10030    2    1    2    0    0  0.00000000000E+00  0.00000000000E+00  0.12041343799E+03  0.36138631652E+04  0.36118565283E+04 0.  0.
        4    1    3    3  502    0 -0.17982606452E+04  0.19123688026E+02 -0.10501593683E+03  0.18014263858E+04  0.12699999809E+01 0. -1.
       -4    1    3    3    0  502  0.17982606452E+04 -0.19123688026E+02  0.22542937482E+03  0.18124367794E+04  0.12699999809E+01 0.  1.
</event>
<event>
 5   0  0.1908273E-06  0.2454170E+04  0.7818609E-02  0.8419497E-01
        1   -1    0    0  501    0  0.00000000000E+00  0.00000000000E+00  0.18645806455E+04  0.18645806456E+04  0.50400001928E-02 0. -1.
       -1   -1    0    0    0  501  0.00000000000E+00  0.00000000000E+00 -0.80754759614E+03  0.80754759615E+03  0.50400001928E-02 0.  1.
    10030    2    1    2    0    0  0.00000000000E+00  0.00000000000E+00  0.10570330494E+04  0.26721282417E+04  0.24541700170E+04 0.  0.
        3    1    3    3  502    0  0.70002890442E+03 -0.27001562048E+03  0.15857230541E+04  0.17542709360E+04  0.10100000352E+00 0. -1.
       -3    1    3    3    0  502 -0.70002890442E+03  0.27001562048E+03 -0.52869000472E+03  0.91785730570E+03  0.10100000352E+00 0.  1.
</event>
<event>
 5   0  0.7754556E-07  0.3539099E+04  0.7818609E-02  0.8104586E-01
        1   -1    0    0  501    0  0.00000000000E+00  0.00000000000E+00  0.14677508239E+04  0.14677508239E+04  0.50400001928E-02 0.  1.
       -1   -1    0    0    0  501  0.00000000000E+00  0.00000000000E+00 -0.21334039108E+04  0.21334039108E+04  0.50400001928E-02 0. -1.
    10030    2    1    2    0    0  0.00000000000E+00  0.00000000000E+00 -0.66565308688E+03  0.36011547346E+04  0.35390989518E+04 0.  0.
        4    1    3    3  502    0  0.17682704284E+04  0.50270437105E+02 -0.37829006625E+03  0.18089810424E+04  0.12699999809E+01 0.  1.
       -4    1    3    3    0  502 -0.17682704284E+04 -0.50270437105E+02 -0.28736302063E+03  0.17921736922E+04  0.12699999809E+01 0. -1.
</event>
<event>
 5   0  0.8452742E-07  0.2965255E+04  0.7818609E-02  0.8253723E-01
       -1   -1    0    0    0  501  0.00000000000E+00  0.00000000000E+00  0.16433183548E+04  0.16433183548E+04  0.50400001928E-02 0. -1.
        1   -1    0    0  501    0  0.00000000000E+00  0.00000000000E+00 -0.13376494091E+04  0.13376494091E+04  0.50400001928E-02 0.  1.
    10030    2    1    2    0    0  0.00000000000E+00  0.00000000000E+00  0.30566894574E+03  0.29809677639E+04  0.29652546779E+04 0.  0.
        1    1    3    3  502    0 -0.64230572212E+03  0.12759975894E+04  0.55174613353E+03  0.15313883520E+04  0.50400001928E-02 0.  1.
       -1    1    3    3    0  502  0.64230572212E+03 -0.12759975894E+04 -0.24607718779E+03  0.14495794118E+04  0.50400001928E-02 0. -1.
</event>
<event>
 5   0  0.8423692E-07  0.1820750E+04  0.7818609E-02  0.8695342E-01
       -1   -1    0    0    0  501  0.00000000000E+00  0.00000000000E+00  0.70893247037E+03  0.70893247038E+03  0.50400001928E-02 0. -1.
        1   -1    0    0  501    0  0.00000000000E+00  0.00000000000E+00 -0.11690572927E+04  0.11690572927E+04  0.50400001928E-02 0.  1.
    10030    2    1    2    0    0  0.00000000000E+00  0.00000000000E+00 -0.46012482233E+03  0.18779897631E+04  0.18207500373E+04 0.  0.
        2    1    3    3  502    0  0.46875913163E+01 -0.72910401059E+03  0.33220633656E+03  0.80123384965E+03  0.25500000920E-02 0. -1.
       -2    1    3    3    0  502 -0.46875913163E+01  0.72910401059E+03 -0.79233115889E+03  0.10767559134E+04  0.25500000920E-02 0.  1.
</event>
<event>
 5   0  0.8452742E-07  0.3478017E+04  0.7818609E-02  0.8119019E-01
       -1   -1    0    0    0  501  0.00000000000E+00  0.00000000000E+00  0.15618669200E+04  0.15618669200E+04  0.50400001928E-02 0. -1.
        1   -1    0    0  501    0  0.00000000000E+00  0.00000000000E+00 -0.19362410523E+04  0.19362410523E+04  0.50400001928E-02 0.  1.
    10030    2    1    2    0    0  0.00000000000E+00  0.00000000000E+00 -0.37437413234E+03  0.34981079723E+04  0.34780171643E+04 0.  0.
        1    1    3    3  502    0 -0.76992930488E+02  0.14514469450E+03 -0.19284171427E+04  0.19354037227E+04  0.50400001928E-02 0.  1.
       -1    1    3    3    0  502  0.76992930488E+02 -0.14514469450E+03  0.15540430103E+04  0.15627042496E+04  0.50400001928E-02 0. -1.
</event>
<event>
 5   0  0.1566576E-06  0.3591365E+04  0.7818609E-02  0.8092472E-01
       -2   -1    0    0    0  501  0.00000000000E+00  0.00000000000E+00  0.12607321468E+04  0.12607321468E+04  0.25500000920E-02 0. -1.
        2   -1    0    0  501    0  0.00000000000E+00  0.00000000000E+00 -0.25576216178E+04  0.25576216178E+04  0.25500000920E-02 0.  1.
    10030    2    1    2    0    0  0.00000000000E+00  0.00000000000E+00 -0.12968894710E+04  0.38183537647E+04  0.35913650848E+04 0.  0.
        4    1    3    3  502    0  0.17382656198E+04 -0.44207781609E+03 -0.74036128877E+03  0.19403959934E+04  0.12699999809E+01 0.  1.
       -4    1    3    3    0  502 -0.17382656198E+04  0.44207781609E+03 -0.55652818221E+03  0.18779577713E+04  0.12699999809E+01 0. -1.
</event>
<event>
 5   0  0.1513502E-06  0.3888034E+04  0.7818609E-02  0.8027522E-01
        2   -1    0    0  501    0  0.00000000000E+00  0.00000000000E+00  0.11494799178E+04  0.11494799178E+04  0.25500000920E-02 0. -1.
       -2   -1    0    0    0  501  0.00000000000E+00  0.00000000000E+00 -0.32877499782E+04  0.32877499782E+04  0.25500000920E-02 0.  1.
    10030    2    1    2    0    0  0.00000000000E+00  0.00000000000E+00 -0.21382700605E+04  0.44372298960E+04  0.38880342460E+04 0.  0.
        3    1    3    3  502    0  0.30579803608E+03 -0.19151382570E+04 -0.12219759300E+04  0.22922679089E+04  0.10100000352E+00 0.  1.
       -3    1    3    3    0  502 -0.30579803608E+03  0.19151382570E+04 -0.91629413044E+03  0.21449619871E+04  0.10100000352E+00 0. -1.
</event>
<event>
 5   0  0.8452742E-07  0.2139684E+04  0.7818609E-02  0.8543961E-01
        1   -1    0    0  501    0  0.00000000000E+00  0.00000000000E+00  0.80394708796E+03  0.80394708798E+03  0.50400001928E-02 0. -1.
       -1   -1    0    0    0  501  0.00000000000E+00  0.00000000000E+00 -0.14236784814E+04  0.14236784814E+04  0.50400001928E-02 0.  1.
    10030    2    1    2    0    0  0.00000000000E+00  0.00000000000E+00 -0.61973139347E+03  0.22276255694E+04  0.21396842471E+04 0.  0.
        1    1    3    3  502    0 -0.95600163855E+03  0.30950268452E+03 -0.69215098361E+03  0.12201655743E+04  0.50400001928E-02 0.  1.
       -1    1    3    3    0  502  0.95600163855E+03 -0.30950268452E+03  0.72419590141E+02  0.10074599951E+04  0.50400001928E-02 0. -1.
</event>
<event>
 5   0  0.2382711E-06  0.3682551E+04  0.7818609E-02  0.8071840E-01
        2   -1    0    0  501    0  0.00000000000E+00  0.00000000000E+00  0.19328890946E+04  0.19328890946E+04  0.25500000920E-02 0.  1.
       -2   -1    0    0    0  501  0.00000000000E+00  0.00000000000E+00 -0.17540041310E+04  0.17540041310E+04  0.25500000920E-02 0. -1.
    10030    2    1    2    0    0  0.00000000000E+00  0.00000000000E+00  0.17888496361E+03  0.36868932256E+04  0.36825509944E+04 0.  0.
        5    1    3    3  502    0 -0.32269196953E+02  0.13809717130E+04 -0.11294285398E+04  0.17843080142E+04  0.46999998093E+01 0. -1.
       -5    1    3    3    0  502  0.32269196953E+02 -0.13809717130E+04  0.13083135034E+04  0.19025852113E+04  0.46999998093E+01 0.  1.
</event>
<event>
 5   0  0.8423692E-07  0.3545669E+04  0.7818609E-02  0.8103051E-01
        1   -1    0    0  501    0  0.00000000000E+00  0.00000000000E+00  0.11923704259E+04  0.11923704259E+04  0.50400001928E-02 0. -1.
       -1   -1    0    0    0  501  0.00000000000E+00  0.00000000000E+00 -0.26358779746E+04  0.26358779746E+04  0.50400001928E-02 0.  1.
    10030    2    1    2    0    0  0.00000000000E+00  0.00000000000E+00 -0.14435075487E+04  0.38282484004E+04  0.35456694393E+04 0.  0.
        2    1    3    3  502    0 -0.18114095953E+03  0.11760988249E+04 -0.21406096510E+04  0.24491284513E+04  0.25500000920E-02 0.  1.
       -2    1    3    3    0  502  0.18114095953E+03 -0.11760988249E+04  0.69710210228E+03  0.13791199492E+04  0.25500000920E-02 0. -1.
</event>
<event>
 5   0  0.2382711E-06  0.3699519E+04  0.7818609E-02  0.8068068E-01
       -2   -1    0    0    0  501  0.00000000000E+00  0.00000000000E+00  0.15042828750E+04  0.15042828750E+04  0.25500000920E-02 0. -1.
        2   -1    0    0  501    0  0.00000000000E+00  0.00000000000E+00 -0.22745792188E+04  0.22745792188E+04  0.25500000920E-02 0.  1.
    10030    2    1    2    0    0  0.00000000000E+00  0.00000000000E+00 -0.77029634382E+03  0.37788620938E+04  0.36995191940E+04 0.  0.
        5    1    3    3  502    0 -0.13906986755E+04 -0.46099153002E+03 -0.15385387042E+04  0.21245421698E+04  0.46999998093E+01 0.  1.
       -5    1    3    3    0  502  0.13906986755E+04  0.46099153002E+03  0.76824236040E+03  0.16543199240E+04  0.46999998093E+01 0. -1.
</event>
<event>
 5   0  0.7754556E-07  0.3638099E+04  0.7818609E-02  0.8081820E-01
       -1   -1    0    0    0  501  0.00000000000E+00  0.00000000000E+00  0.16508836014E+04  0.16508836014E+04  0.50400001928E-02 0.  1.
        1   -1    0    0  501    0  0.00000000000E+00  0.00000000000E+00 -0.20043452278E+04  0.20043452278E+04  0.50400001928E-02 0. -1.
    10030    2    1    2    0    0  0.00000000000E+00  0.00000000000E+00 -0.35346162642E+03  0.36552288292E+04  0.36380987716E+04 0.  0.
        4    1    3    3  502    0 -0.80809586190E+03  0.81758177412E+03 -0.15931489772E+04  0.19645824380E+04  0.12699999809E+01 0. -1.
       -4    1    3    3    0  502  0.80809586190E+03 -0.81758177412E+03  0.12396873507E+04  0.16906463911E+04  0.12699999809E+01 0.  1.
</event>
<event>
 5   0  0.1908273E-06  0.3618911E+04  0.7818609E-02  0.8086174E-01
       -1   -1    0    0    0  501  0.00000000000E+00  0.00000000000E+00  0.29161248890E+04  0.29161248890E+04  0.50400001928E-02 0.  1.
        1   -1    0    0  501    0  0.00000000000E+00  0.00000000000E+00 -0.11227673636E+04  0.11227673636E+04  0.50400001928E-02 0. -1.
    10030    2    1    2    0    0  0.00000000000E+00  0.00000000000E+00  0.17933575254E+04  0.40388922526E+04  0.36189113576E+04 0.  0.
        3    1    3    3  502    0 -0.38800382550E+03 -0.11041985386E+04  0.24368012113E+04  0.27032945705E+04  0.10100000352E+00 0.  1.
       -3    1    3    3    0  502  0.38800382550E+03  0.11041985386E+04 -0.64344368588E+03  0.13355976821E+04  0.10100000352E+00 0. -1.
</event>
<event>
 5   0  0.1513502E-06  0.2700014E+04  0.7818609E-02  0.8335001E-01
        2   -1    0    0  501    0  0.00000000000E+00  0.00000000000E+00  0.25075272786E+04  0.25075272786E+04  0.25500000920E-02 0.  1.
       -2   -1    0    0    0  501  0.00000000000E+00  0.00000000000E+00 -0.72681901704E+03  0.72681901705E+03  0.25500000920E-02 0. -1.
    10030    2    1    2    0    0  0.00000000000E+00  0.00000000000E+00  0.17807082615E+04  0.32343462956E+04  0.27000137124E+04 0.  0.
        3    1    3    3  502    0  0.12855760907E+04  0.78867441977E+02  0.13748636338E+04  0.18839256832E+04  0.10100000352E+00 0.  1.
       -3    1    3    3    0  502 -0.12855760907E+04 -0.78867441977E+02  0.40584462775E+03  0.13504206124E+04  0.10100000352E+00 0. -1.
</event>
<event>
 5   0  0.2519300E-06  0.1931418E+04  0.7818609E-02  0.8639374E-01
       -2   -1    0    0    0  501  0.00000000000E+00  0.00000000000E+00  0.74645009157E+03  0.74645009158E+03  0.25500000920E-02 0. -1.
        2   -1    0    0  501    0  0.00000000000E+00  0.00000000000E+00 -0.12493721409E+04  0.12493721409E+04  0.25500000920E-02 0.  1.
    10030    2    1    2    0    0  0.00000000000E+00  0.00000000000E+00 -0.50292204928E+03  0.19958222324E+04  0.19314180790E+04 0.  0.
        4    1    3    3  502    0  0.38398972307E+03  0.37535772626E+03 -0.10808782472E+04  0.12069138032E+04  0.12699999809E+01 0.  1.
       -4    1    3    3    0  502 -0.38398972307E+03 -0.37535772626E+03  0.57795619795E+03  0.78890842925E+03  0.12699999809E+01 0. -1.
</event>
<event>
 5   0  0.1634374E-06  0.1929656E+04  0.7818609E-02  0.8640234E-01
        1   -1    0    0  501    0  0.00000000000E+00  0.00000000000E+00  0.22314783023E+04  0.22314783023E+04  0.50400001928E-02 0.  1.
       -1   -1    0    0    0  501  0.00000000000E+00  0.00000000000E+00 -0.41716419443E+03  0.41716419446E+03  0.50400001928E-02 0. -1.
    10030    2    1    2    0    0  0.00000000000E+00  0.00000000000E+00  0.18143141078E+04  0.26486424967E+04  0.19296557708E+04 0.  0.
        5    1    3    3  502    0  0.64724821541E+03 -0.43068970028E+03  0.16913984574E+04  0.18615248325E+04  0.46999998093E+01 0.  1.
       -5    1    3    3    0  502 -0.64724821541E+03  0.43068970028E+03  0.12291565047E+03  0.78711766428E+03  0.46999998093E+01 0. -1.
</event>
<event>
 5   0  0.2536619E-06  0.1925940E+04  0.7818609E-02  0.8642051E-01
       -2   -1    0    0    0  501  0.00000000000E+00  0.00000000000E+00  0.13576608143E+04  0.13576608143E+04  0.25500000920E-02 0. -1.
        2   -1    0    0  501    0  0.00000000000E+00  0.00000000000E+00 -0.68302096336E+03  0.68302096336E+03  0.25500000920E-02 0.  1.
    10030    2    1    2    0    0  0.00000000000E+00  0.00000000000E+00  0.67463985091E+03  0.20406817776E+04  0.19259395601E+04 0.  0.
        1    1    3    3  502    0 -0.35247949419E+03  0.14689625314E+03  0.12740069029E+04  0.13300052225E+04  0.50400001928E-02 0. -1.
       -1    1    3    3    0  502  0.35247949419E+03 -0.14689625314E+03 -0.59936705202E+03  0.71067655518E+03  0.50400001928E-02 0.  1.
</event>
<event>
 5   0  0.1566576E-06  0.2223754E+04  0.7818609E-02  0.8508606E-01
       -2   -1    0    0    0  501  0.00000000000E+00  0.00000000000E+00  0.56207021240E+03  0.56207021240E+03  0.25500000920E-02 0.  1.
        2   -1    0    0  501    0  0.00000000000E+00  0.00000000000E+00 -0.21994940490E+04  0.21994940490E+04  0.25500000920E-02 0. -1.
    10030    2    1    2    0    0  0.00000000000E+00  0.00000000000E+00 -0.16374238366E+04  0.27615642614E+04  0.22237536620E+04 0.  0.
        4    1    3    3  502    0 -0.22759833802E+03 -0.27411074263E+03  0.48926176936E+03  0.60524077403E+03  0.12699999809E+01 0.  1.
       -4    1    3    3    0  502  0.22759833802E+03  0.27411074263E+03 -0.21266856059E+04  0.21563234873E+04  0.12699999809E+01 0. -1.
</event>
<event>
 5   0  0.1566576E-06  0.2237930E+04  0.7818609E-02  0.8502805E-01
        2   -1    0    0  501    0  0.00000000000E+00  0.00000000000E+00  0.14607385834E+04  0.14607385834E+04  0.25500000920E-02 0. -1.
       -2   -1    0    0    0  501  0.00000000000E+00  0.00000000000E+00 -0.85715690143E+03  0.85715690143E+03  0.25500000920E-02 0.  1.
    10030    2    1    2    0    0  0.00000000000E+00  0.00000000000E+00  0.60358168200E+03  0.23178954849E+04  0.22379295413E+04 0.  0.
        4    1    3    3  502    0 -0.35658907144E+03  0.37251863951E+03 -0.72674623660E+03  0.89111593408E+03  0.12699999809E+01 0.  1.
       -4    1    3    3    0  502  0.35658907144E+03 -0.37251863951E+03  0.13303279186E+04  0.14267795508E+04  0.12699999809E+01 0. -1.
</event>
<event>
 5   0  0.7754556E-07  0.3711815E+04  0.7818609E-02  0.8065349E-01
        1   -1    0    0  501    0  0.00000000000E+00  0.00000000000E+00  0.13240060398E+04  0.13240060398E+04  0.50400001928E-02 0.  1.
       -1   -1    0    0    0  501  0.00000000000E+00  0.00000000000E+00 -0.26014925636E+04  0.26014925636E+04  0.50400001928E-02 0. -1.
    10030    2    1    2    0    0  0.00000000000E+00  0.00000000000E+00 -0.12774865238E+04  0.39254986034E+04  0.37118145787E+04 0.  0.
        4    1    3    3  502    0  0.37251984093E+03  0.14487208940E+04 -0.18005424315E+04  0.23408370130E+04  0.12699999809E+01 0. -1.
       -4    1    3    3    0  502 -0.37251984093E+03 -0.14487208940E+04  0.52305590777E+03  0.15846615904E+04  0.12699999809E+01 0.  1.
</event>
<event>
 5   0  0.8452742E-07  0.3596189E+04  0.7818609E-02  0.8091365E-01
       -1   -1    0    0    0  501  0.00000000000E+00  0.00000000000E+00  0.27946157402E+04  0.27946157402E+04  0.50400001928E-02 0.  1.
        1   -1    0    0  501    0  0.00000000000E+00  0.00000000000E+00 -0.11569186273E+04  0.11569186273E+04  0.50400001928E-02 0. -1.
    10030    2    1    2    0    0  0.00000000000E+00  0.00000000000E+00  0.16376971129E+04  0.39515343675E+04  0.35961885412E+04 0.  0.
        1    1    3    3  502    0 -0.43868837138E+03 -0.14488755762E+04  0.18850103444E+04  0.24176335373E+04  0.50400001928E-02 0.  1.
       -1    1    3    3    0  502  0.43868837138E+03  0.14488755762E+04 -0.24731323148E+03  0.15339008302E+04  0.50400001928E-02 0. -1.
</event>
<event>
 5   0  0.8452742E-07  0.3598971E+04  0.7818609E-02  0.8090727E-01
       -1   -1    0    0    0  501  0.00000000000E+00  0.00000000000E+00  0.16203202408E+04  0.16203202409E+04  0.50400001928E-02 0.  1.
        1   -1    0    0  501    0  0.00000000000E+00  0.00000000000E+00 -0.19984622521E+04  0.19984622521E+04  0.50400001928E-02 0. -1.
    10030    2    1    2    0    0  0.00000000000E+00  0.00000000000E+00 -0.37814201125E+03  0.36187824930E+04  0.35989714295E+04 0.  0.
        1    1    3    3  502    0 -0.15263740907E+04  0.20038044545E+03 -0.11259610680E+04  0.19072908835E+04  0.50400001928E-02 0. -1.
       -1    1    3    3    0  502  0.15263740907E+04 -0.20038044545E+03  0.74781905676E+03  0.17114916095E+04  0.50400001928E-02 0.  1.
</event>
<event>
 5   0  0.1566576E-06  0.2977000E+04  0.7818609E-02  0.8250329E-01
        2   -1    0    0  501    0  0.00000000000E+00  0.00000000000E+00  0.18520831577E+04  0.18520831577E+04  0.25500000920E-02 0. -1.
       -2   -1    0    0    0  501  0.00000000000E+00  0.00000000000E+00 -0.11962917127E+04  0.11962917127E+04  0.25500000920E-02 0.  1.
    10030    2    1    2    0    0  0.00000000000E+00  0.00000000000E+00  0.65579144500E+03  0.30483748704E+04  0.29769996526E+04 0.  0.
        4    1    3    3  502    0  0.20228450885E+03 -0.13589150535E+04 -0.25860273512E+03  0.13980150688E+04  0.12699999809E+01 0.  1.
       -4    1    3    3    0  502 -0.20228450885E+03  0.13589150535E+04  0.91439418012E+03  0.16503598016E+04  0.12699999809E+01 0. -1.
</event>
<event>
 5   0  0.8423692E-07  0.2795791E+04  0.7818609E-02  0.8304576E-01
       -1   -1    0    0    0  501  0.00000000000E+00  0.00000000000E+00  0.92836115169E+03  0.92836115171E+03  0.50400001928E-02 0. -1.
        1   -1    0    0  501    0  0.00000000000E+00  0.00000000000E+00 -0.21049042540E+04  0.21049042540E+04  0.50400001928E-02 0.  1.
    10030    2    1    2    0    0  0.00000000000E+00  0.00000000000E+00 -0.11765431023E+04  0.30332654057E+04  0.27957906484E+04 0.  0.
        2    1    3    3  502    0  0.89319039968E+03 -0.40299554016E+03  0.49336359113E+03  0.10970880222E+04  0.25500000920E-02 0. -1.
       -2    1    3    3    0  502 -0.89319039968E+03  0.40299554016E+03 -0.16699066934E+04  0.19361773835E+04  0.25500000920E-02 0.  1.
</event>
<event>
 5   0  0.2536619E-06  0.3446304E+04  0.7818609E-02  0.8126634E-01
        2   -1    0    0  501    0  0.00000000000E+00  0.00000000000E+00  0.18875627014E+04  0.18875627014E+04  0.25500000920E-02 0.  1.
       -2   -1    0    0    0  501  0.00000000000E+00  0.00000000000E+00 -0.15730616471E+04  0.15730616471E+04  0.25500000920E-02 0. -1.
    10030    2    1    2    0    0  0.00000000000E+00  0.00000000000E+00  0.31450105436E+03  0.34606243485E+04  0.34463038125E+04 0.  0.
        1    1    3    3  502    0  0.16852756794E+04  0.33105393271E+03  0.29747919330E+03  0.17430561357E+04  0.50400001928E-02 0. -1.
       -1    1    3    3    0  502 -0.16852756794E+04 -0.33105393271E+03  0.17021861052E+02  0.17175682128E+04  0.50400001928E-02 0.  1.
</event>
<event>
 5   0  0.1908273E-06  0.2641111E+04  0.7818609E-02  0.8354369E-01
       -1   -1    0    0    0  501  0.00000000000E+00  0.00000000000E+00  0.15331157243E+04  0.15331157243E+04  0.50400001928E-02 0.  1.
        1   -1    0    0  501    0  0.00000000000E+00  0.00000000000E+00 -0.11374655577E+04  0.11374655577E+04  0.50400001928E-02 0. -1.
    10030    2    1    2    0    0  0.00000000000E+00  0.00000000000E+00  0.39565016658E+03  0.26705812820E+04  0.26411106243E+04 0.  0.
        3    1    3    3  502    0 -0.91603922339E+03  0.94745920106E+03  0.28278360974E+03  0.13478773596E+04  0.10100000352E+00 0. -1.
       -3    1    3    3    0  502  0.91603922339E+03 -0.94745920106E+03  0.11286655684E+03  0.13227039224E+04  0.10100000352E+00 0.  1.
</event>
<event>
 5   0  0.2536619E-06  0.2340363E+04  0.7818609E-02  0.8462175E-01
        2   -1    0    0  501    0  0.00000000000E+00  0.00000000000E+00  0.15368634547E+04  0.15368634547E+04  0.25500000920E-02 0. -1.
       -2   -1    0    0    0  501  0.00000000000E+00  0.00000000000E+00 -0.89098638551E+03  0.89098638551E+03  0.25500000920E-02 0.  1.
    10030    2    1    2    0    0  0.00000000000E+00  0.00000000000E+00  0.64587706918E+03  0.24278498402E+04  0.23403627193E+04 0.  0.
        1    1    3    3  502    0 -0.84952226988E+03 -0.79595088561E+03  0.44611431962E+03  0.12466931802E+04  0.50400001928E-02 0.  1.
       -1    1    3    3    0  502  0.84952226988E+03  0.79595088561E+03  0.19976274955E+03  0.11811566600E+04  0.50400001928E-02 0. -1.
</event>
<event>
 5   0  0.2536619E-06  0.2016941E+04  0.7818609E-02  0.8598741E-01
        2   -1    0    0  501    0  0.00000000000E+00  0.00000000000E+00  0.17170717932E+04  0.17170717932E+04  0.25500000920E-02 0.  1.
       -2   -1    0    0    0  501  0.00000000000E+00  0.00000000000E+00 -0.59229485771E+03  0.59229485772E+03  0.25500000920E-02 0. -1.
    10030    2    1    2    0    0  0.00000000000E+00  0.00000000000E+00  0.11247769355E+04  0.23093666509E+04  0.20169410437E+04 0.  0.
        1    1    3    3  502    0 -0.37284672080E+03 -0.39385317062E+03 -0.41110295380E+03  0.68054436731E+03  0.50400001928E-02 0. -1.
       -1    1    3    3    0  502  0.37284672080E+03  0.39385317062E+03  0.15358798893E+04  0.16288222836E+04  0.50400001928E-02 0.  1.
</event>
<event>
 5   0  0.1634374E-06  0.1847053E+04  0.7818609E-02  0.8681670E-01
        1   -1    0    0  501    0  0.00000000000E+00  0.00000000000E+00  0.10031530139E+04  0.10031530139E+04  0.50400001928E-02 0. -1.
       -1   -1    0    0    0  501  0.00000000000E+00  0.00000000000E+00 -0.85022039015E+03  0.85022039017E+03  0.50400001928E-02 0.  1.
    10030    2    1    2    0    0  0.00000000000E+00  0.00000000000E+00  0.15293262372E+03  0.18533734041E+04  0.18470529466E+04 0.  0.
        5    1    3    3  502    0 -0.66795303069E+03  0.59150994822E+03 -0.16274784540E+03  0.90694775001E+03  0.46999998093E+01 0.  1.
       -5    1    3    3    0  502  0.66795303069E+03 -0.59150994822E+03  0.31568046912E+03  0.94642565405E+03  0.46999998093E+01 0. -1.
</event>
<event>
 5   0  0.2382711E-06  0.3831969E+04  0.7818609E-02  0.8039329E-01
       -2   -1    0    0    0  501  0.00000000000E+00  0.00000000000E+00  0.13624501652E+04  0.13624501652E+04  0.25500000920E-02 0.  1.
        2   -1    0    0  501    0  0.00000000000E+00  0.00000000000E+00 -0.26944083694E+04  0.26944083694E+04  0.25500000920E-02 0. -1.
    10030    2    1    2    0    0  0.00000000000E+00  0.00000000000E+00 -0.13319582042E+04  0.40568585346E+04  0.38319692733E+04 0.  0.
        5    1    3    3  502    0  0.61824559577E+03 -0.18134572068E+04 -0.65436339111E+03  0.20246155672E+04  0.46999998093E+01 0.  1.
       -5    1    3    3    0  502 -0.61824559577E+03  0.18134572068E+04 -0.67759481308E+03  0.20322429673E+04  0.46999998093E+01 0. -1.
</event>
<event>
 5   0  0.2422436E-06  0.1921312E+04  0.7818609E-02  0.8644320E-01
       -2   -1    0    0    0  501  0.00000000000E+00  0.00000000000E+00  0.60300162247E+03  0.60300162248E+03  0.25500000920E-02 0. -1.
        2   -1    0    0  501    0  0.00000000000E+00  0.00000000000E+00 -0.15304440002E+04  0.15304440002E+04  0.25500000920E-02 0.  1.
    10030    2    1    2    0    0  0.00000000000E+00  0.00000000000E+00 -0.92744237773E+03  0.21334456227E+04  0.19213122758E+04 0.  0.
        2    1    3    3  502    0  0.73833000028E+03  0.17454308935E+03  0.19063367816E+03  0.78226445567E+03  0.25500000920E-02 0. -1.
       -2    1    3    3    0  502 -0.73833000028E+03 -0.17454308935E+03 -0.11180760559E+04  0.13511811670E+04  0.25500000920E-02 0.  1.
</event>
<event>
 5   0  0.2422436E-06  0.3640817E+04  0.7818609E-02  0.8081206E-01
       -2   -1    0    0    0  501  0.00000000000E+00  0.00000000000E+00  0.26713375064E+04  0.26713375064E+04  0.25500000920E-02 0.  1.
        2   -1    0    0  501    0  0.00000000000E+00  0.00000000000E+00 -0.12405347232E+04  0.12405347232E+04  0.25500000920E-02 0. -1.
    10030    2    1    2    0    0  0.00000000000E+00  0.00000000000E+00  0.14308027831E+04  0.39118722296E+04  0.36408169051E+04 0.  0.
        2    1    3    3  502    0 -0.88870897560E+03 -0.96810015335E+02  0.24192455620E+04  0.25791325890E+04  0.25500000920E-02 0.  1.
       -2    1    3    3    0  502  0.88870897560E+03  0.96810015335E+02 -0.98844277889E+03  0.13327396406E+04  0.25500000920E-02 0. -1.
</event>
<event>
 5   0  0.8452742E-07  0.3508208E+04  0.7818609E-02  0.8111848E-01
        1   -1    0    0  501    0  0.00000000000E+00  0.00000000000E+00  0.19072464485E+04  0.19072464485E+04  0.50400001928E-02 0.  1.
       -1   -1    0    0    0  501  0.00000000000E+00  0.00000000000E+00 -0.16132580872E+04  0.16132580872E+04  0.50400001928E-02 0. -1.
    10030    2    1    2    0    0  0.00000000000E+00  0.00000000000E+00  0.29398836136E+03  0.35205045357E+04  0.35082079513E+04 0.  0.
        1    1    3    3  502    0  0.86386077706E+03 -0.28139345156E+03 -0.13587460764E+04  0.16345117365E+04  0.50400001928E-02 0. -1.
       -1    1    3    3    0  502 -0.86386077706E+03  0.28139345156E+03  0.16527344378E+04  0.18859927992E+04  0.50400001928E-02 0.  1.
</event>
<event>
 5   0  0.2382711E-06  0.3497565E+04  0.7818609E-02  0.8114367E-01
        2   -1    0    0  501    0  0.00000000000E+00  0.00000000000E+00  0.26804414127E+04  0.26804414127E+04  0.25500000920E-02 0.  1.
       -2   -1    0    0    0  501  0.00000000000E+00  0.00000000000E+00 -0.11409466152E+04  0.11409466152E+04  0.25500000920E-02 0. -1.
    10030    2    1    2    0    0  0.00000000000E+00  0.00000000000E+00  0.15394947975E+04  0.38213880279E+04  0.34975651857E+04 0.  0.
        5    1    3    3  502    0 -0.61740980042E+03 -0.16159119414E+04  0.48937163110E+03  0.17977410679E+04  0.46999998093E+01 0. -1.
       -5    1    3    3    0  502  0.61740980042E+03  0.16159119414E+04  0.10501231664E+04  0.20236469600E+04  0.46999998093E+01 0.  1.
</event>
<event>
 5   0  0.1566576E-06  0.3590546E+04  0.7818609E-02  0.8092661E-01
        2   -1    0    0  501    0  0.00000000000E+00  0.00000000000E+00  0.25334820732E+04  0.25334820732E+04  0.25500000920E-02 0.  1.
       -2   -1    0    0    0  501  0.00000000000E+00  0.00000000000E+00 -0.12721638427E+04  0.12721638427E+04  0.25500000920E-02 0. -1.
    10030    2    1    2    0    0  0.00000000000E+00  0.00000000000E+00  0.12613182305E+04  0.38056459160E+04  0.35905455239E+04 0.  0.
        4    1    3    3  502    0  0.65204307438E+03  0.16400158047E+04  0.28203065412E+03  0.17872758358E+04  0.12699999809E+01 0. -1.
       -4    1    3    3    0  502 -0.65204307438E+03 -0.16400158047E+04  0.97928757638E+03  0.20183700802E+04  0.12699999809E+01 0.  1.
</event>
<event>
 5   0  0.8423692E-07  0.3680054E+04  0.7818609E-02  0.8072397E-01
       -1   -1    0    0    0  501  0.00000000000E+00  0.00000000000E+00  0.26860558592E+04  0.26860558592E+04  0.50400001928E-02 0.  1.
        1   -1    0    0  501    0  0.00000000000E+00  0.00000000000E+00 -0.12604725010E+04  0.12604725010E+04  0.50400001928E-02 0. -1.
    10030    2    1    2    0    0  0.00000000000E+00  0.00000000000E+00  0.14255833582E+04  0.39465283602E+04  0.36800541011E+04 0.  0.
        2    1    3    3  502    0 -0.18157636305E+04 -0.10488437957E+03  0.41385787236E+03  0.18652819179E+04  0.25500000920E-02 0. -1.
       -2    1    3    3    0  502  0.18157636305E+04  0.10488437957E+03  0.10117254858E+04  0.20812464423E+04  0.25500000920E-02 0.  1.
</event>
<event>
 5   0  0.2536619E-06  0.3590169E+04  0.7818609E-02  0.8092747E-01
        2   -1    0    0  501    0  0.00000000000E+00  0.00000000000E+00  0.29136846055E+04  0.29136846055E+04  0.25500000920E-02 0.  1.
       -2   -1    0    0    0  501  0.00000000000E+00  0.00000000000E+00 -0.11059290160E+04  0.11059290160E+04  0.25500000920E-02 0. -1.
    10030    2    1    2    0    0  0.00000000000E+00  0.00000000000E+00  0.18077555895E+04  0.40196136215E+04  0.35901689925E+04 0.  0.
        1    1    3    3  502    0  0.17559273275E+04  0.33761660520E+03  0.72662934150E+03  0.19300922132E+04  0.50400001928E-02 0.  1.
       -1    1    3    3    0  502 -0.17559273275E+04 -0.33761660520E+03  0.10811262480E+04  0.20895214083E+04  0.50400001928E-02 0. -1.
</event>
<event>
 5   0  0.7754556E-07  0.2076518E+04  0.7818609E-02  0.8571658E-01
       -1   -1    0    0    0  501  0.00000000000E+00  0.00000000000E+00  0.40718684314E+03  0.40718684318E+03  0.50400001928E-02 0. -1.
        1   -1    0    0  501    0  0.00000000000E+00  0.00000000000E+00 -0.26473891669E+04  0.26473891670E+04  0.50400001928E-02 0.  1.
    10030    2    1    2    0    0  0.00000000000E+00  0.00000000000E+00 -0.22402023238E+04  0.30545760101E+04  0.20765182759E+04 0.  0.
        4    1    3    3  502    0 -0.10225355162E+04 -0.17901281920E+03 -0.10923480510E+04  0.15069340890E+04  0.12699999809E+01 0. -1.
       -4    1    3    3    0  502  0.10225355162E+04  0.17901281920E+03 -0.11478542728E+04  0.15476419211E+04  0.12699999809E+01 0.  1.
</event>
<event>
 5   0  0.1566576E-06  0.3561504E+04  0.7818609E-02  0.8099367E-01
        2   -1    0    0  501    0  0.00000000000E+00  0.00000000000E+00  0.14416465066E+04  0.14416465066E+04  0.25500000920E-02 0. -1.
       -2   -1    0    0    0  501  0.00000000000E+00  0.00000000000E+00 -0.21996223300E+04  0.21996223300E+04  0.25500000920E-02 0.  1.
    10030    2    1    2    0    0  0.00000000000E+00  0.00000000000E+00 -0.75797582345E+03  0.36412688366E+04  0.35615040912E+04 0.  0.
        4    1    3    3  502    0 -0.85326008182E+02  0.97078225633E+03  0.11448209076E+04  0.15034344816E+04  0.12699999809E+01 0. -1.
       -4    1    3    3    0  502  0.85326008182E+02 -0.97078225633E+03 -0.19027967311E+04  0.21378343550E+04  0.12699999809E+01 0.  1.
</event>
<event>
 5   0  0.7707500E-07  0.2210919E+04  0.7818609E-02  0.8513897E-01
        3   -1    0    0  501    0  0.00000000000E+00  0.00000000000E+00  0.76133416503E+03  0.76133417173E+03  0.10100000352E+00 0. -1.
       -3   -1    0    0    0  501  0.00000000000E+00  0.00000000000E+00 -0.16051306743E+04  0.16051306775E+04  0.10100000352E+00 0.  1.
    10030    2    1    2    0    0  0.00000000000E+00  0.00000000000E+00 -0.84379650926E+03  0.23664648492E+04  0.22109191151E+04 0.  0.
        5    1    3    3  502    0 -0.81515460595E+03 -0.59637270734E+02 -0.12185641917E+04  0.14672949312E+04  0.46999998093E+01 0.  1.
       -5    1    3    3    0  502  0.81515460595E+03  0.59637270734E+02  0.37476768247E+03  0.89916991803E+03  0.46999998093E+01 0. -1.
</event>
<event>
 5   0  0.1513502E-06  0.3520552E+04  0.7818609E-02  0.8108937E-01
        2   -1    0    0  501    0  0.00000000000E+00  0.00000000000E+00  0.18400614241E+04  0.18400614241E+04  0.25500000920E-02 0. -1.
       -2   -1    0    0    0  501  0.00000000000E+00  0.00000000000E+00 -0.16839501574E+04  0.16839501574E+04  0.25500000920E-02 0.  1.
    10030    2    1    2    0    0  0.00000000000E+00  0.00000000000E+00  0.15611126665E+03  0.35240115816E+04  0.35205520731E+04 0.  0.
        3    1    3    3  502    0 -0.12414182439E+04  0.11890593331E+04 -0.30124991684E+03  0.17452028182E+04  0.10100000352E+00 0.  1.
       -3    1    3    3    0  502  0.12414182439E+04 -0.11890593331E+04  0.45736118349E+03  0.17788087633E+04  0.10100000352E+00 0. -1.
</event>
<event>
 5   0  0.2422436E-06  0.2491784E+04  0.7818609E-02  0.8405918E-01
        2   -1    0    0  501    0  0.00000000000E+00  0.00000000000E+00  0.26325241731E+04  0.26325241732E+04  0.25500000920E-02 0. -1.
       -2   -1    0    0    0  501  0.00000000000E+00  0.00000000000E+00 -0.58964208614E+03  0.58964208614E+03  0.25500000920E-02 0.  1.
    10030    2    1    2    0    0  0.00000000000E+00  0.00000000000E+00  0.20428820870E+04  0.32221662593E+04  0.24917841361E+04 0.  0.
        2    1    3    3  502    0  0.97823267576E+03 -0.16457155925E+03  0.19962002502E+04  0.22290891425E+04  0.25500000920E-02 0. -1.
       -2    1    3    3    0  502 -0.97823267576E+03  0.16457155925E+03  0.46681836760E+02  0.99307711681E+03  0.25500000920E-02 0.  1.
</event>
<event>
 5   0  0.1566576E-06  0.2674102E+04  0.7818609E-02  0.8343457E-01
        2   -1    0    0  501    0  0.00000000000E+00  0.00000000000E+00  0.12182496150E+04  0.12182496150E+04  0.25500000920E-02 0. -1.
       -2   -1    0    0    0  501  0.00000000000E+00  0.00000000000E+00 -0.14674376348E+04  0.14674376348E+04  0.25500000920E-02 0.  1.
    10030    2    1    2    0    0  0.00000000000E+00  0.00000000000E+00 -0.24918801977E+03  0.26856872498E+04  0.26741019679E+04 0.  0.
        4    1    3    3  502    0 -0.26552449814E+03 -0.12954274983E+04 -0.32310675135E+03  0.13612623730E+04  0.12699999809E+01 0.  1.
       -4    1    3    3    0  502  0.26552449814E+03  0.12954274983E+04  0.73918731577E+02  0.13244248768E+04  0.12699999809E+01 0. -1.
</event>
<event>
 5   0  0.8423692E-07  0.3558290E+04  0.7818609E-02  0.8100113E-01
       -1   -1    0    0    0  501  0.00000000000E+00  0.00000000000E+00  0.15765234583E+04  0.15765234583E+04  0.50400001928E-02 0. -1.
        1   -1    0    0  501    0  0.00000000000E+00  0.00000000000E+00 -0.20078083783E+04  0.20078083783E+04  0.50400001928E-02 0.  1.
    10030    2    1    2    0    0  0.00000000000E+00  0.00000000000E+00 -0.43128492006E+03  0.35843318366E+04  0.35582900434E+04 0.  0.
        2    1    3    3  502    0 -0.17463450407E+04 -0.27918655126E+02  0.12574279449E+03  0.17510887193E+04  0.25500000920E-02 0.  1.
       -2    1    3    3    0  502  0.17463450407E+04  0.27918655126E+02 -0.55702771454E+03  0.18332431173E+04  0.25500000920E-02 0. -1.
</event>
<event>
 5   0  0.2422436E-06  0.3609660E+04  0.7818609E-02  0.8088282E-01
        2   -1    0    0  501    0  0.00000000000E+00  0.00000000000E+00  0.19990688135E+04  0.19990688135E+04  0.25500000920E-02 0. -1.
       -2   -1    0    0    0  501  0.00000000000E+00  0.00000000000E+00 -0.16294646683E+04  0.16294646683E+04  0.25500000920E-02 0.  1.
    10030    2    1    2    0    0  0.00000000000E+00  0.00000000000E+00  0.36960414515E+03  0.36285334818E+04  0.36096603725E+04 0.  0.
        2    1    3    3  502    0  0.79132426048E+03  0.32156177812E+03  0.17830255906E+04  0.19770625481E+04  0.25500000920E-02 0. -1.
       -2    1    3    3    0  502 -0.79132426048E+03 -0.32156177812E+03 -0.14134214455E+04  0.16514709337E+04  0.25500000920E-02 0.  1.
</event>
<event>
 5   0  0.8452742E-07  0.2534682E+04  0.7818609E-02  0.8390733E-01
       -1   -1    0    0    0  501  0.00000000000E+00  0.00000000000E+00  0.10842468893E+04  0.10842468894E+04  0.50400001928E-02 0.  1.
        1   -1    0    0  501    0  0.00000000000E+00  0.00000000000E+00 -0.14813541885E+04  0.14813541886E+04  0.50400001928E-02 0. -1.
    10030    2    1    2    0    0  0.00000000000E+00  0.00000000000E+00 -0.39710729920E+03  0.25656010779E+04  0.25346823635E+04 0.  0.
        1    1    3    3  502    0 -0.49606388413E+03 -0.47390065354E+03  0.88003964141E+03  0.11158543709E+04  0.50400001928E-02 0.  1.
       -1    1    3    3    0  502  0.49606388413E+03  0.47390065354E+03 -0.12771469406E+04  0.14497467070E+04  0.50400001928E-02 0. -1.
</event>
<event>
 5   0  0.8423692E-07  0.3580355E+04  0.7818609E-02  0.8095007E-01
        1   -1    0    0  501    0  0.00000000000E+00  0.00000000000E+00  0.20095341383E+04  0.20095341383E+04  0.50400001928E-02 0.  1.
       -1   -1    0    0    0  501  0.00000000000E+00  0.00000000000E+00 -0.15947653053E+04  0.15947653053E+04  0.50400001928E-02 0. -1.
    10030    2    1    2    0    0  0.00000000000E+00  0.00000000000E+00  0.41476883309E+03  0.36042994436E+04  0.35803549118E+04 0.  0.
        2    1    3    3  502    0 -0.78889419689E+03  0.15904213634E+04  0.43901265135E+03  0.18288046028E+04  0.25500000920E-02 0.  1.
       -2    1    3    3    0  502  0.78889419689E+03 -0.15904213634E+04 -0.24243818256E+02  0.17754948408E+04  0.25500000920E-02 0. -1.
</event>
<event>
 5   0  0.7707500E-07  0.2003752E+04  0.7818609E-02  0.8604868E-01
        4   -1    0    0  501    0  0.00000000000E+00  0.00000000000E+00  0.10355973020E+04  0.10355980808E+04  0.12699999809E+01 0.  1.
       -4   -1    0    0    0  501  0.00000000000E+00  0.00000000000E+00 -0.96925158130E+03  0.96925241334E+03  0.12699999809E+01 0. -1.
    10030    2    1    2    0    0  0.00000000000E+00  0.00000000000E+00  0.66345720736E+02  0.20048504941E+04  0.20037524171E+04 0.  0.
        2    1    3    3  502    0  0.41189695006E+03  0.14581926748E+03  0.93523976892E+03  0.10322769888E+04  0.25500000920E-02 0.  1.
       -2    1    3    3    0  502 -0.41189695006E+03 -0.14581926748E+03 -0.86889404818E+03  0.97257350530E+03  0.25500000920E-02 0. -1.
</event>
<event>
 5   0  0.1634374E-06  0.3507315E+04  0.7818609E-02  0.8112059E-01
        1   -1    0    0  501    0  0.00000000000E+00  0.00000000000E+00  0.22918180599E+04  0.22918180599E+04  0.50400001928E-02 0. -1.
       -1   -1    0    0    0  501  0.00000000000E+00  0.00000000000E+00 -0.13418669972E+04  0.13418669972E+04  0.50400001928E-02 0.  1.
    10030    2    1    2    0    0  0.00000000000E+00  0.00000000000E+00  0.94995106265E+03  0.36336850571E+04  0.35073152229E+04 0.  0.
        5    1    3    3  502    0  0.13687622675E+04 -0.56189189419E+03 -0.50024787819E+03  0.15618907373E+04  0.46999998093E+01 0.  1.
       -5    1    3    3    0  502 -0.13687622675E+04  0.56189189419E+03  0.14501989408E+04  0.20717943198E+04  0.46999998093E+01 0. -1.
</event>
<event>
 5   0  0.2536619E-06  0.3654591E+04  0.7818609E-02  0.8078100E-01
        2   -1    0    0  501    0  0.00000000000E+00  0.00000000000E+00  0.11773968299E+04  0.11773968299E+04  0.25500000920E-02 0. -1.
       -2   -1    0    0    0  501  0.00000000000E+00  0.00000000000E+00 -0.28359241853E+04  0.28359241853E+04  0.25500000920E-02 0.  1.
    10030    2    1    2    0    0  0.00000000000E+00  0.00000000000E+00 -0.16585273554E+04  0.40133210152E+04  0.36545906176E+04 0.  0.
        1    1    3    3  502    0 -0.17980575865E+04 -0.57645303436E+01 -0.11867372914E+04  0.21543884778E+04  0.50400001928E-02 0.  1.
       -1    1    3    3    0  502  0.17980575865E+04  0.57645303436E+01 -0.47179006393E+03  0.18589325374E+04  0.50400001928E-02 0. -1.
</event>
<event>
 5   0  0.1566576E-06  0.3578022E+04  0.7818609E-02  0.8095545E-01
        2   -1    0    0  501    0  0.00000000000E+00  0.00000000000E+00  0.13495866568E+04  0.13495866568E+04  0.25500000920E-02 0. -1.
       -2   -1    0    0    0  501  0.00000000000E+00  0.00000000000E+00 -0.23715121635E+04  0.23715121635E+04  0.25500000920E-02 0.  1.
    10030    2    1    2    0    0  0.00000000000E+00  0.00000000000E+00 -0.10219255067E+04  0.37210988204E+04  0.35780224552E+04 0.  0.
        4    1    3    3  502    0  0.73078033296E+03 -0.50911546180E+03  0.11026345300E+04  0.14174071286E+04  0.12699999809E+01 0. -1.
       -4    1    3    3    0  502 -0.73078033296E+03  0.50911546180E+03 -0.21245600367E+04  0.23036916918E+04  0.12699999809E+01 0.  1.
</event>
<event>
 5   0  0.1513502E-06  0.2389224E+04  0.7818609E-02  0.8443549E-01
       -2   -1    0    0    0  501  0.00000000000E+00  0.00000000000E+00  0.11532504184E+04  0.11532504185E+04  0.25500000920E-02 0. -1.
        2   -1    0    0  501    0  0.00000000000E+00  0.00000000000E+00 -0.12374572896E+04  0.12374572896E+04  0.25500000920E-02 0.  1.
    10030    2    1    2    0    0  0.00000000000E+00  0.00000000000E+00 -0.84206871173E+02  0.23907077081E+04  0.23892242566E+04 0.  0.
        3    1    3    3  502    0  0.10534239241E+03 -0.79844567373E+03  0.84076270673E+03  0.11642570390E+04  0.10100000352E+00 0. -1.
       -3    1    3    3    0  502 -0.10534239241E+03  0.79844567373E+03 -0.92496957790E+03  0.12264506691E+04  0.10100000352E+00 0.  1.
</event>
<event>
 5   0  0.2382711E-06  0.2445223E+04  0.7818609E-02  0.8422764E-01
        2   -1    0    0  501    0  0.00000000000E+00  0.00000000000E+00  0.14173849905E+04  0.14173849905E+04  0.25500000920E-02 0. -1.
       -2   -1    0    0    0  501  0.00000000000E+00  0.00000000000E+00 -0.10546030347E+04  0.10546030347E+04  0.25500000920E-02 0.  1.
    10030    2    1    2    0    0  0.00000000000E+00  0.00000000000E+00  0.36278195586E+03  0.24719880252E+04  0.24452226993E+04 0.  0.
        5    1    3    3  502    0 -0.39625005335E+03 -0.86017665643E+03  0.96305452822E+03  0.13507087396E+04  0.46999998093E+01 0. -1.
       -5    1    3    3    0  502  0.39625005335E+03  0.86017665643E+03 -0.60027257235E+03  0.11212792855E+04  0.46999998093E+01 0.  1.
</event>
<event>
 5   0  0.2382711E-06  0.3640555E+04  0.7818609E-02  0.8081265E-01
        2   -1    0    0  501    0  0.00000000000E+00  0.00000000000E+00  0.22737490169E+04  0.22737490169E+04  0.25500000920E-02 0. -1.
       -2   -1    0    0    0  501  0.00000000000E+00  0.00000000000E+00 -0.14572456863E+04  0.14572456863E+04  0.25500000920E-02 0.  1.
    10030    2    1    2    0    0  0.00000000000E+00  0.00000000000E+00  0.81650333058E+03  0.37309947033E+04  0.36405554229E+04 0.  0.
        5    1    3    3  502    0 -0.41336781931E+03  0.93278757233E+02  0.22224871677E+04  0.22625307028E+04  0.46999998093E+01 0. -1.
       -5    1    3    3    0  502  0.41336781931E+03 -0.93278757233E+02 -0.14059838371E+04  0.14684640005E+04  0.46999998093E+01 0.  1.
</event>
<event>
 5   0  0.7707500E-07  0.3612547E+04  0.7818609E-02  0.8087624E-01
       -3   -1    0    0    0  501  0.00000000000E+00  0.00000000000E+00  0.16746435797E+04  0.16746435827E+04  0.10100000352E+00 0.  1.
        3   -1    0    0  501    0  0.00000000000E+00  0.00000000000E+00 -0.19482499276E+04  0.19482499302E+04  0.10100000352E+00 0. -1.
    10030    2    1    2    0    0  0.00000000000E+00  0.00000000000E+00 -0.27360634788E+03  0.36228935129E+04  0.36125471585E+04 0.  0.
        5    1    3    3  502    0 -0.16985220146E+04  0.59431952954E+03  0.19879414488E+02  0.17996138526E+04  0.46999998093E+01 0. -1.
       -5    1    3    3    0  502  0.16985220146E+04 -0.59431952954E+03 -0.29348576237E+03  0.18232796604E+04  0.46999998093E+01 0.  1.
</event>
<event>
 5   0  0.8423692E-07  0.3561889E+04  0.7818609E-02  0.8099278E-01
       -1   -1    0    0    0  501  0.00000000000E+00  0.00000000000E+00  0.13498849631E+04  0.13498849631E+04  0.50400001928E-02 0. -1.
        1   -1    0    0  501    0  0.00000000000E+00  0.00000000000E+00 -0.23496545085E+04  0.23496545085E+04  0.50400001928E-02 0.  1.
    10030    2    1    2    0    0  0.00000000000E+00  0.00000000000E+00 -0.99976954537E+03  0.36995394716E+04  0.35618889873E+04 0.  0.
        2    1    3    3  502    0 -0.80082718773E+03  0.45896554744E+03  0.10820610148E+04  0.14222621412E+04  0.25500000920E-02 0. -1.
       -2    1    3    3    0  502  0.80082718773E+03 -0.45896554744E+03 -0.20818305602E+04  0.22772773304E+04  0.25500000920E-02 0.  1.
</event>
<event>
 5   0  0.7754556E-07  0.2328360E+04  0.7818609E-02  0.8466822E-01
        1   -1    0    0  501    0  0.00000000000E+00  0.00000000000E+00  0.52063662280E+03  0.52063662282E+03  0.50400001928E-02 0. -1.
       -1   -1    0    0    0  501  0.00000000000E+00  0.00000000000E+00 -0.26031888713E+04  0.26031888713E+04  0.50400001928E-02 0.  1.
    10030    2    1    2    0    0  0.00000000000E+00  0.00000000000E+00 -0.20825522485E+04  0.31238254942E+04  0.23283603351E+04 0.  0.
        4    1    3    3  502    0 -0.34902309000E+03  0.79670656671E+03 -0.31233074982E+01  0.86981023145E+03  0.12699999809E+01 0. -1.
       -4    1    3    3    0  502  0.34902309000E+03 -0.79670656671E+03 -0.20794289410E+04  0.22540152627E+04  0.12699999809E+01 0.  1.
</event>
<event>
 5   0  0.1566576E-06  0.3399269E+04  0.7818609E-02  0.8138086E-01
        2   -1    0    0  501    0  0.00000000000E+00  0.00000000000E+00  0.17062364597E+04  0.17062364597E+04  0.25500000920E-02 0.  1.
       -2   -1    0    0    0  501  0.00000000000E+00  0.00000000000E+00 -0.16930576513E+04  0.16930576513E+04  0.25500000920E-02 0. -1.
    10030    2    1    2    0    0  0.00000000000E+00  0.00000000000E+00  0.13178808377E+02  0.33992941111E+04  0.33992685643E+04 0.  0.
        4    1    3    3  502    0 -0.16414678985E+04  0.11850433800E+03 -0.41802530379E+03  0.16980008562E+04  0.12699999809E+01 0.  1.
       -4    1    3    3    0  502  0.16414678985E+04 -0.11850433800E+03  0.43120411217E+03  0.17012932549E+04  0.12699999809E+01 0. -1.
</event>
<event>
 5   0  0.1513502E-06  0.3580270E+04  0.7818609E-02  0.8095026E-01
       -2   -1    0    0    0  501  0.00000000000E+00  0.00000000000E+00  0.11857842872E+04  0.11857842872E+04  0.25500000920E-02 0.  1.
        2   -1    0    0  501    0  0.00000000000E+00  0.00000000000E+00 -0.27025003326E+04  0.27025003326E+04  0.25500000920E-02 0. -1.
    10030    2    1    2    0    0  0.00000000000E+00  0.00000000000E+00 -0.15167160453E+04  0.38882846198E+04  0.35802695042E+04 0.  0.
        3    1    3    3  502    0  0.40913849946E+03 -0.29274474580E+03 -0.26241485546E+04  0.26719373953E+04  0.10100000352E+00 0. -1.
       -3    1    3    3    0  502 -0.40913849946E+03  0.29274474580E+03  0.11074325092E+04  0.12163472245E+04  0.10100000352E+00 0.  1.
</event>
<event>
 5   0  0.1634374E-06  0.2996340E+04  0.7818609E-02  0.8244777E-01
       -1   -1    0    0    0  501  0.00000000000E+00  0.00000000000E+00  0.11475414631E+04  0.11475414632E+04  0.50400001928E-02 0. -1.
        1   -1    0    0  501    0  0.00000000000E+00  0.00000000000E+00 -0.19559318489E+04  0.19559318489E+04  0.50400001928E-02 0.  1.
    10030    2    1    2    0    0  0.00000000000E+00  0.00000000000E+00 -0.80839038575E+03  0.31034733120E+04  0.29963396975E+04 0.  0.
        5    1    3    3  502    0 -0.78430422615E+03  0.73432887354E+03 -0.14856139051E+04  0.18334237859E+04  0.46999998093E+01 0.  1.
       -5    1    3    3    0  502  0.78430422615E+03 -0.73432887354E+03  0.67722351936E+03  0.12700495261E+04  0.46999998093E+01 0. -1.
</event>
<event>
 5   0  0.1566576E-06  0.3833147E+04  0.7818609E-02  0.8039079E-01
       -2   -1    0    0    0  501  0.00000000000E+00  0.00000000000E+00  0.19367996243E+04  0.19367996243E+04  0.25500000920E-02 0. -1.
        2   -1    0    0  501    0  0.00000000000E+00  0.00000000000E+00 -0.18965584636E+04  0.18965584636E+04  0.25500000920E-02 0.  1.
    10030    2    1    2    0    0  0.00000000000E+00  0.00000000000E+00  0.40241160693E+02  0.38333580880E+04  0.38331468638E+04 0.  0.
        4    1    3    3  502    0 -0.15159255118E+04 -0.11280185892E+04  0.34075641941E+03  0.19200449592E+04  0.12699999809E+01 0. -1.
       -4    1    3    3    0  502  0.15159255118E+04  0.11280185892E+04 -0.30051525872E+03  0.19133131288E+04  0.12699999809E+01 0.  1.
</event>
<event>
 5   0  0.2422436E-06  0.2315478E+04  0.7818609E-02  0.8471843E-01
       -2   -1    0    0    0  501  0.00000000000E+00  0.00000000000E+00  0.64982020431E+03  0.64982020431E+03  0.25500000920E-02 0.  1.
        2   -1    0    0  501    0  0.00000000000E+00  0.00000000000E+00 -0.20626614315E+04  0.20626614315E+04  0.25500000920E-02 0. -1.
    10030    2    1    2    0    0  0.00000000000E+00  0.00000000000E+00 -0.14128412272E+04  0.27124816359E+04  0.23154775515E+04 0.  0.
        2    1    3    3  502    0  0.69034452837E+02 -0.67851284610E+03 -0.18023517585E+04  0.19270748037E+04  0.25500000920E-02 0. -1.
       -2    1    3    3    0  502 -0.69034452837E+02  0.67851284610E+03  0.38951053122E+03  0.78540683212E+03  0.25500000920E-02 0.  1.
</event>
<event>
 5   0  0.2422436E-06  0.2608485E+04  0.7818609E-02  0.8365325E-01
       -2   -1    0    0    0  501  0.00000000000E+00  0.00000000000E+00  0.90064290267E+03  0.90064290267E+03  0.25500000920E-02 0. -1.
        2   -1    0    0  501    0  0.00000000000E+00  0.00000000000E+00 -0.18887042316E+04  0.18887042316E+04  0.25500000920E-02 0.  1.
    10030    2    1    2    0    0  0.00000000000E+00  0.00000000000E+00 -0.98806132894E+03  0.27893471343E+04  0.26084846647E+04 0.  0.
        2    1    3    3  502    0  0.39916582859E+03 -0.11505894975E+04 -0.99314672314E+03  0.15714738191E+04  0.25500000920E-02 0.  1.
       -2    1    3    3    0  502 -0.39916582859E+03  0.11505894975E+04  0.50853942028E+01  0.12178733151E+04  0.25500000920E-02 0. -1.
</event>
<event>
 5   0  0.8423692E-07  0.1891713E+04  0.7818609E-02  0.8658992E-01
        1   -1    0    0  501    0  0.00000000000E+00  0.00000000000E+00  0.13804539535E+04  0.13804539535E+04  0.50400001928E-02 0.  1.
       -1   -1    0    0    0  501  0.00000000000E+00  0.00000000000E+00 -0.64808022442E+03  0.64808022444E+03  0.50400001928E-02 0. -1.
    10030    2    1    2    0    0  0.00000000000E+00  0.00000000000E+00  0.73237372910E+03  0.20285341780E+04  0.18917134117E+04 0.  0.
        2    1    3    3  502    0 -0.86667950273E+02  0.41102306324E+03 -0.54257010920E+03  0.68617316731E+03  0.25500000920E-02 0. -1.
       -2    1    3    3    0  502  0.86667950273E+02 -0.41102306324E+03  0.12749438383E+04  0.13423610107E+04  0.25500000920E-02 0.  1.
</event>
<event>
 5   0  0.7754556E-07  0.3556214E+04  0.7818609E-02  0.8100596E-01
        1   -1    0    0  501    0  0.00000000000E+00  0.00000000000E+00  0.25381506826E+04  0.25381506826E+04  0.50400001928E-02 0. -1.
       -1   -1    0    0    0  501  0.00000000000E+00  0.00000000000E+00 -0.12456564157E+04  0.12456564157E+04  0.50400001928E-02 0.  1.
    10030    2    1    2    0    0  0.00000000000E+00  0.00000000000E+00  0.12924942669E+04  0.37838070982E+04  0.35562135378E+04 0.  0.
        4    1    3    3  502    0 -0.16509678993E+04  0.35013043289E+03  0.12418734060E+04  0.20953609460E+04  0.12699999809E+01 0. -1.
       -4    1    3    3    0  502  0.16509678993E+04 -0.35013043289E+03  0.50620860948E+02  0.16884461523E+04  0.12699999809E+01 0.  1.
</event>
<event>
 5   0  0.1513502E-06  0.3709475E+04  0.7818609E-02  0.8065865E-01
        2   -1    0    0  501    0  0.00000000000E+00  0.00000000000E+00  0.17225234754E+04  0.17225234754E+04  0.25500000920E-02 0.  1.
       -2   -1    0    0    0  501  0.00000000000E+00  0.00000000000E+00 -0.19970995148E+04  0.19970995148E+04  0.25500000920E-02 0. -1.
    10030    2    1    2    0    0  0.00000000000E+00  0.00000000000E+00 -0.27457603939E+03  0.37196229902E+04  0.37094747860E+04 0.  0.
        3    1    3    3  502    0 -0.10540138589E+04 -0.15242027753E+04 -0.60191581672E+02  0.18541203714E+04  0.10100000352E+00 0. -1.
       -3    1    3    3    0  502  0.10540138589E+04  0.15242027753E+04 -0.21438445771E+03  0.18655026188E+04  0.10100000352E+00 0.  1.
</event>
<event>
 5   0  0.1634374E-06  0.3498424E+04  0.7818609E-02  0.8114164E-01
       -1   -1    0    0    0  501  0.00000000000E+00  0.00000000000E+00  0.14117507754E+04  0.14117507754E+04  0.50400001928E-02 0. -1.
        1   -1    0    0  501    0  0.00000000000E+00  0.00000000000E+00 -0.21673384733E+04  0.21673384733E+04  0.50400001928E-02 0.  1.
    10030    2    1    2    0    0  0.00000000000E+00  0.00000000000E+00 -0.75558769792E+03  0.35790892487E+04  0.34984235136E+04 0.  0.
        5    1    3    3  502    0  0.33594632320E+03  0.80957364682E+03  0.11708635863E+04  0.14626048849E+04  0.46999998093E+01 0. -1.
       -5    1    3    3    0  502 -0.33594632320E+03 -0.80957364682E+03 -0.19264512842E+04  0.21164843638E+04  0.46999998093E+01 0.  1.
</event>
<event>
 5   0  0.2422436E-06  0.3697811E+04  0.7818609E-02  0.8068447E-01
       -2   -1    0    0    0  501  0.00000000000E+00  0.00000000000E+00  0.23963357080E+04  0.23963357080E+04  0.25500000920E-02 0.  1.
        2   -1    0    0  501    0  0.00000000000E+00  0.00000000000E+00 -0.14265331823E+04  0.14265331823E+04  0.25500000920E-02 0. -1.
    10030    2    1    2    0    0  0.00000000000E+00  0.00000000000E+00  0.96980252568E+03  0.38228688903E+04  0.36978114627E+04 0.  0.
        2    1    3    3  502    0  0.72142898052E+03 -0.81512181782E+03  0.20299576402E+04  0.23033912766E+04  0.25500000920E-02 0.  1.
       -2    1    3    3    0  502 -0.72142898052E+03  0.81512181782E+03 -0.10601551145E+04  0.15194776138E+04  0.25500000920E-02 0. -1.
</event>
<event>
 5   0  0.1566576E-06  0.2106682E+04  0.7818609E-02  0.8558306E-01
        2   -1    0    0  501    0  0.00000000000E+00  0.00000000000E+00  0.76239364756E+03  0.76239364756E+03  0.25500000920E-02 0.  1.
       -2   -1    0    0    0  501  0.00000000000E+00  0.00000000000E+00 -0.14553210005E+04  0.14553210005E+04  0.25500000920E-02 0. -1.
    10030    2    1    2    0    0  0.00000000000E+00  0.00000000000E+00 -0.69292735296E+03  0.22177146481E+04  0.21066822124E+04 0.  0.
        4    1    3    3  502    0  0.12400803264E+03  0.33440670757E+03 -0.13898211652E+04  0.14348555058E+04  0.12699999809E+01 0. -1.
       -4    1    3    3    0  502 -0.12400803264E+03 -0.33440670757E+03  0.69689381227E+03  0.78285914231E+03  0.12699999809E+01 0.  1.
</event>
<event>
 5   0  0.8423692E-07  0.2075072E+04  0.7818609E-02  0.8572304E-01
       -1   -1    0    0    0  501  0.00000000000E+00  0.00000000000E+00  0.13333605379E+04  0.13333605380E+04  0.50400001928E-02 0. -1.
        1   -1    0    0  501    0  0.00000000000E+00  0.00000000000E+00 -0.80734455327E+03  0.80734455329E+03  0.50400001928E-02 0.  1.
    10030    2    1    2    0    0  0.00000000000E+00  0.00000000000E+00  0.52601598467E+03  0.21407050912E+04  0.20750724015E+04 0.  0.
        2    1    3    3  502    0 -0.75279822903E+02  0.10342714064E+04  0.29717616555E+03  0.10787483799E+04  0.25500000920E-02 0. -1.
       -2    1    3    3    0  502  0.75279822903E+02 -0.10342714064E+04  0.22883981913E+03  0.10619567113E+04  0.25500000920E-02 0.  1.
</event>
<event>
 5   0  0.1513502E-06  0.3549529E+04  0.7818609E-02  0.8102152E-01
       -2   -1    0    0    0  501  0.00000000000E+00  0.00000000000E+00  0.22298573599E+04  0.22298573599E+04  0.25500000920E-02 0. -1.
        2   -1    0    0  501    0  0.00000000000E+00  0.00000000000E+00 -0.14125516149E+04  0.14125516149E+04  0.25500000920E-02 0.  1.
    10030    2    1    2    0    0  0.00000000000E+00  0.00000000000E+00  0.81730574501E+03  0.36424089749E+04  0.35495287658E+04 0.  0.
        3    1    3    3  502    0 -0.46688732278E+03  0.85883803892E+03 -0.11113916757E+04  0.14801277027E+04  0.10100000352E+00 0.  1.
       -3    1    3    3    0  502  0.46688732278E+03 -0.85883803892E+03  0.19286974207E+04  0.21622812722E+04  0.10100000352E+00 0. -1.
</event>
<event>
 5   0  0.1513502E-06  0.2029394E+04  0.7818609E-02  0.8593000E-01
       -2   -1    0    0    0  501  0.00000000000E+00  0.00000000000E+00  0.40117353415E+03  0.40117353416E+03  0.25500000920E-02 0.  1.
        2   -1    0    0  501    0  0.00000000000E+00  0.00000000000E+00 -0.25664956003E+04  0.25664956003E+04  0.25500000920E-02 0. -1.
    10030    2    1    2    0    0  0.00000000000E+00  0.00000000000E+00 -0.21653220661E+04  0.29676691344E+04  0.20293941070E+04 0.  0.
        3    1    3    3  502    0  0.48743885182E+03  0.72474377776E+03 -0.32737861307E+03  0.93275234878E+03  0.10100000352E+00 0.  1.
       -3    1    3    3    0  502 -0.48743885182E+03 -0.72474377776E+03 -0.18379434530E+04  0.20349167856E+04  0.10100000352E+00 0. -1.
</event>
<event>
 5   0  0.1566576E-06  0.3584511E+04  0.7818609E-02  0.8094049E-01
        2   -1    0    0  501    0  0.00000000000E+00  0.00000000000E+00  0.21185580781E+04  0.21185580781E+04  0.25500000920E-02 0.  1.
       -2   -1    0    0    0  501  0.00000000000E+00  0.00000000000E+00 -0.15162105070E+04  0.15162105070E+04  0.25500000920E-02 0. -1.
    10030    2    1    2    0    0  0.00000000000E+00  0.00000000000E+00  0.60234757104E+03  0.36347685851E+04  0.35845111341E+04 0.  0.
        4    1    3    3  502    0  0.14849256004E+03  0.17130663161E+04  0.81376317944E+03  0.19023297214E+04  0.12699999809E+01 0.  1.
       -4    1    3    3    0  502 -0.14849256004E+03 -0.17130663161E+04 -0.21141560840E+03  0.17324388636E+04  0.12699999809E+01 0. -1.
</event>
<event>
 5   0  0.2382711E-06  0.2935703E+04  0.7818609E-02  0.8262333E-01
       -2   -1    0    0    0  501  0.00000000000E+00  0.00000000000E+00  0.80410680684E+03  0.80410680684E+03  0.25500000920E-02 0.  1.
        2   -1    0    0  501    0  0.00000000000E+00  0.00000000000E+00 -0.26794806748E+04  0.26794806748E+04  0.25500000920E-02 0. -1.
    10030    2    1    2    0    0  0.00000000000E+00  0.00000000000E+00 -0.18753738679E+04  0.34835874816E+04  0.29357034246E+04 0.  0.
        5    1    3    3  502    0 -0.12503550824E+04 -0.22378041466E+03 -0.18105653032E+04  0.22117039389E+04  0.46999998093E+01 0. -1.
       -5    1    3    3    0  502  0.12503550824E+04  0.22378041466E+03 -0.64808564682E+02  0.12718835427E+04  0.46999998093E+01 0.  1.
</event>
<event>
 5   0  0.1713814E-06  0.1937640E+04  0.7818609E-02  0.8636344E-01
        2   -1    0    0  501    0  0.00000000000E+00  0.00000000000E+00  0.11961837145E+04  0.11961837145E+04  0.25500000920E-02 0. -1.
       -2   -1    0    0    0  501  0.00000000000E+00  0.00000000000E+00 -0.78467238747E+03  0.78467238747E+03  0.25500000920E-02 0.  1.
    10030    2    1    2    0    0  0.00000000000E+00  0.00000000000E+00  0.41151132699E+03  0.19808561019E+04  0.19376401431E+04 0.  0.
        3    1    3    3  502    0 -0.86140139718E+03  0.17440579447E+03  0.62250272206E+03  0.10770048270E+04  0.10100000352E+00 0. -1.
       -3    1    3    3    0  502  0.86140139718E+03 -0.17440579447E+03 -0.21099139507E+03  0.90385127494E+03  0.10100000352E+00 0.  1.
</event>
<event>
 5   0  0.1908273E-06  0.3553083E+04  0.7818609E-02  0.8101324E-01
       -1   -1    0    0    0  501  0.00000000000E+00  0.00000000000E+00  0.16464997821E+04  0.16464997822E+04  0.50400001928E-02 0. -1.
        1   -1    0    0  501    0  0.00000000000E+00  0.00000000000E+00 -0.19168537594E+04  0.19168537594E+04  0.50400001928E-02 0.  1.
    10030    2    1    2    0    0  0.00000000000E+00  0.00000000000E+00 -0.27035397730E+03  0.35633535416E+04  0.35530827727E+04 0.  0.
        3    1    3    3  502    0 -0.27057935143E+03 -0.73393925562E+03 -0.17348486728E+04  0.19030449138E+04  0.10100000352E+00 0.  1.
       -3    1    3    3    0  502  0.27057935143E+03  0.73393925562E+03  0.14644946955E+04  0.16603086278E+04  0.10100000352E+00 0. -1.
</event>
<event>
 5   0  0.1566576E-06  0.3524859E+04  0.7818609E-02  0.8107924E-01
       -2   -1    0    0    0  501  0.00000000000E+00  0.00000000000E+00  0.16076442094E+04  0.16076442094E+04  0.25500000920E-02 0.  1.
        2   -1    0    0  501    0  0.00000000000E+00  0.00000000000E+00 -0.19321181075E+04  0.19321181075E+04  0.25500000920E-02 0. -1.
    10030    2    1    2    0    0  0.00000000000E+00  0.00000000000E+00 -0.32447389811E+03  0.35397623169E+04  0.35248594226E+04 0.  0.
        4    1    3    3  502    0  0.60798703341E+03  0.20696453325E+03 -0.18104177223E+04  0.19209623872E+04  0.12699999809E+01 0. -1.
       -4    1    3    3    0  502 -0.60798703341E+03 -0.20696453325E+03  0.14859438242E+04  0.16187999297E+04  0.12699999809E+01 0.  1.
</event>
<event>
 5   0  0.7754556E-07  0.3532857E+04  0.7818609E-02  0.8106047E-01
       -1   -1    0    0    0  501  0.00000000000E+00  0.00000000000E+00  0.11809109230E+04  0.11809109230E+04  0.50400001928E-02 0. -1.
        1   -1    0    0  501    0  0.00000000000E+00  0.00000000000E+00 -0.26422560313E+04  0.26422560314E+04  0.50400001928E-02 0.  1.
    10030    2    1    2    0    0  0.00000000000E+00  0.00000000000E+00 -0.14613451084E+04  0.38231669543E+04  0.35328566394E+04 0.  0.
        4    1    3    3  502    0  0.75631597481E+03 -0.97729928159E+03 -0.20965891236E+04  0.24336834851E+04  0.12699999809E+01 0. -1.
       -4    1    3    3    0  502 -0.75631597481E+03  0.97729928159E+03  0.63524401519E+03  0.13894834692E+04  0.12699999809E+01 0.  1.
</event>
<event>
 5   0  0.1513502E-06  0.3569670E+04  0.7818609E-02  0.8097475E-01
       -2   -1    0    0    0  501  0.00000000000E+00  0.00000000000E+00  0.11164338529E+04  0.11164338529E+04  0.25500000920E-02 0. -1.
        2   -1    0    0  501    0  0.00000000000E+00  0.00000000000E+00 -0.28534035071E+04  0.28534035071E+04  0.25500000920E-02 0.  1.
    10030    2    1    2    0    0  0.00000000000E+00  0.00000000000E+00 -0.17369696541E+04  0.39698373600E+04  0.35696701648E+04 0.  0.
        3    1    3    3  502    0  0.13168855232E+03 -0.63488120063E+01  0.11110111635E+04  0.11188065060E+04  0.10100000352E+00 0. -1.
       -3    1    3    3    0  502 -0.13168855232E+03  0.63488120063E+01 -0.28479808177E+04  0.28510308540E+04  0.10100000352E+00 0.  1.
</event>
<event>
 5   0  0.1634374E-06  0.2185149E+04  0.7818609E-02  0.8524635E-01
        1   -1    0    0  501    0  0.00000000000E+00  0.00000000000E+00  0.14251851094E+04  0.14251851094E+04  0.50400001928E-02 0.  1.
       -1   -1    0    0    0  501  0.00000000000E+00  0.00000000000E+00 -0.83758914148E+03  0.83758914149E+03  0.50400001928E-02 0. -1.
    10030    2    1    2    0    0  0.00000000000E+00  0.00000000000E+00  0.58759596793E+03  0.22627742509E+04  0.21851494890E+04 0.  0.
        5    1    3    3  502    0  0.28727769933E+03  0.49065861408E+03  0.12599051127E+04  0.13822652911E+04  0.46999998093E+01 0.  1.
       -5    1    3    3    0  502 -0.28727769933E+03 -0.49065861408E+03 -0.67230914476E+03  0.88050895977E+03  0.46999998093E+01 0. -1.
</event>
<event>
 5   0  0.1634374E-06  0.1815767E+04  0.7818609E-02  0.8697959E-01
        1   -1    0    0  501    0  0.00000000000E+00  0.00000000000E+00  0.13320080089E+04  0.13320080089E+04  0.50400001928E-02 0. -1.
       -1   -1    0    0    0  501  0.00000000000E+00  0.00000000000E+00 -0.61880440799E+03  0.61880440801E+03  0.50400001928E-02 0.  1.
    10030    2    1    2    0    0  0.00000000000E+00  0.00000000000E+00  0.71320360094E+03  0.19508124170E+04  0.18157669756E+04 0.  0.
        5    1    3    3  502    0 -0.34192524410E+03  0.47713760225E+03  0.11006839228E+04  0.12474375142E+04  0.46999998093E+01 0.  1.
       -5    1    3    3    0  502  0.34192524410E+03 -0.47713760225E+03 -0.38748032181E+03  0.70337490276E+03  0.46999998093E+01 0. -1.
</event>
<event>
 5   0  0.1513502E-06  0.2418421E+04  0.7818609E-02  0.8432639E-01
       -2   -1    0    0    0  501  0.00000000000E+00  0.00000000000E+00  0.14190822595E+04  0.14190822595E+04  0.25500000920E-02 0. -1.
        2   -1    0    0  501    0  0.00000000000E+00  0.00000000000E+00 -0.10303771864E+04  0.10303771864E+04  0.25500000920E-02 0.  1.
    10030    2    1    2    0    0  0.00000000000E+00  0.00000000000E+00  0.38870507308E+03  0.24494594458E+04  0.24184209607E+04 0.  0.
        3    1    3    3  502    0 -0.30892311058E+01  0.83273530025E+03  0.10823790542E+04  0.13656507792E+04  0.10100000352E+00 0. -1.
       -3    1    3    3    0  502  0.30892311058E+01 -0.83273530025E+03 -0.69367398109E+03  0.10838086666E+04  0.10100000352E+00 0.  1.
</event>
<event>
 5   0  0.7754556E-07  0.3752196E+04  0.7818609E-02  0.8056492E-01
        1   -1    0    0  501    0  0.00000000000E+00  0.00000000000E+00  0.13899748038E+04  0.13899748038E+04  0.50400001928E-02 0.  1.
       -1   -1    0    0    0  501  0.00000000000E+00  0.00000000000E+00 -0.25322361070E+04  0.25322361070E+04  0.50400001928E-02 0. -1.
    10030    2    1    2    0    0  0.00000000000E+00  0.00000000000E+00 -0.11422613032E+04  0.39222109108E+04  0.37521963627E+04 0.  0.
        4    1    3    3  502    0  0.96891189562E+03  0.57717947145E+03  0.99607431804E+03  0.15046900225E+04  0.12699999809E+01 0.  1.
       -4    1    3    3    0  502 -0.96891189562E+03 -0.57717947145E+03 -0.21383356212E+04  0.24175208883E+04  0.12699999809E+01 0. -1.
</event>
<event>
 5   0  0.9257258E-07  0.2026002E+04  0.7818609E-02  0.8594559E-01
       -1   -1    0    0    0  501  0.00000000000E+00  0.00000000000E+00  0.69706711113E+03  0.69706711115E+03  0.50400001928E-02 0. -1.
        1   -1    0    0  501    0  0.00000000000E+00  0.00000000000E+00 -0.14721270689E+04  0.14721270689E+04  0.50400001928E-02 0.  1.
    10030    2    1    2    0    0  0.00000000000E+00  0.00000000000E+00 -0.77505995777E+03  0.21691941801E+04  0.20260023328E+04 0.  0.
        2    1    3    3  502    0 -0.43272143148E+03  0.29772442012E+03 -0.13149388459E+04  0.14159632185E+04  0.25500000920E-02 0.  1.
       -2    1    3    3    0  502  0.43272143148E+03 -0.29772442012E+03  0.53987888815E+03  0.75323096157E+03  0.25500000920E-02 0. -1.
</event>
<event>
 5   0  0.1908273E-06  0.3639973E+04  0.7818609E-02  0.8081396E-01
       -1   -1    0    0    0  501  0.00000000000E+00  0.00000000000E+00  0.12187640225E+04  0.12187640225E+04  0.50400001928E-02 0. -1.
        1   -1    0    0  501    0  0.00000000000E+00  0.00000000000E+00 -0.27177949072E+04  0.27177949072E+04  0.50400001928E-02 0.  1.
    10030    2    1    2    0    0  0.00000000000E+00  0.00000000000E+00 -0.14990308847E+04  0.39365589296E+04  0.36399728863E+04 0.  0.
        3    1    3    3  502    0 -0.19469953586E+03  0.16187410092E+03  0.11996227473E+04  0.12260529678E+04  0.10100000352E+00 0. -1.
       -3    1    3    3    0  502  0.19469953586E+03 -0.16187410092E+03 -0.26986536320E+04  0.27105059619E+04  0.10100000352E+00 0.  1.
</event>
<event>
 5   0  0.8423692E-07  0.3534785E+04  0.7818609E-02  0.8105596E-01
       -1   -1    0    0    0  501  0.00000000000E+00  0.00000000000E+00  0.15198210406E+04  0.15198210407E+04  0.50400001928E-02 0.  1.
        1   -1    0    0  501    0  0.00000000000E+00  0.00000000000E+00 -0.20552919752E+04  0.20552919752E+04  0.50400001928E-02 0. -1.
    10030    2    1    2    0    0  0.00000000000E+00  0.00000000000E+00 -0.53547093451E+03  0.35751130158E+04  0.35347848526E+04 0.  0.
        2    1    3    3  502    0  0.14561540109E+03 -0.15327210950E+04 -0.11455301686E+04  0.19190302675E+04  0.25500000920E-02 0. -1.
       -2    1    3    3    0  502 -0.14561540109E+03  0.15327210950E+04  0.61005923412E+03  0.16560827483E+04  0.25500000920E-02 0.  1.
</event>
<event>
 5   0  0.8423692E-07  0.3633286E+04  0.7818609E-02  0.8082909E-01
        1   -1    0    0  501    0  0.00000000000E+00  0.00000000000E+00  0.17227188763E+04  0.17227188763E+04  0.50400001928E-02 0.  1.
       -1   -1    0    0    0  501  0.00000000000E+00  0.00000000000E+00 -0.19156880540E+04  0.19156880540E+04  0.50400001928E-02 0. -1.
    10030    2    1    2    0    0  0.00000000000E+00  0.00000000000E+00 -0.19296917766E+03  0.36384069303E+04  0.36332861003E+04 0.  0.
        2    1    3    3  502    0 -0.47341794873E+03  0.11257104323E+04 -0.14433126689E+04  0.18906348119E+04  0.25500000920E-02 0. -1.
       -2    1    3    3    0  502  0.47341794873E+03 -0.11257104323E+04  0.12503434913E+04  0.17477721184E+04  0.25500000920E-02 0.  1.
</event>
<event>
 5   0  0.8423692E-07  0.3234779E+04  0.7818609E-02  0.8179692E-01
        1   -1    0    0  501    0  0.00000000000E+00  0.00000000000E+00  0.20091732396E+04  0.20091732396E+04  0.50400001928E-02 0.  1.
       -1   -1    0    0    0  501  0.00000000000E+00  0.00000000000E+00 -0.13020024714E+04  0.13020024714E+04  0.50400001928E-02 0. -1.
    10030    2    1    2    0    0  0.00000000000E+00  0.00000000000E+00  0.70717076822E+03  0.33111757110E+04  0.32347788323E+04 0.  0.
        2    1    3    3  502    0 -0.78369047405E+03  0.53795056622E+03 -0.98590188469E+03  0.13695123574E+04  0.25500000920E-02 0. -1.
       -2    1    3    3    0  502  0.78369047405E+03 -0.53795056622E+03  0.16930726529E+04  0.19416633536E+04  0.25500000920E-02 0.  1.
</event>
<event>
 5   0  0.7754556E-07  0.3756850E+04  0.7818609E-02  0.8055479E-01
       -1   -1    0    0    0  501  0.00000000000E+00  0.00000000000E+00  0.29636719972E+04  0.29636719972E+04  0.50400001928E-02 0. -1.
        1   -1    0    0  501    0  0.00000000000E+00  0.00000000000E+00 -0.11905775091E+04  0.11905775091E+04  0.50400001928E-02 0.  1.
    10030    2    1    2    0    0  0.00000000000E+00  0.00000000000E+00  0.17730944881E+04  0.41542495062E+04  0.37568503958E+04 0.  0.
        4    1    3    3  502    0  0.10787942365E+04  0.84740628029E+02  0.25843790964E+04  0.28017842360E+04  0.12699999809E+01 0. -1.
       -4    1    3    3    0  502 -0.10787942365E+04 -0.84740628029E+02 -0.81128460825E+03  0.13524652702E+04  0.12699999809E+01 0.  1.
</event>
<event>
 5   0  0.2422436E-06  0.3597024E+04  0.7818609E-02  0.8091174E-01
        2   -1    0    0  501    0  0.00000000000E+00  0.00000000000E+00  0.22983319534E+04  0.22983319534E+04  0.25500000920E-02 0. -1.
       -2   -1    0    0    0  501  0.00000000000E+00  0.00000000000E+00 -0.14073884457E+04  0.14073884457E+04  0.25500000920E-02 0.  1.
    10030    2    1    2    0    0  0.00000000000E+00  0.00000000000E+00  0.89094350773E+03  0.37057203991E+04  0.35970242343E+04 0.  0.
        2    1    3    3  502    0 -0.46817587464E+02  0.92348675589E+02 -0.14043155512E+04  0.14081272427E+04  0.25500000920E-02 0.  1.
       -2    1    3    3    0  502  0.46817587464E+02 -0.92348675589E+02  0.22952590589E+04  0.22975931563E+04  0.25500000920E-02 0. -1.
</event>
<event>
 5   0  0.7754556E-07  0.3037495E+04  0.7818609E-02  0.8233104E-01
       -1   -1    0    0    0  501  0.00000000000E+00  0.00000000000E+00  0.20221893905E+04  0.20221893905E+04  0.50400001928E-02 0. -1.
        1   -1    0    0  501    0  0.00000000000E+00  0.00000000000E+00 -0.11406415593E+04  0.11406415594E+04  0.50400001928E-02 0.  1.
    10030    2    1    2    0    0  0.00000000000E+00  0.00000000000E+00  0.88154783117E+03  0.31628309499E+04  0.30374945331E+04 0.  0.
        4    1    3    3  502    0 -0.14243225057E+04 -0.13263174698E+03  0.97202820878E+03  0.17294872743E+04  0.12699999809E+01 0. -1.
       -4    1    3    3    0  502  0.14243225057E+04  0.13263174698E+03 -0.90480377607E+02  0.14333436755E+04  0.12699999809E+01 0.  1.
</event>
<event>
 5   0  0.7754556E-07  0.3622067E+04  0.7818609E-02  0.8085456E-01
       -1   -1    0    0    0  501  0.00000000000E+00  0.00000000000E+00  0.15132502926E+04  0.15132502926E+04  0.50400001928E-02 0. -1.
        1   -1    0    0  501    0  0.00000000000E+00  0.00000000000E+00 -0.21674156425E+04  0.21674156425E+04  0.50400001928E-02 0.  1.
    10030    2    1    2    0    0  0.00000000000E+00  0.00000000000E+00 -0.65416534986E+03  0.36806659352E+04  0.36220670095E+04 0.  0.
        4    1    3    3  502    0  0.46599172090E+03  0.14218827362E+04  0.70968912308E+03  0.16560673488E+04  0.12699999809E+01 0. -1.
       -4    1    3    3    0  502 -0.46599172090E+03 -0.14218827362E+04 -0.13638544729E+04  0.20245985863E+04  0.12699999809E+01 0.  1.
</event>
<event>
 5   0  0.1513502E-06  0.2043597E+04  0.7818609E-02  0.8586504E-01
        2   -1    0    0  501    0  0.00000000000E+00  0.00000000000E+00  0.13802247939E+04  0.13802247939E+04  0.25500000920E-02 0.  1.
       -2   -1    0    0    0  501  0.00000000000E+00  0.00000000000E+00 -0.75645115366E+03  0.75645115367E+03  0.25500000920E-02 0. -1.
    10030    2    1    2    0    0  0.00000000000E+00  0.00000000000E+00  0.62377364028E+03  0.21366759476E+04  0.20435974532E+04 0.  0.
        3    1    3    3  502    0 -0.38061116456E+03 -0.42087193865E+03 -0.57656593127E+03  0.80896621106E+03  0.10100000352E+00 0. -1.
       -3    1    3    3    0  502  0.38061116456E+03  0.42087193865E+03  0.12003395715E+04  0.13277097366E+04  0.10100000352E+00 0.  1.
</event>
<event>
 5   0  0.2382711E-06  0.3440085E+04  0.7818609E-02  0.8128138E-01
       -2   -1    0    0    0  501  0.00000000000E+00  0.00000000000E+00  0.14011940580E+04  0.14011940580E+04  0.25500000920E-02 0.  1.
        2   -1    0    0  501    0  0.00000000000E+00  0.00000000000E+00 -0.21114466539E+04  0.21114466539E+04  0.25500000920E-02 0. -1.
    10030    2    1    2    0    0  0.00000000000E+00  0.00000000000E+00 -0.71025259587E+03  0.35126407119E+04  0.34400851764E+04 0.  0.
        5    1    3    3  502    0 -0.18878335863E+03  0.31206291795E+03  0.13612493487E+04  0.14092708401E+04  0.46999998093E+01 0.  1.
       -5    1    3    3    0  502  0.18878335863E+03 -0.31206291795E+03 -0.20715019446E+04  0.21033698718E+04  0.46999998093E+01 0. -1.
</event>
<event>
 5   0  0.8452742E-07  0.2285547E+04  0.7818609E-02  0.8483642E-01
        1   -1    0    0  501    0  0.00000000000E+00  0.00000000000E+00  0.14679553381E+04  0.14679553381E+04  0.50400001928E-02 0.  1.
       -1   -1    0    0    0  501  0.00000000000E+00  0.00000000000E+00 -0.88962566178E+03  0.88962566180E+03  0.50400001928E-02 0. -1.
    10030    2    1    2    0    0  0.00000000000E+00  0.00000000000E+00  0.57832967628E+03  0.23575809999E+04  0.22855465334E+04 0.  0.
        1    1    3    3  502    0  0.21961581921E+03 -0.10999682858E+04  0.63714207932E+02  0.11234860205E+04  0.50400001928E-02 0. -1.
       -1    1    3    3    0  502 -0.21961581921E+03  0.10999682858E+04  0.51461546835E+03  0.12340949794E+04  0.50400001928E-02 0.  1.
</event>
<event>
 5   0  0.8423692E-07  0.3580057E+04  0.7818609E-02  0.8095075E-01
        1   -1    0    0  501    0  0.00000000000E+00  0.00000000000E+00  0.13204928569E+04  0.13204928569E+04  0.50400001928E-02 0.  1.
       -1   -1    0    0    0  501  0.00000000000E+00  0.00000000000E+00 -0.24265201559E+04  0.24265201559E+04  0.50400001928E-02 0. -1.
    10030    2    1    2    0    0  0.00000000000E+00  0.00000000000E+00 -0.11060272990E+04  0.37470130127E+04  0.35800572805E+04 0.  0.
        2    1    3    3  502    0  0.39670825884E+03 -0.16741548460E+04 -0.10700456303E+04  0.20261217984E+04  0.25500000920E-02 0. -1.
       -2    1    3    3    0  502 -0.39670825884E+03  0.16741548460E+04 -0.35981668677E+02  0.17208912143E+04  0.25500000920E-02 0.  1.
</event>
<event>
 5   0  0.8423692E-07  0.2809478E+04  0.7818609E-02  0.8300332E-01
        1   -1    0    0  501    0  0.00000000000E+00  0.00000000000E+00  0.16283363064E+04  0.16283363064E+04  0.50400001928E-02 0. -1.
       -1   -1    0    0    0  501  0.00000000000E+00  0.00000000000E+00 -0.12118452603E+04  0.12118452603E+04  0.50400001928E-02 0.  1.
    10030    2    1    2    0    0  0.00000000000E+00  0.00000000000E+00  0.41649104609E+03  0.28401815667E+04  0.28094779836E+04 0.  0.
        2    1    3    3  502    0  0.19077156313E+03 -0.11326503879E+04 -0.60929569761E+03  0.13002045753E+04  0.25500000920E-02 0.  1.
       -2    1    3    3    0  502 -0.19077156313E+03  0.11326503879E+04  0.10257867437E+04  0.15399769914E+04  0.25500000920E-02 0. -1.
</event>
<event>
 5   0  0.1566576E-06  0.2055411E+04  0.7818609E-02  0.8581143E-01
       -2   -1    0    0    0  501  0.00000000000E+00  0.00000000000E+00  0.90890509904E+03  0.90890509904E+03  0.25500000920E-02 0. -1.
        2   -1    0    0  501    0  0.00000000000E+00  0.00000000000E+00 -0.11620342805E+04  0.11620342805E+04  0.25500000920E-02 0.  1.
    10030    2    1    2    0    0  0.00000000000E+00  0.00000000000E+00 -0.25312918147E+03  0.20709393796E+04  0.20554112803E+04 0.  0.
        4    1    3    3  502    0 -0.62868518082E+03  0.40127803321E+03  0.58581875981E+03  0.94839567100E+03  0.12699999809E+01 0. -1.
       -4    1    3    3    0  502  0.62868518082E+03 -0.40127803321E+03 -0.83894794128E+03  0.11225437085E+04  0.12699999809E+01 0.  1.
</event>
<event>
 5   0  0.8452742E-07  0.3495906E+04  0.7818609E-02  0.8114761E-01
        1   -1    0    0  501    0  0.00000000000E+00  0.00000000000E+00  0.18246901590E+04  0.18246901590E+04  0.50400001928E-02 0.  1.
       -1   -1    0    0    0  501  0.00000000000E+00  0.00000000000E+00 -0.16744426823E+04  0.16744426823E+04  0.50400001928E-02 0. -1.
    10030    2    1    2    0    0  0.00000000000E+00  0.00000000000E+00  0.15024747674E+03  0.34991328413E+04  0.34959056533E+04 0.  0.
        1    1    3    3  502    0 -0.15848258310E+03  0.15661870127E+03  0.18104176072E+04  0.18240773172E+04  0.50400001928E-02 0.  1.
       -1    1    3    3    0  502  0.15848258310E+03 -0.15661870127E+03 -0.16601701304E+04  0.16750555241E+04  0.50400001928E-02 0. -1.
</event>
<event>
 5   0  0.2422436E-06  0.3556902E+04  0.7818609E-02  0.8100436E-01
       -2   -1    0    0    0  501  0.00000000000E+00  0.00000000000E+00  0.15343892277E+04  0.15343892278E+04  0.25500000920E-02 0.  1.
        2   -1    0    0  501    0  0.00000000000E+00  0.00000000000E+00 -0.20613339826E+04  0.20613339826E+04  0.25500000920E-02 0. -1.
    10030    2    1    2    0    0  0.00000000000E+00  0.00000000000E+00 -0.52694475489E+03  0.35957232104E+04  0.35569023927E+04 0.  0.
        2    1    3    3  502    0  0.11443008537E+04 -0.64810590504E+02  0.11112460056E+04  0.15963998689E+04  0.25500000920E-02 0.  1.
       -2    1    3    3    0  502 -0.11443008537E+04  0.64810590504E+02 -0.16381907604E+04  0.19993233415E+04  0.25500000920E-02 0. -1.
</event>
<event>
 5   0  0.1513502E-06  0.3569064E+04  0.7818609E-02  0.8097615E-01
       -2   -1    0    0    0  501  0.00000000000E+00  0.00000000000E+00  0.18755128493E+04  0.18755128493E+04  0.25500000920E-02 0. -1.
        2   -1    0    0  501    0  0.00000000000E+00  0.00000000000E+00 -0.16979648568E+04  0.16979648568E+04  0.25500000920E-02 0.  1.
    10030    2    1    2    0    0  0.00000000000E+00  0.00000000000E+00  0.17754799249E+03  0.35734777060E+04  0.35690642507E+04 0.  0.
        3    1    3    3  502    0 -0.63986006295E+03 -0.15859115973E+04 -0.42177655911E+03  0.17613721840E+04  0.10100000352E+00 0.  1.
       -3    1    3    3    0  502  0.63986006295E+03  0.15859115973E+04  0.59932455160E+03  0.18121055220E+04  0.10100000352E+00 0. -1.
</event>
<event>
 5   0  0.1588660E-06  0.2014740E+04  0.7818609E-02  0.8599760E-01
        2   -1    0    0  501    0  0.00000000000E+00  0.00000000000E+00  0.15967630628E+04  0.15967630628E+04  0.25500000920E-02 0. -1.
       -2   -1    0    0    0  501  0.00000000000E+00  0.00000000000E+00 -0.63553219196E+03  0.63553219197E+03  0.25500000920E-02 0.  1.
    10030    2    1    2    0    0  0.00000000000E+00  0.00000000000E+00  0.96123087082E+03  0.22322952548E+04  0.20147400124E+04 0.  0.
        3    1    3    3  502    0  0.40751205372E+02 -0.58839151519E+03  0.13854568140E+04  0.15057741629E+04  0.10100000352E+00 0. -1.
       -3    1    3    3    0  502 -0.40751205372E+02  0.58839151519E+03 -0.42422594318E+03  0.72652109189E+03  0.10100000352E+00 0.  1.
</event>
<event>
 5   0  0.2382711E-06  0.3598273E+04  0.7818609E-02  0.8090888E-01
       -2   -1    0    0    0  501  0.00000000000E+00  0.00000000000E+00  0.18428675414E+04  0.18428675414E+04  0.25500000920E-02 0. -1.
        2   -1    0    0  501    0  0.00000000000E+00  0.00000000000E+00 -0.17564427417E+04  0.17564427417E+04  0.25500000920E-02 0.  1.
    10030    2    1    2    0    0  0.00000000000E+00  0.00000000000E+00  0.86424799691E+02  0.35993102831E+04  0.35982725394E+04 0.  0.
        5    1    3    3  502    0 -0.14835091108E+04  0.29600720154E+03  0.10173770817E+04  0.18230462862E+04  0.46999998093E+01 0. -1.
       -5    1    3    3    0  502  0.14835091108E+04 -0.29600720154E+03 -0.93095228202E+03  0.17762639969E+04  0.46999998093E+01 0.  1.
</event>
<event>
 5   0  0.1513502E-06  0.2538649E+04  0.7818609E-02  0.8389344E-01
       -2   -1    0    0    0  501  0.00000000000E+00  0.00000000000E+00  0.74017315214E+03  0.74017315214E+03  0.25500000920E-02 0.  1.
        2   -1    0    0  501    0  0.00000000000E+00  0.00000000000E+00 -0.21767680208E+04  0.21767680208E+04  0.25500000920E-02 0. -1.
    10030    2    1    2    0    0  0.00000000000E+00  0.00000000000E+00 -0.14365948686E+04  0.29169411729E+04  0.25386494421E+04 0.  0.
        3    1    3    3  502    0  0.99670338799E+03 -0.34551103138E+03  0.92868072459E+02  0.10589712015E+04  0.10100000352E+00 0.  1.
       -3    1    3    3    0  502 -0.99670338799E+03  0.34551103138E+03 -0.15294629411E+04  0.18579699714E+04  0.10100000352E+00 0. -1.
</event>
<event>
 5   0  0.1908273E-06  0.3718944E+04  0.7818609E-02  0.8063776E-01
        1   -1    0    0  501    0  0.00000000000E+00  0.00000000000E+00  0.25267459919E+04  0.25267459919E+04  0.50400001928E-02 0. -1.
       -1   -1    0    0    0  501  0.00000000000E+00  0.00000000000E+00 -0.13684149664E+04  0.13684149664E+04  0.50400001928E-02 0.  1.
    10030    2    1    2    0    0  0.00000000000E+00  0.00000000000E+00  0.11583310255E+04  0.38951609583E+04  0.37189444910E+04 0.  0.
        3    1    3    3  502    0  0.16223065028E+04 -0.88815959284E+03  0.37788476104E+03  0.18877242262E+04  0.10100000352E+00 0. -1.
       -3    1    3    3    0  502 -0.16223065028E+04  0.88815959284E+03  0.78044626444E+03  0.20074367321E+04  0.10100000352E+00 0.  1.
</event>
<event>
 5   0  0.8452742E-07  0.3459524E+04  0.7818609E-02  0.8123450E-01
       -1   -1    0    0    0  501  0.00000000000E+00  0.00000000000E+00  0.14748634561E+04  0.14748634561E+04  0.50400001928E-02 0.  1.
        1   -1    0    0  501    0  0.00000000000E+00  0.00000000000E+00 -0.20287145272E+04  0.20287145272E+04  0.50400001928E-02 0. -1.
    10030    2    1    2    0    0  0.00000000000E+00  0.00000000000E+00 -0.55385107103E+03  0.35035779833E+04  0.34595241980E+04 0.  0.
        1    1    3    3  502    0 -0.14483850883E+04  0.21545329644E+03 -0.12094316953E+04  0.18992010195E+04  0.50400001928E-02 0. -1.
       -1    1    3    3    0  502  0.14483850883E+04 -0.21545329644E+03  0.65558062429E+03  0.16043769638E+04  0.50400001928E-02 0.  1.
</event>
<event>
 5   0  0.7754556E-07  0.1785403E+04  0.7818609E-02  0.8714101E-01
       -1   -1    0    0    0  501  0.00000000000E+00  0.00000000000E+00  0.46039087151E+03  0.46039087153E+03  0.50400001928E-02 0.  1.
        1   -1    0    0  501    0  0.00000000000E+00  0.00000000000E+00 -0.17309552963E+04  0.17309552963E+04  0.50400001928E-02 0. -1.
    10030    2    1    2    0    0  0.00000000000E+00  0.00000000000E+00 -0.12705644248E+04  0.21913461678E+04  0.17854030553E+04 0.  0.
        4    1    3    3  502    0 -0.51605367633E+03  0.53773970087E+03 -0.12383671008E+04  0.14453477340E+04  0.12699999809E+01 0. -1.
       -4    1    3    3    0  502  0.51605367633E+03 -0.53773970087E+03 -0.32197323940E+02  0.74599843386E+03  0.12699999809E+01 0.  1.
</event>
<event>
 5   0  0.2057802E-06  0.1872409E+04  0.7818609E-02  0.8668713E-01
       -2   -1    0    0    0  501  0.00000000000E+00  0.00000000000E+00  0.46301016180E+03  0.46301016180E+03  0.25500000920E-02 0. -1.
        2   -1    0    0  501    0  0.00000000000E+00  0.00000000000E+00 -0.18930018446E+04  0.18930018446E+04  0.25500000920E-02 0.  1.
    10030    2    1    2    0    0  0.00000000000E+00  0.00000000000E+00 -0.14299916828E+04  0.23560120064E+04  0.18724092399E+04 0.  0.
        4    1    3    3  502    0 -0.24890849649E+03  0.77176091081E+02  0.41645172215E+03  0.49126900823E+03  0.12699999809E+01 0. -1.
       -4    1    3    3    0  502  0.24890849649E+03 -0.77176091081E+02 -0.18464434050E+04  0.18647429982E+04  0.12699999809E+01 0.  1.
</event>
<event>
 5   0  0.8423692E-07  0.3621829E+04  0.7818609E-02  0.8085510E-01
       -1   -1    0    0    0  501  0.00000000000E+00  0.00000000000E+00  0.18457283352E+04  0.18457283352E+04  0.50400001928E-02 0.  1.
        1   -1    0    0  501    0  0.00000000000E+00  0.00000000000E+00 -0.17767570497E+04  0.17767570498E+04  0.50400001928E-02 0. -1.
    10030    2    1    2    0    0  0.00000000000E+00  0.00000000000E+00  0.68971285428E+02  0.36224853849E+04  0.36218287267E+04 0.  0.
        2    1    3    3  502    0 -0.10473422606E+04  0.84453119116E+03  0.12468325005E+04  0.18343254968E+04  0.25500000920E-02 0. -1.
       -2    1    3    3    0  502  0.10473422606E+04 -0.84453119116E+03 -0.11778612151E+04  0.17881598882E+04  0.25500000920E-02 0.  1.
</event>
<event>
 5   0  0.2382711E-06  0.3639054E+04  0.7818609E-02  0.8081604E-01
        2   -1    0    0  501    0  0.00000000000E+00  0.00000000000E+00  0.18254105037E+04  0.18254105037E+04  0.25500000920E-02 0. -1.
       -2   -1    0    0    0  501  0.00000000000E+00  0.00000000000E+00 -0.18136624952E+04  0.18136624952E+04  0.25500000920E-02 0.  1.
    10030    2    1    2    0    0  0.00000000000E+00  0.00000000000E+00  0.11748008451E+02  0.36390729989E+04  0.36390540358E+04 0.  0.
        5    1    3    3  502    0  0.49134732567E+03 -0.32859557277E+03 -0.17149659349E+04  0.18139811170E+04  0.46999998093E+01 0.  1.
       -5    1    3    3    0  502 -0.49134732567E+03  0.32859557277E+03  0.17267139434E+04  0.18250918819E+04  0.46999998093E+01 0. -1.
</event>
<event>
 5   0  0.8452742E-07  0.3488051E+04  0.7818609E-02  0.8116628E-01
        1   -1    0    0  501    0  0.00000000000E+00  0.00000000000E+00  0.24566991759E+04  0.24566991759E+04  0.50400001928E-02 0.  1.
       -1   -1    0    0    0  501  0.00000000000E+00  0.00000000000E+00 -0.12380940460E+04  0.12380940461E+04  0.50400001928E-02 0. -1.
    10030    2    1    2    0    0  0.00000000000E+00  0.00000000000E+00  0.12186051298E+04  0.36947932219E+04  0.34880508153E+04 0.  0.
        1    1    3    3  502    0  0.13981623399E+04  0.52495983056E+03  0.15633434534E+04  0.21620553891E+04  0.50400001928E-02 0.  1.
       -1    1    3    3    0  502 -0.13981623399E+04 -0.52495983056E+03 -0.34473832354E+03  0.15327378328E+04  0.50400001928E-02 0. -1.
</event>
<event>
 5   0  0.2422436E-06  0.3618670E+04  0.7818609E-02  0.8086228E-01
       -2   -1    0    0    0  501  0.00000000000E+00  0.00000000000E+00  0.19985717972E+04  0.19985717972E+04  0.25500000920E-02 0. -1.
        2   -1    0    0  501    0  0.00000000000E+00  0.00000000000E+00 -0.16380164331E+04  0.16380164331E+04  0.25500000920E-02 0.  1.
    10030    2    1    2    0    0  0.00000000000E+00  0.00000000000E+00  0.36055536407E+03  0.36365882303E+04  0.36186701682E+04 0.  0.
        2    1    3    3  502    0 -0.98309533393E+03 -0.10481094686E+04  0.12851228862E+04  0.19278357623E+04  0.25500000920E-02 0. -1.
       -2    1    3    3    0  502  0.98309533393E+03  0.10481094686E+04 -0.92456752218E+03  0.17087524680E+04  0.25500000920E-02 0.  1.
</event>
<event>
 5   0  0.1566576E-06  0.2907901E+04  0.7818609E-02  0.8270531E-01
       -2   -1    0    0    0  501  0.00000000000E+00  0.00000000000E+00  0.14095903776E+04  0.14095903776E+04  0.25500000920E-02 0.  1.
        2   -1    0    0  501    0  0.00000000000E+00  0.00000000000E+00 -0.14997062232E+04  0.14997062232E+04  0.25500000920E-02 0. -1.
    10030    2    1    2    0    0  0.00000000000E+00  0.00000000000E+00 -0.90115845683E+02  0.29092966008E+04  0.29079005908E+04 0.  0.
        4    1    3    3  502    0 -0.94765273773E+03 -0.27819731573E+03 -0.11125895677E+04  0.14877152338E+04  0.12699999809E+01 0. -1.
       -4    1    3    3    0  502  0.94765273773E+03  0.27819731573E+03  0.10224737220E+04  0.14215813670E+04  0.12699999809E+01 0.  1.
</event>
<event>
 5   0  0.2422436E-06  0.3525336E+04  0.7818609E-02  0.8107812E-01
       -2   -1    0    0    0  501  0.00000000000E+00  0.00000000000E+00  0.16940967419E+04  0.16940967419E+04  0.25500000920E-02 0. -1.
        2   -1    0    0  501    0  0.00000000000E+00  0.00000000000E+00 -0.18340152350E+04  0.18340152350E+04  0.25500000920E-02 0.  1.
    10030    2    1    2    0    0  0.00000000000E+00  0.00000000000E+00 -0.13991849317E+03  0.35281119769E+04  0.35253364289E+04 0.  0.
        2    1    3    3  502    0 -0.27991855344E+03  0.77358284569E+03 -0.16301011024E+04  0.18259283721E+04  0.25500000920E-02 0.  1.
       -2    1    3    3    0  502  0.27991855344E+03 -0.77358284569E+03  0.14901826093E+04  0.17021836049E+04  0.25500000920E-02 0. -1.
</event>
<event>
 5   0  0.8423692E-07  0.3559264E+04  0.7818609E-02  0.8099887E-01
        1   -1    0    0  501    0  0.00000000000E+00  0.00000000000E+00  0.28354267925E+04  0.28354267925E+04  0.50400001928E-02 0.  1.
       -1   -1    0    0    0  501  0.00000000000E+00  0.00000000000E+00 -0.11169710971E+04  0.11169710971E+04  0.50400001928E-02 0. -1.
    10030    2    1    2    0    0  0.00000000000E+00  0.00000000000E+00  0.17184556954E+04  0.39523978896E+04  0.35592638425E+04 0.  0.
        2    1    3    3  502    0  0.76795632847E+03 -0.54794178431E+02 -0.92246412320E+03  0.12015404209E+04  0.25500000920E-02 0. -1.
       -2    1    3    3    0  502 -0.76795632847E+03  0.54794178431E+02  0.26409198186E+04  0.27508574687E+04  0.25500000920E-02 0.  1.
</event>
<event>
 5   0  0.1513502E-06  0.2401344E+04  0.7818609E-02  0.8439001E-01
       -2   -1    0    0    0  501  0.00000000000E+00  0.00000000000E+00  0.52817695906E+03  0.52817695906E+03  0.25500000920E-02 0.  1.
        2   -1    0    0  501    0  0.00000000000E+00  0.00000000000E+00 -0.27294132395E+04  0.27294132395E+04  0.25500000920E-02 0. -1.
    10030    2    1    2    0    0  0.00000000000E+00  0.00000000000E+00 -0.22012362804E+04  0.32575901986E+04  0.24013439444E+04 0.  0.
        3    1    3    3  502    0 -0.92443413200E+03  0.73960730338E+03 -0.13719854602E+04  0.18121648768E+04  0.10100000352E+00 0. -1.
       -3    1    3    3    0  502  0.92443413200E+03 -0.73960730338E+03 -0.82925082023E+03  0.14454253217E+04  0.10100000352E+00 0.  1.
</event>
<event>
 5   0  0.2382711E-06  0.3674326E+04  0.7818609E-02  0.8073675E-01
        2   -1    0    0  501    0  0.00000000000E+00  0.00000000000E+00  0.19708125996E+04  0.19708125996E+04  0.25500000920E-02 0.  1.
       -2   -1    0    0    0  501  0.00000000000E+00  0.00000000000E+00 -0.17125770053E+04  0.17125770053E+04  0.25500000920E-02 0. -1.
    10030    2    1    2    0    0  0.00000000000E+00  0.00000000000E+00  0.25823559426E+03  0.36833896049E+04  0.36743262456E+04 0.  0.
        5    1    3    3  502    0  0.74756496277E+03  0.34479408549E+03 -0.15173127603E+04  0.17262666183E+04  0.46999998093E+01 0. -1.
       -5    1    3    3    0  502 -0.74756496277E+03 -0.34479408549E+03  0.17755483546E+04  0.19571229865E+04  0.46999998093E+01 0.  1.
</event>
<event>
 5   0  0.7754556E-07  0.2161836E+04  0.7818609E-02  0.8534483E-01
       -1   -1    0    0    0  501  0.00000000000E+00  0.00000000000E+00  0.13405085574E+04  0.13405085574E+04  0.50400001928E-02 0.  1.
        1   -1    0    0  501    0  0.00000000000E+00  0.00000000000E+00 -0.87159756570E+03  0.87159756572E+03  0.50400001928E-02 0. -1.
    10030    2    1    2    0    0  0.00000000000E+00  0.00000000000E+00  0.46891099165E+03  0.22121061231E+04  0.21618362523E+04 0.  0.
        4    1    3    3  502    0 -0.58117109727E+03  0.43181569563E+03 -0.58680187118E+03  0.93196710683E+03  0.12699999809E+01 0. -1.
       -4    1    3    3    0  502  0.58117109727E+03 -0.43181569563E+03  0.10557128628E+04  0.12801390163E+04  0.12699999809E+01 0.  1.
</event>
<event>
 5   0  0.1908273E-06  0.3085087E+04  0.7818609E-02  0.8219843E-01
       -1   -1    0    0    0  501  0.00000000000E+00  0.00000000000E+00  0.94077648276E+03  0.94077648277E+03  0.50400001928E-02 0. -1.
        1   -1    0    0  501    0  0.00000000000E+00  0.00000000000E+00 -0.25292297098E+04  0.25292297098E+04  0.50400001928E-02 0.  1.
    10030    2    1    2    0    0  0.00000000000E+00  0.00000000000E+00 -0.15884532270E+04  0.34700061925E+04  0.30850865988E+04 0.  0.
        3    1    3    3  502    0  0.70326919617E+03 -0.66155692209E+03 -0.21473156395E+04  0.23544021724E+04  0.10100000352E+00 0.  1.
       -3    1    3    3    0  502 -0.70326919617E+03  0.66155692209E+03  0.55886241251E+03  0.11156040202E+04  0.10100000352E+00 0. -1.
</event>
<event>
 5   0  0.8423692E-07  0.3527484E+04  0.7818609E-02  0.8107307E-01
        1   -1    0    0  501    0  0.00000000000E+00  0.00000000000E+00  0.19999776578E+04  0.19999776579E+04  0.50400001928E-02 0. -1.
       -1   -1    0    0    0  501  0.00000000000E+00  0.00000000000E+00 -0.15554106638E+04  0.15554106638E+04  0.50400001928E-02 0.  1.
    10030    2    1    2    0    0  0.00000000000E+00  0.00000000000E+00  0.44456699402E+03  0.35553883217E+04  0.35274844161E+04 0.  0.
        2    1    3    3  502    0 -0.56015239481E+03 -0.79956919894E+03 -0.12582490820E+04  0.15925678515E+04  0.25500000920E-02 0.  1.
       -2    1    3    3    0  502  0.56015239481E+03  0.79956919894E+03  0.17028160760E+04  0.19628204702E+04  0.25500000920E-02 0. -1.
</event>
<event>
 5   0  0.2536619E-06  0.3634844E+04  0.7818609E-02  0.8082557E-01
       -2   -1    0    0    0  501  0.00000000000E+00  0.00000000000E+00  0.19588835988E+04  0.19588835988E+04  0.25500000920E-02 0. -1.
        2   -1    0    0  501    0  0.00000000000E+00  0.00000000000E+00 -0.16861758273E+04  0.16861758273E+04  0.25500000920E-02 0.  1.
    10030    2    1    2    0    0  0.00000000000E+00  0.00000000000E+00  0.27270777153E+03  0.36450594261E+04  0.36348436956E+04 0.  0.
        1    1    3    3  502    0  0.30578598018E+03  0.21751382015E+03  0.19196106201E+04  0.19559453624E+04  0.50400001928E-02 0. -1.
       -1    1    3    3    0  502 -0.30578598018E+03 -0.21751382015E+03 -0.16469028486E+04  0.16891140638E+04  0.50400001928E-02 0.  1.
</event>
<event>
 5   0  0.7754556E-07  0.3617329E+04  0.7818609E-02  0.8086534E-01
       -1   -1    0    0    0  501  0.00000000000E+00  0.00000000000E+00  0.24513260457E+04  0.24513260457E+04  0.50400001928E-02 0.  1.
        1   -1    0    0  501    0  0.00000000000E+00  0.00000000000E+00 -0.13344891890E+04  0.13344891890E+04  0.50400001928E-02 0. -1.
    10030    2    1    2    0    0  0.00000000000E+00  0.00000000000E+00  0.11168368567E+04  0.37858152347E+04  0.36173294606E+04 0.  0.
        4    1    3    3  502    0  0.63961078017E+03  0.16910274779E+04  0.61168718945E+03  0.19086222024E+04  0.12699999809E+01 0.  1.
       -4    1    3    3    0  502 -0.63961078017E+03 -0.16910274779E+04  0.50514966728E+03  0.18771930322E+04  0.12699999809E+01 0. -1.
</event>
<event>
 5   0  0.2536619E-06  0.2713164E+04  0.7818609E-02  0.8330746E-01
        2   -1    0    0  501    0  0.00000000000E+00  0.00000000000E+00  0.15212202697E+04  0.15212202697E+04  0.25500000920E-02 0.  1.
       -2   -1    0    0    0  501  0.00000000000E+00  0.00000000000E+00 -0.12097621752E+04  0.12097621753E+04  0.25500000920E-02 0. -1.
    10030    2    1    2    0    0  0.00000000000E+00  0.00000000000E+00  0.31145809442E+03  0.27309824449E+04  0.27131640146E+04 0.  0.
        1    1    3    3  502    0  0.12400363162E+03 -0.11147977468E+04 -0.61227846504E+03  0.12779029054E+04  0.50400001928E-02 0. -1.
       -1    1    3    3    0  502 -0.12400363162E+03  0.11147977468E+04  0.92373655945E+03  0.14530795395E+04  0.50400001928E-02 0.  1.
</event>
<event>
 5   0  0.2536619E-06  0.3624517E+04  0.7818609E-02  0.8084899E-01
       -2   -1    0    0    0  501  0.00000000000E+00  0.00000000000E+00  0.21201942485E+04  0.21201942485E+04  0.25500000920E-02 0.  1.
        2   -1    0    0  501    0  0.00000000000E+00  0.00000000000E+00 -0.15490471202E+04  0.15490471202E+04  0.25500000920E-02 0. -1.
    10030    2    1    2    0    0  0.00000000000E+00  0.00000000000E+00  0.57114712830E+03  0.36692413687E+04  0.36245169581E+04 0.  0.
        1    1    3    3  502    0 -0.14599904399E+04  0.58117788679E+03  0.11994536678E+04  0.19768735220E+04  0.50400001928E-02 0.  1.
       -1    1    3    3    0  502  0.14599904399E+04 -0.58117788679E+03 -0.62830653954E+03  0.16923678466E+04  0.50400001928E-02 0. -1.
</event>
<event>
 5   0  0.1566576E-06  0.2914423E+04  0.7818609E-02  0.8268599E-01
       -2   -1    0    0    0  501  0.00000000000E+00  0.00000000000E+00  0.77869860168E+03  0.77869860169E+03  0.25500000920E-02 0. -1.
        2   -1    0    0  501    0  0.00000000000E+00  0.00000000000E+00 -0.27269413030E+04  0.27269413030E+04  0.25500000920E-02 0.  1.
    10030    2    1    2    0    0  0.00000000000E+00  0.00000000000E+00 -0.19482427013E+04  0.35056399046E+04  0.29144230163E+04 0.  0.
        4    1    3    3  502    0  0.49548417170E+03  0.33582887331E+03  0.62399718890E+03  0.86467317595E+03  0.12699999809E+01 0. -1.
       -4    1    3    3    0  502 -0.49548417170E+03 -0.33582887331E+03 -0.25722398902E+04  0.26409667287E+04  0.12699999809E+01 0.  1.
</event>
<event>
 5   0  0.1513502E-06  0.2031137E+04  0.7818609E-02  0.8592200E-01
        2   -1    0    0  501    0  0.00000000000E+00  0.00000000000E+00  0.73811350140E+03  0.73811350141E+03  0.25500000920E-02 0.  1.
       -2   -1    0    0    0  501  0.00000000000E+00  0.00000000000E+00 -0.13973182294E+04  0.13973182294E+04  0.25500000920E-02 0. -1.
    10030    2    1    2    0    0  0.00000000000E+00  0.00000000000E+00 -0.65920472803E+03  0.21354317308E+04  0.20311370716E+04 0.  0.
        3    1    3    3  502    0  0.45643416365E+03 -0.57529828412E+03  0.40790091184E+03  0.84004965659E+03  0.10100000352E+00 0.  1.
       -3    1    3    3    0  502 -0.45643416365E+03  0.57529828412E+03 -0.10671056399E+04  0.12953820743E+04  0.10100000352E+00 0. -1.
</event>
<event>
 5   0  0.1634374E-06  0.1939372E+04  0.7818609E-02  0.8635503E-01
        1   -1    0    0  501    0  0.00000000000E+00  0.00000000000E+00  0.72235071624E+03  0.72235071626E+03  0.50400001928E-02 0. -1.
       -1   -1    0    0    0  501  0.00000000000E+00  0.00000000000E+00 -0.13017102005E+04  0.13017102005E+04  0.50400001928E-02 0.  1.
    10030    2    1    2    0    0  0.00000000000E+00  0.00000000000E+00 -0.57935948427E+03  0.20240609168E+04  0.19393723683E+04 0.  0.
        5    1    3    3  502    0  0.52378487211E+03 -0.25181966520E+03  0.52042816727E+03  0.78014825727E+03  0.46999998093E+01 0. -1.
       -5    1    3    3    0  502 -0.52378487211E+03  0.25181966520E+03 -0.10997876515E+04  0.12439126595E+04  0.46999998093E+01 0.  1.
</event>
<event>
 5   0  0.2536619E-06  0.3621630E+04  0.7818609E-02  0.8085555E-01
        2   -1    0    0  501    0  0.00000000000E+00  0.00000000000E+00  0.21539512799E+04  0.21539512799E+04  0.25500000920E-02 0.  1.
       -2   -1    0    0    0  501  0.00000000000E+00  0.00000000000E+00 -0.15223425999E+04  0.15223425999E+04  0.25500000920E-02 0. -1.
    10030    2    1    2    0    0  0.00000000000E+00  0.00000000000E+00  0.63160867991E+03  0.36762938798E+04  0.36216304569E+04 0.  0.
        1    1    3    3  502    0 -0.47935130964E+03  0.71661556368E+03  0.19322388983E+04  0.21158598026E+04  0.50400001928E-02 0.  1.
       -1    1    3    3    0  502  0.47935130964E+03 -0.71661556368E+03 -0.13006302184E+04  0.15604340772E+04  0.50400001928E-02 0. -1.
</event>
<event>
 5   0  0.8423692E-07  0.3306811E+04  0.7818609E-02  0.8161164E-01
       -1   -1    0    0    0  501  0.00000000000E+00  0.00000000000E+00  0.11481978391E+04  0.11481978391E+04  0.50400001928E-02 0.  1.
        1   -1    0    0  501    0  0.00000000000E+00  0.00000000000E+00 -0.23809050212E+04  0.23809050212E+04  0.50400001928E-02 0. -1.
    10030    2    1    2    0    0  0.00000000000E+00  0.00000000000E+00 -0.12327071821E+04  0.35291028603E+04  0.33068111530E+04 0.  0.
        2    1    3    3  502    0 -0.37046583956E+03  0.38393352289E+03 -0.22865140287E+04  0.23479344734E+04  0.25500000920E-02 0. -1.
       -2    1    3    3    0  502  0.37046583956E+03 -0.38393352289E+03  0.10538068465E+04  0.11811683869E+04  0.25500000920E-02 0.  1.
</event>
<event>
 5   0  0.7754556E-07  0.3568184E+04  0.7818609E-02  0.8097819E-01
        1   -1    0    0  501    0  0.00000000000E+00  0.00000000000E+00  0.20227602654E+04  0.20227602654E+04  0.50400001928E-02 0. -1.
       -1   -1    0    0    0  501  0.00000000000E+00  0.00000000000E+00 -0.15735847048E+04  0.15735847048E+04  0.50400001928E-02 0.  1.
    10030    2    1    2    0    0  0.00000000000E+00  0.00000000000E+00  0.44917556062E+03  0.35963449702E+04  0.35681841966E+04 0.  0.
        4    1    3    3  502    0  0.30202217146E+03 -0.69910641273E+03  0.18507073754E+04  0.20012712387E+04  0.12699999809E+01 0. -1.
       -4    1    3    3    0  502 -0.30202217146E+03  0.69910641273E+03 -0.14015318148E+04  0.15950737316E+04  0.12699999809E+01 0.  1.
</event>
<event>
 5   0  0.8452742E-07  0.1800614E+04  0.7818609E-02  0.8705973E-01
        1   -1    0    0  501    0  0.00000000000E+00  0.00000000000E+00  0.17125033731E+04  0.17125033731E+04  0.50400001928E-02 0.  1.
       -1   -1    0    0    0  501  0.00000000000E+00  0.00000000000E+00 -0.47331437436E+03  0.47331437439E+03  0.50400001928E-02 0. -1.
    10030    2    1    2    0    0  0.00000000000E+00  0.00000000000E+00  0.12391889988E+04  0.21858177475E+04  0.18006137428E+04 0.  0.
        1    1    3    3  502    0  0.68446326319E+03 -0.50736576018E+03  0.97276758626E+03  0.12931306006E+04  0.50400001928E-02 0. -1.
       -1    1    3    3    0  502 -0.68446326319E+03  0.50736576018E+03  0.26642141252E+03  0.89268714695E+03  0.50400001928E-02 0.  1.
</event>
<event>
 5   0  0.8452742E-07  0.3626597E+04  0.7818609E-02  0.8084426E-01
        1   -1    0    0  501    0  0.00000000000E+00  0.00000000000E+00  0.11158247048E+04  0.11158247048E+04  0.50400001928E-02 0. -1.
       -1   -1    0    0    0  501  0.00000000000E+00  0.00000000000E+00 -0.29467454221E+04  0.29467454221E+04  0.50400001928E-02 0.  1.
    10030    2    1    2    0    0  0.00000000000E+00  0.00000000000E+00 -0.18309207173E+04  0.40625701269E+04  0.36265969397E+04 0.  0.
        1    1    3    3  502    0  0.87382070968E+03 -0.14718690027E+04 -0.15858046062E+04  0.23333960750E+04  0.50400001928E-02 0.  1.
       -1    1    3    3    0  502 -0.87382070968E+03  0.14718690027E+04 -0.24511611110E+03  0.17291740519E+04  0.50400001928E-02 0. -1.
</event>
<event>
 5   0  0.2422436E-06  0.3516748E+04  0.7818609E-02  0.8109832E-01
       -2   -1    0    0    0  501  0.00000000000E+00  0.00000000000E+00  0.24073521364E+04  0.24073521364E+04  0.25500000920E-02 0.  1.
        2   -1    0    0  501    0  0.00000000000E+00  0.00000000000E+00 -0.12843485744E+04  0.12843485744E+04  0.25500000920E-02 0. -1.
    10030    2    1    2    0    0  0.00000000000E+00  0.00000000000E+00  0.11230035620E+04  0.36917007108E+04  0.35167480913E+04 0.  0.
        2    1    3    3  502    0 -0.71474086263E+03  0.54880496544E+03 -0.10235272048E+04  0.13636896017E+04  0.25500000920E-02 0. -1.
       -2    1    3    3    0  502  0.71474086263E+03 -0.54880496544E+03  0.21465307669E+04  0.23280111091E+04  0.25500000920E-02 0.  1.
</event>
<event>
 5   0  0.1634374E-06  0.3096537E+04  0.7818609E-02  0.8216689E-01
       -1   -1    0    0    0  501  0.00000000000E+00  0.00000000000E+00  0.25345096158E+04  0.25345096158E+04  0.50400001928E-02 0.  1.
        1   -1    0    0  501    0  0.00000000000E+00  0.00000000000E+00 -0.94579875513E+03  0.94579875514E+03  0.50400001928E-02 0. -1.
    10030    2    1    2    0    0  0.00000000000E+00  0.00000000000E+00  0.15887108606E+04  0.34803083709E+04  0.30965374465E+04 0.  0.
        5    1    3    3  502    0 -0.22694319828E+02  0.79446670012E+03  0.22877191810E+04  0.24218533215E+04  0.46999998093E+01 0.  1.
       -5    1    3    3    0  502  0.22694319828E+02 -0.79446670012E+03 -0.69900832034E+03  0.10584550494E+04  0.46999998093E+01 0. -1.
</event>
<event>
 5   0  0.1513502E-06  0.3192827E+04  0.7818609E-02  0.8190714E-01
       -2   -1    0    0    0  501  0.00000000000E+00  0.00000000000E+00  0.16616948672E+04  0.16616948672E+04  0.25500000920E-02 0.  1.
        2   -1    0    0  501    0  0.00000000000E+00  0.00000000000E+00 -0.15336971600E+04  0.15336971601E+04  0.25500000920E-02 0. -1.
    10030    2    1    2    0    0  0.00000000000E+00  0.00000000000E+00  0.12799770716E+03  0.31953920273E+04  0.31928273982E+04 0.  0.
        3    1    3    3  502    0 -0.14361220377E+04  0.54992491717E+03  0.49291371041E+03  0.16148770411E+04  0.10100000352E+00 0.  1.
       -3    1    3    3    0  502  0.14361220377E+04 -0.54992491717E+03 -0.36491600326E+03  0.15805149861E+04  0.10100000352E+00 0. -1.
</event>
<event>
 5   0  0.2382711E-06  0.3107130E+04  0.7818609E-02  0.8213784E-01
       -2   -1    0    0    0  501  0.00000000000E+00  0.00000000000E+00  0.96580706511E+03  0.96580706511E+03  0.25500000920E-02 0. -1.
        2   -1    0    0  501    0  0.00000000000E+00  0.00000000000E+00 -0.24990130046E+04  0.24990130046E+04  0.25500000920E-02 0.  1.
    10030    2    1    2    0    0  0.00000000000E+00  0.00000000000E+00 -0.15332059395E+04  0.34648200697E+04  0.31071301329E+04 0.  0.
        5    1    3    3  502    0 -0.86245032794E+03  0.76796571316E+03  0.39223616347E+03  0.12196160062E+04  0.46999998093E+01 0. -1.
       -5    1    3    3    0  502  0.86245032794E+03 -0.76796571316E+03 -0.19254421029E+04  0.22452040634E+04  0.46999998093E+01 0.  1.
</event>
<event>
 5   0  0.2382711E-06  0.3440827E+04  0.7818609E-02  0.8127958E-01
       -2   -1    0    0    0  501  0.00000000000E+00  0.00000000000E+00  0.23803771882E+04  0.23803771882E+04  0.25500000920E-02 0.  1.
        2   -1    0    0  501    0  0.00000000000E+00  0.00000000000E+00 -0.12434259544E+04  0.12434259544E+04  0.25500000920E-02 0. -1.
    10030    2    1    2    0    0  0.00000000000E+00  0.00000000000E+00  0.11369512338E+04  0.36238031427E+04  0.34408270966E+04 0.  0.
        5    1    3    3  502    0  0.27441663132E+03  0.12363260987E+04 -0.65792010799E+03  0.14271256666E+04  0.46999998093E+01 0. -1.
       -5    1    3    3    0  502 -0.27441663132E+03 -0.12363260987E+04  0.17948713418E+04  0.21966774760E+04  0.46999998093E+01 0.  1.
</event>
<event>
 5   0  0.7754556E-07  0.2776737E+04  0.7818609E-02  0.8310527E-01
        1   -1    0    0  501    0  0.00000000000E+00  0.00000000000E+00  0.22957985157E+04  0.22957985157E+04  0.50400001928E-02 0. -1.
       -1   -1    0    0    0  501  0.00000000000E+00  0.00000000000E+00 -0.83960629566E+03  0.83960629567E+03  0.50400001928E-02 0.  1.
    10030    2    1    2    0    0  0.00000000000E+00  0.00000000000E+00  0.14561922200E+04  0.31354048114E+04  0.27767368528E+04 0.  0.
        4    1    3    3  502    0  0.98183498348E+03 -0.85817023094E+03  0.12662125428E+04  0.18176225946E+04  0.12699999809E+01 0.  1.
       -4    1    3    3    0  502 -0.98183498348E+03  0.85817023094E+03  0.18997967721E+03  0.13177822167E+04  0.12699999809E+01 0. -1.
</event>
<event>
 5   0  0.2382711E-06  0.3551623E+04  0.7818609E-02  0.8101664E-01
        2   -1    0    0  501    0  0.00000000000E+00  0.00000000000E+00  0.23765692936E+04  0.23765692936E+04  0.25500000920E-02 0. -1.
       -2   -1    0    0    0  501  0.00000000000E+00  0.00000000000E+00 -0.13269154121E+04  0.13269154121E+04  0.25500000920E-02 0.  1.
    10030    2    1    2    0    0  0.00000000000E+00  0.00000000000E+00  0.10496538814E+04  0.37034847057E+04  0.35516229663E+04 0.  0.
        5    1    3    3  502    0  0.99410544145E+03  0.11958006576E+04  0.14189881656E+04  0.21051684839E+04  0.46999998093E+01 0. -1.
       -5    1    3    3    0  502 -0.99410544145E+03 -0.11958006576E+04 -0.36933428422E+03  0.15983162218E+04  0.46999998093E+01 0.  1.
</event>
<event>
 5   0  0.1566576E-06  0.3309891E+04  0.7818609E-02  0.8160383E-01
        2   -1    0    0  501    0  0.00000000000E+00  0.00000000000E+00  0.21870667135E+04  0.21870667135E+04  0.25500000920E-02 0.  1.
       -2   -1    0    0    0  501  0.00000000000E+00  0.00000000000E+00 -0.12522910869E+04  0.12522910869E+04  0.25500000920E-02 0. -1.
    10030    2    1    2    0    0  0.00000000000E+00  0.00000000000E+00  0.93477562651E+03  0.34393578004E+04  0.33098907244E+04 0.  0.
        4    1    3    3  502    0  0.65102464247E+03 -0.12241585825E+03 -0.11085165885E+04  0.12913672473E+04  0.12699999809E+01 0. -1.
       -4    1    3    3    0  502 -0.65102464247E+03  0.12241585825E+03  0.20432922150E+04  0.21479905531E+04  0.12699999809E+01 0.  1.
</event>
<event>
 5   0  0.2536619E-06  0.3009581E+04  0.7818609E-02  0.8241000E-01
        2   -1    0    0  501    0  0.00000000000E+00  0.00000000000E+00  0.15943956610E+04  0.15943956610E+04  0.25500000920E-02 0.  1.
       -2   -1    0    0    0  501  0.00000000000E+00  0.00000000000E+00 -0.14202215963E+04  0.14202215963E+04  0.25500000920E-02 0. -1.
    10030    2    1    2    0    0  0.00000000000E+00  0.00000000000E+00  0.17417406468E+03  0.30146172573E+04  0.30095814665E+04 0.  0.
        1    1    3    3  502    0  0.80092541136E+03 -0.11336386828E+04  0.66924533676E+03  0.15409437039E+04  0.50400001928E-02 0.  1.
       -1    1    3    3    0  502 -0.80092541136E+03  0.11336386828E+04 -0.49507127208E+03  0.14736735535E+04  0.50400001928E-02 0. -1.
</event>
<event>
 5   0  0.8423692E-07  0.3618421E+04  0.7818609E-02  0.8086285E-01
        1   -1    0    0  501    0  0.00000000000E+00  0.00000000000E+00  0.23608849354E+04  0.23608849354E+04  0.50400001928E-02 0.  1.
       -1   -1    0    0    0  501  0.00000000000E+00  0.00000000000E+00 -0.13864472652E+04  0.13864472652E+04  0.50400001928E-02 0. -1.
    10030    2    1    2    0    0  0.00000000000E+00  0.00000000000E+00  0.97443767020E+03  0.37473322005E+04  0.36184209053E+04 0.  0.
        2    1    3    3  502    0 -0.12226476908E+04 -0.13134125879E+04  0.72636212570E+03  0.19358517349E+04  0.25500000920E-02 0.  1.
       -2    1    3    3    0  502  0.12226476908E+04  0.13134125879E+04  0.24807554450E+03  0.18114804657E+04  0.25500000920E-02 0. -1.
</event>
<event>
 5   0  0.1513502E-06  0.3639132E+04  0.7818609E-02  0.8081586E-01
       -2   -1    0    0    0  501  0.00000000000E+00  0.00000000000E+00  0.14048514614E+04  0.14048514614E+04  0.25500000920E-02 0.  1.
        2   -1    0    0  501    0  0.00000000000E+00  0.00000000000E+00 -0.23567046284E+04  0.23567046284E+04  0.25500000920E-02 0. -1.
    10030    2    1    2    0    0  0.00000000000E+00  0.00000000000E+00 -0.95185316699E+03  0.37615560899E+04  0.36391317324E+04 0.  0.
        3    1    3    3  502    0  0.66950754352E+03  0.99202049870E+03 -0.18926088732E+04  0.22392662588E+04  0.10100000352E+00 0. -1.
       -3    1    3    3    0  502 -0.66950754352E+03 -0.99202049870E+03  0.94075570624E+03  0.15222898310E+04  0.10100000352E+00 0.  1.
</event>
<event>
 5   0  0.1908273E-06  0.2068010E+04  0.7818609E-02  0.8575467E-01
        1   -1    0    0  501    0  0.00000000000E+00  0.00000000000E+00  0.35460824443E+03  0.35460824447E+03  0.50400001928E-02 0. -1.
       -1   -1    0    0    0  501  0.00000000000E+00  0.00000000000E+00 -0.30150642656E+04  0.30150642656E+04  0.50400001928E-02 0.  1.
    10030    2    1    2    0    0  0.00000000000E+00  0.00000000000E+00 -0.26604560212E+04  0.33696725101E+04  0.20680102961E+04 0.  0.
        3    1    3    3  502    0 -0.39478018619E+03  0.83680460225E+03 -0.57808657878E+03  0.10909983687E+04  0.10100000352E+00 0. -1.
       -3    1    3    3    0  502  0.39478018619E+03 -0.83680460225E+03 -0.20823694424E+04  0.22786741414E+04  0.10100000352E+00 0.  1.
</event>
<event>
 5   0  0.2382711E-06  0.3052759E+04  0.7818609E-02  0.8228824E-01
       -2   -1    0    0    0  501  0.00000000000E+00  0.00000000000E+00  0.86127949198E+03  0.86127949199E+03  0.25500000920E-02 0. -1.
        2   -1    0    0  501    0  0.00000000000E+00  0.00000000000E+00 -0.27050860304E+04  0.27050860304E+04  0.25500000920E-02 0.  1.
    10030    2    1    2    0    0  0.00000000000E+00  0.00000000000E+00 -0.18438065384E+04  0.35663655223E+04  0.30527594874E+04 0.  0.
        5    1    3    3  502    0  0.13213460211E+04 -0.60268769847E+03 -0.14706360215E+04  0.20668769115E+04  0.46999998093E+01 0.  1.
       -5    1    3    3    0  502 -0.13213460211E+04  0.60268769847E+03 -0.37317051686E+03  0.14994886109E+04  0.46999998093E+01 0. -1.
</event>
<event>
 5   0  0.1513502E-06  0.3612620E+04  0.7818609E-02  0.8087607E-01
       -2   -1    0    0    0  501  0.00000000000E+00  0.00000000000E+00  0.12496014157E+04  0.12496014157E+04  0.25500000920E-02 0.  1.
        2   -1    0    0  501    0  0.00000000000E+00  0.00000000000E+00 -0.26110368972E+04  0.26110368972E+04  0.25500000920E-02 0. -1.
    10030    2    1    2    0    0  0.00000000000E+00  0.00000000000E+00 -0.13614354815E+04  0.38606383129E+04  0.36126197714E+04 0.  0.
        3    1    3    3  502    0 -0.40298927763E+03 -0.99433014689E+03 -0.22336378911E+04  0.24779489579E+04  0.10100000352E+00 0. -1.
       -3    1    3    3    0  502  0.40298927763E+03  0.99433014689E+03  0.87220240968E+03  0.13826893550E+04  0.10100000352E+00 0.  1.
</event>
<event>
 5   0  0.2536619E-06  0.3730520E+04  0.7818609E-02  0.8061232E-01
        2   -1    0    0  501    0  0.00000000000E+00  0.00000000000E+00  0.19022122922E+04  0.19022122922E+04  0.25500000920E-02 0. -1.
       -2   -1    0    0    0  501  0.00000000000E+00  0.00000000000E+00 -0.18290252580E+04  0.18290252580E+04  0.25500000920E-02 0.  1.
    10030    2    1    2    0    0  0.00000000000E+00  0.00000000000E+00  0.73187034207E+02  0.37312375501E+04  0.37305197109E+04 0.  0.
        1    1    3    3  502    0 -0.87063349743E+03  0.11369015176E+04  0.12320835604E+04  0.18890679309E+04  0.50400001928E-02 0. -1.
       -1    1    3    3    0  502  0.87063349743E+03 -0.11369015176E+04 -0.11588965262E+04  0.18421696193E+04  0.50400001928E-02 0.  1.
</event>
<event>
 5   0  0.8423692E-07  0.3659047E+04  0.7818609E-02  0.8077098E-01
        1   -1    0    0  501    0  0.00000000000E+00  0.00000000000E+00  0.17922744078E+04  0.17922744078E+04  0.50400001928E-02 0. -1.
       -1   -1    0    0    0  501  0.00000000000E+00  0.00000000000E+00 -0.18675471572E+04  0.18675471572E+04  0.50400001928E-02 0.  1.
    10030    2    1    2    0    0  0.00000000000E+00  0.00000000000E+00 -0.75272749399E+02  0.36598215649E+04  0.36590474034E+04 0.  0.
        2    1    3    3  502    0  0.13117485492E+04  0.29366423708E+02  0.12376276295E+04  0.18036820098E+04  0.25500000920E-02 0. -1.
       -2    1    3    3    0  502 -0.13117485492E+04 -0.29366423708E+02 -0.13129003789E+04  0.18561395551E+04  0.25500000920E-02 0.  1.
</event>
<event>
 5   0  0.7707500E-07  0.3726079E+04  0.7818609E-02  0.8062207E-01
        3   -1    0    0  501    0  0.00000000000E+00  0.00000000000E+00  0.13217492459E+04  0.13217492497E+04  0.10100000352E+00 0.  1.
       -3   -1    0    0    0  501  0.00000000000E+00  0.00000000000E+00 -0.26260013135E+04  0.26260013154E+04  0.10100000352E+00 0. -1.
    10030    2    1    2    0    0  0.00000000000E+00  0.00000000000E+00 -0.13042520676E+04  0.39477505652E+04  0.37260785108E+04 0.  0.
        4    1    3    3  502    0  0.14152341111E+04 -0.11807476765E+04 -0.94006819727E+03  0.20690051941E+04  0.12699999809E+01 0.  1.
       -4    1    3    3    0  502 -0.14152341111E+04  0.11807476765E+04 -0.36418387030E+03  0.18787453710E+04  0.12699999809E+01 0. -1.
</event>
<event>
 5   0  0.8452742E-07  0.3630035E+04  0.7818609E-02  0.8083646E-01
        1   -1    0    0  501    0  0.00000000000E+00  0.00000000000E+00  0.24638081589E+04  0.24638081590E+04  0.50400001928E-02 0. -1.
       -1   -1    0    0    0  501  0.00000000000E+00  0.00000000000E+00 -0.13370714931E+04  0.13370714931E+04  0.50400001928E-02 0.  1.
    10030    2    1    2    0    0  0.00000000000E+00  0.00000000000E+00  0.11267366659E+04  0.38008796520E+04  0.36300345198E+04 0.  0.
        1    1    3    3  502    0 -0.14186280059E+04  0.44955590104E+03  0.16513491529E+04  0.22229619772E+04  0.50400001928E-02 0. -1.
       -1    1    3    3    0  502  0.14186280059E+04 -0.44955590104E+03 -0.52461248700E+03  0.15779176749E+04  0.50400001928E-02 0.  1.
</event>
<event>
 5   0  0.8452742E-07  0.2646137E+04  0.7818609E-02  0.8352696E-01
       -1   -1    0    0    0  501  0.00000000000E+00  0.00000000000E+00  0.13558469696E+04  0.13558469696E+04  0.50400001928E-02 0. -1.
        1   -1    0    0  501    0  0.00000000000E+00  0.00000000000E+00 -0.12910823298E+04  0.12910823298E+04  0.50400001928E-02 0.  1.
    10030    2    1    2    0    0  0.00000000000E+00  0.00000000000E+00  0.64764639874E+02  0.26469292994E+04  0.26461368554E+04 0.  0.
        1    1    3    3  502    0  0.54204761532E+02  0.82165825522E+02 -0.12874144431E+04  0.12911720750E+04  0.50400001928E-02 0.  1.
       -1    1    3    3    0  502 -0.54204761532E+02 -0.82165825522E+02  0.13521790830E+04  0.13557572244E+04  0.50400001928E-02 0. -1.
</event>
<event>
 5   0  0.1634374E-06  0.3619656E+04  0.7818609E-02  0.8086004E-01
       -1   -1    0    0    0  501  0.00000000000E+00  0.00000000000E+00  0.19629031520E+04  0.19629031520E+04  0.50400001928E-02 0. -1.
        1   -1    0    0  501    0  0.00000000000E+00  0.00000000000E+00 -0.16686903081E+04  0.16686903081E+04  0.50400001928E-02 0.  1.
    10030    2    1    2    0    0  0.00000000000E+00  0.00000000000E+00  0.29421284394E+03  0.36315934601E+04  0.36196560419E+04 0.  0.
        5    1    3    3  502    0 -0.72743469226E+03  0.39942669771E+03 -0.14665362009E+04  0.16850677841E+04  0.46999998093E+01 0.  1.
       -5    1    3    3    0  502  0.72743469226E+03 -0.39942669771E+03  0.17607490449E+04  0.19465256760E+04  0.46999998093E+01 0. -1.
</event>
<event>
 5   0  0.8423692E-07  0.3571127E+04  0.7818609E-02  0.8097138E-01
       -1   -1    0    0    0  501  0.00000000000E+00  0.00000000000E+00  0.20578371369E+04  0.20578371369E+04  0.50400001928E-02 0.  1.
        1   -1    0    0  501    0  0.00000000000E+00  0.00000000000E+00 -0.15493142587E+04  0.15493142587E+04  0.50400001928E-02 0. -1.
    10030    2    1    2    0    0  0.00000000000E+00  0.00000000000E+00  0.50852287817E+03  0.36071513955E+04  0.35711266671E+04 0.  0.
        2    1    3    3  502    0 -0.16517106502E+04  0.56474605374E+03  0.63375108215E+03  0.18570747457E+04  0.25500000920E-02 0. -1.
       -2    1    3    3    0  502  0.16517106502E+04 -0.56474605374E+03 -0.12522820398E+03  0.17500766498E+04  0.25500000920E-02 0.  1.
</event>
<event>
 5   0  0.1908273E-06  0.1909848E+04  0.7818609E-02  0.8649970E-01
       -1   -1    0    0    0  501  0.00000000000E+00  0.00000000000E+00  0.11704893932E+04  0.11704893932E+04  0.50400001928E-02 0.  1.
        1   -1    0    0  501    0  0.00000000000E+00  0.00000000000E+00 -0.77905871040E+03  0.77905871042E+03  0.50400001928E-02 0. -1.
    10030    2    1    2    0    0  0.00000000000E+00  0.00000000000E+00  0.39143068277E+03  0.19495481036E+04  0.19098481167E+04 0.  0.
        3    1    3    3  502    0  0.46642252594E+03 -0.44042029528E+03 -0.52634981719E+03  0.82979765573E+03  0.10100000352E+00 0. -1.
       -3    1    3    3    0  502 -0.46642252594E+03  0.44042029528E+03  0.91778049996E+03  0.11197504479E+04  0.10100000352E+00 0.  1.
</event>
<event>
 5   0  0.1566576E-06  0.3652214E+04  0.7818609E-02  0.8078635E-01
       -2   -1    0    0    0  501  0.00000000000E+00  0.00000000000E+00  0.17174441128E+04  0.17174441128E+04  0.25500000920E-02 0. -1.
        2   -1    0    0  501    0  0.00000000000E+00  0.00000000000E+00 -0.19416448576E+04  0.19416448576E+04  0.25500000920E-02 0.  1.
    10030    2    1    2    0    0  0.00000000000E+00  0.00000000000E+00 -0.22420074477E+03  0.36590889703E+04  0.36522138654E+04 0.  0.
        4    1    3    3  502    0 -0.86402746025E+03  0.19389751982E+03 -0.17121430968E+04  0.19275827601E+04  0.12699999809E+01 0.  1.
       -4    1    3    3    0  502  0.86402746025E+03 -0.19389751982E+03  0.14879423520E+04  0.17315062102E+04  0.12699999809E+01 0. -1.
</event>
<event>
 5   0  0.1908273E-06  0.3195611E+04  0.7818609E-02  0.8189977E-01
       -1   -1    0    0    0  501  0.00000000000E+00  0.00000000000E+00  0.10594560366E+04  0.10594560366E+04  0.50400001928E-02 0.  1.
        1   -1    0    0  501    0  0.00000000000E+00  0.00000000000E+00 -0.24097109648E+04  0.24097109648E+04  0.50400001928E-02 0. -1.
    10030    2    1    2    0    0  0.00000000000E+00  0.00000000000E+00 -0.13502549282E+04  0.34691670014E+04  0.31956112580E+04 0.  0.
        3    1    3    3  502    0 -0.13413686304E+04 -0.42878618156E+03  0.14438131076E+03  0.14156176621E+04  0.10100000352E+00 0.  1.
       -3    1    3    3    0  502  0.13413686304E+04  0.42878618156E+03 -0.14946362389E+04  0.20535493393E+04  0.10100000352E+00 0. -1.
</event>
<event>
 5   0  0.1513502E-06  0.3673339E+04  0.7818609E-02  0.8073896E-01
       -2   -1    0    0    0  501  0.00000000000E+00  0.00000000000E+00  0.13984028977E+04  0.13984028977E+04  0.25500000920E-02 0.  1.
        2   -1    0    0  501    0  0.00000000000E+00  0.00000000000E+00 -0.24122906512E+04  0.24122906512E+04  0.25500000920E-02 0. -1.
    10030    2    1    2    0    0  0.00000000000E+00  0.00000000000E+00 -0.10138877535E+04  0.38106935489E+04  0.36733386648E+04 0.  0.
        3    1    3    3  502    0  0.48687629578E+03 -0.12988543743E+04  0.74193308925E+03  0.15730657749E+04  0.10100000352E+00 0.  1.
       -3    1    3    3    0  502 -0.48687629578E+03  0.12988543743E+04 -0.17558208427E+04  0.22376277740E+04  0.10100000352E+00 0. -1.
</event>
<event>
 5   0  0.1513502E-06  0.3471877E+04  0.7818609E-02  0.8120487E-01
       -2   -1    0    0    0  501  0.00000000000E+00  0.00000000000E+00  0.21078242674E+04  0.21078242674E+04  0.25500000920E-02 0.  1.
        2   -1    0    0  501    0  0.00000000000E+00  0.00000000000E+00 -0.14296647190E+04  0.14296647190E+04  0.25500000920E-02 0. -1.
    10030    2    1    2    0    0  0.00000000000E+00  0.00000000000E+00  0.67815954846E+03  0.35374889864E+04  0.34718767195E+04 0.  0.
        3    1    3    3  502    0  0.73449687329E+03 -0.14505554171E+04  0.95875529283E+03  0.18875403033E+04  0.10100000352E+00 0.  1.
       -3    1    3    3    0  502 -0.73449687329E+03  0.14505554171E+04 -0.28059574437E+03  0.16499486831E+04  0.10100000352E+00 0. -1.
</event>
<event>
 5   0  0.2382711E-06  0.3752786E+04  0.7818609E-02  0.8056363E-01
        2   -1    0    0  501    0  0.00000000000E+00  0.00000000000E+00  0.15561066249E+04  0.15561066249E+04  0.25500000920E-02 0. -1.
       -2   -1    0    0    0  501  0.00000000000E+00  0.00000000000E+00 -0.22626025267E+04  0.22626025267E+04  0.25500000920E-02 0.  1.
    10030    2    1    2    0    0  0.00000000000E+00  0.00000000000E+00 -0.70649590185E+03  0.38187091516E+04  0.37527860484E+04 0.  0.
        5    1    3    3  502    0  0.17713217520E+04 -0.34795047824E+03  0.16778025756E+03  0.18129596215E+04  0.46999998093E+01 0. -1.
       -5    1    3    3    0  502 -0.17713217520E+04  0.34795047824E+03 -0.87427615941E+03  0.20057495301E+04  0.46999998093E+01 0.  1.
</event>
<event>
 5   0  0.1513502E-06  0.3586138E+04  0.7818609E-02  0.8093674E-01
        2   -1    0    0  501    0  0.00000000000E+00  0.00000000000E+00  0.17471041327E+04  0.17471041327E+04  0.25500000920E-02 0. -1.
       -2   -1    0    0    0  501  0.00000000000E+00  0.00000000000E+00 -0.18402432294E+04  0.18402432294E+04  0.25500000920E-02 0.  1.
    10030    2    1    2    0    0  0.00000000000E+00  0.00000000000E+00 -0.93139096725E+02  0.35873473621E+04  0.35861380627E+04 0.  0.
        3    1    3    3  502    0 -0.12764533877E+04 -0.13595970166E+03  0.12057624552E+04  0.17611591070E+04  0.10100000352E+00 0. -1.
       -3    1    3    3    0  502  0.12764533877E+04  0.13595970166E+03 -0.12989015519E+04  0.18261882551E+04  0.10100000352E+00 0.  1.
</event>
<event>
 5   0  0.1634374E-06  0.3503274E+04  0.7818609E-02  0.8113014E-01
       -1   -1    0    0    0  501  0.00000000000E+00  0.00000000000E+00  0.14375173491E+04  0.14375173491E+04  0.50400001928E-02 0. -1.
        1   -1    0    0  501    0  0.00000000000E+00  0.00000000000E+00 -0.21343966456E+04  0.21343966456E+04  0.50400001928E-02 0.  1.
    10030    2    1    2    0    0  0.00000000000E+00  0.00000000000E+00 -0.69687929653E+03  0.35719139947E+04  0.35032740161E+04 0.  0.
        5    1    3    3  502    0 -0.15108702597E+04 -0.80604177024E+03  0.27260472536E+02  0.17126580220E+04  0.46999998093E+01 0. -1.
       -5    1    3    3    0  502  0.15108702597E+04  0.80604177024E+03 -0.72413976906E+03  0.18592559727E+04  0.46999998093E+01 0.  1.
</event>
<event>
 5   0  0.2382711E-06  0.1811694E+04  0.7818609E-02  0.8700105E-01
       -2   -1    0    0    0  501  0.00000000000E+00  0.00000000000E+00  0.52747958365E+03  0.52747958366E+03  0.25500000920E-02 0. -1.
        2   -1    0    0  501    0  0.00000000000E+00  0.00000000000E+00 -0.15556216077E+04  0.15556216077E+04  0.25500000920E-02 0.  1.
    10030    2    1    2    0    0  0.00000000000E+00  0.00000000000E+00 -0.10281420240E+04  0.20831011914E+04  0.18116938350E+04 0.  0.
        5    1    3    3  502    0 -0.33129753712E+03  0.44903246836E+03  0.30637068372E+03  0.63661079286E+03  0.46999998093E+01 0. -1.
       -5    1    3    3    0  502  0.33129753712E+03 -0.44903246836E+03 -0.13345127078E+04  0.14464903985E+04  0.46999998093E+01 0.  1.
</event>
<event>
 5   0  0.1513502E-06  0.3552262E+04  0.7818609E-02  0.8101515E-01
       -2   -1    0    0    0  501  0.00000000000E+00  0.00000000000E+00  0.18704184683E+04  0.18704184683E+04  0.25500000920E-02 0. -1.
        2   -1    0    0  501    0  0.00000000000E+00  0.00000000000E+00 -0.16865968930E+04  0.16865968930E+04  0.25500000920E-02 0.  1.
    10030    2    1    2    0    0  0.00000000000E+00  0.00000000000E+00  0.18382157533E+03  0.35570153613E+04  0.35522623649E+04 0.  0.
        3    1    3    3  502    0  0.15250123349E+04  0.34885451054E+03 -0.75021381758E+03  0.17349878597E+04  0.10100000352E+00 0.  1.
       -3    1    3    3    0  502 -0.15250123349E+04 -0.34885451054E+03  0.93403539291E+03  0.18220275016E+04  0.10100000352E+00 0. -1.
</event>
<event>
 5   0  0.1566576E-06  0.3106093E+04  0.7818609E-02  0.8214068E-01
       -2   -1    0    0    0  501  0.00000000000E+00  0.00000000000E+00  0.12181023472E+04  0.12181023472E+04  0.25500000920E-02 0.  1.
        2   -1    0    0  501    0  0.00000000000E+00  0.00000000000E+00 -0.19800906496E+04  0.19800906497E+04  0.25500000920E-02 0. -1.
    10030    2    1    2    0    0  0.00000000000E+00  0.00000000000E+00 -0.76198830249E+03  0.31981929968E+04  0.31060927661E+04 0.  0.
        4    1    3    3  502    0  0.52514879310E+03 -0.36349767981E+03 -0.18386110657E+04  0.19463823062E+04  0.12699999809E+01 0. -1.
       -4    1    3    3    0  502 -0.52514879310E+03  0.36349767981E+03  0.10766227632E+04  0.12518106906E+04  0.12699999809E+01 0.  1.
</event>
<event>
 5   0  0.2382711E-06  0.3495258E+04  0.7818609E-02  0.8114915E-01
       -2   -1    0    0    0  501  0.00000000000E+00  0.00000000000E+00  0.14529801859E+04  0.14529801859E+04  0.25500000920E-02 0.  1.
        2   -1    0    0  501    0  0.00000000000E+00  0.00000000000E+00 -0.21020295476E+04  0.21020295476E+04  0.25500000920E-02 0. -1.
    10030    2    1    2    0    0  0.00000000000E+00  0.00000000000E+00 -0.64904936171E+03  0.35550097336E+04  0.34952580923E+04 0.  0.
        5    1    3    3  502    0 -0.69140524422E+01 -0.10394582946E+04 -0.17534125091E+04  0.20383814332E+04  0.46999998093E+01 0. -1.
       -5    1    3    3    0  502  0.69140524422E+01  0.10394582946E+04  0.11043631473E+04  0.15166283004E+04  0.46999998093E+01 0.  1.
</event>
<event>
 5   0  0.2536619E-06  0.3637741E+04  0.7818609E-02  0.8081901E-01
        2   -1    0    0  501    0  0.00000000000E+00  0.00000000000E+00  0.29749840757E+04  0.29749840757E+04  0.25500000920E-02 0.  1.
       -2   -1    0    0    0  501  0.00000000000E+00  0.00000000000E+00 -0.11120362490E+04  0.11120362490E+04  0.25500000920E-02 0. -1.
    10030    2    1    2    0    0  0.00000000000E+00  0.00000000000E+00  0.18629478267E+04  0.40870203248E+04  0.36377411302E+04 0.  0.
        1    1    3    3  502    0 -0.48793468202E+03 -0.15478092160E+04  0.87646932164E+01  0.16229203440E+04  0.50400001928E-02 0. -1.
       -1    1    3    3    0  502  0.48793468202E+03  0.15478092160E+04  0.18541831335E+04  0.24640999808E+04  0.50400001928E-02 0.  1.
</event>
<event>
 5   0  0.8423692E-07  0.1817873E+04  0.7818609E-02  0.8696852E-01
       -1   -1    0    0    0  501  0.00000000000E+00  0.00000000000E+00  0.11324400486E+04  0.11324400486E+04  0.50400001928E-02 0. -1.
        1   -1    0    0  501    0  0.00000000000E+00  0.00000000000E+00 -0.72954459851E+03  0.72954459853E+03  0.50400001928E-02 0.  1.
    10030    2    1    2    0    0  0.00000000000E+00  0.00000000000E+00  0.40289545005E+03  0.18619846471E+04  0.18178729555E+04 0.  0.
        2    1    3    3  502    0  0.37116893068E+02 -0.54563311694E+03  0.94506194737E+03  0.10918952543E+04  0.25500000920E-02 0. -1.
       -2    1    3    3    0  502 -0.37116893068E+02  0.54563311694E+03 -0.54216649731E+03  0.77008939278E+03  0.25500000920E-02 0.  1.
</event>
<event>
 5   0  0.1513502E-06  0.3226384E+04  0.7818609E-02  0.8181884E-01
        2   -1    0    0  501    0  0.00000000000E+00  0.00000000000E+00  0.23940704168E+04  0.23940704168E+04  0.25500000920E-02 0.  1.
       -2   -1    0    0    0  501  0.00000000000E+00  0.00000000000E+00 -0.10870140781E+04  0.10870140781E+04  0.25500000920E-02 0. -1.
    10030    2    1    2    0    0  0.00000000000E+00  0.00000000000E+00  0.13070563387E+04  0.34810844950E+04  0.32263838874E+04 0.  0.
        3    1    3    3  502    0  0.49799849491E+03 -0.88848168190E+03 -0.69622314259E+03  0.12337458711E+04  0.10100000352E+00 0. -1.
       -3    1    3    3    0  502 -0.49799849491E+03  0.88848168190E+03  0.20032794813E+04  0.22473386239E+04  0.10100000352E+00 0.  1.
</event>
<event>
 5   0  0.8423692E-07  0.2864042E+04  0.7818609E-02  0.8283657E-01
        1   -1    0    0  501    0  0.00000000000E+00  0.00000000000E+00  0.22613475074E+04  0.22613475074E+04  0.50400001928E-02 0.  1.
       -1   -1    0    0    0  501  0.00000000000E+00  0.00000000000E+00 -0.90684161251E+03  0.90684161252E+03  0.50400001928E-02 0. -1.
    10030    2    1    2    0    0  0.00000000000E+00  0.00000000000E+00  0.13545058949E+04  0.31681891200E+04  0.28640419132E+04 0.  0.
        2    1    3    3  502    0  0.30266040298E+03 -0.80323941025E+03  0.19452281539E+04  0.21261960024E+04  0.25500000920E-02 0.  1.
       -2    1    3    3    0  502 -0.30266040298E+03  0.80323941025E+03 -0.59072225903E+03  0.10419931176E+04  0.25500000920E-02 0. -1.
</event>
<event>
 5   0  0.1513502E-06  0.2152261E+04  0.7818609E-02  0.8538565E-01
       -2   -1    0    0    0  501  0.00000000000E+00  0.00000000000E+00  0.88437715614E+03  0.88437715615E+03  0.25500000920E-02 0.  1.
        2   -1    0    0  501    0  0.00000000000E+00  0.00000000000E+00 -0.13094598124E+04  0.13094598124E+04  0.25500000920E-02 0. -1.
    10030    2    1    2    0    0  0.00000000000E+00  0.00000000000E+00 -0.42508265627E+03  0.21938369686E+04  0.21522605279E+04 0.  0.
        3    1    3    3  502    0  0.64356475232E+03  0.18859184602E+03 -0.10704131039E+04  0.12631415986E+04  0.10100000352E+00 0. -1.
       -3    1    3    3    0  502 -0.64356475232E+03 -0.18859184602E+03  0.64533044766E+03  0.93069536998E+03  0.10100000352E+00 0.  1.
</event>
<event>
 5   0  0.1566576E-06  0.3548474E+04  0.7818609E-02  0.8102397E-01
        2   -1    0    0  501    0  0.00000000000E+00  0.00000000000E+00  0.17874054206E+04  0.17874054206E+04  0.25500000920E-02 0. -1.
       -2   -1    0    0    0  501  0.00000000000E+00  0.00000000000E+00 -0.17611651315E+04  0.17611651315E+04  0.25500000920E-02 0.  1.
    10030    2    1    2    0    0  0.00000000000E+00  0.00000000000E+00  0.26240289162E+02  0.35485705521E+04  0.35484735324E+04 0.  0.
        4    1    3    3  502    0 -0.10858749476E+04  0.11602908334E+04 -0.77589779620E+03  0.17684507975E+04  0.12699999809E+01 0. -1.
       -4    1    3    3    0  502  0.10858749476E+04 -0.11602908334E+04  0.80213808536E+03  0.17801197546E+04  0.12699999809E+01 0.  1.
</event>
<event>
 5   0  0.2422436E-06  0.3269184E+04  0.7818609E-02  0.8170781E-01
        2   -1    0    0  501    0  0.00000000000E+00  0.00000000000E+00  0.16683432187E+04  0.16683432187E+04  0.25500000920E-02 0. -1.
       -2   -1    0    0    0  501  0.00000000000E+00  0.00000000000E+00 -0.16015239054E+04  0.16015239054E+04  0.25500000920E-02 0.  1.
    10030    2    1    2    0    0  0.00000000000E+00  0.00000000000E+00  0.66819313372E+02  0.32698671241E+04  0.32691843308E+04 0.  0.
        2    1    3    3  502    0  0.11273070150E+04  0.10380157854E+04 -0.53556209510E+03  0.16233066976E+04  0.25500000920E-02 0.  1.
       -2    1    3    3    0  502 -0.11273070150E+04 -0.10380157854E+04  0.60238140847E+03  0.16465604265E+04  0.25500000920E-02 0. -1.
</event>
<event>
 5   0  0.2422436E-06  0.2621636E+04  0.7818609E-02  0.8360889E-01
        2   -1    0    0  501    0  0.00000000000E+00  0.00000000000E+00  0.18828240970E+04  0.18828240970E+04  0.25500000920E-02 0. -1.
       -2   -1    0    0    0  501  0.00000000000E+00  0.00000000000E+00 -0.91258844226E+03  0.91258844226E+03  0.25500000920E-02 0.  1.
    10030    2    1    2    0    0  0.00000000000E+00  0.00000000000E+00  0.97023565477E+03  0.27954125393E+04  0.26216357564E+04 0.  0.
        2    1    3    3  502    0 -0.26283371273E+03  0.11784981701E+03  0.18486605172E+04  0.18709665544E+04  0.25500000920E-02 0. -1.
       -2    1    3    3    0  502  0.26283371273E+03 -0.11784981701E+03 -0.87842486245E+03  0.92444598484E+03  0.25500000920E-02 0.  1.
</event>
<event>
 5   0  0.8423692E-07  0.3748294E+04  0.7818609E-02  0.8057343E-01
       -1   -1    0    0    0  501  0.00000000000E+00  0.00000000000E+00  0.26176617516E+04  0.26176617516E+04  0.50400001928E-02 0. -1.
        1   -1    0    0  501    0  0.00000000000E+00  0.00000000000E+00 -0.13418182555E+04  0.13418182555E+04  0.50400001928E-02 0.  1.
    10030    2    1    2    0    0  0.00000000000E+00  0.00000000000E+00  0.12758434961E+04  0.39594800071E+04  0.37482936518E+04 0.  0.
        2    1    3    3  502    0  0.96161542221E+03  0.15512581684E+04  0.10877302307E+04  0.21246795477E+04  0.25500000920E-02 0. -1.
       -2    1    3    3    0  502 -0.96161542221E+03 -0.15512581684E+04  0.18811326539E+03  0.18348004594E+04  0.25500000920E-02 0.  1.
</event>
<event>
 5   0  0.2422436E-06  0.3589321E+04  0.7818609E-02  0.8092942E-01
        2   -1    0    0  501    0  0.00000000000E+00  0.00000000000E+00  0.19605311202E+04  0.19605311202E+04  0.25500000920E-02 0.  1.
       -2   -1    0    0    0  501  0.00000000000E+00  0.00000000000E+00 -0.16428237831E+04  0.16428237831E+04  0.25500000920E-02 0. -1.
    10030    2    1    2    0    0  0.00000000000E+00  0.00000000000E+00  0.31770733706E+03  0.36033549033E+04  0.35893214689E+04 0.  0.
        2    1    3    3  502    0 -0.12289426127E+04 -0.11562873524E+04 -0.45468779576E+03  0.17475815799E+04  0.25500000920E-02 0. -1.
       -2    1    3    3    0  502  0.12289426127E+04  0.11562873524E+04  0.77239513282E+03  0.18557733234E+04  0.25500000920E-02 0.  1.
</event>
<event>
 5   0  0.1513502E-06  0.3398888E+04  0.7818609E-02  0.8138179E-01
       -2   -1    0    0    0  501  0.00000000000E+00  0.00000000000E+00  0.14032237246E+04  0.14032237246E+04  0.25500000920E-02 0. -1.
        2   -1    0    0  501    0  0.00000000000E+00  0.00000000000E+00 -0.20581957800E+04  0.20581957800E+04  0.25500000920E-02 0.  1.
    10030    2    1    2    0    0  0.00000000000E+00  0.00000000000E+00 -0.65497205541E+03  0.34614195047E+04  0.33988875524E+04 0.  0.
        3    1    3    3  502    0 -0.15700337556E+04 -0.51246237778E+03  0.80490596295E+02  0.16535121496E+04  0.10100000352E+00 0. -1.
       -3    1    3    3    0  502  0.15700337556E+04  0.51246237778E+03 -0.73546265171E+03  0.18079073551E+04  0.10100000352E+00 0.  1.
</event>
<event>
 5   0  0.1513502E-06  0.3527133E+04  0.7818609E-02  0.8107390E-01
        2   -1    0    0  501    0  0.00000000000E+00  0.00000000000E+00  0.18433635200E+04  0.18433635200E+04  0.25500000920E-02 0. -1.
       -2   -1    0    0    0  501  0.00000000000E+00  0.00000000000E+00 -0.16872235401E+04  0.16872235401E+04  0.25500000920E-02 0.  1.
    10030    2    1    2    0    0  0.00000000000E+00  0.00000000000E+00  0.15613997983E+03  0.35305870601E+04  0.35271327301E+04 0.  0.
        3    1    3    3  502    0  0.12597923859E+04 -0.10009688814E+04  0.80068471728E+03  0.17972511187E+04  0.10100000352E+00 0. -1.
       -3    1    3    3    0  502 -0.12597923859E+04  0.10009688814E+04 -0.64454473745E+03  0.17333359414E+04  0.10100000352E+00 0.  1.
</event>
<event>
 5   0  0.2536619E-06  0.3721349E+04  0.7818609E-02  0.8063247E-01
        2   -1    0    0  501    0  0.00000000000E+00  0.00000000000E+00  0.26816804696E+04  0.26816804696E+04  0.25500000920E-02 0. -1.
       -2   -1    0    0    0  501  0.00000000000E+00  0.00000000000E+00 -0.12910227304E+04  0.12910227304E+04  0.25500000920E-02 0.  1.
    10030    2    1    2    0    0  0.00000000000E+00  0.00000000000E+00  0.13906577392E+04  0.39727032000E+04  0.37213494552E+04 0.  0.
        1    1    3    3  502    0  0.15582052532E+04  0.91134298495E+03  0.21367757238E+03  0.18177479892E+04  0.50400001928E-02 0.  1.
       -1    1    3    3    0  502 -0.15582052532E+04 -0.91134298495E+03  0.11769801668E+04  0.21549552108E+04  0.50400001928E-02 0. -1.
</event>
<event>
 5   0  0.1908273E-06  0.2632219E+04  0.7818609E-02  0.8357339E-01
       -1   -1    0    0    0  501  0.00000000000E+00  0.00000000000E+00  0.15982150037E+04  0.15982150037E+04  0.50400001928E-02 0. -1.
        1   -1    0    0  501    0  0.00000000000E+00  0.00000000000E+00 -0.10837990335E+04  0.10837990335E+04  0.50400001928E-02 0.  1.
    10030    2    1    2    0    0  0.00000000000E+00  0.00000000000E+00  0.51441597018E+03  0.26820140373E+04  0.26322187420E+04 0.  0.
        3    1    3    3  502    0  0.68884597031E+03  0.10109239009E+04  0.75184810933E+03  0.14358800416E+04  0.10100000352E+00 0.  1.
       -3    1    3    3    0  502 -0.68884597031E+03 -0.10109239009E+04 -0.23743213915E+03  0.12461339956E+04  0.10100000352E+00 0. -1.
</event>
<event>
 5   0  0.7754556E-07  0.1796381E+04  0.7818609E-02  0.8708227E-01
        1   -1    0    0  501    0  0.00000000000E+00  0.00000000000E+00  0.22848686086E+04  0.22848686086E+04  0.50400001928E-02 0.  1.
       -1   -1    0    0    0  501  0.00000000000E+00  0.00000000000E+00 -0.35308198536E+03  0.35308198539E+03  0.50400001928E-02 0. -1.
    10030    2    1    2    0    0  0.00000000000E+00  0.00000000000E+00  0.19317866232E+04  0.26379505940E+04  0.17963807443E+04 0.  0.
        4    1    3    3  502    0  0.33778107094E+03 -0.81373009679E+03  0.70946944743E+03  0.11311946040E+04  0.12699999809E+01 0. -1.
       -4    1    3    3    0  502 -0.33778107094E+03  0.81373009679E+03  0.12223171758E+04  0.15067559900E+04  0.12699999809E+01 0.  1.
</event>
<event>
 5   0  0.2536619E-06  0.2880897E+04  0.7818609E-02  0.8278584E-01
        2   -1    0    0  501    0  0.00000000000E+00  0.00000000000E+00  0.11189201637E+04  0.11189201637E+04  0.25500000920E-02 0. -1.
       -2   -1    0    0    0  501  0.00000000000E+00  0.00000000000E+00 -0.18543694060E+04  0.18543694060E+04  0.25500000920E-02 0.  1.
    10030    2    1    2    0    0  0.00000000000E+00  0.00000000000E+00 -0.73544924235E+03  0.29732895697E+04  0.28808966099E+04 0.  0.
        1    1    3    3  502    0 -0.25064347927E+03  0.35625977667E+03  0.10493159231E+04  0.11361369146E+04  0.50400001928E-02 0. -1.
       -1    1    3    3    0  502  0.25064347927E+03 -0.35625977667E+03 -0.17847651655E+04  0.18371526551E+04  0.50400001928E-02 0.  1.
</event>
<event>
 5   0  0.2382711E-06  0.3751805E+04  0.7818609E-02  0.8056577E-01
       -2   -1    0    0    0  501  0.00000000000E+00  0.00000000000E+00  0.18374540678E+04  0.18374540678E+04  0.25500000920E-02 0.  1.
        2   -1    0    0  501    0  0.00000000000E+00  0.00000000000E+00 -0.19151550605E+04  0.19151550605E+04  0.25500000920E-02 0. -1.
    10030    2    1    2    0    0  0.00000000000E+00  0.00000000000E+00 -0.77700992684E+02  0.37526091283E+04  0.37518046091E+04 0.  0.
        5    1    3    3  502    0 -0.15719013291E+04 -0.10112511639E+04 -0.19852388909E+03  0.18796107388E+04  0.46999998093E+01 0.  1.
       -5    1    3    3    0  502  0.15719013291E+04  0.10112511639E+04  0.12082289641E+03  0.18729983895E+04  0.46999998093E+01 0. -1.
</event>
<event>
 5   0  0.1566576E-06  0.3595474E+04  0.7818609E-02  0.8091529E-01
        2   -1    0    0  501    0  0.00000000000E+00  0.00000000000E+00  0.21245977041E+04  0.21245977041E+04  0.25500000920E-02 0.  1.
       -2   -1    0    0    0  501  0.00000000000E+00  0.00000000000E+00 -0.15211628970E+04  0.15211628970E+04  0.25500000920E-02 0. -1.
    10030    2    1    2    0    0  0.00000000000E+00  0.00000000000E+00  0.60343480711E+03  0.36457606010E+04  0.35954744880E+04 0.  0.
        4    1    3    3  502    0  0.12004343075E+04  0.43660832013E+03 -0.98096008301E+03  0.16105755646E+04  0.12699999809E+01 0. -1.
       -4    1    3    3    0  502 -0.12004343075E+04 -0.43660832013E+03  0.15843948901E+04  0.20351850364E+04  0.12699999809E+01 0.  1.
</event>
<event>
 5   0  0.8423692E-07  0.1963970E+04  0.7818609E-02  0.8623654E-01
       -1   -1    0    0    0  501  0.00000000000E+00  0.00000000000E+00  0.13595280124E+04  0.13595280124E+04  0.50400001928E-02 0. -1.
        1   -1    0    0  501    0  0.00000000000E+00  0.00000000000E+00 -0.70928632166E+03  0.70928632168E+03  0.50400001928E-02 0.  1.
    10030    2    1    2    0    0  0.00000000000E+00  0.00000000000E+00  0.65024169070E+03  0.20688143340E+04  0.19639700844E+04 0.  0.
        2    1    3    3  502    0 -0.32451158055E+03 -0.91898811839E+03  0.19850561843E+03  0.99461118443E+03  0.25500000920E-02 0.  1.
       -2    1    3    3    0  502  0.32451158055E+03  0.91898811839E+03  0.45173607227E+03  0.10742031496E+04  0.25500000920E-02 0. -1.
</event>
<event>
 5   0  0.1566576E-06  0.3330316E+04  0.7818609E-02  0.8155224E-01
       -2   -1    0    0    0  501  0.00000000000E+00  0.00000000000E+00  0.14619331893E+04  0.14619331893E+04  0.25500000920E-02 0. -1.
        2   -1    0    0  501    0  0.00000000000E+00  0.00000000000E+00 -0.18966335229E+04  0.18966335229E+04  0.25500000920E-02 0.  1.
    10030    2    1    2    0    0  0.00000000000E+00  0.00000000000E+00 -0.43470033364E+03  0.33585667122E+04  0.33303161983E+04 0.  0.
        4    1    3    3  502    0  0.90193487787E+03 -0.13349277286E+04  0.20720950866E+03  0.16243324653E+04  0.12699999809E+01 0.  1.
       -4    1    3    3    0  502 -0.90193487787E+03  0.13349277286E+04 -0.64190984229E+03  0.17342342469E+04  0.12699999809E+01 0. -1.
</event>
<event>
 5   0  0.1566576E-06  0.3586970E+04  0.7818609E-02  0.8093483E-01
        2   -1    0    0  501    0  0.00000000000E+00  0.00000000000E+00  0.19136889648E+04  0.19136889648E+04  0.25500000920E-02 0.  1.
       -2   -1    0    0    0  501  0.00000000000E+00  0.00000000000E+00 -0.16808316669E+04  0.16808316669E+04  0.25500000920E-02 0. -1.
    10030    2    1    2    0    0  0.00000000000E+00  0.00000000000E+00  0.23285729789E+03  0.35945206317E+04  0.35869703163E+04 0.  0.
        4    1    3    3  502    0  0.11324934700E+04 -0.11041925391E+04  0.96366956467E+03  0.18521455844E+04  0.12699999809E+01 0.  1.
       -4    1    3    3    0  502 -0.11324934700E+04  0.11041925391E+04 -0.73081226679E+03  0.17423750472E+04  0.12699999809E+01 0. -1.
</event>
<event>
 5   0  0.2422436E-06  0.3419254E+04  0.7818609E-02  0.8133197E-01
        2   -1    0    0  501    0  0.00000000000E+00  0.00000000000E+00  0.28328542597E+04  0.28328542597E+04  0.25500000920E-02 0.  1.
       -2   -1    0    0    0  501  0.00000000000E+00  0.00000000000E+00 -0.10317595503E+04  0.10317595503E+04  0.25500000920E-02 0. -1.
    10030    2    1    2    0    0  0.00000000000E+00  0.00000000000E+00  0.18010947094E+04  0.38646138100E+04  0.34192539754E+04 0.  0.
        2    1    3    3  502    0  0.13709823212E+04  0.60643397361E+03  0.18294660262E+04  0.23652273951E+04  0.25500000920E-02 0.  1.
       -2    1    3    3    0  502 -0.13709823212E+04 -0.60643397361E+03 -0.28371316805E+02  0.14993864149E+04  0.25500000920E-02 0. -1.
</event>
<event>
 5   0  0.8452742E-07  0.3561837E+04  0.7818609E-02  0.8099290E-01
        1   -1    0    0  501    0  0.00000000000E+00  0.00000000000E+00  0.18904593665E+04  0.18904593665E+04  0.50400001928E-02 0.  1.
       -1   -1    0    0    0  501  0.00000000000E+00  0.00000000000E+00 -0.16777244123E+04  0.16777244123E+04  0.50400001928E-02 0. -1.
    10030    2    1    2    0    0  0.00000000000E+00  0.00000000000E+00  0.21273495415E+03  0.35681837788E+04  0.35618365093E+04 0.  0.
        1    1    3    3  502    0 -0.17815450183E+03  0.11549444975E+04  0.14526499620E+04  0.18643571898E+04  0.50400001928E-02 0.  1.
       -1    1    3    3    0  502  0.17815450183E+03 -0.11549444975E+04 -0.12399150079E+04  0.17038265891E+04  0.50400001928E-02 0. -1.
</event>
<event>
 5   0  0.7754556E-07  0.2333411E+04  0.7818609E-02  0.8464863E-01
        1   -1    0    0  501    0  0.00000000000E+00  0.00000000000E+00  0.80866487665E+03  0.80866487667E+03  0.50400001928E-02 0. -1.
       -1   -1    0    0    0  501  0.00000000000E+00  0.00000000000E+00 -0.16832710036E+04  0.16832710036E+04  0.50400001928E-02 0.  1.
    10030    2    1    2    0    0  0.00000000000E+00  0.00000000000E+00 -0.87460612690E+03  0.24919358802E+04  0.23334113555E+04 0.  0.
        4    1    3    3  502    0  0.73911062554E+03 -0.25028735290E+03  0.48895729365E+03  0.92087410851E+03  0.12699999809E+01 0. -1.
       -4    1    3    3    0  502 -0.73911062554E+03  0.25028735290E+03 -0.13635634205E+04  0.15710617717E+04  0.12699999809E+01 0.  1.
</event>
<event>
 5   0  0.2382711E-06  0.3597803E+04  0.7818609E-02  0.8090995E-01
        2   -1    0    0  501    0  0.00000000000E+00  0.00000000000E+00  0.20473356587E+04  0.20473356587E+04  0.25500000920E-02 0. -1.
       -2   -1    0    0    0  501  0.00000000000E+00  0.00000000000E+00 -0.15806137914E+04  0.15806137914E+04  0.25500000920E-02 0.  1.
    10030    2    1    2    0    0  0.00000000000E+00  0.00000000000E+00  0.46672186731E+03  0.36279494502E+04  0.35978032063E+04 0.  0.
        5    1    3    3  502    0 -0.75321899080E+03 -0.43846401312E+03  0.18202162091E+04  0.20181176073E+04  0.46999998093E+01 0. -1.
       -5    1    3    3    0  502  0.75321899080E+03  0.43846401312E+03 -0.13534943418E+04  0.16098318428E+04  0.46999998093E+01 0.  1.
</event>
<event>
 5   0  0.2422436E-06  0.2180035E+04  0.7818609E-02  0.8526784E-01
        2   -1    0    0  501    0  0.00000000000E+00  0.00000000000E+00  0.11173046568E+04  0.11173046568E+04  0.25500000920E-02 0.  1.
       -2   -1    0    0    0  501  0.00000000000E+00  0.00000000000E+00 -0.10633971942E+04  0.10633971942E+04  0.25500000920E-02 0. -1.
    10030    2    1    2    0    0  0.00000000000E+00  0.00000000000E+00  0.53907462538E+02  0.21807018510E+04  0.21800354466E+04 0.  0.
        2    1    3    3  502    0  0.88448204877E+03  0.15849471442E+03 -0.59025154909E+03  0.10750934658E+04  0.25500000920E-02 0. -1.
       -2    1    3    3    0  502 -0.88448204877E+03 -0.15849471442E+03  0.64415901163E+03  0.11056083852E+04  0.25500000920E-02 0.  1.
</event>
<event>
 5   0  0.1513502E-06  0.3508417E+04  0.7818609E-02  0.8111798E-01
       -2   -1    0    0    0  501  0.00000000000E+00  0.00000000000E+00  0.17084680690E+04  0.17084680690E+04  0.25500000920E-02 0.  1.
        2   -1    0    0  501    0  0.00000000000E+00  0.00000000000E+00 -0.18011734172E+04  0.18011734172E+04  0.25500000920E-02 0. -1.
    10030    2    1    2    0    0  0.00000000000E+00  0.00000000000E+00 -0.92705348201E+02  0.35096414863E+04  0.35084168909E+04 0.  0.
        3    1    3    3  502    0 -0.36643003851E+02 -0.45420525627E+03  0.16482286091E+04  0.17100592629E+04  0.10100000352E+00 0.  1.
       -3    1    3    3    0  502  0.36643003851E+02  0.45420525627E+03 -0.17409339573E+04  0.17995822233E+04  0.10100000352E+00 0. -1.
</event>
<event>
 5   0  0.7754556E-07  0.3612389E+04  0.7818609E-02  0.8087660E-01
        1   -1    0    0  501    0  0.00000000000E+00  0.00000000000E+00  0.22278995117E+04  0.22278995117E+04  0.50400001928E-02 0. -1.
       -1   -1    0    0    0  501  0.00000000000E+00  0.00000000000E+00 -0.14643113544E+04  0.14643113544E+04  0.50400001928E-02 0.  1.
    10030    2    1    2    0    0  0.00000000000E+00  0.00000000000E+00  0.76358815731E+03  0.36922108662E+04  0.36123889888E+04 0.  0.
        4    1    3    3  502    0  0.29958713600E+03 -0.38900117328E+03 -0.13947918653E+04  0.14786887182E+04  0.12699999809E+01 0.  1.
       -4    1    3    3    0  502 -0.29958713600E+03  0.38900117328E+03  0.21583800226E+04  0.22135221480E+04  0.12699999809E+01 0. -1.
</event>
<event>
 5   0  0.1566576E-06  0.2926571E+04  0.7818609E-02  0.8265016E-01
        2   -1    0    0  501    0  0.00000000000E+00  0.00000000000E+00  0.99235430650E+03  0.99235430650E+03  0.25500000920E-02 0.  1.
       -2   -1    0    0    0  501  0.00000000000E+00  0.00000000000E+00 -0.21577009991E+04  0.21577009991E+04  0.25500000920E-02 0. -1.
    10030    2    1    2    0    0  0.00000000000E+00  0.00000000000E+00 -0.11653466926E+04  0.31500553056E+04  0.29265706064E+04 0.  0.
        4    1    3    3  502    0  0.30439180270E+03  0.10821447200E+03 -0.21188365782E+04  0.21433233073E+04  0.12699999809E+01 0. -1.
       -4    1    3    3    0  502 -0.30439180270E+03 -0.10821447200E+03  0.95348988563E+03  0.10067319983E+04  0.12699999809E+01 0.  1.
</event>
<event>
 5   0  0.7754556E-07  0.3493274E+04  0.7818609E-02  0.8115386E-01
        1   -1    0    0  501    0  0.00000000000E+00  0.00000000000E+00  0.18991227080E+04  0.18991227080E+04  0.50400001928E-02 0.  1.
       -1   -1    0    0    0  501  0.00000000000E+00  0.00000000000E+00 -0.16063944980E+04  0.16063944980E+04  0.50400001928E-02 0. -1.
    10030    2    1    2    0    0  0.00000000000E+00  0.00000000000E+00  0.29272820998E+03  0.35055172060E+04  0.34932736905E+04 0.  0.
        4    1    3    3  502    0  0.17212048083E+04  0.27794561534E+03  0.41408340112E+02  0.17439942720E+04  0.12699999809E+01 0.  1.
       -4    1    3    3    0  502 -0.17212048083E+04 -0.27794561534E+03  0.25131986987E+03  0.17615229340E+04  0.12699999809E+01 0. -1.
</event>
<event>
 5   0  0.1513502E-06  0.2481729E+04  0.7818609E-02  0.8409524E-01
        2   -1    0    0  501    0  0.00000000000E+00  0.00000000000E+00  0.28065619483E+04  0.28065619483E+04  0.25500000920E-02 0. -1.
       -2   -1    0    0    0  501  0.00000000000E+00  0.00000000000E+00 -0.54862310021E+03  0.54862310021E+03  0.25500000920E-02 0.  1.
    10030    2    1    2    0    0  0.00000000000E+00  0.00000000000E+00  0.22579388481E+04  0.33551850485E+04  0.24817290078E+04 0.  0.
        3    1    3    3  502    0  0.90648933968E+02 -0.11773936867E+04  0.16442603052E+04  0.20243678234E+04  0.10100000352E+00 0.  1.
       -3    1    3    3    0  502 -0.90648933968E+02  0.11773936867E+04  0.61367854284E+03  0.13308172252E+04  0.10100000352E+00 0. -1.
</event>
<event>
 5   0  0.1566576E-06  0.3197451E+04  0.7818609E-02  0.8189491E-01
        2   -1    0    0  501    0  0.00000000000E+00  0.00000000000E+00  0.17863860332E+04  0.17863860332E+04  0.25500000920E-02 0. -1.
       -2   -1    0    0    0  501  0.00000000000E+00  0.00000000000E+00 -0.14307784124E+04  0.14307784124E+04  0.25500000920E-02 0.  1.
    10030    2    1    2    0    0  0.00000000000E+00  0.00000000000E+00  0.35560762075E+03  0.32171644456E+04  0.31974505923E+04 0.  0.
        4    1    3    3  502    0  0.66532261092E+03 -0.14110686025E+04  0.52946143057E+03  0.16474525174E+04  0.12699999809E+01 0. -1.
       -4    1    3    3    0  502 -0.66532261092E+03  0.14110686025E+04 -0.17385380982E+03  0.15697119282E+04  0.12699999809E+01 0.  1.
</event>
<event>
 5   0  0.1513502E-06  0.3566813E+04  0.7818609E-02  0.8098136E-01
       -2   -1    0    0    0  501  0.00000000000E+00  0.00000000000E+00  0.11589989895E+04  0.11589989895E+04  0.25500000920E-02 0. -1.
        2   -1    0    0  501    0  0.00000000000E+00  0.00000000000E+00 -0.27442118121E+04  0.27442118121E+04  0.25500000920E-02 0.  1.
    10030    2    1    2    0    0  0.00000000000E+00  0.00000000000E+00 -0.15852128225E+04  0.39032108016E+04  0.35668129848E+04 0.  0.
        3    1    3    3  502    0 -0.37002041374E+03  0.10638900856E+04 -0.23056746746E+04  0.25661085200E+04  0.10100000352E+00 0.  1.
       -3    1    3    3    0  502  0.37002041374E+03 -0.10638900856E+04  0.72046185207E+03  0.13371022816E+04  0.10100000352E+00 0. -1.
</event>
<event>
 5   0  0.1513502E-06  0.3593510E+04  0.7818609E-02  0.8091980E-01
       -2   -1    0    0    0  501  0.00000000000E+00  0.00000000000E+00  0.11189068818E+04  0.11189068818E+04  0.25500000920E-02 0.  1.
        2   -1    0    0  501    0  0.00000000000E+00  0.00000000000E+00 -0.28852514741E+04  0.28852514741E+04  0.25500000920E-02 0. -1.
    10030    2    1    2    0    0  0.00000000000E+00  0.00000000000E+00 -0.17663445924E+04  0.40041583559E+04  0.35935095548E+04 0.  0.
        3    1    3    3  502    0  0.13418835903E+04 -0.13132297594E+03  0.44015805897E+03  0.14183216916E+04  0.10100000352E+00 0.  1.
       -3    1    3    3    0  502 -0.13418835903E+04  0.13132297594E+03 -0.22065026513E+04  0.25858366643E+04  0.10100000352E+00 0. -1.
</event>
<event>
 5   0  0.2382711E-06  0.2899920E+04  0.7818609E-02  0.8272901E-01
       -2   -1    0    0    0  501  0.00000000000E+00  0.00000000000E+00  0.11685999081E+04  0.11685999081E+04  0.25500000920E-02 0. -1.
        2   -1    0    0  501    0  0.00000000000E+00  0.00000000000E+00 -0.17990626399E+04  0.17990626399E+04  0.25500000920E-02 0.  1.
    10030    2    1    2    0    0  0.00000000000E+00  0.00000000000E+00 -0.63046273177E+03  0.29676625480E+04  0.28999202994E+04 0.  0.
        5    1    3    3  502    0 -0.98091224397E+03 -0.95312092875E+03  0.17740145513E+03  0.13791742825E+04  0.46999998093E+01 0.  1.
       -5    1    3    3    0  502  0.98091224397E+03  0.95312092875E+03 -0.80786418689E+03  0.15884882655E+04  0.46999998093E+01 0. -1.
</event>
<event>
 5   0  0.2536619E-06  0.3620449E+04  0.7818609E-02  0.8085823E-01
        2   -1    0    0  501    0  0.00000000000E+00  0.00000000000E+00  0.24573945534E+04  0.24573945534E+04  0.25500000920E-02 0. -1.
       -2   -1    0    0    0  501  0.00000000000E+00  0.00000000000E+00 -0.13334910347E+04  0.13334910347E+04  0.25500000920E-02 0.  1.
    10030    2    1    2    0    0  0.00000000000E+00  0.00000000000E+00  0.11239035187E+04  0.37908855881E+04  0.36204494780E+04 0.  0.
        1    1    3    3  502    0 -0.88975991727E+03  0.31198644518E+03 -0.10560788769E+04  0.14157368564E+04  0.50400001928E-02 0.  1.
       -1    1    3    3    0  502  0.88975991727E+03 -0.31198644518E+03  0.21799823956E+04  0.23751487317E+04  0.50400001928E-02 0. -1.
</event>
<event>
 5   0  0.2382711E-06  0.3336163E+04  0.7818609E-02  0.8153754E-01
        2   -1    0    0  501    0  0.00000000000E+00  0.00000000000E+00  0.14124174322E+04  0.14124174322E+04  0.25500000920E-02 0.  1.
       -2   -1    0    0    0  501  0.00000000000E+00  0.00000000000E+00 -0.19700241459E+04  0.19700241459E+04  0.25500000920E-02 0. -1.
    10030    2    1    2    0    0  0.00000000000E+00  0.00000000000E+00 -0.55760671367E+03  0.33824415781E+04  0.33361633326E+04 0.  0.
        5    1    3    3  502    0 -0.11346732701E+04 -0.10643132305E+04  0.33139940931E+03  0.15906268390E+04  0.46999998093E+01 0.  1.
       -5    1    3    3    0  502  0.11346732701E+04  0.10643132305E+04 -0.88900612298E+03  0.17918147391E+04  0.46999998093E+01 0. -1.
</event>
<event>
 5   0  0.1566576E-06  0.3211553E+04  0.7818609E-02  0.8185773E-01
        2   -1    0    0  501    0  0.00000000000E+00  0.00000000000E+00  0.20104825531E+04  0.20104825531E+04  0.25500000920E-02 0. -1.
       -2   -1    0    0    0  501  0.00000000000E+00  0.00000000000E+00 -0.12825368846E+04  0.12825368846E+04  0.25500000920E-02 0.  1.
    10030    2    1    2    0    0  0.00000000000E+00  0.00000000000E+00  0.72794566852E+03  0.32930194376E+04  0.32115529141E+04 0.  0.
        4    1    3    3  502    0  0.11388179527E+04 -0.23972435494E+03  0.14984484579E+04  0.18972937278E+04  0.12699999809E+01 0. -1.
       -4    1    3    3    0  502 -0.11388179527E+04  0.23972435494E+03 -0.77050278937E+03  0.13957257098E+04  0.12699999809E+01 0.  1.
</event>
<event>
 5   0  0.8452742E-07  0.3636491E+04  0.7818609E-02  0.8082184E-01
        1   -1    0    0  501    0  0.00000000000E+00  0.00000000000E+00  0.10245254482E+04  0.10245254482E+04  0.50400001928E-02 0. -1.
       -1   -1    0    0    0  501  0.00000000000E+00  0.00000000000E+00 -0.32268754357E+04  0.32268754357E+04  0.50400001928E-02 0.  1.
    10030    2    1    2    0    0  0.00000000000E+00  0.00000000000E+00 -0.22023499875E+04  0.42514008839E+04  0.36364906171E+04 0.  0.
        1    1    3    3  502    0 -0.10843870172E+04  0.11299912616E+04 -0.21810794421E+04  0.26851225273E+04  0.50400001928E-02 0.  1.
       -1    1    3    3    0  502  0.10843870172E+04 -0.11299912616E+04 -0.21270545413E+02  0.15662783566E+04  0.50400001928E-02 0. -1.
</event>
<event>
 5   0  0.1513502E-06  0.3789585E+04  0.7818609E-02  0.8048394E-01
        2   -1    0    0  501    0  0.00000000000E+00  0.00000000000E+00  0.32787461909E+04  0.32787461909E+04  0.25500000920E-02 0.  1.
       -2   -1    0    0    0  501  0.00000000000E+00  0.00000000000E+00 -0.10950036906E+04  0.10950036906E+04  0.25500000920E-02 0. -1.
    10030    2    1    2    0    0  0.00000000000E+00  0.00000000000E+00  0.21837425004E+04  0.43737498815E+04  0.37895852963E+04 0.  0.
        3    1    3    3  502    0 -0.57574590636E+03 -0.13944424549E+04 -0.23127304291E+03  0.15262504183E+04  0.10100000352E+00 0. -1.
       -3    1    3    3    0  502  0.57574590636E+03  0.13944424549E+04  0.24150155433E+04  0.28474994632E+04  0.10100000352E+00 0.  1.
</event>
<event>
 5   0  0.8423692E-07  0.3598475E+04  0.7818609E-02  0.8090841E-01
       -1   -1    0    0    0  501  0.00000000000E+00  0.00000000000E+00  0.23176448328E+04  0.23176448328E+04  0.50400001928E-02 0.  1.
        1   -1    0    0  501    0  0.00000000000E+00  0.00000000000E+00 -0.13967869478E+04  0.13967869478E+04  0.50400001928E-02 0. -1.
    10030    2    1    2    0    0  0.00000000000E+00  0.00000000000E+00  0.92085788498E+03  0.37144317806E+04  0.35984752616E+04 0.  0.
        2    1    3    3  502    0 -0.28292987100E+03 -0.17073444680E+04  0.96840640471E+03  0.19831503748E+04  0.25500000920E-02 0.  1.
       -2    1    3    3    0  502  0.28292987100E+03  0.17073444680E+04 -0.47548519736E+02  0.17312814058E+04  0.25500000920E-02 0. -1.
</event>
<event>
 5   0  0.2536619E-06  0.3618356E+04  0.7818609E-02  0.8086300E-01
        2   -1    0    0  501    0  0.00000000000E+00  0.00000000000E+00  0.24725792325E+04  0.24725792325E+04  0.25500000920E-02 0.  1.
       -2   -1    0    0    0  501  0.00000000000E+00  0.00000000000E+00 -0.13237697673E+04  0.13237697673E+04  0.25500000920E-02 0. -1.
    10030    2    1    2    0    0  0.00000000000E+00  0.00000000000E+00  0.11488094652E+04  0.37963489998E+04  0.36183563313E+04 0.  0.
        1    1    3    3  502    0 -0.11618840556E+03  0.46238247543E+01  0.24686545411E+04  0.24713915855E+04  0.50400001928E-02 0.  1.
       -1    1    3    3    0  502  0.11618840556E+03 -0.46238247543E+01 -0.13198450759E+04  0.13249574143E+04  0.50400001928E-02 0. -1.
</event>
<event>
 5   0  0.1634374E-06  0.3652465E+04  0.7818609E-02  0.8078579E-01
        1   -1    0    0  501    0  0.00000000000E+00  0.00000000000E+00  0.15907302169E+04  0.15907302169E+04  0.50400001928E-02 0. -1.
       -1   -1    0    0    0  501  0.00000000000E+00  0.00000000000E+00 -0.20965996955E+04  0.20965996955E+04  0.50400001928E-02 0.  1.
    10030    2    1    2    0    0  0.00000000000E+00  0.00000000000E+00 -0.50586947862E+03  0.36873299124E+04  0.36524646410E+04 0.  0.
        5    1    3    3  502    0 -0.14662785951E+03  0.10160746053E+04  0.12718452647E+04  0.16344784489E+04  0.46999998093E+01 0. -1.
       -5    1    3    3    0  502  0.14662785951E+03 -0.10160746053E+04 -0.17777147433E+04  0.20528514635E+04  0.46999998093E+01 0.  1.
</event>
<event>
 5   0  0.8423692E-07  0.1997644E+04  0.7818609E-02  0.8607723E-01
        1   -1    0    0  501    0  0.00000000000E+00  0.00000000000E+00  0.10259055824E+04  0.10259055824E+04  0.50400001928E-02 0. -1.
       -1   -1    0    0    0  501  0.00000000000E+00  0.00000000000E+00 -0.97245358246E+03  0.97245358247E+03  0.50400001928E-02 0.  1.
    10030    2    1    2    0    0  0.00000000000E+00  0.00000000000E+00  0.53451999929E+02  0.19983591649E+04  0.19976441714E+04 0.  0.
        2    1    3    3  502    0 -0.48955812668E+03 -0.77560289758E+03  0.42236540007E+03  0.10097621231E+04  0.25500000920E-02 0. -1.
       -2    1    3    3    0  502  0.48955812668E+03  0.77560289758E+03 -0.36891340014E+03  0.98859704174E+03  0.25500000920E-02 0.  1.
</event>
<event>
 5   0  0.1513502E-06  0.3604677E+04  0.7818609E-02  0.8089421E-01
       -2   -1    0    0    0  501  0.00000000000E+00  0.00000000000E+00  0.19383160057E+04  0.19383160057E+04  0.25500000920E-02 0. -1.
        2   -1    0    0  501    0  0.00000000000E+00  0.00000000000E+00 -0.16759001717E+04  0.16759001717E+04  0.25500000920E-02 0.  1.
    10030    2    1    2    0    0  0.00000000000E+00  0.00000000000E+00  0.26241583404E+03  0.36142161774E+04  0.36046770323E+04 0.  0.
        3    1    3    3  502    0 -0.35826448622E+03 -0.11450449009E+04  0.14797366031E+04  0.19050201290E+04  0.10100000352E+00 0. -1.
       -3    1    3    3    0  502  0.35826448622E+03  0.11450449009E+04 -0.12173207690E+04  0.17091960484E+04  0.10100000352E+00 0.  1.
</event>
<event>
 5   0  0.1634374E-06  0.3599709E+04  0.7818609E-02  0.8090558E-01
       -1   -1    0    0    0  501  0.00000000000E+00  0.00000000000E+00  0.16597757536E+04  0.16597757536E+04  0.50400001928E-02 0.  1.
        1   -1    0    0  501    0  0.00000000000E+00  0.00000000000E+00 -0.19517557897E+04  0.19517557897E+04  0.50400001928E-02 0. -1.
    10030    2    1    2    0    0  0.00000000000E+00  0.00000000000E+00 -0.29198003607E+03  0.36115315433E+04  0.35997093976E+04 0.  0.
        5    1    3    3  502    0 -0.11508371642E+04 -0.13533469981E+04 -0.43586896562E+03  0.18292014982E+04  0.46999998093E+01 0. -1.
       -5    1    3    3    0  502  0.11508371642E+04  0.13533469981E+04  0.14388892955E+03  0.17823300451E+04  0.46999998093E+01 0.  1.
</event>
<event>
 5   0  0.8452742E-07  0.2352219E+04  0.7818609E-02  0.8457612E-01
       -1   -1    0    0    0  501  0.00000000000E+00  0.00000000000E+00  0.59797668026E+03  0.59797668028E+03  0.50400001928E-02 0. -1.
        1   -1    0    0  501    0  0.00000000000E+00  0.00000000000E+00 -0.23131890450E+04  0.23131890450E+04  0.50400001928E-02 0.  1.
    10030    2    1    2    0    0  0.00000000000E+00  0.00000000000E+00 -0.17152123647E+04  0.29111657252E+04  0.23522186174E+04 0.  0.
        1    1    3    3  502    0  0.16314745412E+02 -0.69606410637E+03  0.31550460790E+03  0.76440471527E+03  0.50400001928E-02 0. -1.
       -1    1    3    3    0  502 -0.16314745412E+02  0.69606410637E+03 -0.20307169726E+04  0.21467610100E+04  0.50400001928E-02 0.  1.
</event>
<event>
 5   0  0.2382711E-06  0.2800604E+04  0.7818609E-02  0.8303081E-01
        2   -1    0    0  501    0  0.00000000000E+00  0.00000000000E+00  0.20686114943E+04  0.20686114943E+04  0.25500000920E-02 0.  1.
       -2   -1    0    0    0  501  0.00000000000E+00  0.00000000000E+00 -0.94790429597E+03  0.94790429597E+03  0.25500000920E-02 0. -1.
    10030    2    1    2    0    0  0.00000000000E+00  0.00000000000E+00  0.11207071983E+04  0.30165157902E+04  0.28006040221E+04 0.  0.
        5    1    3    3  502    0  0.94886459817E+03  0.12757806777E+03 -0.54028934868E+03  0.10993429216E+04  0.46999998093E+01 0. -1.
       -5    1    3    3    0  502 -0.94886459817E+03 -0.12757806777E+03  0.16609965470E+04  0.19171728686E+04  0.46999998093E+01 0.  1.
</event>
<event>
 5   0  0.2422436E-06  0.2078534E+04  0.7818609E-02  0.8570759E-01
        2   -1    0    0  501    0  0.00000000000E+00  0.00000000000E+00  0.92544114311E+03  0.92544114311E+03  0.25500000920E-02 0.  1.
       -2   -1    0    0    0  501  0.00000000000E+00  0.00000000000E+00 -0.11670934455E+04  0.11670934455E+04  0.25500000920E-02 0. -1.
    10030    2    1    2    0    0  0.00000000000E+00  0.00000000000E+00 -0.24165230238E+03  0.20925345886E+04  0.20785343801E+04 0.  0.
        2    1    3    3  502    0  0.62045769641E+03 -0.65460178066E+03 -0.64064212029E+03  0.11062972343E+04  0.25500000920E-02 0. -1.
       -2    1    3    3    0  502 -0.62045769641E+03  0.65460178066E+03  0.39898981791E+03  0.98623735433E+03  0.25500000920E-02 0.  1.
</event>
<event>
 5   0  0.8423692E-07  0.2271343E+04  0.7818609E-02  0.8489306E-01
       -1   -1    0    0    0  501  0.00000000000E+00  0.00000000000E+00  0.66909395216E+03  0.66909395218E+03  0.50400001928E-02 0. -1.
        1   -1    0    0  501    0  0.00000000000E+00  0.00000000000E+00 -0.19276070093E+04  0.19276070093E+04  0.50400001928E-02 0.  1.
    10030    2    1    2    0    0  0.00000000000E+00  0.00000000000E+00 -0.12585130572E+04  0.25967009615E+04  0.22713433841E+04 0.  0.
        2    1    3    3  502    0  0.47671841034E+03  0.49970775774E+03 -0.16599420040E+04  0.17978809034E+04  0.25500000920E-02 0.  1.
       -2    1    3    3    0  502 -0.47671841034E+03 -0.49970775774E+03  0.40142894688E+03  0.79882005815E+03  0.25500000920E-02 0. -1.
</event>
<event>
 5   0  0.2382711E-06  0.2955240E+04  0.7818609E-02  0.8256629E-01
       -2   -1    0    0    0  501  0.00000000000E+00  0.00000000000E+00  0.22237027558E+04  0.22237027558E+04  0.25500000920E-02 0.  1.
        2   -1    0    0  501    0  0.00000000000E+00  0.00000000000E+00 -0.98185812843E+03  0.98185812843E+03  0.25500000920E-02 0. -1.
    10030    2    1    2    0    0  0.00000000000E+00  0.00000000000E+00  0.12418446274E+04  0.32055608842E+04  0.29552398387E+04 0.  0.
        5    1    3    3  502    0 -0.10679988248E+04 -0.72139453507E+03 -0.16300213347E+03  0.12990855824E+04  0.46999998093E+01 0. -1.
       -5    1    3    3    0  502  0.10679988248E+04  0.72139453507E+03  0.14048467609E+04  0.19064753018E+04  0.46999998093E+01 0.  1.
</event>
<event>
 5   0  0.8452742E-07  0.3608944E+04  0.7818609E-02  0.8088446E-01
        1   -1    0    0  501    0  0.00000000000E+00  0.00000000000E+00  0.23798166793E+04  0.23798166793E+04  0.50400001928E-02 0. -1.
       -1   -1    0    0    0  501  0.00000000000E+00  0.00000000000E+00 -0.13682226598E+04  0.13682226598E+04  0.50400001928E-02 0.  1.
    10030    2    1    2    0    0  0.00000000000E+00  0.00000000000E+00  0.10115940195E+04  0.37480393391E+04  0.36089439490E+04 0.  0.
        1    1    3    3  502    0 -0.16604496379E+04 -0.26789459885E+03 -0.17304608613E+03  0.16908002437E+04  0.50400001928E-02 0. -1.
       -1    1    3    3    0  502  0.16604496379E+04  0.26789459885E+03  0.11846401057E+04  0.20572390955E+04  0.50400001928E-02 0.  1.
</event>
<event>
 5   0  0.2536619E-06  0.3561641E+04  0.7818609E-02  0.8099335E-01
        2   -1    0    0  501    0  0.00000000000E+00  0.00000000000E+00  0.18068117857E+04  0.18068117857E+04  0.25500000920E-02 0. -1.
       -2   -1    0    0    0  501  0.00000000000E+00  0.00000000000E+00 -0.17552033183E+04  0.17552033183E+04  0.25500000920E-02 0.  1.
    10030    2    1    2    0    0  0.00000000000E+00  0.00000000000E+00  0.51608467377E+02  0.35620151040E+04  0.35616412182E+04 0.  0.
        1    1    3    3  502    0  0.13056978246E+04  0.11490823944E+04 -0.35644641150E+03  0.17754692908E+04  0.50400001928E-02 0.  1.
       -1    1    3    3    0  502 -0.13056978246E+04 -0.11490823944E+04  0.40805487887E+03  0.17865458132E+04  0.50400001928E-02 0. -1.
</event>
<event>
 5   0  0.1566576E-06  0.3554201E+04  0.7818609E-02  0.8101064E-01
       -2   -1    0    0    0  501  0.00000000000E+00  0.00000000000E+00  0.16469513333E+04  0.16469513333E+04  0.25500000920E-02 0. -1.
        2   -1    0    0  501    0  0.00000000000E+00  0.00000000000E+00 -0.19175341636E+04  0.19175341636E+04  0.25500000920E-02 0.  1.
    10030    2    1    2    0    0  0.00000000000E+00  0.00000000000E+00 -0.27058283033E+03  0.35644854969E+04  0.35542005837E+04 0.  0.
        4    1    3    3  502    0 -0.10763106167E+04  0.13820960970E+04  0.16465542279E+03  0.17594735537E+04  0.12699999809E+01 0. -1.
       -4    1    3    3    0  502  0.10763106167E+04 -0.13820960970E+04 -0.43523825312E+03  0.18050119431E+04  0.12699999809E+01 0.  1.
</event>
<event>
 5   0  0.7754556E-07  0.3649572E+04  0.7818609E-02  0.8079230E-01
       -1   -1    0    0    0  501  0.00000000000E+00  0.00000000000E+00  0.19059250042E+04  0.19059250042E+04  0.50400001928E-02 0.  1.
        1   -1    0    0  501    0  0.00000000000E+00  0.00000000000E+00 -0.17471014169E+04  0.17471014169E+04  0.50400001928E-02 0. -1.
    10030    2    1    2    0    0  0.00000000000E+00  0.00000000000E+00  0.15882358732E+03  0.36530264212E+04  0.36495721807E+04 0.  0.
        4    1    3    3  502    0  0.74276454711E+03  0.11384054496E+04 -0.11391872157E+04  0.17735318620E+04  0.12699999809E+01 0. -1.
       -4    1    3    3    0  502 -0.74276454711E+03 -0.11384054496E+04  0.12980108030E+04  0.18794945592E+04  0.12699999809E+01 0.  1.
</event>
<event>
 5   0  0.1566576E-06  0.3595470E+04  0.7818609E-02  0.8091530E-01
       -2   -1    0    0    0  501  0.00000000000E+00  0.00000000000E+00  0.19613426500E+04  0.19613426500E+04  0.25500000920E-02 0. -1.
        2   -1    0    0  501    0  0.00000000000E+00  0.00000000000E+00 -0.16477750917E+04  0.16477750917E+04  0.25500000920E-02 0.  1.
    10030    2    1    2    0    0  0.00000000000E+00  0.00000000000E+00  0.31356755827E+03  0.36091177417E+04  0.35954702418E+04 0.  0.
        4    1    3    3  502    0  0.59441114935E+02  0.69710304901E+03 -0.15055104797E+04  0.16601353332E+04  0.12699999809E+01 0.  1.
       -4    1    3    3    0  502 -0.59441114935E+02 -0.69710304901E+03  0.18190780380E+04  0.19489824084E+04  0.12699999809E+01 0. -1.
</event>
<event>
 5   0  0.1566576E-06  0.3577747E+04  0.7818609E-02  0.8095608E-01
       -2   -1    0    0    0  501  0.00000000000E+00  0.00000000000E+00  0.18038581789E+04  0.18038581789E+04  0.25500000920E-02 0.  1.
        2   -1    0    0  501    0  0.00000000000E+00  0.00000000000E+00 -0.17740128903E+04  0.17740128903E+04  0.25500000920E-02 0. -1.
    10030    2    1    2    0    0  0.00000000000E+00  0.00000000000E+00  0.29845288603E+02  0.35778710691E+04  0.35777465877E+04 0.  0.
        4    1    3    3  502    0 -0.12215889650E+04  0.58940284075E+03  0.11813211212E+04  0.17986652030E+04  0.12699999809E+01 0.  1.
       -4    1    3    3    0  502  0.12215889650E+04 -0.58940284075E+03 -0.11514758326E+04  0.17792058661E+04  0.12699999809E+01 0. -1.
</event>
<event>
 5   0  0.1513502E-06  0.3483536E+04  0.7818609E-02  0.8117703E-01
        2   -1    0    0  501    0  0.00000000000E+00  0.00000000000E+00  0.28101399748E+04  0.28101399748E+04  0.25500000920E-02 0. -1.
       -2   -1    0    0    0  501  0.00000000000E+00  0.00000000000E+00 -0.10795748085E+04  0.10795748085E+04  0.25500000920E-02 0.  1.
    10030    2    1    2    0    0  0.00000000000E+00  0.00000000000E+00  0.17305651663E+04  0.38897147834E+04  0.34835363212E+04 0.  0.
        3    1    3    3  502    0 -0.65079478306E+03  0.16139893559E+04  0.94627126364E+03  0.19808899023E+04  0.10100000352E+00 0. -1.
       -3    1    3    3    0  502  0.65079478306E+03 -0.16139893559E+04  0.78429390269E+03  0.19088248811E+04  0.10100000352E+00 0.  1.
</event>
<event>
 5   0  0.2536619E-06  0.3494292E+04  0.7818609E-02  0.8115144E-01
       -2   -1    0    0    0  501  0.00000000000E+00  0.00000000000E+00  0.11038622164E+04  0.11038622164E+04  0.25500000920E-02 0.  1.
        2   -1    0    0  501    0  0.00000000000E+00  0.00000000000E+00 -0.27653079265E+04  0.27653079265E+04  0.25500000920E-02 0. -1.
    10030    2    1    2    0    0  0.00000000000E+00  0.00000000000E+00 -0.16614457101E+04  0.38691701429E+04  0.34942918806E+04 0.  0.
        1    1    3    3  502    0  0.12191526019E+04 -0.41059085977E+03 -0.21397548228E+04  0.24966915353E+04  0.50400001928E-02 0. -1.
       -1    1    3    3    0  502 -0.12191526019E+04  0.41059085977E+03  0.47830911270E+03  0.13724786075E+04  0.50400001928E-02 0.  1.
</event>
<event>
 5   0  0.1513502E-06  0.3695162E+04  0.7818609E-02  0.8069035E-01
        2   -1    0    0  501    0  0.00000000000E+00  0.00000000000E+00  0.17284402110E+04  0.17284402110E+04  0.25500000920E-02 0. -1.
       -2   -1    0    0    0  501  0.00000000000E+00  0.00000000000E+00 -0.19749346143E+04  0.19749346143E+04  0.25500000920E-02 0.  1.
    10030    2    1    2    0    0  0.00000000000E+00  0.00000000000E+00 -0.24649440323E+03  0.37033748253E+04  0.36951624600E+04 0.  0.
        3    1    3    3  502    0  0.95804540664E+03 -0.15586429141E+04  0.13488619450E+03  0.18345062089E+04  0.10100000352E+00 0. -1.
       -3    1    3    3    0  502 -0.95804540664E+03  0.15586429141E+04 -0.38138059772E+03  0.18688686164E+04  0.10100000352E+00 0.  1.
</event>
<event>
 5   0  0.2536619E-06  0.3660181E+04  0.7818609E-02  0.8076844E-01
       -2   -1    0    0    0  501  0.00000000000E+00  0.00000000000E+00  0.18520429526E+04  0.18520429526E+04  0.25500000920E-02 0.  1.
        2   -1    0    0  501    0  0.00000000000E+00  0.00000000000E+00 -0.18083979764E+04  0.18083979764E+04  0.25500000920E-02 0. -1.
    10030    2    1    2    0    0  0.00000000000E+00  0.00000000000E+00  0.43644976178E+02  0.36604409289E+04  0.36601807210E+04 0.  0.
        1    1    3    3  502    0 -0.27880653098E+03  0.13955132383E+04 -0.11289288797E+04  0.18164995721E+04  0.50400001928E-02 0. -1.
       -1    1    3    3    0  502  0.27880653098E+03 -0.13955132383E+04  0.11725738559E+04  0.18439413568E+04  0.50400001928E-02 0.  1.
</event>
<event>
 5   0  0.9062999E-07  0.2052547E+04  0.7818609E-02  0.8582440E-01
        1   -1    0    0  501    0  0.00000000000E+00  0.00000000000E+00  0.13071489350E+04  0.13071489350E+04  0.50400001928E-02 0.  1.
       -1   -1    0    0    0  501  0.00000000000E+00  0.00000000000E+00 -0.80575168585E+03  0.80575168587E+03  0.50400001928E-02 0. -1.
    10030    2    1    2    0    0  0.00000000000E+00  0.00000000000E+00  0.50139724917E+03  0.21129006209E+04  0.20525471571E+04 0.  0.
        2    1    3    3  502    0  0.52145141416E+01 -0.49722794985E+03 -0.67346019706E+03  0.83714482756E+03  0.25500000920E-02 0. -1.
       -2    1    3    3    0  502 -0.52145141416E+01  0.49722794985E+03  0.11748574462E+04  0.12757557933E+04  0.25500000920E-02 0.  1.
</event>
<event>
 5   0  0.8452742E-07  0.2913172E+04  0.7818609E-02  0.8268969E-01
       -1   -1    0    0    0  501  0.00000000000E+00  0.00000000000E+00  0.12730567096E+04  0.12730567096E+04  0.50400001928E-02 0. -1.
        1   -1    0    0  501    0  0.00000000000E+00  0.00000000000E+00 -0.16665735142E+04  0.16665735143E+04  0.50400001928E-02 0.  1.
    10030    2    1    2    0    0  0.00000000000E+00  0.00000000000E+00 -0.39351680466E+03  0.29396302239E+04  0.29131718757E+04 0.  0.
        1    1    3    3  502    0  0.33099994100E+03 -0.10695597351E+04 -0.11369521923E+04  0.15956751786E+04  0.50400001928E-02 0.  1.
       -1    1    3    3    0  502 -0.33099994100E+03  0.10695597351E+04  0.74343538766E+03  0.13439550452E+04  0.50400001928E-02 0. -1.
</event>
<event>
 5   0  0.2536619E-06  0.2740562E+04  0.7818609E-02  0.8321963E-01
        2   -1    0    0  501    0  0.00000000000E+00  0.00000000000E+00  0.18109212117E+04  0.18109212117E+04  0.25500000920E-02 0. -1.
       -2   -1    0    0    0  501  0.00000000000E+00  0.00000000000E+00 -0.10368593402E+04  0.10368593402E+04  0.25500000920E-02 0.  1.
    10030    2    1    2    0    0  0.00000000000E+00  0.00000000000E+00  0.77406187145E+03  0.28477805519E+04  0.27405624042E+04 0.  0.
        1    1    3    3  502    0 -0.10414430260E+04 -0.52949445373E+03 -0.35701473227E+03  0.12216494882E+04  0.50400001928E-02 0.  1.
       -1    1    3    3    0  502  0.10414430260E+04  0.52949445373E+03  0.11310766037E+04  0.16261310637E+04  0.50400001928E-02 0. -1.
</event>
<event>
 5   0  0.2382711E-06  0.3551720E+04  0.7818609E-02  0.8101641E-01
        2   -1    0    0  501    0  0.00000000000E+00  0.00000000000E+00  0.30459444334E+04  0.30459444334E+04  0.25500000920E-02 0.  1.
       -2   -1    0    0    0  501  0.00000000000E+00  0.00000000000E+00 -0.10353700089E+04  0.10353700089E+04  0.25500000920E-02 0. -1.
    10030    2    1    2    0    0  0.00000000000E+00  0.00000000000E+00  0.20105744246E+04  0.40813144423E+04  0.35517204367E+04 0.  0.
        5    1    3    3  502    0 -0.14005064619E+04  0.94616890844E+03  0.16315290016E+04  0.23491621754E+04  0.46999998093E+01 0. -1.
       -5    1    3    3    0  502  0.14005064619E+04 -0.94616890844E+03  0.37904542292E+03  0.17321522669E+04  0.46999998093E+01 0.  1.
</event>
<event>
 5   0  0.2422436E-06  0.2726478E+04  0.7818609E-02  0.8326465E-01
        2   -1    0    0  501    0  0.00000000000E+00  0.00000000000E+00  0.14555503812E+04  0.14555503812E+04  0.25500000920E-02 0.  1.
       -2   -1    0    0    0  501  0.00000000000E+00  0.00000000000E+00 -0.12767817341E+04  0.12767817341E+04  0.25500000920E-02 0. -1.
    10030    2    1    2    0    0  0.00000000000E+00  0.00000000000E+00  0.17876864710E+03  0.27323321154E+04  0.27264776837E+04 0.  0.
        2    1    3    3  502    0  0.12546344435E+04 -0.24750628102E+03 -0.38391486786E+03  0.13351994502E+04  0.25500000920E-02 0. -1.
       -2    1    3    3    0  502 -0.12546344435E+04  0.24750628102E+03  0.56268351496E+03  0.13971326652E+04  0.25500000920E-02 0.  1.
</event>
<event>
 5   0  0.9174352E-07  0.1798634E+04  0.7818609E-02  0.8707026E-01
        1   -1    0    0  501    0  0.00000000000E+00  0.00000000000E+00  0.89347774411E+03  0.89347774412E+03  0.50400001928E-02 0. -1.
       -1   -1    0    0    0  501  0.00000000000E+00  0.00000000000E+00 -0.90519392824E+03  0.90519392825E+03  0.50400001928E-02 0.  1.
    10030    2    1    2    0    0  0.00000000000E+00  0.00000000000E+00 -0.11716184131E+02  0.17986716724E+04  0.17986335135E+04 0.  0.
        2    1    3    3  502    0  0.48114034609E+03 -0.29925207048E+03 -0.70424443888E+03  0.90388498385E+03  0.25500000920E-02 0.  1.
       -2    1    3    3    0  502 -0.48114034609E+03  0.29925207048E+03  0.69252825475E+03  0.89478668852E+03  0.25500000920E-02 0. -1.
</event>
<event>
 5   0  0.1513502E-06  0.2482115E+04  0.7818609E-02  0.8409385E-01
        2   -1    0    0  501    0  0.00000000000E+00  0.00000000000E+00  0.22364698577E+04  0.22364698577E+04  0.25500000920E-02 0.  1.
       -2   -1    0    0    0  501  0.00000000000E+00  0.00000000000E+00 -0.68868542387E+03  0.68868542387E+03  0.25500000920E-02 0. -1.
    10030    2    1    2    0    0  0.00000000000E+00  0.00000000000E+00  0.15477844338E+04  0.29251552816E+04  0.24821153816E+04 0.  0.
        3    1    3    3  502    0  0.22619310234E+03 -0.78530150539E+03  0.18746086008E+04  0.20449985795E+04  0.10100000352E+00 0.  1.
       -3    1    3    3    0  502 -0.22619310234E+03  0.78530150539E+03 -0.32682416693E+03  0.88015670208E+03  0.10100000352E+00 0. -1.
</event>
<event>
 5   0  0.7754556E-07  0.3236228E+04  0.7818609E-02  0.8179314E-01
        1   -1    0    0  501    0  0.00000000000E+00  0.00000000000E+00  0.20302164289E+04  0.20302164289E+04  0.50400001928E-02 0. -1.
       -1   -1    0    0    0  501  0.00000000000E+00  0.00000000000E+00 -0.12896622104E+04  0.12896622105E+04  0.50400001928E-02 0.  1.
    10030    2    1    2    0    0  0.00000000000E+00  0.00000000000E+00  0.74055421845E+03  0.33198786394E+04  0.32362283031E+04 0.  0.
        4    1    3    3  502    0  0.34659620049E+03 -0.15488626688E+04  0.47196350873E+02  0.15878707761E+04  0.12699999809E+01 0.  1.
       -4    1    3    3    0  502 -0.34659620049E+03  0.15488626688E+04  0.69335786758E+03  0.17320078633E+04  0.12699999809E+01 0. -1.
</event>
<event>
 5   0  0.2536619E-06  0.1867432E+04  0.7818609E-02  0.8671240E-01
        2   -1    0    0  501    0  0.00000000000E+00  0.00000000000E+00  0.86360419675E+03  0.86360419676E+03  0.25500000920E-02 0. -1.
       -2   -1    0    0    0  501  0.00000000000E+00  0.00000000000E+00 -0.10095195421E+04  0.10095195421E+04  0.25500000920E-02 0.  1.
    10030    2    1    2    0    0  0.00000000000E+00  0.00000000000E+00 -0.14591534537E+03  0.18731237389E+04  0.18674317265E+04 0.  0.
        1    1    3    3  502    0  0.81167949966E+03  0.26372336446E+03  0.30694694266E+03  0.90696750149E+03  0.50400001928E-02 0. -1.
       -1    1    3    3    0  502 -0.81167949966E+03 -0.26372336446E+03 -0.45286228803E+03  0.96615623740E+03  0.50400001928E-02 0.  1.
</event>
<event>
 5   0  0.2382711E-06  0.3624581E+04  0.7818609E-02  0.8084884E-01
        2   -1    0    0  501    0  0.00000000000E+00  0.00000000000E+00  0.27584610408E+04  0.27584610408E+04  0.25500000920E-02 0.  1.
       -2   -1    0    0    0  501  0.00000000000E+00  0.00000000000E+00 -0.11906624445E+04  0.11906624445E+04  0.25500000920E-02 0. -1.
    10030    2    1    2    0    0  0.00000000000E+00  0.00000000000E+00  0.15677985963E+04  0.39491234854E+04  0.36245805087E+04 0.  0.
        5    1    3    3  502    0 -0.98657700401E+03  0.58651850428E+02  0.24389953230E+04  0.26316334281E+04  0.46999998093E+01 0.  1.
       -5    1    3    3    0  502  0.98657700401E+03 -0.58651850428E+02 -0.87119672670E+03  0.13174900573E+04  0.46999998093E+01 0. -1.
</event>
<event>
 5   0  0.2382711E-06  0.1851955E+04  0.7818609E-02  0.8679148E-01
       -2   -1    0    0    0  501  0.00000000000E+00  0.00000000000E+00  0.49721002780E+03  0.49721002781E+03  0.25500000920E-02 0.  1.
        2   -1    0    0  501    0  0.00000000000E+00  0.00000000000E+00 -0.17244914476E+04  0.17244914476E+04  0.25500000920E-02 0. -1.
    10030    2    1    2    0    0  0.00000000000E+00  0.00000000000E+00 -0.12272814198E+04  0.22217014754E+04  0.18519551189E+04 0.  0.
        5    1    3    3  502    0 -0.72402993468E+02 -0.49669970170E+03  0.31982381450E+03  0.59519925189E+03  0.46999998093E+01 0.  1.
       -5    1    3    3    0  502  0.72402993468E+02  0.49669970170E+03 -0.15471052343E+04  0.16265022235E+04  0.46999998093E+01 0. -1.
</event>
<event>
 5   0  0.1908273E-06  0.3558118E+04  0.7818609E-02  0.8100153E-01
        1   -1    0    0  501    0  0.00000000000E+00  0.00000000000E+00  0.23525126122E+04  0.23525126122E+04  0.50400001928E-02 0. -1.
       -1   -1    0    0    0  501  0.00000000000E+00  0.00000000000E+00 -0.13453919018E+04  0.13453919018E+04  0.50400001928E-02 0.  1.
    10030    2    1    2    0    0  0.00000000000E+00  0.00000000000E+00  0.10071207104E+04  0.36979045140E+04  0.35581182765E+04 0.  0.
        3    1    3    3  502    0  0.15268965627E+04  0.90885584412E+03  0.59427851583E+03  0.18736592601E+04  0.10100000352E+00 0.  1.
       -3    1    3    3    0  502 -0.15268965627E+04 -0.90885584412E+03  0.41284219453E+03  0.18242452539E+04  0.10100000352E+00 0. -1.
</event>
<event>
 5   0  0.1634374E-06  0.3493122E+04  0.7818609E-02  0.8115422E-01
       -1   -1    0    0    0  501  0.00000000000E+00  0.00000000000E+00  0.21570319193E+04  0.21570319193E+04  0.50400001928E-02 0.  1.
        1   -1    0    0  501    0  0.00000000000E+00  0.00000000000E+00 -0.14142002820E+04  0.14142002820E+04  0.50400001928E-02 0. -1.
    10030    2    1    2    0    0  0.00000000000E+00  0.00000000000E+00  0.74283163732E+03  0.35712322013E+04  0.34931218980E+04 0.  0.
        5    1    3    3  502    0 -0.17262013278E+04 -0.16536697370E+02  0.64269540564E+03  0.18420434200E+04  0.46999998093E+01 0. -1.
       -5    1    3    3    0  502  0.17262013278E+04  0.16536697370E+02  0.10013623169E+03  0.17291887813E+04  0.46999998093E+01 0.  1.
</event>
<event>
 5   0  0.8423692E-07  0.3634497E+04  0.7818609E-02  0.8082635E-01
       -1   -1    0    0    0  501  0.00000000000E+00  0.00000000000E+00  0.24114093028E+04  0.24114093028E+04  0.50400001928E-02 0.  1.
        1   -1    0    0  501    0  0.00000000000E+00  0.00000000000E+00 -0.13694863990E+04  0.13694863990E+04  0.50400001928E-02 0. -1.
    10030    2    1    2    0    0  0.00000000000E+00  0.00000000000E+00  0.10419229038E+04  0.37808957018E+04  0.36344970725E+04 0.  0.
        2    1    3    3  502    0  0.12995246098E+04 -0.95932115156E+03 -0.34524351658E+03  0.16517428277E+04  0.25500000920E-02 0. -1.
       -2    1    3    3    0  502 -0.12995246098E+04  0.95932115156E+03  0.13871664204E+04  0.21291528740E+04  0.25500000920E-02 0.  1.
</event>
<event>
 5   0  0.1566576E-06  0.3510364E+04  0.7818609E-02  0.8111338E-01
        2   -1    0    0  501    0  0.00000000000E+00  0.00000000000E+00  0.15430120974E+04  0.15430120974E+04  0.25500000920E-02 0.  1.
       -2   -1    0    0    0  501  0.00000000000E+00  0.00000000000E+00 -0.19965263704E+04  0.19965263704E+04  0.25500000920E-02 0. -1.
    10030    2    1    2    0    0  0.00000000000E+00  0.00000000000E+00 -0.45351427300E+03  0.35395384679E+04  0.35103642788E+04 0.  0.
        4    1    3    3  502    0 -0.13677158087E+04  0.13354229915E+03  0.87418843470E+03  0.16287071901E+04  0.12699999809E+01 0.  1.
       -4    1    3    3    0  502  0.13677158087E+04 -0.13354229915E+03 -0.13277027077E+04  0.19108312777E+04  0.12699999809E+01 0. -1.
</event>
<event>
 5   0  0.1566576E-06  0.2315740E+04  0.7818609E-02  0.8471741E-01
        2   -1    0    0  501    0  0.00000000000E+00  0.00000000000E+00  0.26672831633E+04  0.26672831633E+04  0.25500000920E-02 0.  1.
       -2   -1    0    0    0  501  0.00000000000E+00  0.00000000000E+00 -0.50263218570E+03  0.50263218570E+03  0.25500000920E-02 0. -1.
    10030    2    1    2    0    0  0.00000000000E+00  0.00000000000E+00  0.21646509776E+04  0.31699153490E+04  0.23157395072E+04 0.  0.
        4    1    3    3  502    0  0.40343965186E+03 -0.91977359633E+03  0.29370043469E+03  0.10464265762E+04  0.12699999809E+01 0. -1.
       -4    1    3    3    0  502 -0.40343965186E+03  0.91977359633E+03  0.18709505430E+04  0.21234887728E+04  0.12699999809E+01 0.  1.
</event>
<event>
 5   0  0.1513502E-06  0.3525468E+04  0.7818609E-02  0.8107781E-01
        2   -1    0    0  501    0  0.00000000000E+00  0.00000000000E+00  0.21965787359E+04  0.21965787359E+04  0.25500000920E-02 0.  1.
       -2   -1    0    0    0  501  0.00000000000E+00  0.00000000000E+00 -0.14145774495E+04  0.14145774495E+04  0.25500000920E-02 0. -1.
    10030    2    1    2    0    0  0.00000000000E+00  0.00000000000E+00  0.78200128644E+03  0.36111561854E+04  0.35254677680E+04 0.  0.
        3    1    3    3  502    0 -0.36323435423E+03 -0.68567583407E+03 -0.12302327526E+04  0.14544975700E+04  0.10100000352E+00 0. -1.
       -3    1    3    3    0  502  0.36323435423E+03  0.68567583407E+03  0.20122340390E+04  0.21566586154E+04  0.10100000352E+00 0.  1.
</event>
<event>
 5   0  0.2422436E-06  0.2376875E+04  0.7818609E-02  0.8448212E-01
       -2   -1    0    0    0  501  0.00000000000E+00  0.00000000000E+00  0.16561438839E+04  0.16561438839E+04  0.25500000920E-02 0. -1.
        2   -1    0    0  501    0  0.00000000000E+00  0.00000000000E+00 -0.85281480283E+03  0.85281480283E+03  0.25500000920E-02 0.  1.
    10030    2    1    2    0    0  0.00000000000E+00  0.00000000000E+00  0.80332908107E+03  0.25089586867E+04  0.23768752763E+04 0.  0.
        2    1    3    3  502    0  0.10921635338E+04 -0.23828729474E+03 -0.24218462340E+02  0.11181183091E+04  0.25500000920E-02 0. -1.
       -2    1    3    3    0  502 -0.10921635338E+04  0.23828729474E+03  0.82754754341E+03  0.13908403776E+04  0.25500000920E-02 0.  1.
</event>
<event>
 5   0  0.2382711E-06  0.3611730E+04  0.7818609E-02  0.8087810E-01
       -2   -1    0    0    0  501  0.00000000000E+00  0.00000000000E+00  0.14111033569E+04  0.14111033569E+04  0.25500000920E-02 0. -1.
        2   -1    0    0  501    0  0.00000000000E+00  0.00000000000E+00 -0.23110626161E+04  0.23110626161E+04  0.25500000920E-02 0.  1.
    10030    2    1    2    0    0  0.00000000000E+00  0.00000000000E+00 -0.89995925917E+03  0.37221659730E+04  0.36117298989E+04 0.  0.
        5    1    3    3  502    0  0.15794647618E+04  0.30615938760E+03 -0.12952310259E+04  0.20654510415E+04  0.46999998093E+01 0.  1.
       -5    1    3    3    0  502 -0.15794647618E+04 -0.30615938760E+03  0.39527176675E+03  0.16567149315E+04  0.46999998093E+01 0. -1.
</event>
<event>
 5   0  0.7754556E-07  0.3975300E+04  0.7818609E-02  0.8009548E-01
        1   -1    0    0  501    0  0.00000000000E+00  0.00000000000E+00  0.23041855011E+04  0.23041855011E+04  0.50400001928E-02 0. -1.
       -1   -1    0    0    0  501  0.00000000000E+00  0.00000000000E+00 -0.17145983888E+04  0.17145983889E+04  0.50400001928E-02 0.  1.
    10030    2    1    2    0    0  0.00000000000E+00  0.00000000000E+00  0.58958711229E+03  0.40187838900E+04  0.39753001134E+04 0.  0.
        4    1    3    3  502    0  0.18554313007E+04 -0.32366434238E+03 -0.34726558116E+03  0.19151968345E+04  0.12699999809E+01 0.  1.
       -4    1    3    3    0  502 -0.18554313007E+04  0.32366434238E+03  0.93685269344E+03  0.21035870555E+04  0.12699999809E+01 0. -1.
</event>
<event>
 5   0  0.1513502E-06  0.3427937E+04  0.7818609E-02  0.8131083E-01
        2   -1    0    0  501    0  0.00000000000E+00  0.00000000000E+00  0.14921809582E+04  0.14921809582E+04  0.25500000920E-02 0. -1.
       -2   -1    0    0    0  501  0.00000000000E+00  0.00000000000E+00 -0.19687212690E+04  0.19687212690E+04  0.25500000920E-02 0.  1.
    10030    2    1    2    0    0  0.00000000000E+00  0.00000000000E+00 -0.47654031074E+03  0.34609022272E+04  0.34279372163E+04 0.  0.
        3    1    3    3  502    0 -0.70721109290E+03  0.77041751386E+03  0.11327273332E+04  0.15416750297E+04  0.10100000352E+00 0. -1.
       -3    1    3    3    0  502  0.70721109290E+03 -0.77041751386E+03 -0.16092676440E+04  0.19192271975E+04  0.10100000352E+00 0.  1.
</event>
<event>
 5   0  0.2536619E-06  0.3570968E+04  0.7818609E-02  0.8097174E-01
       -2   -1    0    0    0  501  0.00000000000E+00  0.00000000000E+00  0.19210902888E+04  0.19210902888E+04  0.25500000920E-02 0.  1.
        2   -1    0    0  501    0  0.00000000000E+00  0.00000000000E+00 -0.16594501608E+04  0.16594501608E+04  0.25500000920E-02 0. -1.
    10030    2    1    2    0    0  0.00000000000E+00  0.00000000000E+00  0.26164012804E+03  0.35805404496E+04  0.35709682657E+04 0.  0.
        1    1    3    3  502    0  0.16973682648E+04  0.33280869879E+03  0.57487617816E+03  0.18227186499E+04  0.50400001928E-02 0. -1.
       -1    1    3    3    0  502 -0.16973682648E+04 -0.33280869879E+03 -0.31323605012E+03  0.17578217997E+04  0.50400001928E-02 0.  1.
</event>
<event>
 5   0  0.1634374E-06  0.2112971E+04  0.7818609E-02  0.8555551E-01
       -1   -1    0    0    0  501  0.00000000000E+00  0.00000000000E+00  0.46354788520E+03  0.46354788523E+03  0.50400001928E-02 0.  1.
        1   -1    0    0  501    0  0.00000000000E+00  0.00000000000E+00 -0.24078668667E+04  0.24078668667E+04  0.50400001928E-02 0. -1.
    10030    2    1    2    0    0  0.00000000000E+00  0.00000000000E+00 -0.19443189815E+04  0.28714147520E+04  0.21129709832E+04 0.  0.
        5    1    3    3  502    0  0.33877578658E+03 -0.99653027340E+03 -0.84836934075E+03  0.13518854418E+04  0.46999998093E+01 0. -1.
       -5    1    3    3    0  502 -0.33877578658E+03  0.99653027340E+03 -0.10959496408E+04  0.15195293102E+04  0.46999998093E+01 0.  1.
</event>
<event>
 5   0  0.8452742E-07  0.2981203E+04  0.7818609E-02  0.8249119E-01
        1   -1    0    0  501    0  0.00000000000E+00  0.00000000000E+00  0.14985858586E+04  0.14985858586E+04  0.50400001928E-02 0.  1.
       -1   -1    0    0    0  501  0.00000000000E+00  0.00000000000E+00 -0.14826597545E+04  0.14826597545E+04  0.50400001928E-02 0. -1.
    10030    2    1    2    0    0  0.00000000000E+00  0.00000000000E+00  0.15926104076E+02  0.29812456132E+04  0.29812030734E+04 0.  0.
        1    1    3    3  502    0 -0.12514099506E+04  0.60395370062E+03 -0.53158704961E+03  0.14877404774E+04  0.50400001928E-02 0. -1.
       -1    1    3    3    0  502  0.12514099506E+04 -0.60395370062E+03  0.54751315368E+03  0.14935051357E+04  0.50400001928E-02 0.  1.
</event>
<event>
 5   0  0.1513502E-06  0.2064503E+04  0.7818609E-02  0.8577043E-01
       -2   -1    0    0    0  501  0.00000000000E+00  0.00000000000E+00  0.90723657588E+03  0.90723657589E+03  0.25500000920E-02 0.  1.
        2   -1    0    0  501    0  0.00000000000E+00  0.00000000000E+00 -0.11744927472E+04  0.11744927472E+04  0.25500000920E-02 0. -1.
    10030    2    1    2    0    0  0.00000000000E+00  0.00000000000E+00 -0.26725617131E+03  0.20817293231E+04  0.20645026310E+04 0.  0.
        3    1    3    3  502    0  0.96309945914E+03 -0.29068165735E+03 -0.36682907987E+03  0.10708034265E+04  0.10100000352E+00 0. -1.
       -3    1    3    3    0  502 -0.96309945914E+03  0.29068165735E+03  0.99572908555E+02  0.10109258966E+04  0.10100000352E+00 0.  1.
</event>
<event>
 5   0  0.8452742E-07  0.3551566E+04  0.7818609E-02  0.8101677E-01
       -1   -1    0    0    0  501  0.00000000000E+00  0.00000000000E+00  0.18489953906E+04  0.18489953906E+04  0.50400001928E-02 0.  1.
        1   -1    0    0  501    0  0.00000000000E+00  0.00000000000E+00 -0.17054693338E+04  0.17054693338E+04  0.50400001928E-02 0. -1.
    10030    2    1    2    0    0  0.00000000000E+00  0.00000000000E+00  0.14352605681E+03  0.35544647244E+04  0.35515658164E+04 0.  0.
        1    1    3    3  502    0 -0.15192439251E+04 -0.74581427584E+03 -0.46632244713E+03  0.17555049595E+04  0.50400001928E-02 0. -1.
       -1    1    3    3    0  502  0.15192439251E+04  0.74581427584E+03  0.60984850394E+03  0.17989597649E+04  0.50400001928E-02 0.  1.
</event>
<event>
 5   0  0.1513502E-06  0.2129933E+04  0.7818609E-02  0.8548171E-01
       -2   -1    0    0    0  501  0.00000000000E+00  0.00000000000E+00  0.85891231849E+03  0.85891231849E+03  0.25500000920E-02 0. -1.
        2   -1    0    0  501    0  0.00000000000E+00  0.00000000000E+00 -0.13204537355E+04  0.13204537356E+04  0.25500000920E-02 0.  1.
    10030    2    1    2    0    0  0.00000000000E+00  0.00000000000E+00 -0.46154141706E+03  0.21793660540E+04  0.21299333130E+04 0.  0.
        3    1    3    3  502    0 -0.35426466975E+03  0.97118090199E+03  0.31015100923E+02  0.10342425960E+04  0.10100000352E+00 0. -1.
       -3    1    3    3    0  502  0.35426466975E+03 -0.97118090199E+03 -0.49255651798E+03  0.11451234581E+04  0.10100000352E+00 0.  1.
</event>
<event>
 5   0  0.2382711E-06  0.3251718E+04  0.7818609E-02  0.8175290E-01
       -2   -1    0    0    0  501  0.00000000000E+00  0.00000000000E+00  0.10488731520E+04  0.10488731520E+04  0.25500000920E-02 0.  1.
        2   -1    0    0  501    0  0.00000000000E+00  0.00000000000E+00 -0.25202455566E+04  0.25202455566E+04  0.25500000920E-02 0. -1.
    10030    2    1    2    0    0  0.00000000000E+00  0.00000000000E+00 -0.14713724046E+04  0.35691187086E+04  0.32517182539E+04 0.  0.
        5    1    3    3  502    0  0.57809138996E+02 -0.16210835652E+04 -0.85663261605E+03  0.18344196224E+04  0.46999998093E+01 0.  1.
       -5    1    3    3    0  502 -0.57809138996E+02  0.16210835652E+04 -0.61473978856E+03  0.17346990862E+04  0.46999998093E+01 0. -1.
</event>
<event>
 5   0  0.1566576E-06  0.2547919E+04  0.7818609E-02  0.8386110E-01
       -2   -1    0    0    0  501  0.00000000000E+00  0.00000000000E+00  0.72534063102E+03  0.72534063102E+03  0.25500000920E-02 0. -1.
        2   -1    0    0  501    0  0.00000000000E+00  0.00000000000E+00 -0.22375325382E+04  0.22375325382E+04  0.25500000920E-02 0.  1.
    10030    2    1    2    0    0  0.00000000000E+00  0.00000000000E+00 -0.15121919072E+04  0.29628731692E+04  0.25479193576E+04 0.  0.
        4    1    3    3  502    0  0.71835581315E+03  0.24678108453E+03 -0.19454211795E+04  0.20884446740E+04  0.12699999809E+01 0.  1.
       -4    1    3    3    0  502 -0.71835581315E+03 -0.24678108453E+03  0.43322927229E+03  0.87442849521E+03  0.12699999809E+01 0. -1.
</event>
<event>
 5   0  0.2382711E-06  0.3635958E+04  0.7818609E-02  0.8082304E-01
        2   -1    0    0  501    0  0.00000000000E+00  0.00000000000E+00  0.16876959416E+04  0.16876959416E+04  0.25500000920E-02 0.  1.
       -2   -1    0    0    0  501  0.00000000000E+00  0.00000000000E+00 -0.19583188581E+04  0.19583188581E+04  0.25500000920E-02 0. -1.
    10030    2    1    2    0    0  0.00000000000E+00  0.00000000000E+00 -0.27062291649E+03  0.36460147996E+04  0.36359575295E+04 0.  0.
        5    1    3    3  502    0  0.15815236418E+04 -0.28238798061E+03 -0.98858506501E+03  0.18863410407E+04  0.46999998093E+01 0. -1.
       -5    1    3    3    0  502 -0.15815236418E+04  0.28238798061E+03  0.71796214852E+03  0.17596737589E+04  0.46999998093E+01 0.  1.
</event>
<event>
 5   0  0.1566576E-06  0.3572253E+04  0.7818609E-02  0.8096877E-01
        2   -1    0    0  501    0  0.00000000000E+00  0.00000000000E+00  0.24276106912E+04  0.24276106912E+04  0.25500000920E-02 0.  1.
       -2   -1    0    0    0  501  0.00000000000E+00  0.00000000000E+00 -0.13141512367E+04  0.13141512367E+04  0.25500000920E-02 0. -1.
    10030    2    1    2    0    0  0.00000000000E+00  0.00000000000E+00  0.11134594544E+04  0.37417619279E+04  0.35722528422E+04 0.  0.
        4    1    3    3  502    0 -0.49595485113E+03  0.13787159298E+04  0.16266784056E+04  0.21892722712E+04  0.12699999809E+01 0.  1.
       -4    1    3    3    0  502  0.49595485113E+03 -0.13787159298E+04 -0.51321895120E+03  0.15524896567E+04  0.12699999809E+01 0. -1.
</event>
<event>
 5   0  0.8423692E-07  0.2209892E+04  0.7818609E-02  0.8514322E-01
       -1   -1    0    0    0  501  0.00000000000E+00  0.00000000000E+00  0.18895778359E+04  0.18895778359E+04  0.50400001928E-02 0. -1.
        1   -1    0    0  501    0  0.00000000000E+00  0.00000000000E+00 -0.64612627421E+03  0.64612627423E+03  0.50400001928E-02 0.  1.
    10030    2    1    2    0    0  0.00000000000E+00  0.00000000000E+00  0.12434515617E+04  0.25357041102E+04  0.22098922028E+04 0.  0.
        2    1    3    3  502    0  0.13047339183E+01 -0.41466446115E+03  0.17969113386E+04  0.18441362955E+04  0.25500000920E-02 0. -1.
       -2    1    3    3    0  502 -0.13047339183E+01  0.41466446115E+03 -0.55345977686E+03  0.69156781467E+03  0.25500000920E-02 0.  1.
</event>
<event>
 5   0  0.2382711E-06  0.3132060E+04  0.7818609E-02  0.8206994E-01
       -2   -1    0    0    0  501  0.00000000000E+00  0.00000000000E+00  0.10496778727E+04  0.10496778727E+04  0.25500000920E-02 0. -1.
        2   -1    0    0  501    0  0.00000000000E+00  0.00000000000E+00 -0.23363838186E+04  0.23363838186E+04  0.25500000920E-02 0.  1.
    10030    2    1    2    0    0  0.00000000000E+00  0.00000000000E+00 -0.12867059460E+04  0.33860616913E+04  0.31320602781E+04 0.  0.
        5    1    3    3  502    0  0.20083044937E+03 -0.96519452210E+03  0.67207848309E+03  0.11931659199E+04  0.46999998093E+01 0. -1.
       -5    1    3    3    0  502 -0.20083044937E+03  0.96519452210E+03 -0.19587844290E+04  0.21928957714E+04  0.46999998093E+01 0.  1.
</event>
<event>
 5   0  0.1908273E-06  0.3602036E+04  0.7818609E-02  0.8090025E-01
        1   -1    0    0  501    0  0.00000000000E+00  0.00000000000E+00  0.25787725304E+04  0.25787725304E+04  0.50400001928E-02 0. -1.
       -1   -1    0    0    0  501  0.00000000000E+00  0.00000000000E+00 -0.12578332495E+04  0.12578332495E+04  0.50400001928E-02 0.  1.
    10030    2    1    2    0    0  0.00000000000E+00  0.00000000000E+00  0.13209392810E+04  0.38366057799E+04  0.36020359974E+04 0.  0.
        3    1    3    3  502    0  0.12817421637E+04 -0.11960114293E+04  0.22084470562E+03  0.17669404935E+04  0.10100000352E+00 0. -1.
       -3    1    3    3    0  502 -0.12817421637E+04  0.11960114293E+04  0.11000945753E+04  0.20696652865E+04  0.10100000352E+00 0.  1.
</event>
<event>
 5   0  0.2382711E-06  0.3565834E+04  0.7818609E-02  0.8098363E-01
        2   -1    0    0  501    0  0.00000000000E+00  0.00000000000E+00  0.10577287413E+04  0.10577287413E+04  0.25500000920E-02 0. -1.
       -2   -1    0    0    0  501  0.00000000000E+00  0.00000000000E+00 -0.30053005618E+04  0.30053005618E+04  0.25500000920E-02 0.  1.
    10030    2    1    2    0    0  0.00000000000E+00  0.00000000000E+00 -0.19475718205E+04  0.40630293031E+04  0.35658338607E+04 0.  0.
        5    1    3    3  502    0 -0.65110107697E+03 -0.90614392018E+03  0.61069872922E+03  0.12720080363E+04  0.46999998093E+01 0. -1.
       -5    1    3    3    0  502  0.65110107697E+03  0.90614392018E+03 -0.25582705497E+04  0.27910212669E+04  0.46999998093E+01 0.  1.
</event>
<event>
 5   0  0.8452742E-07  0.3669725E+04  0.7818609E-02  0.8074704E-01
        1   -1    0    0  501    0  0.00000000000E+00  0.00000000000E+00  0.22511976576E+04  0.22511976576E+04  0.50400001928E-02 0.  1.
       -1   -1    0    0    0  501  0.00000000000E+00  0.00000000000E+00 -0.14955239388E+04  0.14955239388E+04  0.50400001928E-02 0. -1.
    10030    2    1    2    0    0  0.00000000000E+00  0.00000000000E+00  0.75567371883E+03  0.37467215964E+04  0.36697247788E+04 0.  0.
        1    1    3    3  502    0  0.15428369123E+04  0.62511047810E+03  0.11657880849E+04  0.20322821425E+04  0.50400001928E-02 0.  1.
       -1    1    3    3    0  502 -0.15428369123E+04 -0.62511047810E+03 -0.41011436603E+03  0.17144394539E+04  0.50400001928E-02 0. -1.
</event>
<event>
 5   0  0.1908273E-06  0.3370526E+04  0.7818609E-02  0.8145178E-01
       -1   -1    0    0    0  501  0.00000000000E+00  0.00000000000E+00  0.11975312258E+04  0.11975312259E+04  0.50400001928E-02 0. -1.
        1   -1    0    0  501    0  0.00000000000E+00  0.00000000000E+00 -0.23716389814E+04  0.23716389814E+04  0.50400001928E-02 0.  1.
    10030    2    1    2    0    0  0.00000000000E+00  0.00000000000E+00 -0.11741077556E+04  0.35691702073E+04  0.33705262122E+04 0.  0.
        3    1    3    3  502    0  0.48445863716E+03 -0.75394378806E+03  0.92428887138E+03  0.12874165350E+04  0.10100000352E+00 0. -1.
       -3    1    3    3    0  502 -0.48445863716E+03  0.75394378806E+03 -0.20983966270E+04  0.22817536723E+04  0.10100000352E+00 0.  1.
</event>
<event>
 5   0  0.1634374E-06  0.3566954E+04  0.7818609E-02  0.8098103E-01
       -1   -1    0    0    0  501  0.00000000000E+00  0.00000000000E+00  0.22256358273E+04  0.22256358273E+04  0.50400001928E-02 0.  1.
        1   -1    0    0  501    0  0.00000000000E+00  0.00000000000E+00 -0.14291604331E+04  0.14291604331E+04  0.50400001928E-02 0. -1.
    10030    2    1    2    0    0  0.00000000000E+00  0.00000000000E+00  0.79647539417E+03  0.36547962604E+04  0.35669542542E+04 0.  0.
        5    1    3    3  502    0  0.69356430233E+03  0.10634728384E+04  0.16815851506E+04  0.21070730002E+04  0.46999998093E+01 0.  1.
       -5    1    3    3    0  502 -0.69356430233E+03 -0.10634728384E+04 -0.88510975643E+03  0.15477232602E+04  0.46999998093E+01 0. -1.
</event>
<event>
 5   0  0.1634374E-06  0.3558306E+04  0.7818609E-02  0.8100110E-01
        1   -1    0    0  501    0  0.00000000000E+00  0.00000000000E+00  0.18526010024E+04  0.18526010024E+04  0.50400001928E-02 0. -1.
       -1   -1    0    0    0  501  0.00000000000E+00  0.00000000000E+00 -0.17086165917E+04  0.17086165917E+04  0.50400001928E-02 0.  1.
    10030    2    1    2    0    0  0.00000000000E+00  0.00000000000E+00  0.14398441068E+03  0.35612175941E+04  0.35583056701E+04 0.  0.
        5    1    3    3  502    0  0.59367328923E+03 -0.51035949713E+03 -0.15269534499E+04  0.17159614561E+04  0.46999998093E+01 0.  1.
       -5    1    3    3    0  502 -0.59367328923E+03  0.51035949713E+03  0.16709378606E+04  0.18452561380E+04  0.46999998093E+01 0. -1.
</event>
<event>
 5   0  0.1566576E-06  0.1900846E+04  0.7818609E-02  0.8654436E-01
        2   -1    0    0  501    0  0.00000000000E+00  0.00000000000E+00  0.24851589599E+04  0.24851589599E+04  0.25500000920E-02 0.  1.
       -2   -1    0    0    0  501  0.00000000000E+00  0.00000000000E+00 -0.36347918138E+03  0.36347918139E+03  0.25500000920E-02 0. -1.
    10030    2    1    2    0    0  0.00000000000E+00  0.00000000000E+00  0.21216797785E+04  0.28486381413E+04  0.19008456480E+04 0.  0.
        4    1    3    3  502    0  0.64622041232E+02 -0.28600129841E+03 -0.29400299378E+03  0.41522538958E+03  0.12699999809E+01 0. -1.
       -4    1    3    3    0  502 -0.64622041232E+02  0.28600129841E+03  0.24156827723E+04  0.24334127517E+04  0.12699999809E+01 0.  1.
</event>
<event>
 5   0  0.8423692E-07  0.3987968E+04  0.7818609E-02  0.8006978E-01
        1   -1    0    0  501    0  0.00000000000E+00  0.00000000000E+00  0.24306185064E+04  0.24306185064E+04  0.50400001928E-02 0.  1.
       -1   -1    0    0    0  501  0.00000000000E+00  0.00000000000E+00 -0.16357865757E+04  0.16357865757E+04  0.50400001928E-02 0. -1.
    10030    2    1    2    0    0  0.00000000000E+00  0.00000000000E+00  0.79483193063E+03  0.40664050821E+04  0.39879684670E+04 0.  0.
        2    1    3    3  502    0 -0.10755763633E+04 -0.12493341826E+04  0.15412060111E+04  0.22567712293E+04  0.25500000920E-02 0.  1.
       -2    1    3    3    0  502  0.10755763633E+04  0.12493341826E+04 -0.74637408042E+03  0.18096338527E+04  0.25500000920E-02 0. -1.
</event>
<event>
 5   0  0.2536619E-06  0.3770088E+04  0.7818609E-02  0.8052605E-01
        2   -1    0    0  501    0  0.00000000000E+00  0.00000000000E+00  0.17408938075E+04  0.17408938075E+04  0.25500000920E-02 0.  1.
       -2   -1    0    0    0  501  0.00000000000E+00  0.00000000000E+00 -0.20411296841E+04  0.20411296841E+04  0.25500000920E-02 0. -1.
    10030    2    1    2    0    0  0.00000000000E+00  0.00000000000E+00 -0.30023587652E+03  0.37820234916E+04  0.37700875467E+04 0.  0.
        1    1    3    3  502    0  0.13103277144E+04 -0.56771194219E+03 -0.13845153672E+04  0.19890043666E+04  0.50400001928E-02 0.  1.
       -1    1    3    3    0  502 -0.13103277144E+04  0.56771194219E+03  0.10842794907E+04  0.17930191249E+04  0.50400001928E-02 0. -1.
</event>
<event>
 5   0  0.2536619E-06  0.3698285E+04  0.7818609E-02  0.8068342E-01
       -2   -1    0    0    0  501  0.00000000000E+00  0.00000000000E+00  0.19191747139E+04  0.19191747139E+04  0.25500000920E-02 0.  1.
        2   -1    0    0  501    0  0.00000000000E+00  0.00000000000E+00 -0.17816657576E+04  0.17816657576E+04  0.25500000920E-02 0. -1.
    10030    2    1    2    0    0  0.00000000000E+00  0.00000000000E+00  0.13750895630E+03  0.37008404714E+04  0.36982849379E+04 0.  0.
        1    1    3    3  502    0  0.51670572808E+03 -0.90739453731E+03 -0.14583990826E+04  0.17936771002E+04  0.50400001928E-02 0. -1.
       -1    1    3    3    0  502 -0.51670572808E+03  0.90739453731E+03  0.15959080389E+04  0.19071633712E+04  0.50400001928E-02 0.  1.
</event>
<event>
 5   0  0.8423692E-07  0.3566942E+04  0.7818609E-02  0.8098106E-01
        1   -1    0    0  501    0  0.00000000000E+00  0.00000000000E+00  0.22276536284E+04  0.22276536284E+04  0.50400001928E-02 0.  1.
       -1   -1    0    0    0  501  0.00000000000E+00  0.00000000000E+00 -0.14278563082E+04  0.14278563082E+04  0.50400001928E-02 0. -1.
    10030    2    1    2    0    0  0.00000000000E+00  0.00000000000E+00  0.79979732018E+03  0.36555099366E+04  0.35669422680E+04 0.  0.
        2    1    3    3  502    0  0.78219882127E+02 -0.61231800243E+03 -0.13148836801E+04  0.14525738461E+04  0.25500000920E-02 0. -1.
       -2    1    3    3    0  502 -0.78219882127E+02  0.61231800243E+03  0.21146810003E+04  0.22029360905E+04  0.25500000920E-02 0.  1.
</event>
<event>
 5   0  0.1566576E-06  0.3606952E+04  0.7818609E-02  0.8088901E-01
       -2   -1    0    0    0  501  0.00000000000E+00  0.00000000000E+00  0.14588603788E+04  0.14588603788E+04  0.25500000920E-02 0.  1.
        2   -1    0    0  501    0  0.00000000000E+00  0.00000000000E+00 -0.22294972122E+04  0.22294972122E+04  0.25500000920E-02 0. -1.
    10030    2    1    2    0    0  0.00000000000E+00  0.00000000000E+00 -0.77063683340E+03  0.36883575911E+04  0.36069517034E+04 0.  0.
        4    1    3    3  502    0  0.11852903399E+04  0.12858489190E+04  0.65312050241E+02  0.17500251167E+04  0.12699999809E+01 0.  1.
       -4    1    3    3    0  502 -0.11852903399E+04 -0.12858489190E+04 -0.83594888364E+03  0.19383324744E+04  0.12699999809E+01 0. -1.
</event>
<event>
 5   0  0.2536619E-06  0.3630316E+04  0.7818609E-02  0.8083583E-01
       -2   -1    0    0    0  501  0.00000000000E+00  0.00000000000E+00  0.16082304404E+04  0.16082304404E+04  0.25500000920E-02 0. -1.
        2   -1    0    0  501    0  0.00000000000E+00  0.00000000000E+00 -0.20487105141E+04  0.20487105141E+04  0.25500000920E-02 0.  1.
    10030    2    1    2    0    0  0.00000000000E+00  0.00000000000E+00 -0.44048007378E+03  0.36569409545E+04  0.36303160261E+04 0.  0.
        1    1    3    3  502    0 -0.14689620247E+04 -0.10373985306E+04 -0.46852994211E+03  0.18583771006E+04  0.50400001928E-02 0.  1.
       -1    1    3    3    0  502  0.14689620247E+04  0.10373985306E+04  0.28049868333E+02  0.17985638539E+04  0.50400001928E-02 0. -1.
</event>
<event>
 5   0  0.2382711E-06  0.3608153E+04  0.7818609E-02  0.8088627E-01
        2   -1    0    0  501    0  0.00000000000E+00  0.00000000000E+00  0.16051875611E+04  0.16051875611E+04  0.25500000920E-02 0.  1.
       -2   -1    0    0    0  501  0.00000000000E+00  0.00000000000E+00 -0.20276091024E+04  0.20276091024E+04  0.25500000920E-02 0. -1.
    10030    2    1    2    0    0  0.00000000000E+00  0.00000000000E+00 -0.42242154131E+03  0.36327966636E+04  0.36081534946E+04 0.  0.
        5    1    3    3  502    0 -0.16973478851E+04  0.60568402772E+03 -0.29440584522E+03  0.18260722538E+04  0.46999998093E+01 0. -1.
       -5    1    3    3    0  502  0.16973478851E+04 -0.60568402772E+03 -0.12801569609E+03  0.18067244098E+04  0.46999998093E+01 0.  1.
</event>
<event>
 5   0  0.2536619E-06  0.3541507E+04  0.7818609E-02  0.8104023E-01
        2   -1    0    0  501    0  0.00000000000E+00  0.00000000000E+00  0.25220032483E+04  0.25220032483E+04  0.25500000920E-02 0.  1.
       -2   -1    0    0    0  501  0.00000000000E+00  0.00000000000E+00 -0.12432849227E+04  0.12432849227E+04  0.25500000920E-02 0. -1.
    10030    2    1    2    0    0  0.00000000000E+00  0.00000000000E+00  0.12787183256E+04  0.37652881709E+04  0.35415073703E+04 0.  0.
        1    1    3    3  502    0 -0.63123200720E+03 -0.27246809778E+03  0.23743034520E+04  0.24718433594E+04  0.50400001928E-02 0.  1.
       -1    1    3    3    0  502  0.63123200720E+03  0.27246809778E+03 -0.10955851264E+04  0.12934448115E+04  0.50400001928E-02 0. -1.
</event>
<event>
 5   0  0.7754556E-07  0.3365318E+04  0.7818609E-02  0.8146471E-01
        1   -1    0    0  501    0  0.00000000000E+00  0.00000000000E+00  0.28084334289E+04  0.28084334289E+04  0.50400001928E-02 0. -1.
       -1   -1    0    0    0  501  0.00000000000E+00  0.00000000000E+00 -0.10081566095E+04  0.10081566095E+04  0.50400001928E-02 0.  1.
    10030    2    1    2    0    0  0.00000000000E+00  0.00000000000E+00  0.18002768194E+04  0.38165900384E+04  0.33653176514E+04 0.  0.
        4    1    3    3  502    0 -0.51091303166E+02 -0.24101579057E+03 -0.98759000453E+03  0.10178578302E+04  0.12699999809E+01 0.  1.
       -4    1    3    3    0  502  0.51091303166E+02  0.24101579057E+03  0.27878668239E+04  0.27987322082E+04  0.12699999809E+01 0. -1.
</event>
<event>
 5   0  0.2382711E-06  0.3623388E+04  0.7818609E-02  0.8085155E-01
        2   -1    0    0  501    0  0.00000000000E+00  0.00000000000E+00  0.24501340341E+04  0.24501340341E+04  0.25500000920E-02 0.  1.
       -2   -1    0    0    0  501  0.00000000000E+00  0.00000000000E+00 -0.13396144491E+04  0.13396144491E+04  0.25500000920E-02 0. -1.
    10030    2    1    2    0    0  0.00000000000E+00  0.00000000000E+00  0.11105195850E+04  0.37897484833E+04  0.36233878922E+04 0.  0.
        5    1    3    3  502    0 -0.10709389952E+04 -0.25407095729E+03  0.20603393067E+04  0.23359114991E+04  0.46999998093E+01 0.  1.
       -5    1    3    3    0  502  0.10709389952E+04  0.25407095729E+03 -0.94981972166E+03  0.14538369842E+04  0.46999998093E+01 0. -1.
</event>
<event>
 5   0  0.7754556E-07  0.3603480E+04  0.7818609E-02  0.8089695E-01
        1   -1    0    0  501    0  0.00000000000E+00  0.00000000000E+00  0.16423595687E+04  0.16423595687E+04  0.50400001928E-02 0. -1.
       -1   -1    0    0    0  501  0.00000000000E+00  0.00000000000E+00 -0.19765873026E+04  0.19765873026E+04  0.50400001928E-02 0.  1.
    10030    2    1    2    0    0  0.00000000000E+00  0.00000000000E+00 -0.33422773393E+03  0.36189468713E+04  0.36034800235E+04 0.  0.
        4    1    3    3  502    0  0.54355956189E+03 -0.98272844042E+03  0.12478526782E+04  0.16787942412E+04  0.12699999809E+01 0. -1.
       -4    1    3    3    0  502 -0.54355956189E+03  0.98272844042E+03 -0.15820804121E+04  0.19401526301E+04  0.12699999809E+01 0.  1.
</event>
<event>
 5   0  0.1566576E-06  0.2289353E+04  0.7818609E-02  0.8482131E-01
       -2   -1    0    0    0  501  0.00000000000E+00  0.00000000000E+00  0.90022243799E+03  0.90022243800E+03  0.25500000920E-02 0. -1.
        2   -1    0    0  501    0  0.00000000000E+00  0.00000000000E+00 -0.14555116810E+04  0.14555116810E+04  0.25500000920E-02 0.  1.
    10030    2    1    2    0    0  0.00000000000E+00  0.00000000000E+00 -0.55528924296E+03  0.23557341190E+04  0.22893529863E+04 0.  0.
        4    1    3    3  502    0  0.52151418295E+03 -0.94384367336E+03  0.11750139149E+03  0.10847239799E+04  0.12699999809E+01 0. -1.
       -4    1    3    3    0  502 -0.52151418295E+03  0.94384367336E+03 -0.67279063445E+03  0.12710101390E+04  0.12699999809E+01 0.  1.
</event>
<event>
 5   0  0.7754556E-07  0.3571849E+04  0.7818609E-02  0.8096971E-01
       -1   -1    0    0    0  501  0.00000000000E+00  0.00000000000E+00  0.17379743075E+04  0.17379743076E+04  0.50400001928E-02 0.  1.
        1   -1    0    0  501    0  0.00000000000E+00  0.00000000000E+00 -0.18351980160E+04  0.18351980160E+04  0.50400001928E-02 0. -1.
    10030    2    1    2    0    0  0.00000000000E+00  0.00000000000E+00 -0.97223708465E+02  0.35731723236E+04  0.35718493816E+04 0.  0.
        4    1    3    3  502    0 -0.54177847244E+03 -0.18847687658E+03 -0.17405330293E+04  0.18326222429E+04  0.12699999809E+01 0. -1.
       -4    1    3    3    0  502  0.54177847244E+03  0.18847687658E+03  0.16433093209E+04  0.17405500806E+04  0.12699999809E+01 0.  1.
</event>
<event>
 5   0  0.8423692E-07  0.3542375E+04  0.7818609E-02  0.8103820E-01
       -1   -1    0    0    0  501  0.00000000000E+00  0.00000000000E+00  0.19934662018E+04  0.19934662018E+04  0.50400001928E-02 0. -1.
        1   -1    0    0  501    0  0.00000000000E+00  0.00000000000E+00 -0.15736935453E+04  0.15736935453E+04  0.50400001928E-02 0.  1.
    10030    2    1    2    0    0  0.00000000000E+00  0.00000000000E+00  0.41977265643E+03  0.35671597471E+04  0.35423748500E+04 0.  0.
        2    1    3    3  502    0 -0.10645685110E+04  0.10983335715E+04 -0.68936912735E+03  0.16777581896E+04  0.25500000920E-02 0.  1.
       -2    1    3    3    0  502  0.10645685110E+04 -0.10983335715E+04  0.11091417838E+04  0.18894015575E+04  0.25500000920E-02 0. -1.
</event>
<event>
 5   0  0.2422436E-06  0.2116172E+04  0.7818609E-02  0.8554153E-01
       -2   -1    0    0    0  501  0.00000000000E+00  0.00000000000E+00  0.10648962421E+04  0.10648962421E+04  0.25500000920E-02 0. -1.
        2   -1    0    0  501    0  0.00000000000E+00  0.00000000000E+00 -0.10513193219E+04  0.10513193219E+04  0.25500000920E-02 0.  1.
    10030    2    1    2    0    0  0.00000000000E+00  0.00000000000E+00  0.13576920139E+02  0.21162155640E+04  0.21161720111E+04 0.  0.
        2    1    3    3  502    0  0.15266458890E+03 -0.61200541792E+03 -0.84275176460E+03  0.10526574205E+04  0.25500000920E-02 0.  1.
       -2    1    3    3    0  502 -0.15266458890E+03  0.61200541792E+03  0.85632868474E+03  0.10635581435E+04  0.25500000920E-02 0. -1.
</event>
<event>
 5   0  0.2422436E-06  0.2122754E+04  0.7818609E-02  0.8551286E-01
       -2   -1    0    0    0  501  0.00000000000E+00  0.00000000000E+00  0.10125423246E+04  0.10125423246E+04  0.25500000920E-02 0. -1.
        2   -1    0    0  501    0  0.00000000000E+00  0.00000000000E+00 -0.11125667812E+04  0.11125667812E+04  0.25500000920E-02 0.  1.
    10030    2    1    2    0    0  0.00000000000E+00  0.00000000000E+00 -0.10002445661E+03  0.21251091057E+04  0.21227538292E+04 0.  0.
        2    1    3    3  502    0 -0.32383990517E+03 -0.86010481603E+03 -0.58151407269E+03  0.10875712370E+04  0.25500000920E-02 0.  1.
       -2    1    3    3    0  502  0.32383990517E+03  0.86010481603E+03  0.48148961608E+03  0.10375378688E+04  0.25500000920E-02 0. -1.
</event>
<event>
 5   0  0.2382711E-06  0.2490915E+04  0.7818609E-02  0.8406229E-01
        2   -1    0    0  501    0  0.00000000000E+00  0.00000000000E+00  0.23333047185E+04  0.23333047185E+04  0.25500000920E-02 0. -1.
       -2   -1    0    0    0  501  0.00000000000E+00  0.00000000000E+00 -0.66479306171E+03  0.66479306172E+03  0.25500000920E-02 0.  1.
    10030    2    1    2    0    0  0.00000000000E+00  0.00000000000E+00  0.16685116568E+04  0.29980977803E+04  0.24909153239E+04 0.  0.
        5    1    3    3  502    0  0.19765925174E+03  0.34357851499E+03 -0.58683707708E+03  0.70817739359E+03  0.46999998093E+01 0.  1.
       -5    1    3    3    0  502 -0.19765925174E+03 -0.34357851499E+03  0.22553487339E+04  0.22899203867E+04  0.46999998093E+01 0. -1.
</event>
<event>
 5   0  0.1566576E-06  0.3574629E+04  0.7818609E-02  0.8096328E-01
       -2   -1    0    0    0  501  0.00000000000E+00  0.00000000000E+00  0.14844429017E+04  0.14844429017E+04  0.25500000920E-02 0.  1.
        2   -1    0    0  501    0  0.00000000000E+00  0.00000000000E+00 -0.21519810045E+04  0.21519810045E+04  0.25500000920E-02 0. -1.
    10030    2    1    2    0    0  0.00000000000E+00  0.00000000000E+00 -0.66753810279E+03  0.36364239063E+04  0.35746288909E+04 0.  0.
        4    1    3    3  502    0  0.15228573885E+04 -0.93025685212E+03 -0.23194436624E+03  0.17995200022E+04  0.12699999809E+01 0. -1.
       -4    1    3    3    0  502 -0.15228573885E+04  0.93025685212E+03 -0.43559373656E+03  0.18369039041E+04  0.12699999809E+01 0.  1.
</event>
<event>
 5   0  0.8452742E-07  0.3650114E+04  0.7818609E-02  0.8079108E-01
        1   -1    0    0  501    0  0.00000000000E+00  0.00000000000E+00  0.23889617744E+04  0.23889617744E+04  0.50400001928E-02 0.  1.
       -1   -1    0    0    0  501  0.00000000000E+00  0.00000000000E+00 -0.13942597861E+04  0.13942597861E+04  0.50400001928E-02 0. -1.
    10030    2    1    2    0    0  0.00000000000E+00  0.00000000000E+00  0.99470198827E+03  0.37832215606E+04  0.36501141531E+04 0.  0.
        1    1    3    3  502    0 -0.10575518365E+04  0.14677321218E+04  0.24735003072E+03  0.18258793788E+04  0.50400001928E-02 0.  1.
       -1    1    3    3    0  502  0.10575518365E+04 -0.14677321218E+04  0.74735195755E+03  0.19573421818E+04  0.50400001928E-02 0. -1.
</event>
<event>
 5   0  0.1566576E-06  0.1806116E+04  0.7818609E-02  0.8703054E-01
       -2   -1    0    0    0  501  0.00000000000E+00  0.00000000000E+00  0.11496222575E+04  0.11496222575E+04  0.25500000920E-02 0.  1.
        2   -1    0    0  501    0  0.00000000000E+00  0.00000000000E+00 -0.70937572459E+03  0.70937572460E+03  0.25500000920E-02 0. -1.
    10030    2    1    2    0    0  0.00000000000E+00  0.00000000000E+00  0.44024653292E+03  0.18589979821E+04  0.18061164104E+04 0.  0.
        4    1    3    3  502    0 -0.27683902522E+03 -0.16582887164E+03  0.10882477514E+04  0.11350875922E+04  0.12699999809E+01 0.  1.
       -4    1    3    3    0  502  0.27683902522E+03  0.16582887164E+03 -0.64800121851E+03  0.72391038993E+03  0.12699999809E+01 0. -1.
</event>
<event>
 5   0  0.1513502E-06  0.3032454E+04  0.7818609E-02  0.8234524E-01
        2   -1    0    0  501    0  0.00000000000E+00  0.00000000000E+00  0.71451903676E+03  0.71451903677E+03  0.25500000920E-02 0. -1.
       -2   -1    0    0    0  501  0.00000000000E+00  0.00000000000E+00 -0.32174711648E+04  0.32174711648E+04  0.25500000920E-02 0.  1.
    10030    2    1    2    0    0  0.00000000000E+00  0.00000000000E+00 -0.25029521281E+04  0.39319902016E+04  0.30324540541E+04 0.  0.
        3    1    3    3  502    0 -0.76689245480E+03 -0.12726456671E+04 -0.85991473199E+03  0.17167423766E+04  0.10100000352E+00 0. -1.
       -3    1    3    3    0  502  0.76689245480E+03  0.12726456671E+04 -0.16430373961E+04  0.22152478250E+04  0.10100000352E+00 0.  1.
</event>
<event>
 5   0  0.2536619E-06  0.2986474E+04  0.7818609E-02  0.8247604E-01
        2   -1    0    0  501    0  0.00000000000E+00  0.00000000000E+00  0.26184006024E+04  0.26184006024E+04  0.25500000920E-02 0. -1.
       -2   -1    0    0    0  501  0.00000000000E+00  0.00000000000E+00 -0.85157176740E+03  0.85157176740E+03  0.25500000920E-02 0.  1.
    10030    2    1    2    0    0  0.00000000000E+00  0.00000000000E+00  0.17668288350E+04  0.34699723698E+04  0.29864735249E+04 0.  0.
        1    1    3    3  502    0 -0.13787609769E+04  0.35759182980E+03  0.14042009933E+04  0.20001585381E+04  0.50400001928E-02 0. -1.
       -1    1    3    3    0  502  0.13787609769E+04 -0.35759182980E+03  0.36262784170E+03  0.14698138316E+04  0.50400001928E-02 0.  1.
</event>
<event>
 5   0  0.7754556E-07  0.1816883E+04  0.7818609E-02  0.8697372E-01
        1   -1    0    0  501    0  0.00000000000E+00  0.00000000000E+00  0.12647199871E+04  0.12647199871E+04  0.50400001928E-02 0. -1.
       -1   -1    0    0    0  501  0.00000000000E+00  0.00000000000E+00 -0.65252884799E+03  0.65252884801E+03  0.50400001928E-02 0.  1.
    10030    2    1    2    0    0  0.00000000000E+00  0.00000000000E+00  0.61219113913E+03  0.19172488351E+04  0.18168833493E+04 0.  0.
        4    1    3    3  502    0  0.43132143983E+03 -0.53824022231E+03 -0.31776839759E+03  0.75942023201E+03  0.12699999809E+01 0.  1.
       -4    1    3    3    0  502 -0.43132143983E+03  0.53824022231E+03  0.92995953672E+03  0.11578286031E+04  0.12699999809E+01 0. -1.
</event>
<event>
 5   0  0.2382711E-06  0.3602858E+04  0.7818609E-02  0.8089837E-01
        2   -1    0    0  501    0  0.00000000000E+00  0.00000000000E+00  0.24877885766E+04  0.24877885766E+04  0.25500000920E-02 0. -1.
       -2   -1    0    0    0  501  0.00000000000E+00  0.00000000000E+00 -0.13044304256E+04  0.13044304256E+04  0.25500000920E-02 0.  1.
    10030    2    1    2    0    0  0.00000000000E+00  0.00000000000E+00  0.11833581511E+04  0.37922190022E+04  0.36028583718E+04 0.  0.
        5    1    3    3  502    0 -0.62134270060E+03 -0.16877025618E+04  0.70064980124E+03  0.19301137072E+04  0.46999998093E+01 0.  1.
       -5    1    3    3    0  502  0.62134270060E+03  0.16877025618E+04  0.48270834981E+03  0.18621052950E+04  0.46999998093E+01 0. -1.
</event>
<event>
 5   0  0.2382711E-06  0.3518874E+04  0.7818609E-02  0.8109331E-01
        2   -1    0    0  501    0  0.00000000000E+00  0.00000000000E+00  0.19792754429E+04  0.19792754429E+04  0.25500000920E-02 0.  1.
       -2   -1    0    0    0  501  0.00000000000E+00  0.00000000000E+00 -0.15640164627E+04  0.15640164627E+04  0.25500000920E-02 0. -1.
    10030    2    1    2    0    0  0.00000000000E+00  0.00000000000E+00  0.41525898018E+03  0.35432919056E+04  0.35188744660E+04 0.  0.
        5    1    3    3  502    0  0.13013604140E+04  0.24708644850E+03  0.13736833837E+04  0.19083025884E+04  0.46999998093E+01 0.  1.
       -5    1    3    3    0  502 -0.13013604140E+04 -0.24708644850E+03 -0.95842440353E+03  0.16349893172E+04  0.46999998093E+01 0. -1.
</event>
<event>
 5   0  0.2422436E-06  0.3811956E+04  0.7818609E-02  0.8043594E-01
        2   -1    0    0  501    0  0.00000000000E+00  0.00000000000E+00  0.21755110647E+04  0.21755110647E+04  0.25500000920E-02 0. -1.
       -2   -1    0    0    0  501  0.00000000000E+00  0.00000000000E+00 -0.16698387265E+04  0.16698387265E+04  0.25500000920E-02 0.  1.
    10030    2    1    2    0    0  0.00000000000E+00  0.00000000000E+00  0.50567233822E+03  0.38453497913E+04  0.38119562568E+04 0.  0.
        2    1    3    3  502    0  0.14832452510E+04 -0.74815652491E+03 -0.68969247783E+03  0.17987302116E+04  0.25500000920E-02 0. -1.
       -2    1    3    3    0  502 -0.14832452510E+04  0.74815652491E+03  0.11953648161E+04  0.20466195796E+04  0.25500000920E-02 0.  1.
</event>
<event>
 5   0  0.1566576E-06  0.2448446E+04  0.7818609E-02  0.8421586E-01
       -2   -1    0    0    0  501  0.00000000000E+00  0.00000000000E+00  0.87897366090E+03  0.87897366090E+03  0.25500000920E-02 0. -1.
        2   -1    0    0  501    0  0.00000000000E+00  0.00000000000E+00 -0.17050810920E+04  0.17050810920E+04  0.25500000920E-02 0.  1.
    10030    2    1    2    0    0  0.00000000000E+00  0.00000000000E+00 -0.82610743109E+03  0.25840547529E+04  0.24484455228E+04 0.  0.
        4    1    3    3  502    0 -0.21096903187E+03  0.49807655684E+03  0.74601346341E+03  0.92148027074E+03  0.12699999809E+01 0. -1.
       -4    1    3    3    0  502  0.21096903187E+03 -0.49807655684E+03 -0.15721208945E+04  0.16625744822E+04  0.12699999809E+01 0.  1.
</event>
<event>
 5   0  0.1513502E-06  0.3022322E+04  0.7818609E-02  0.8237385E-01
        2   -1    0    0  501    0  0.00000000000E+00  0.00000000000E+00  0.18951183018E+04  0.18951183018E+04  0.25500000920E-02 0.  1.
       -2   -1    0    0    0  501  0.00000000000E+00  0.00000000000E+00 -0.12049943810E+04  0.12049943810E+04  0.25500000920E-02 0. -1.
    10030    2    1    2    0    0  0.00000000000E+00  0.00000000000E+00  0.69012392078E+03  0.31001126828E+04  0.30223215614E+04 0.  0.
        3    1    3    3  502    0 -0.69649038654E+03 -0.99201118347E+03 -0.58061939894E+03  0.13439880741E+04  0.10100000352E+00 0. -1.
       -3    1    3    3    0  502  0.69649038654E+03  0.99201118347E+03  0.12707433197E+04  0.17561246088E+04  0.10100000352E+00 0.  1.
</event>
<event>
 5   0  0.7754556E-07  0.3437015E+04  0.7818609E-02  0.8128881E-01
       -1   -1    0    0    0  501  0.00000000000E+00  0.00000000000E+00  0.11705526178E+04  0.11705526178E+04  0.50400001928E-02 0. -1.
        1   -1    0    0  501    0  0.00000000000E+00  0.00000000000E+00 -0.25229697470E+04  0.25229697470E+04  0.50400001928E-02 0.  1.
    10030    2    1    2    0    0  0.00000000000E+00  0.00000000000E+00 -0.13524171292E+04  0.36935223648E+04  0.34370154740E+04 0.  0.
        4    1    3    3  502    0  0.73489458939E+03  0.83071301550E+03  0.73443123375E+03  0.13302424672E+04  0.12699999809E+01 0. -1.
       -4    1    3    3    0  502 -0.73489458939E+03 -0.83071301550E+03 -0.20868483629E+04  0.23632798976E+04  0.12699999809E+01 0.  1.
</event>
<event>
 5   0  0.8423692E-07  0.3520149E+04  0.7818609E-02  0.8109031E-01
       -1   -1    0    0    0  501  0.00000000000E+00  0.00000000000E+00  0.14924689667E+04  0.14924689667E+04  0.50400001928E-02 0. -1.
        1   -1    0    0  501    0  0.00000000000E+00  0.00000000000E+00 -0.20756624132E+04  0.20756624132E+04  0.50400001928E-02 0.  1.
    10030    2    1    2    0    0  0.00000000000E+00  0.00000000000E+00 -0.58319344648E+03  0.35681313798E+04  0.35201487110E+04 0.  0.
        2    1    3    3  502    0  0.69622527048E+03  0.84707511057E+03 -0.16871701856E+04  0.20121652778E+04  0.25500000920E-02 0.  1.
       -2    1    3    3    0  502 -0.69622527048E+03 -0.84707511057E+03  0.11039767391E+04  0.15559661020E+04  0.25500000920E-02 0. -1.
</event>
<event>
 5   0  0.2422436E-06  0.3231045E+04  0.7818609E-02  0.8180666E-01
        2   -1    0    0  501    0  0.00000000000E+00  0.00000000000E+00  0.13544760219E+04  0.13544760219E+04  0.25500000920E-02 0.  1.
       -2   -1    0    0    0  501  0.00000000000E+00  0.00000000000E+00 -0.19268801527E+04  0.19268801527E+04  0.25500000920E-02 0. -1.
    10030    2    1    2    0    0  0.00000000000E+00  0.00000000000E+00 -0.57240413072E+03  0.32813561746E+04  0.32310450099E+04 0.  0.
        2    1    3    3  502    0  0.96954248933E+03 -0.90498507332E+03  0.65060514567E+03  0.14772601928E+04  0.25500000920E-02 0.  1.
       -2    1    3    3    0  502 -0.96954248933E+03  0.90498507332E+03 -0.12230092764E+04  0.18040959818E+04  0.25500000920E-02 0. -1.
</event>
<event>
 5   0  0.2536619E-06  0.3726353E+04  0.7818609E-02  0.8062147E-01
        2   -1    0    0  501    0  0.00000000000E+00  0.00000000000E+00  0.19994387762E+04  0.19994387762E+04  0.25500000920E-02 0.  1.
       -2   -1    0    0    0  501  0.00000000000E+00  0.00000000000E+00 -0.17362001747E+04  0.17362001747E+04  0.25500000920E-02 0. -1.
    10030    2    1    2    0    0  0.00000000000E+00  0.00000000000E+00  0.26323860157E+03  0.37356389509E+04  0.37263526148E+04 0.  0.
        1    1    3    3  502    0 -0.13655229647E+04  0.31421296613E+02  0.14019732376E+04  0.19573372790E+04  0.50400001928E-02 0.  1.
       -1    1    3    3    0  502  0.13655229647E+04 -0.31421296613E+02 -0.11387346360E+04  0.17783016719E+04  0.50400001928E-02 0. -1.
</event>
<event>
 5   0  0.1566576E-06  0.3517284E+04  0.7818609E-02  0.8109706E-01
        2   -1    0    0  501    0  0.00000000000E+00  0.00000000000E+00  0.22869180065E+04  0.22869180065E+04  0.25500000920E-02 0. -1.
       -2   -1    0    0    0  501  0.00000000000E+00  0.00000000000E+00 -0.13523975517E+04  0.13523975517E+04  0.25500000920E-02 0.  1.
    10030    2    1    2    0    0  0.00000000000E+00  0.00000000000E+00  0.93452045476E+03  0.36393155583E+04  0.35172843576E+04 0.  0.
        4    1    3    3  502    0  0.16226449366E+04  0.52222562430E+03  0.19673120132E+02  0.17047242703E+04  0.12699999809E+01 0.  1.
       -4    1    3    3    0  502 -0.16226449366E+04 -0.52222562430E+03  0.91484733463E+03  0.19345912880E+04  0.12699999809E+01 0. -1.
</event>
<event>
 5   0  0.2382711E-06  0.2720833E+04  0.7818609E-02  0.8328277E-01
       -2   -1    0    0    0  501  0.00000000000E+00  0.00000000000E+00  0.87623324188E+03  0.87623324189E+03  0.25500000920E-02 0.  1.
        2   -1    0    0  501    0  0.00000000000E+00  0.00000000000E+00 -0.21121459023E+04  0.21121459023E+04  0.25500000920E-02 0. -1.
    10030    2    1    2    0    0  0.00000000000E+00  0.00000000000E+00 -0.12359126604E+04  0.29883791442E+04  0.27208325573E+04 0.  0.
        5    1    3    3  502    0  0.59603781907E+03  0.21000584750E+03  0.70522536573E+03  0.94695746695E+03  0.46999998093E+01 0.  1.
       -5    1    3    3    0  502 -0.59603781907E+03 -0.21000584750E+03 -0.19411380261E+04  0.20414216772E+04  0.46999998093E+01 0. -1.
</event>
<event>
 5   0  0.1513502E-06  0.3605399E+04  0.7818609E-02  0.8089256E-01
       -2   -1    0    0    0  501  0.00000000000E+00  0.00000000000E+00  0.94838807042E+03  0.94838807042E+03  0.25500000920E-02 0. -1.
        2   -1    0    0  501    0  0.00000000000E+00  0.00000000000E+00 -0.34265783905E+04  0.34265783905E+04  0.25500000920E-02 0.  1.
    10030    2    1    2    0    0  0.00000000000E+00  0.00000000000E+00 -0.24781903201E+04  0.43749664609E+04  0.36053993221E+04 0.  0.
        3    1    3    3  502    0  0.10207417541E+03 -0.17983963633E+04 -0.13255608453E+04  0.22364615315E+04  0.10100000352E+00 0.  1.
       -3    1    3    3    0  502 -0.10207417541E+03  0.17983963633E+04 -0.11526294748E+04  0.21385049295E+04  0.10100000352E+00 0. -1.
</event>
<event>
 5   0  0.8423692E-07  0.2416530E+04  0.7818609E-02  0.8433341E-01
       -1   -1    0    0    0  501  0.00000000000E+00  0.00000000000E+00  0.10608308938E+04  0.10608308938E+04  0.50400001928E-02 0.  1.
        1   -1    0    0  501    0  0.00000000000E+00  0.00000000000E+00 -0.13761892023E+04  0.13761892023E+04  0.50400001928E-02 0. -1.
    10030    2    1    2    0    0  0.00000000000E+00  0.00000000000E+00 -0.31535830844E+03  0.24370200961E+04  0.24165297611E+04 0.  0.
        2    1    3    3  502    0 -0.40655745973E+02 -0.51590601079E+02  0.10590290196E+04  0.10610640622E+04  0.25500000920E-02 0.  1.
       -2    1    3    3    0  502  0.40655745973E+02  0.51590601079E+02 -0.13743873280E+04  0.13759560339E+04  0.25500000920E-02 0. -1.
</event>
<event>
 5   0  0.7754556E-07  0.3818170E+04  0.7818609E-02  0.8042267E-01
       -1   -1    0    0    0  501  0.00000000000E+00  0.00000000000E+00  0.27310843762E+04  0.27310843762E+04  0.50400001928E-02 0.  1.
        1   -1    0    0  501    0  0.00000000000E+00  0.00000000000E+00 -0.13344902724E+04  0.13344902724E+04  0.50400001928E-02 0. -1.
    10030    2    1    2    0    0  0.00000000000E+00  0.00000000000E+00  0.13965941038E+04  0.40655746486E+04  0.38181699978E+04 0.  0.
        4    1    3    3  502    0 -0.10144585546E+04 -0.42608622634E+03 -0.96289776757E+03  0.14621386237E+04  0.12699999809E+01 0. -1.
       -4    1    3    3    0  502  0.10144585546E+04  0.42608622634E+03  0.23594918714E+04  0.26034360248E+04  0.12699999809E+01 0.  1.
</event>
<event>
 5   0  0.7754556E-07  0.1796470E+04  0.7818609E-02  0.8708179E-01
        1   -1    0    0  501    0  0.00000000000E+00  0.00000000000E+00  0.15728028176E+04  0.15728028176E+04  0.50400001928E-02 0. -1.
       -1   -1    0    0    0  501  0.00000000000E+00  0.00000000000E+00 -0.51298621034E+03  0.51298621037E+03  0.50400001928E-02 0.  1.
    10030    2    1    2    0    0  0.00000000000E+00  0.00000000000E+00  0.10598166073E+04  0.20857890280E+04  0.17964700466E+04 0.  0.
        4    1    3    3  502    0  0.60292538233E+03 -0.56561235674E+02  0.13001538885E+04  0.14342663410E+04  0.12699999809E+01 0. -1.
       -4    1    3    3    0  502 -0.60292538233E+03  0.56561235674E+02 -0.24033728127E+03  0.65152268703E+03  0.12699999809E+01 0.  1.
</event>
<event>
 5   0  0.2382711E-06  0.1775139E+04  0.7818609E-02  0.8719633E-01
        2   -1    0    0  501    0  0.00000000000E+00  0.00000000000E+00  0.13774908043E+04  0.13774908043E+04  0.25500000920E-02 0.  1.
       -2   -1    0    0    0  501  0.00000000000E+00  0.00000000000E+00 -0.57189458578E+03  0.57189458579E+03  0.25500000920E-02 0. -1.
    10030    2    1    2    0    0  0.00000000000E+00  0.00000000000E+00  0.80559621852E+03  0.19493853901E+04  0.17751389049E+04 0.  0.
        5    1    3    3  502    0 -0.70983675796E+03  0.13559361211E+03  0.96864712572E+03  0.12085334893E+04  0.46999998093E+01 0. -1.
       -5    1    3    3    0  502  0.70983675796E+03 -0.13559361211E+03 -0.16305090719E+03  0.74085190080E+03  0.46999998093E+01 0.  1.
</event>
<event>
 5   0  0.8452742E-07  0.1790828E+04  0.7818609E-02  0.8711192E-01
       -1   -1    0    0    0  501  0.00000000000E+00  0.00000000000E+00  0.65711547469E+03  0.65711547471E+03  0.50400001928E-02 0. -1.
        1   -1    0    0  501    0  0.00000000000E+00  0.00000000000E+00 -0.12201303199E+04  0.12201303199E+04  0.50400001928E-02 0.  1.
    10030    2    1    2    0    0  0.00000000000E+00  0.00000000000E+00 -0.56301484519E+03  0.18772457946E+04  0.17908283160E+04 0.  0.
        1    1    3    3  502    0 -0.43614515302E+03 -0.27925889801E+03 -0.10472065694E+04  0.11682678313E+04  0.50400001928E-02 0.  1.
       -1    1    3    3    0  502  0.43614515302E+03  0.27925889801E+03  0.48419172422E+03  0.70897796330E+03  0.50400001928E-02 0. -1.
</event>
<event>
 5   0  0.2536619E-06  0.3496738E+04  0.7818609E-02  0.8114563E-01
        2   -1    0    0  501    0  0.00000000000E+00  0.00000000000E+00  0.25700936584E+04  0.25700936584E+04  0.25500000920E-02 0. -1.
       -2   -1    0    0    0  501  0.00000000000E+00  0.00000000000E+00 -0.11893708253E+04  0.11893708253E+04  0.25500000920E-02 0.  1.
    10030    2    1    2    0    0  0.00000000000E+00  0.00000000000E+00  0.13807228331E+04  0.37594644837E+04  0.34967381461E+04 0.  0.
        1    1    3    3  502    0  0.45949504541E+02  0.15259454729E+04  0.16065461799E+04  0.22162155967E+04  0.50400001928E-02 0. -1.
       -1    1    3    3    0  502 -0.45949504541E+02 -0.15259454729E+04 -0.22582334675E+03  0.15432488870E+04  0.50400001928E-02 0.  1.
</event>
<event>
 5   0  0.8452742E-07  0.2325619E+04  0.7818609E-02  0.8467888E-01
       -1   -1    0    0    0  501  0.00000000000E+00  0.00000000000E+00  0.10694706491E+04  0.10694706491E+04  0.50400001928E-02 0. -1.
        1   -1    0    0  501    0  0.00000000000E+00  0.00000000000E+00 -0.12642941533E+04  0.12642941533E+04  0.50400001928E-02 0.  1.
    10030    2    1    2    0    0  0.00000000000E+00  0.00000000000E+00 -0.19482350424E+03  0.23337648024E+04  0.23256186178E+04 0.  0.
        1    1    3    3  502    0 -0.10429009907E+04  0.16010420385E+03 -0.58784612463E+03  0.12078240347E+04  0.50400001928E-02 0.  1.
       -1    1    3    3    0  502  0.10429009907E+04 -0.16010420385E+03  0.39302262038E+03  0.11259407678E+04  0.50400001928E-02 0. -1.
</event>
<event>
 5   0  0.1566576E-06  0.2369353E+04  0.7818609E-02  0.8451067E-01
       -2   -1    0    0    0  501  0.00000000000E+00  0.00000000000E+00  0.10600660923E+04  0.10600660923E+04  0.25500000920E-02 0.  1.
        2   -1    0    0  501    0  0.00000000000E+00  0.00000000000E+00 -0.13239353357E+04  0.13239353357E+04  0.25500000920E-02 0. -1.
    10030    2    1    2    0    0  0.00000000000E+00  0.00000000000E+00 -0.26386924338E+03  0.23840014280E+04  0.23693534626E+04 0.  0.
        4    1    3    3  502    0 -0.53181915371E+03  0.10517795127E+04 -0.25261606188E+03  0.12053581390E+04  0.12699999809E+01 0.  1.
       -4    1    3    3    0  502  0.53181915371E+03 -0.10517795127E+04 -0.11253181498E+02  0.11786432890E+04  0.12699999809E+01 0. -1.
</event>
<event>
 5   0  0.1513502E-06  0.3646896E+04  0.7818609E-02  0.8079833E-01
       -2   -1    0    0    0  501  0.00000000000E+00  0.00000000000E+00  0.12788434961E+04  0.12788434961E+04  0.25500000920E-02 0. -1.
        2   -1    0    0  501    0  0.00000000000E+00  0.00000000000E+00 -0.25999759599E+04  0.25999759599E+04  0.25500000920E-02 0.  1.
    10030    2    1    2    0    0  0.00000000000E+00  0.00000000000E+00 -0.13211324637E+04  0.38788194560E+04  0.36468958561E+04 0.  0.
        3    1    3    3  502    0  0.16602038190E+03  0.86470659756E+03 -0.23588850383E+04  0.25178599844E+04  0.10100000352E+00 0.  1.
       -3    1    3    3    0  502 -0.16602038190E+03 -0.86470659756E+03  0.10377525746E+04  0.13609594716E+04  0.10100000352E+00 0. -1.
</event>
<event>
 5   0  0.2422436E-06  0.2787763E+04  0.7818609E-02  0.8307077E-01
       -2   -1    0    0    0  501  0.00000000000E+00  0.00000000000E+00  0.13359332954E+04  0.13359332954E+04  0.25500000920E-02 0.  1.
        2   -1    0    0  501    0  0.00000000000E+00  0.00000000000E+00 -0.14543435910E+04  0.14543435910E+04  0.25500000920E-02 0. -1.
    10030    2    1    2    0    0  0.00000000000E+00  0.00000000000E+00 -0.11841029562E+03  0.27902768864E+04  0.27877632799E+04 0.  0.
        2    1    3    3  502    0 -0.48483911022E+03  0.71047059857E+02  0.12468811538E+04  0.13397123793E+04  0.25500000920E-02 0.  1.
       -2    1    3    3    0  502  0.48483911022E+03 -0.71047059857E+02 -0.13652914494E+04  0.14505645071E+04  0.25500000920E-02 0. -1.
</event>
<event>
 5   0  0.1634374E-06  0.3619934E+04  0.7818609E-02  0.8085941E-01
        1   -1    0    0  501    0  0.00000000000E+00  0.00000000000E+00  0.15897728064E+04  0.15897728064E+04  0.50400001928E-02 0.  1.
       -1   -1    0    0    0  501  0.00000000000E+00  0.00000000000E+00 -0.20606599569E+04  0.20606599569E+04  0.50400001928E-02 0. -1.
    10030    2    1    2    0    0  0.00000000000E+00  0.00000000000E+00 -0.47088715044E+03  0.36504327633E+04  0.36199343435E+04 0.  0.
        5    1    3    3  502    0 -0.85531105980E+03 -0.89375227585E+03 -0.15677899296E+04  0.19970822450E+04  0.46999998093E+01 0. -1.
       -5    1    3    3    0  502  0.85531105980E+03  0.89375227585E+03  0.10969027792E+04  0.16533505184E+04  0.46999998093E+01 0.  1.
</event>
<event>
 5   0  0.7754556E-07  0.2221994E+04  0.7818609E-02  0.8509329E-01
       -1   -1    0    0    0  501  0.00000000000E+00  0.00000000000E+00  0.10468558685E+04  0.10468558685E+04  0.50400001928E-02 0. -1.
        1   -1    0    0  501    0  0.00000000000E+00  0.00000000000E+00 -0.11790685409E+04  0.11790685409E+04  0.50400001928E-02 0.  1.
    10030    2    1    2    0    0  0.00000000000E+00  0.00000000000E+00 -0.13221267236E+03  0.22259244094E+04  0.22219944387E+04 0.  0.
        4    1    3    3  502    0  0.11001616412E+03 -0.10996872679E+04 -0.17987464599E+03  0.11197196724E+04  0.12699999809E+01 0. -1.
       -4    1    3    3    0  502 -0.11001616412E+03  0.10996872679E+04  0.47661973627E+02  0.11062047370E+04  0.12699999809E+01 0.  1.
</event>
<event>
 5   0  0.1566576E-06  0.3402110E+04  0.7818609E-02  0.8137389E-01
       -2   -1    0    0    0  501  0.00000000000E+00  0.00000000000E+00  0.15957255657E+04  0.15957255657E+04  0.25500000920E-02 0.  1.
        2   -1    0    0  501    0  0.00000000000E+00  0.00000000000E+00 -0.18133374037E+04  0.18133374037E+04  0.25500000920E-02 0. -1.
    10030    2    1    2    0    0  0.00000000000E+00  0.00000000000E+00 -0.21761183802E+03  0.34090629693E+04  0.34021104357E+04 0.  0.
        4    1    3    3  502    0 -0.60302100817E+03  0.66284904999E+03 -0.15576459323E+04  0.17970157659E+04  0.12699999809E+01 0. -1.
       -4    1    3    3    0  502  0.60302100817E+03 -0.66284904999E+03  0.13400340943E+04  0.16120472035E+04  0.12699999809E+01 0.  1.
</event>
<event>
 5   0  0.1566576E-06  0.3511567E+04  0.7818609E-02  0.8111054E-01
        2   -1    0    0  501    0  0.00000000000E+00  0.00000000000E+00  0.21763905569E+04  0.21763905569E+04  0.25500000920E-02 0. -1.
       -2   -1    0    0    0  501  0.00000000000E+00  0.00000000000E+00 -0.14164626961E+04  0.14164626961E+04  0.25500000920E-02 0.  1.
    10030    2    1    2    0    0  0.00000000000E+00  0.00000000000E+00  0.75992786072E+03  0.35928532530E+04  0.35115671920E+04 0.  0.
        4    1    3    3  502    0  0.14778565837E+03  0.38964042668E+03  0.21250581440E+04  0.21655331887E+04  0.12699999809E+01 0. -1.
       -4    1    3    3    0  502 -0.14778565837E+03 -0.38964042668E+03 -0.13651302833E+04  0.14273200644E+04  0.12699999809E+01 0.  1.
</event>
<event>
 5   0  0.1513502E-06  0.3563859E+04  0.7818609E-02  0.8098821E-01
        2   -1    0    0  501    0  0.00000000000E+00  0.00000000000E+00  0.21362419460E+04  0.21362419460E+04  0.25500000920E-02 0. -1.
       -2   -1    0    0    0  501  0.00000000000E+00  0.00000000000E+00 -0.14863828102E+04  0.14863828102E+04  0.25500000920E-02 0.  1.
    10030    2    1    2    0    0  0.00000000000E+00  0.00000000000E+00  0.64985913574E+03  0.36226247562E+04  0.35638593165E+04 0.  0.
        3    1    3    3  502    0 -0.49640804006E+03 -0.10845956123E+04  0.16705804361E+04  0.20527073801E+04  0.10100000352E+00 0. -1.
       -3    1    3    3    0  502  0.49640804006E+03  0.10845956123E+04 -0.10207213004E+04  0.15699173761E+04  0.10100000352E+00 0.  1.
</event>
<event>
 5   0  0.2536619E-06  0.2262347E+04  0.7818609E-02  0.8492917E-01
       -2   -1    0    0    0  501  0.00000000000E+00  0.00000000000E+00  0.85276917332E+03  0.85276917333E+03  0.25500000920E-02 0. -1.
        2   -1    0    0  501    0  0.00000000000E+00  0.00000000000E+00 -0.15004683748E+04  0.15004683748E+04  0.25500000920E-02 0.  1.
    10030    2    1    2    0    0  0.00000000000E+00  0.00000000000E+00 -0.64769920147E+03  0.23532375481E+04  0.22623467246E+04 0.  0.
        1    1    3    3  502    0  0.43257612288E+03  0.18151947307E+03 -0.13945139582E+04  0.14713057469E+04  0.50400001928E-02 0.  1.
       -1    1    3    3    0  502 -0.43257612288E+03 -0.18151947307E+03  0.74681475671E+03  0.88193180125E+03  0.50400001928E-02 0. -1.
</event>
<event>
 5   0  0.1566576E-06  0.3592499E+04  0.7818609E-02  0.8092212E-01
        2   -1    0    0  501    0  0.00000000000E+00  0.00000000000E+00  0.26580022194E+04  0.26580022194E+04  0.25500000920E-02 0.  1.
       -2   -1    0    0    0  501  0.00000000000E+00  0.00000000000E+00 -0.12138859166E+04  0.12138859166E+04  0.25500000920E-02 0. -1.
    10030    2    1    2    0    0  0.00000000000E+00  0.00000000000E+00  0.14441163027E+04  0.38718881360E+04  0.35924985515E+04 0.  0.
        4    1    3    3  502    0  0.14481085392E+04  0.20103550215E+03  0.18468064376E+04  0.23554467188E+04  0.12699999809E+01 0.  1.
       -4    1    3    3    0  502 -0.14481085392E+04 -0.20103550215E+03 -0.40269013483E+03  0.15164414172E+04  0.12699999809E+01 0. -1.
</event>
<event>
 5   0  0.1908273E-06  0.2422847E+04  0.7818609E-02  0.8430999E-01
       -1   -1    0    0    0  501  0.00000000000E+00  0.00000000000E+00  0.13935971952E+04  0.13935971952E+04  0.50400001928E-02 0.  1.
        1   -1    0    0  501    0  0.00000000000E+00  0.00000000000E+00 -0.10530643133E+04  0.10530643134E+04  0.50400001928E-02 0. -1.
    10030    2    1    2    0    0  0.00000000000E+00  0.00000000000E+00  0.34053288188E+03  0.24466615086E+04  0.24228474764E+04 0.  0.
        3    1    3    3  502    0  0.11798135240E+04  0.79649564985E+00  0.44789939689E+03  0.12619724504E+04  0.10100000352E+00 0.  1.
       -3    1    3    3    0  502 -0.11798135240E+04 -0.79649564985E+00 -0.10736651502E+03  0.11846890581E+04  0.10100000352E+00 0. -1.
</event>
<event>
 5   0  0.2382711E-06  0.3459699E+04  0.7818609E-02  0.8123408E-01
        2   -1    0    0  501    0  0.00000000000E+00  0.00000000000E+00  0.17469472643E+04  0.17469472643E+04  0.25500000920E-02 0. -1.
       -2   -1    0    0    0  501  0.00000000000E+00  0.00000000000E+00 -0.17129188833E+04  0.17129188833E+04  0.25500000920E-02 0.  1.
    10030    2    1    2    0    0  0.00000000000E+00  0.00000000000E+00  0.34028380960E+02  0.34598661476E+04  0.34596988060E+04 0.  0.
        5    1    3    3  502    0 -0.72728218513E+03 -0.10411391981E+04  0.11915694714E+04  0.17414850278E+04  0.46999998093E+01 0. -1.
       -5    1    3    3    0  502  0.72728218513E+03  0.10411391981E+04 -0.11575410905E+04  0.17183811198E+04  0.46999998093E+01 0.  1.
</event>
<event>
 5   0  0.1566576E-06  0.3613481E+04  0.7818609E-02  0.8087411E-01
        2   -1    0    0  501    0  0.00000000000E+00  0.00000000000E+00  0.28178326533E+04  0.28178326533E+04  0.25500000920E-02 0. -1.
       -2   -1    0    0    0  501  0.00000000000E+00  0.00000000000E+00 -0.11584473207E+04  0.11584473207E+04  0.25500000920E-02 0.  1.
    10030    2    1    2    0    0  0.00000000000E+00  0.00000000000E+00  0.16593853325E+04  0.39762799740E+04  0.36134806973E+04 0.  0.
        4    1    3    3  502    0 -0.11619464112E+04  0.82090755334E+03  0.20551964567E+04  0.24995685152E+04  0.12699999809E+01 0. -1.
       -4    1    3    3    0  502  0.11619464112E+04 -0.82090755334E+03 -0.39581112418E+03  0.14767114588E+04  0.12699999809E+01 0.  1.
</event>
<event>
 5   0  0.2536619E-06  0.2420934E+04  0.7818609E-02  0.8431708E-01
       -2   -1    0    0    0  501  0.00000000000E+00  0.00000000000E+00  0.79906262998E+03  0.79906262998E+03  0.25500000920E-02 0.  1.
        2   -1    0    0  501    0  0.00000000000E+00  0.00000000000E+00 -0.18336859375E+04  0.18336859375E+04  0.25500000920E-02 0. -1.
    10030    2    1    2    0    0  0.00000000000E+00  0.00000000000E+00 -0.10346233075E+04  0.26327485675E+04  0.24209336280E+04 0.  0.
        1    1    3    3  502    0  0.84380145050E+03 -0.52673217176E+03 -0.12674314293E+04  0.16111579987E+04  0.50400001928E-02 0. -1.
       -1    1    3    3    0  502 -0.84380145050E+03  0.52673217176E+03  0.23280812182E+03  0.10215905688E+04  0.50400001928E-02 0.  1.
</event>
<event>
 5   0  0.2422436E-06  0.1810077E+04  0.7818609E-02  0.8700959E-01
       -2   -1    0    0    0  501  0.00000000000E+00  0.00000000000E+00  0.55219140221E+03  0.55219140222E+03  0.25500000920E-02 0. -1.
        2   -1    0    0  501    0  0.00000000000E+00  0.00000000000E+00 -0.14833532454E+04  0.14833532455E+04  0.25500000920E-02 0.  1.
    10030    2    1    2    0    0  0.00000000000E+00  0.00000000000E+00 -0.93116184324E+03  0.20355446477E+04  0.18100772454E+04 0.  0.
        2    1    3    3  502    0 -0.42591171892E+03 -0.79646172379E+03 -0.53060006474E+03  0.10475153930E+04  0.25500000920E-02 0.  1.
       -2    1    3    3    0  502  0.42591171892E+03  0.79646172379E+03 -0.40056177850E+03  0.98802925472E+03  0.25500000920E-02 0. -1.
</event>
<event>
 5   0  0.1566576E-06  0.1945877E+04  0.7818609E-02  0.8632351E-01
       -2   -1    0    0    0  501  0.00000000000E+00  0.00000000000E+00  0.87488954563E+03  0.87488954563E+03  0.25500000920E-02 0.  1.
        2   -1    0    0  501    0  0.00000000000E+00  0.00000000000E+00 -0.10819761335E+04  0.10819761335E+04  0.25500000920E-02 0. -1.
    10030    2    1    2    0    0  0.00000000000E+00  0.00000000000E+00 -0.20708658784E+03  0.19568656791E+04  0.19458772909E+04 0.  0.
        4    1    3    3  502    0  0.75082541152E+03  0.18519147651E+03  0.49019168295E+03  0.91560044806E+03  0.12699999809E+01 0.  1.
       -4    1    3    3    0  502 -0.75082541152E+03 -0.18519147651E+03 -0.69727827079E+03  0.10412652310E+04  0.12699999809E+01 0. -1.
</event>
<event>
 5   0  0.7754556E-07  0.3597256E+04  0.7818609E-02  0.8091120E-01
        1   -1    0    0  501    0  0.00000000000E+00  0.00000000000E+00  0.15658789662E+04  0.15658789662E+04  0.50400001928E-02 0. -1.
       -1   -1    0    0    0  501  0.00000000000E+00  0.00000000000E+00 -0.20659727576E+04  0.20659727576E+04  0.50400001928E-02 0.  1.
    10030    2    1    2    0    0  0.00000000000E+00  0.00000000000E+00 -0.50009379139E+03  0.36318517237E+04  0.35972563355E+04 0.  0.
        4    1    3    3  502    0 -0.10417734335E+04  0.76179423031E+02 -0.17283575911E+04  0.20194842824E+04  0.12699999809E+01 0.  1.
       -4    1    3    3    0  502  0.10417734335E+04 -0.76179423031E+02  0.12282637997E+04  0.16123674413E+04  0.12699999809E+01 0. -1.
</event>
<event>
 5   0  0.2422436E-06  0.3642795E+04  0.7818609E-02  0.8080759E-01
       -2   -1    0    0    0  501  0.00000000000E+00  0.00000000000E+00  0.18528111790E+04  0.18528111790E+04  0.25500000920E-02 0.  1.
        2   -1    0    0  501    0  0.00000000000E+00  0.00000000000E+00 -0.17905167688E+04  0.17905167688E+04  0.25500000920E-02 0. -1.
    10030    2    1    2    0    0  0.00000000000E+00  0.00000000000E+00  0.62294410203E+02  0.36433279479E+04  0.36427953473E+04 0.  0.
        2    1    3    3  502    0  0.14920524218E+04 -0.36594393415E+03 -0.94744058180E+03  0.18049318680E+04  0.25500000920E-02 0. -1.
       -2    1    3    3    0  502 -0.14920524218E+04  0.36594393415E+03  0.10097349920E+04  0.18383960798E+04  0.25500000920E-02 0.  1.
</event>
<event>
 5   0  0.1908273E-06  0.2353568E+04  0.7818609E-02  0.8457095E-01
       -1   -1    0    0    0  501  0.00000000000E+00  0.00000000000E+00  0.18025508798E+04  0.18025508798E+04  0.50400001928E-02 0. -1.
        1   -1    0    0  501    0  0.00000000000E+00  0.00000000000E+00 -0.76825574118E+03  0.76825574119E+03  0.50400001928E-02 0.  1.
    10030    2    1    2    0    0  0.00000000000E+00  0.00000000000E+00  0.10342951386E+04  0.25708066210E+04  0.23535675577E+04 0.  0.
        3    1    3    3  502    0 -0.86984774645E+03 -0.44133422334E+03 -0.20195647323E+03  0.99609107313E+03  0.10100000352E+00 0. -1.
       -3    1    3    3    0  502  0.86984774645E+03  0.44133422334E+03  0.12362516118E+04  0.15747155478E+04  0.10100000352E+00 0.  1.
</event>
<event>
 5   0  0.8452742E-07  0.3558862E+04  0.7818609E-02  0.8099980E-01
       -1   -1    0    0    0  501  0.00000000000E+00  0.00000000000E+00  0.16532197823E+04  0.16532197823E+04  0.50400001928E-02 0.  1.
        1   -1    0    0  501    0  0.00000000000E+00  0.00000000000E+00 -0.19152772935E+04  0.19152772935E+04  0.50400001928E-02 0. -1.
    10030    2    1    2    0    0  0.00000000000E+00  0.00000000000E+00 -0.26205751124E+03  0.35684970758E+04  0.35588617901E+04 0.  0.
        1    1    3    3  502    0 -0.12625507830E+04 -0.82387505639E+03 -0.10788762038E+04  0.18538550243E+04  0.50400001928E-02 0. -1.
       -1    1    3    3    0  502  0.12625507830E+04  0.82387505639E+03  0.81681869252E+03  0.17146420515E+04  0.50400001928E-02 0.  1.
</event>
<event>
 5   0  0.1513502E-06  0.3682347E+04  0.7818609E-02  0.8071885E-01
        2   -1    0    0  501    0  0.00000000000E+00  0.00000000000E+00  0.22688676501E+04  0.22688676501E+04  0.25500000920E-02 0.  1.
       -2   -1    0    0    0  501  0.00000000000E+00  0.00000000000E+00 -0.14941018628E+04  0.14941018628E+04  0.25500000920E-02 0. -1.
    10030    2    1    2    0    0  0.00000000000E+00  0.00000000000E+00  0.77476578728E+03  0.37629695129E+04  0.36823467422E+04 0.  0.
        3    1    3    3  502    0  0.56718418101E+03 -0.13046303051E+04  0.15818027083E+04  0.21274063896E+04  0.10100000352E+00 0.  1.
       -3    1    3    3    0  502 -0.56718418101E+03  0.13046303051E+04 -0.80703692106E+03  0.16355631233E+04  0.10100000352E+00 0. -1.
</event>
<event>
 5   0  0.1634374E-06  0.3617373E+04  0.7818609E-02  0.8086524E-01
        1   -1    0    0  501    0  0.00000000000E+00  0.00000000000E+00  0.18021797361E+04  0.18021797362E+04  0.50400001928E-02 0. -1.
       -1   -1    0    0    0  501  0.00000000000E+00  0.00000000000E+00 -0.18152163113E+04  0.18152163113E+04  0.50400001928E-02 0.  1.
    10030    2    1    2    0    0  0.00000000000E+00  0.00000000000E+00 -0.13036575167E+02  0.36173960475E+04  0.36173725564E+04 0.  0.
        5    1    3    3  502    0  0.16498611308E+04  0.63919881017E+03 -0.38163016493E+03  0.18100498730E+04  0.46999998093E+01 0. -1.
       -5    1    3    3    0  502 -0.16498611308E+04 -0.63919881017E+03  0.36859358976E+03  0.18073461745E+04  0.46999998093E+01 0.  1.
</event>
<event>
 5   0  0.2536619E-06  0.3067590E+04  0.7818609E-02  0.8224689E-01
        2   -1    0    0  501    0  0.00000000000E+00  0.00000000000E+00  0.22566828684E+04  0.22566828684E+04  0.25500000920E-02 0.  1.
       -2   -1    0    0    0  501  0.00000000000E+00  0.00000000000E+00 -0.10424710834E+04  0.10424710834E+04  0.25500000920E-02 0. -1.
    10030    2    1    2    0    0  0.00000000000E+00  0.00000000000E+00  0.12142117851E+04  0.32991539518E+04  0.30675896953E+04 0.  0.
        1    1    3    3  502    0  0.11799004447E+04  0.90230922727E+03  0.19588189167E+03  0.14982311959E+04  0.50400001928E-02 0. -1.
       -1    1    3    3    0  502 -0.11799004447E+04 -0.90230922727E+03  0.10183298934E+04  0.18009227559E+04  0.50400001928E-02 0.  1.
</event>
<event>
 5   0  0.7754556E-07  0.3549006E+04  0.7818609E-02  0.8102273E-01
       -1   -1    0    0    0  501  0.00000000000E+00  0.00000000000E+00  0.21300288919E+04  0.21300288919E+04  0.50400001928E-02 0. -1.
        1   -1    0    0  501    0  0.00000000000E+00  0.00000000000E+00 -0.14783181210E+04  0.14783181210E+04  0.50400001928E-02 0.  1.
    10030    2    1    2    0    0  0.00000000000E+00  0.00000000000E+00  0.65171077087E+03  0.36083470129E+04  0.35490056688E+04 0.  0.
        4    1    3    3  502    0  0.12320552151E+04 -0.12755853865E+04  0.38836976901E+03  0.18154643543E+04  0.12699999809E+01 0.  1.
       -4    1    3    3    0  502 -0.12320552151E+04  0.12755853865E+04  0.26334100186E+03  0.17928826586E+04  0.12699999809E+01 0. -1.
</event>
<event>
 5   0  0.1908273E-06  0.3640751E+04  0.7818609E-02  0.8081221E-01
        1   -1    0    0  501    0  0.00000000000E+00  0.00000000000E+00  0.28480704984E+04  0.28480704984E+04  0.50400001928E-02 0.  1.
       -1   -1    0    0    0  501  0.00000000000E+00  0.00000000000E+00 -0.11635127661E+04  0.11635127661E+04  0.50400001928E-02 0. -1.
    10030    2    1    2    0    0  0.00000000000E+00  0.00000000000E+00  0.16845577322E+04  0.40115832645E+04  0.36407506829E+04 0.  0.
        3    1    3    3  502    0 -0.15741268694E+03 -0.17921802244E+04  0.53637205985E+03  0.18773342024E+04  0.10100000352E+00 0. -1.
       -3    1    3    3    0  502  0.15741268694E+03  0.17921802244E+04  0.11481856724E+04  0.21342490621E+04  0.10100000352E+00 0.  1.
</event>
<event>
 5   0  0.1513502E-06  0.3112912E+04  0.7818609E-02  0.8212203E-01
       -2   -1    0    0    0  501  0.00000000000E+00  0.00000000000E+00  0.20653839922E+04  0.20653839922E+04  0.25500000920E-02 0. -1.
        2   -1    0    0  501    0  0.00000000000E+00  0.00000000000E+00 -0.11729321615E+04  0.11729321615E+04  0.25500000920E-02 0.  1.
    10030    2    1    2    0    0  0.00000000000E+00  0.00000000000E+00  0.89245183067E+03  0.32383161538E+04  0.31129120196E+04 0.  0.
        3    1    3    3  502    0 -0.99250145834E+03 -0.60583025795E+03  0.15225394689E+04  0.19157807522E+04  0.10100000352E+00 0. -1.
       -3    1    3    3    0  502  0.99250145834E+03  0.60583025795E+03 -0.63008763818E+03  0.13225354015E+04  0.10100000352E+00 0.  1.
</event>
<event>
 5   0  0.1513502E-06  0.3590540E+04  0.7818609E-02  0.8092662E-01
       -2   -1    0    0    0  501  0.00000000000E+00  0.00000000000E+00  0.15543614870E+04  0.15543614870E+04  0.25500000920E-02 0.  1.
        2   -1    0    0  501    0  0.00000000000E+00  0.00000000000E+00 -0.20735166523E+04  0.20735166523E+04  0.25500000920E-02 0. -1.
    10030    2    1    2    0    0  0.00000000000E+00  0.00000000000E+00 -0.51915516528E+03  0.36278781392E+04  0.35905400301E+04 0.  0.
        3    1    3    3  502    0  0.15477444358E+04  0.82089718125E+03  0.13642845608E+03  0.17572699720E+04  0.10100000352E+00 0.  1.
       -3    1    3    3    0  502 -0.15477444358E+04 -0.82089718125E+03 -0.65558362136E+03  0.18706081673E+04  0.10100000352E+00 0. -1.
</event>
<event>
 5   0  0.1513502E-06  0.3579871E+04  0.7818609E-02  0.8095118E-01
       -2   -1    0    0    0  501  0.00000000000E+00  0.00000000000E+00  0.22202062999E+04  0.22202062999E+04  0.25500000920E-02 0.  1.
        2   -1    0    0  501    0  0.00000000000E+00  0.00000000000E+00 -0.14430501856E+04  0.14430501856E+04  0.25500000920E-02 0. -1.
    10030    2    1    2    0    0  0.00000000000E+00  0.00000000000E+00  0.77715611434E+03  0.36632564856E+04  0.35798710107E+04 0.  0.
        3    1    3    3  502    0 -0.13644850525E+04  0.10301739123E+04 -0.15366227179E+03  0.17165925119E+04  0.10100000352E+00 0. -1.
       -3    1    3    3    0  502  0.13644850525E+04 -0.10301739123E+04  0.93081838613E+03  0.19466639736E+04  0.10100000352E+00 0.  1.
</event>
<event>
 5   0  0.8423692E-07  0.3302079E+04  0.7818609E-02  0.8162367E-01
        1   -1    0    0  501    0  0.00000000000E+00  0.00000000000E+00  0.21292199006E+04  0.21292199006E+04  0.50400001928E-02 0. -1.
       -1   -1    0    0    0  501  0.00000000000E+00  0.00000000000E+00 -0.12802490336E+04  0.12802490337E+04  0.50400001928E-02 0.  1.
    10030    2    1    2    0    0  0.00000000000E+00  0.00000000000E+00  0.84897086692E+03  0.34094689342E+04  0.33020791754E+04 0.  0.
        2    1    3    3  502    0 -0.84872313028E+03  0.12289782638E+04  0.11510853766E+04  0.18856606452E+04  0.25500000920E-02 0. -1.
       -2    1    3    3    0  502  0.84872313028E+03 -0.12289782638E+04 -0.30211450966E+03  0.15238082890E+04  0.25500000920E-02 0.  1.
</event>
<event>
 5   0  0.7707500E-07  0.2948769E+04  0.7818609E-02  0.8258513E-01
        3   -1    0    0  501    0  0.00000000000E+00  0.00000000000E+00  0.11649237818E+04  0.11649237862E+04  0.10100000352E+00 0.  1.
       -3   -1    0    0    0  501  0.00000000000E+00  0.00000000000E+00 -0.18660535643E+04  0.18660535671E+04  0.10100000352E+00 0. -1.
    10030    2    1    2    0    0  0.00000000000E+00  0.00000000000E+00 -0.70112978250E+03  0.30309773533E+04  0.29487693610E+04 0.  0.
        1    1    3    3  502    0 -0.40119850625E+03  0.14119345542E+04 -0.20780160148E+03  0.14824644793E+04  0.50400001928E-02 0.  1.
       -1    1    3    3    0  502  0.40119850625E+03 -0.14119345542E+04 -0.49332818101E+03  0.15485128740E+04  0.50400001928E-02 0. -1.
</event>
<event>
 5   0  0.8423692E-07  0.1800356E+04  0.7818609E-02  0.8706110E-01
        1   -1    0    0  501    0  0.00000000000E+00  0.00000000000E+00  0.88201969915E+03  0.88201969916E+03  0.50400001928E-02 0.  1.
       -1   -1    0    0    0  501  0.00000000000E+00  0.00000000000E+00 -0.91870972930E+03  0.91870972931E+03  0.50400001928E-02 0. -1.
    10030    2    1    2    0    0  0.00000000000E+00  0.00000000000E+00 -0.36690030145E+02  0.18007294285E+04  0.18003556083E+04 0.  0.
        2    1    3    3  502    0  0.44586627002E+03 -0.23492801944E+03  0.72768663850E+03  0.88516424968E+03  0.25500000920E-02 0.  1.
       -2    1    3    3    0  502 -0.44586627002E+03  0.23492801944E+03 -0.76437666864E+03  0.91556517880E+03  0.25500000920E-02 0. -1.
</event>
<event>
 5   0  0.8452742E-07  0.3034215E+04  0.7818609E-02  0.8234028E-01
        1   -1    0    0  501    0  0.00000000000E+00  0.00000000000E+00  0.20521799071E+04  0.20521799072E+04  0.50400001928E-02 0.  1.
       -1   -1    0    0    0  501  0.00000000000E+00  0.00000000000E+00 -0.11215464140E+04  0.11215464140E+04  0.50400001928E-02 0. -1.
    10030    2    1    2    0    0  0.00000000000E+00  0.00000000000E+00  0.93063349312E+03  0.31737263212E+04  0.30342149006E+04 0.  0.
        1    1    3    3  502    0 -0.40477335109E+03 -0.23386096021E+03  0.19749671335E+04  0.20295387636E+04  0.50400001928E-02 0.  1.
       -1    1    3    3    0  502  0.40477335109E+03  0.23386096021E+03 -0.10443336404E+04  0.11441875576E+04  0.50400001928E-02 0. -1.
</event>
<event>
 5   0  0.7754556E-07  0.3405123E+04  0.7818609E-02  0.8136650E-01
       -1   -1    0    0    0  501  0.00000000000E+00  0.00000000000E+00  0.19674094970E+04  0.19674094970E+04  0.50400001928E-02 0.  1.
        1   -1    0    0  501    0  0.00000000000E+00  0.00000000000E+00 -0.14733670326E+04  0.14733670326E+04  0.50400001928E-02 0. -1.
    10030    2    1    2    0    0  0.00000000000E+00  0.00000000000E+00  0.49404246439E+03  0.34407765296E+04  0.34051233708E+04 0.  0.
        4    1    3    3  502    0 -0.64156622101E+03  0.67405362695E+03 -0.11936556268E+04  0.15135292783E+04  0.12699999809E+01 0. -1.
       -4    1    3    3    0  502  0.64156622101E+03 -0.67405362695E+03  0.16876980912E+04  0.19272472513E+04  0.12699999809E+01 0.  1.
</event>
<event>
 5   0  0.1513502E-06  0.3613618E+04  0.7818609E-02  0.8087379E-01
       -2   -1    0    0    0  501  0.00000000000E+00  0.00000000000E+00  0.15120280165E+04  0.15120280165E+04  0.25500000920E-02 0.  1.
        2   -1    0    0  501    0  0.00000000000E+00  0.00000000000E+00 -0.21590596639E+04  0.21590596639E+04  0.25500000920E-02 0. -1.
    10030    2    1    2    0    0  0.00000000000E+00  0.00000000000E+00 -0.64703164736E+03  0.36710876803E+04  0.36136179660E+04 0.  0.
        3    1    3    3  502    0  0.87599382535E+03  0.13460747199E+04  0.51746364795E+03  0.16873206485E+04  0.10100000352E+00 0.  1.
       -3    1    3    3    0  502 -0.87599382535E+03 -0.13460747199E+04 -0.11644952953E+04  0.19837670319E+04  0.10100000352E+00 0. -1.
</event>
<event>
 5   0  0.1513502E-06  0.3852326E+04  0.7818609E-02  0.8035018E-01
        2   -1    0    0  501    0  0.00000000000E+00  0.00000000000E+00  0.14665589513E+04  0.14665589513E+04  0.25500000920E-02 0. -1.
       -2   -1    0    0    0  501  0.00000000000E+00  0.00000000000E+00 -0.25298016454E+04  0.25298016454E+04  0.25500000920E-02 0.  1.
    10030    2    1    2    0    0  0.00000000000E+00  0.00000000000E+00 -0.10632426941E+04  0.39963605967E+04  0.38523256602E+04 0.  0.
        3    1    3    3  502    0 -0.10102274064E+04 -0.11125050378E+04  0.71836852054E+03  0.16656170668E+04  0.10100000352E+00 0. -1.
       -3    1    3    3    0  502  0.10102274064E+04  0.11125050378E+04 -0.17816112146E+04  0.23307435299E+04  0.10100000352E+00 0.  1.
</event>
<event>
 5   0  0.1513502E-06  0.1935455E+04  0.7818609E-02  0.8637407E-01
       -2   -1    0    0    0  501  0.00000000000E+00  0.00000000000E+00  0.16511362413E+04  0.16511362413E+04  0.25500000920E-02 0. -1.
        2   -1    0    0  501    0  0.00000000000E+00  0.00000000000E+00 -0.56718309433E+03  0.56718309433E+03  0.25500000920E-02 0.  1.
    10030    2    1    2    0    0  0.00000000000E+00  0.00000000000E+00  0.10839531469E+04  0.22183193356E+04  0.19354550498E+04 0.  0.
        3    1    3    3  502    0  0.66245859253E+03 -0.69313747764E+03  0.39163609835E+03  0.10356977327E+04  0.10100000352E+00 0.  1.
       -3    1    3    3    0  502 -0.66245859253E+03  0.69313747764E+03  0.69231704858E+03  0.11826216029E+04  0.10100000352E+00 0. -1.
</event>
<event>
 5   0  0.7754556E-07  0.2989437E+04  0.7818609E-02  0.8246754E-01
        1   -1    0    0  501    0  0.00000000000E+00  0.00000000000E+00  0.17859406602E+04  0.17859406602E+04  0.50400001928E-02 0.  1.
       -1   -1    0    0    0  501  0.00000000000E+00  0.00000000000E+00 -0.12509840757E+04  0.12509840757E+04  0.50400001928E-02 0. -1.
    10030    2    1    2    0    0  0.00000000000E+00  0.00000000000E+00  0.53495658454E+03  0.30369247359E+04  0.29894369544E+04 0.  0.
        4    1    3    3  502    0  0.73269038805E+03  0.11734386300E+04 -0.30754170383E+03  0.14171721616E+04  0.12699999809E+01 0. -1.
       -4    1    3    3    0  502 -0.73269038805E+03 -0.11734386300E+04  0.84249828838E+03  0.16197525743E+04  0.12699999809E+01 0.  1.
</event>
<event>
 5   0  0.1566576E-06  0.3532416E+04  0.7818609E-02  0.8106150E-01
       -2   -1    0    0    0  501  0.00000000000E+00  0.00000000000E+00  0.12337260568E+04  0.12337260568E+04  0.25500000920E-02 0.  1.
        2   -1    0    0  501    0  0.00000000000E+00  0.00000000000E+00 -0.25285123358E+04  0.25285123358E+04  0.25500000920E-02 0. -1.
    10030    2    1    2    0    0  0.00000000000E+00  0.00000000000E+00 -0.12947862791E+04  0.37622383926E+04  0.35324164837E+04 0.  0.
        4    1    3    3  502    0 -0.64715808843E+03  0.53730896573E+03  0.10067033788E+04  0.13118566316E+04  0.12699999809E+01 0.  1.
       -4    1    3    3    0  502  0.64715808843E+03 -0.53730896573E+03 -0.23014896579E+04  0.24503817610E+04  0.12699999809E+01 0. -1.
</event>
<event>
 5   0  0.2536619E-06  0.3528060E+04  0.7818609E-02  0.8107172E-01
       -2   -1    0    0    0  501  0.00000000000E+00  0.00000000000E+00  0.12495144260E+04  0.12495144260E+04  0.25500000920E-02 0. -1.
        2   -1    0    0  501    0  0.00000000000E+00  0.00000000000E+00 -0.24904082879E+04  0.24904082879E+04  0.25500000920E-02 0.  1.
    10030    2    1    2    0    0  0.00000000000E+00  0.00000000000E+00 -0.12408938619E+04  0.37399227139E+04  0.35280595700E+04 0.  0.
        1    1    3    3  502    0  0.15523649634E+04  0.17348204038E+03 -0.14893447833E+04  0.21582587615E+04  0.50400001928E-02 0.  1.
       -1    1    3    3    0  502 -0.15523649634E+04 -0.17348204038E+03  0.24845092148E+03  0.15816639524E+04  0.50400001928E-02 0. -1.
</event>
<event>
 5   0  0.8452742E-07  0.3599599E+04  0.7818609E-02  0.8090583E-01
        1   -1    0    0  501    0  0.00000000000E+00  0.00000000000E+00  0.19764108130E+04  0.19764108130E+04  0.50400001928E-02 0. -1.
       -1   -1    0    0    0  501  0.00000000000E+00  0.00000000000E+00 -0.16389705111E+04  0.16389705111E+04  0.50400001928E-02 0.  1.
    10030    2    1    2    0    0  0.00000000000E+00  0.00000000000E+00  0.33744030188E+03  0.36153813241E+04  0.35995994445E+04 0.  0.
        1    1    3    3  502    0  0.11435912553E+04 -0.12127998235E+04 -0.51292662932E+03  0.17440694075E+04  0.50400001928E-02 0.  1.
       -1    1    3    3    0  502 -0.11435912553E+04  0.12127998235E+04  0.85036693120E+03  0.18713119165E+04  0.50400001928E-02 0. -1.
</event>
<event>
 5   0  0.1566576E-06  0.2032903E+04  0.7818609E-02  0.8591390E-01
        2   -1    0    0  501    0  0.00000000000E+00  0.00000000000E+00  0.12916295383E+04  0.12916295383E+04  0.25500000920E-02 0. -1.
       -2   -1    0    0    0  501  0.00000000000E+00  0.00000000000E+00 -0.79989912710E+03  0.79989912711E+03  0.25500000920E-02 0.  1.
    10030    2    1    2    0    0  0.00000000000E+00  0.00000000000E+00  0.49173041115E+03  0.20915286654E+04  0.20329026934E+04 0.  0.
        4    1    3    3  502    0 -0.91067762213E+03  0.39505526291E+03  0.21000223769E+02  0.99289728295E+03  0.12699999809E+01 0. -1.
       -4    1    3    3    0  502  0.91067762213E+03 -0.39505526291E+03  0.47073018738E+03  0.10986313824E+04  0.12699999809E+01 0.  1.
</event>
<event>
 5   0  0.2382711E-06  0.3441805E+04  0.7818609E-02  0.8127722E-01
        2   -1    0    0  501    0  0.00000000000E+00  0.00000000000E+00  0.18808733890E+04  0.18808733890E+04  0.25500000920E-02 0. -1.
       -2   -1    0    0    0  501  0.00000000000E+00  0.00000000000E+00 -0.15745374651E+04  0.15745374651E+04  0.25500000920E-02 0.  1.
    10030    2    1    2    0    0  0.00000000000E+00  0.00000000000E+00  0.30633592397E+03  0.34554108541E+04  0.34418051183E+04 0.  0.
        5    1    3    3  502    0 -0.14176309073E+04  0.26936822347E+03 -0.78822043175E+03  0.16442475994E+04  0.46999998093E+01 0.  1.
       -5    1    3    3    0  502  0.14176309073E+04 -0.26936822347E+03  0.10945563557E+04  0.18111632547E+04  0.46999998093E+01 0. -1.
</event>
<event>
 5   0  0.2422436E-06  0.3556737E+04  0.7818609E-02  0.8100474E-01
       -2   -1    0    0    0  501  0.00000000000E+00  0.00000000000E+00  0.20839497062E+04  0.20839497062E+04  0.25500000920E-02 0.  1.
        2   -1    0    0  501    0  0.00000000000E+00  0.00000000000E+00 -0.15175960566E+04  0.15175960567E+04  0.25500000920E-02 0. -1.
    10030    2    1    2    0    0  0.00000000000E+00  0.00000000000E+00  0.56635364950E+03  0.36015457628E+04  0.35567366258E+04 0.  0.
        2    1    3    3  502    0  0.98820380961E+03 -0.72531112515E+03 -0.10214534799E+04  0.15956159341E+04  0.25500000920E-02 0. -1.
       -2    1    3    3    0  502 -0.98820380961E+03  0.72531112515E+03  0.15878071294E+04  0.20059298287E+04  0.25500000920E-02 0.  1.
</event>
<event>
 5   0  0.7754556E-07  0.3594167E+04  0.7818609E-02  0.8091829E-01
       -1   -1    0    0    0  501  0.00000000000E+00  0.00000000000E+00  0.12184617911E+04  0.12184617911E+04  0.50400001928E-02 0. -1.
        1   -1    0    0  501    0  0.00000000000E+00  0.00000000000E+00 -0.26504796897E+04  0.26504796897E+04  0.50400001928E-02 0.  1.
    10030    2    1    2    0    0  0.00000000000E+00  0.00000000000E+00 -0.14320178986E+04  0.38689414807E+04  0.35941665125E+04 0.  0.
        4    1    3    3  502    0  0.11221484214E+04  0.17048600827E+03 -0.22158035989E+04  0.24895922880E+04  0.12699999809E+01 0.  1.
       -4    1    3    3    0  502 -0.11221484214E+04 -0.17048600827E+03  0.78378570035E+03  0.13793491927E+04  0.12699999809E+01 0. -1.
</event>
<event>
 5   0  0.2422436E-06  0.3480129E+04  0.7818609E-02  0.8118515E-01
        2   -1    0    0  501    0  0.00000000000E+00  0.00000000000E+00  0.17333890398E+04  0.17333890398E+04  0.25500000920E-02 0. -1.
       -2   -1    0    0    0  501  0.00000000000E+00  0.00000000000E+00 -0.17467659335E+04  0.17467659335E+04  0.25500000920E-02 0.  1.
    10030    2    1    2    0    0  0.00000000000E+00  0.00000000000E+00 -0.13376893780E+02  0.34801549733E+04  0.34801292644E+04 0.  0.
        2    1    3    3  502    0 -0.13835516614E+04  0.36849643672E+02 -0.10613297421E+04  0.17441312787E+04  0.25500000920E-02 0.  1.
       -2    1    3    3    0  502  0.13835516614E+04 -0.36849643672E+02  0.10479528483E+04  0.17360236946E+04  0.25500000920E-02 0. -1.
</event>
<event>
 5   0  0.1513502E-06  0.2066053E+04  0.7818609E-02  0.8576346E-01
        2   -1    0    0  501    0  0.00000000000E+00  0.00000000000E+00  0.11075282532E+04  0.11075282532E+04  0.25500000920E-02 0.  1.
       -2   -1    0    0    0  501  0.00000000000E+00  0.00000000000E+00 -0.96353673117E+03  0.96353673117E+03  0.25500000920E-02 0. -1.
    10030    2    1    2    0    0  0.00000000000E+00  0.00000000000E+00  0.14399152205E+03  0.20710649844E+04  0.20660533902E+04 0.  0.
        3    1    3    3  502    0  0.80847703856E+03 -0.43367388420E+03 -0.40395694942E+03  0.10024417125E+04  0.10100000352E+00 0. -1.
       -3    1    3    3    0  502 -0.80847703856E+03  0.43367388420E+03  0.54794847147E+03  0.10686232719E+04  0.10100000352E+00 0.  1.
</event>
<event>
 5   0  0.1513502E-06  0.3023472E+04  0.7818609E-02  0.8237060E-01
       -2   -1    0    0    0  501  0.00000000000E+00  0.00000000000E+00  0.97702134749E+03  0.97702134749E+03  0.25500000920E-02 0. -1.
        2   -1    0    0  501    0  0.00000000000E+00  0.00000000000E+00 -0.23390943899E+04  0.23390943899E+04  0.25500000920E-02 0.  1.
    10030    2    1    2    0    0  0.00000000000E+00  0.00000000000E+00 -0.13620730425E+04  0.33161157374E+04  0.30234716157E+04 0.  0.
        3    1    3    3  502    0 -0.18537183019E+02  0.13781060691E+04  0.23316702606E+00  0.13782307606E+04  0.10100000352E+00 0. -1.
       -3    1    3    3    0  502  0.18537183019E+02 -0.13781060691E+04 -0.13623062095E+04  0.19378849768E+04  0.10100000352E+00 0.  1.
</event>
<event>
 5   0  0.2382711E-06  0.2308399E+04  0.7818609E-02  0.8474617E-01
        2   -1    0    0  501    0  0.00000000000E+00  0.00000000000E+00  0.16683027681E+04  0.16683027681E+04  0.25500000920E-02 0. -1.
       -2   -1    0    0    0  501  0.00000000000E+00  0.00000000000E+00 -0.79852231611E+03  0.79852231611E+03  0.25500000920E-02 0.  1.
    10030    2    1    2    0    0  0.00000000000E+00  0.00000000000E+00  0.86978045197E+03  0.24668250842E+04  0.23083994371E+04 0.  0.
        5    1    3    3  502    0 -0.24490997994E+03  0.11246664437E+04  0.34359023118E+03  0.12012209809E+04  0.46999998093E+01 0.  1.
       -5    1    3    3    0  502  0.24490997994E+03 -0.11246664437E+04  0.52619022079E+03  0.12656041033E+04  0.46999998093E+01 0. -1.
</event>
<event>
 5   0  0.8452742E-07  0.1920459E+04  0.7818609E-02  0.8644739E-01
       -1   -1    0    0    0  501  0.00000000000E+00  0.00000000000E+00  0.51149219231E+03  0.51149219233E+03  0.50400001928E-02 0. -1.
        1   -1    0    0  501    0  0.00000000000E+00  0.00000000000E+00 -0.18026490253E+04  0.18026490253E+04  0.50400001928E-02 0.  1.
    10030    2    1    2    0    0  0.00000000000E+00  0.00000000000E+00 -0.12911568330E+04  0.23141412176E+04  0.19204592179E+04 0.  0.
        1    1    3    3  502    0 -0.32231378676E+03  0.65621809636E+03  0.10455558817E+03  0.73853925973E+03  0.50400001928E-02 0. -1.
       -1    1    3    3    0  502  0.32231378676E+03 -0.65621809636E+03 -0.13957124211E+04  0.15756019579E+04  0.50400001928E-02 0.  1.
</event>
<event>
 5   0  0.8452742E-07  0.3539953E+04  0.7818609E-02  0.8104386E-01
        1   -1    0    0  501    0  0.00000000000E+00  0.00000000000E+00  0.21636068811E+04  0.21636068811E+04  0.50400001928E-02 0.  1.
       -1   -1    0    0    0  501  0.00000000000E+00  0.00000000000E+00 -0.14479600148E+04  0.14479600148E+04  0.50400001928E-02 0. -1.
    10030    2    1    2    0    0  0.00000000000E+00  0.00000000000E+00  0.71564686625E+03  0.36115668959E+04  0.35399526842E+04 0.  0.
        1    1    3    3  502    0  0.77513603426E+03 -0.74330473321E+03 -0.10775787281E+04  0.15213525934E+04  0.50400001928E-02 0. -1.
       -1    1    3    3    0  502 -0.77513603426E+03  0.74330473321E+03  0.17932255944E+04  0.20902143025E+04  0.50400001928E-02 0.  1.
</event>
<event>
 5   0  0.8452742E-07  0.2064076E+04  0.7818609E-02  0.8577235E-01
       -1   -1    0    0    0  501  0.00000000000E+00  0.00000000000E+00  0.13102214480E+04  0.13102214480E+04  0.50400001928E-02 0. -1.
        1   -1    0    0  501    0  0.00000000000E+00  0.00000000000E+00 -0.81291810888E+03  0.81291810890E+03  0.50400001928E-02 0.  1.
    10030    2    1    2    0    0  0.00000000000E+00  0.00000000000E+00  0.49730333915E+03  0.21231395569E+04  0.20640762988E+04 0.  0.
        1    1    3    3  502    0 -0.78044977873E+03 -0.67413800288E+03  0.20830114329E+03  0.10521184678E+04  0.50400001928E-02 0. -1.
       -1    1    3    3    0  502  0.78044977873E+03  0.67413800288E+03  0.28900219586E+03  0.10710210891E+04  0.50400001928E-02 0.  1.
</event>
<event>
 5   0  0.2536619E-06  0.3592435E+04  0.7818609E-02  0.8092227E-01
       -2   -1    0    0    0  501  0.00000000000E+00  0.00000000000E+00  0.15049345814E+04  0.15049345814E+04  0.25500000920E-02 0.  1.
        2   -1    0    0  501    0  0.00000000000E+00  0.00000000000E+00 -0.21438789595E+04  0.21438789595E+04  0.25500000920E-02 0. -1.
    10030    2    1    2    0    0  0.00000000000E+00  0.00000000000E+00 -0.63894437816E+03  0.36488135409E+04  0.35924351543E+04 0.  0.
        1    1    3    3  502    0  0.14231252411E+04 -0.80000075711E+03  0.44135687441E+03  0.16911778599E+04  0.50400001928E-02 0.  1.
       -1    1    3    3    0  502 -0.14231252411E+04  0.80000075711E+03 -0.10803012526E+04  0.19576356810E+04  0.50400001928E-02 0. -1.
</event>
<event>
 5   0  0.1908273E-06  0.3546360E+04  0.7818609E-02  0.8102890E-01
       -1   -1    0    0    0  501  0.00000000000E+00  0.00000000000E+00  0.17202723470E+04  0.17202723470E+04  0.50400001928E-02 0. -1.
        1   -1    0    0  501    0  0.00000000000E+00  0.00000000000E+00 -0.18277152322E+04  0.18277152322E+04  0.50400001928E-02 0.  1.
    10030    2    1    2    0    0  0.00000000000E+00  0.00000000000E+00 -0.10744288516E+03  0.35479875792E+04  0.35463603721E+04 0.  0.
        3    1    3    3  502    0  0.58520785983E+03 -0.15150887620E+04  0.65808640095E+03  0.17524382777E+04  0.10100000352E+00 0. -1.
       -3    1    3    3    0  502 -0.58520785983E+03  0.15150887620E+04 -0.76552928612E+03  0.17955493015E+04  0.10100000352E+00 0.  1.
</event>
<event>
 5   0  0.2536619E-06  0.3586040E+04  0.7818609E-02  0.8093697E-01
        2   -1    0    0  501    0  0.00000000000E+00  0.00000000000E+00  0.25304620783E+04  0.25304620783E+04  0.25500000920E-02 0.  1.
       -2   -1    0    0    0  501  0.00000000000E+00  0.00000000000E+00 -0.12704873386E+04  0.12704873386E+04  0.25500000920E-02 0. -1.
    10030    2    1    2    0    0  0.00000000000E+00  0.00000000000E+00  0.12599747397E+04  0.38009494169E+04  0.35860396156E+04 0.  0.
        1    1    3    3  502    0 -0.53007147942E+03  0.59885944944E+03  0.23309387524E+04  0.24643221950E+04  0.50400001928E-02 0.  1.
       -1    1    3    3    0  502  0.53007147942E+03 -0.59885944944E+03 -0.10709640127E+04  0.13366272218E+04  0.50400001928E-02 0. -1.
</event>
<event>
 5   0  0.2536619E-06  0.1833421E+04  0.7818609E-02  0.8688726E-01
        2   -1    0    0  501    0  0.00000000000E+00  0.00000000000E+00  0.14828402337E+04  0.14828402337E+04  0.25500000920E-02 0.  1.
       -2   -1    0    0    0  501  0.00000000000E+00  0.00000000000E+00 -0.56672195943E+03  0.56672195943E+03  0.25500000920E-02 0. -1.
    10030    2    1    2    0    0  0.00000000000E+00  0.00000000000E+00  0.91611827431E+03  0.20495621932E+04  0.18334209803E+04 0.  0.
        1    1    3    3  502    0  0.82228249522E+03  0.23588917715E+03  0.89721873975E+02  0.86014081437E+03  0.50400001928E-02 0. -1.
       -1    1    3    3    0  502 -0.82228249522E+03 -0.23588917715E+03  0.82639640033E+03  0.11894213788E+04  0.50400001928E-02 0.  1.
</event>
<event>
 5   0  0.2422436E-06  0.2909752E+04  0.7818609E-02  0.8269982E-01
        2   -1    0    0  501    0  0.00000000000E+00  0.00000000000E+00  0.17053494219E+04  0.17053494219E+04  0.25500000920E-02 0.  1.
       -2   -1    0    0    0  501  0.00000000000E+00  0.00000000000E+00 -0.12411910055E+04  0.12411910055E+04  0.25500000920E-02 0. -1.
    10030    2    1    2    0    0  0.00000000000E+00  0.00000000000E+00  0.46415841649E+03  0.29465404274E+04  0.29097521294E+04 0.  0.
        2    1    3    3  502    0  0.39403676742E+03 -0.74586168661E+03 -0.96827229254E+03  0.12841829551E+04  0.25500000920E-02 0. -1.
       -2    1    3    3    0  502 -0.39403676742E+03  0.74586168661E+03  0.14324307090E+04  0.16623574723E+04  0.25500000920E-02 0.  1.
</event>
<event>
 5   0  0.7707500E-07  0.2292881E+04  0.7818609E-02  0.8480733E-01
        4   -1    0    0  501    0  0.00000000000E+00  0.00000000000E+00  0.15357118680E+04  0.15357123931E+04  0.12699999809E+01 0.  1.
       -4   -1    0    0    0  501  0.00000000000E+00  0.00000000000E+00 -0.85584010712E+03  0.85584104941E+03  0.12699999809E+01 0. -1.
    10030    2    1    2    0    0  0.00000000000E+00  0.00000000000E+00  0.67987176089E+03  0.23915534426E+04  0.22928807770E+04 0.  0.
        1    1    3    3  502    0  0.11084174086E+04 -0.19746352114E+03  0.11442671193E+03  0.11316688854E+04  0.50400001928E-02 0. -1.
       -1    1    3    3    0  502 -0.11084174086E+04  0.19746352114E+03  0.56544504896E+03  0.12598845571E+04  0.50400001928E-02 0.  1.
</event>
<event>
 5   0  0.1513502E-06  0.3561618E+04  0.7818609E-02  0.8099341E-01
       -2   -1    0    0    0  501  0.00000000000E+00  0.00000000000E+00  0.24654975854E+04  0.24654975854E+04  0.25500000920E-02 0.  1.
        2   -1    0    0  501    0  0.00000000000E+00  0.00000000000E+00 -0.12862638191E+04  0.12862638191E+04  0.25500000920E-02 0. -1.
    10030    2    1    2    0    0  0.00000000000E+00  0.00000000000E+00  0.11792337663E+04  0.37517614045E+04  0.35616178011E+04 0.  0.
        3    1    3    3  502    0  0.39338082577E+03 -0.61478678043E+03  0.23007040408E+04  0.24137005516E+04  0.10100000352E+00 0.  1.
       -3    1    3    3    0  502 -0.39338082577E+03  0.61478678043E+03 -0.11214702744E+04  0.13380608529E+04  0.10100000352E+00 0. -1.
</event>
<event>
 5   0  0.1513502E-06  0.3393969E+04  0.7818609E-02  0.8139388E-01
       -2   -1    0    0    0  501  0.00000000000E+00  0.00000000000E+00  0.12258236075E+04  0.12258236075E+04  0.25500000920E-02 0. -1.
        2   -1    0    0  501    0  0.00000000000E+00  0.00000000000E+00 -0.23492418757E+04  0.23492418757E+04  0.25500000920E-02 0.  1.
    10030    2    1    2    0    0  0.00000000000E+00  0.00000000000E+00 -0.11234182682E+04  0.35750654832E+04  0.33939688572E+04 0.  0.
        3    1    3    3  502    0 -0.11871421585E+04  0.14570723247E+03 -0.18297789454E+04  0.21860073424E+04  0.10100000352E+00 0.  1.
       -3    1    3    3    0  502  0.11871421585E+04 -0.14570723247E+03  0.70636067714E+03  0.13890581408E+04  0.10100000352E+00 0. -1.
</event>
<event>
 5   0  0.2536619E-06  0.3542568E+04  0.7818609E-02  0.8103775E-01
       -2   -1    0    0    0  501  0.00000000000E+00  0.00000000000E+00  0.12340389846E+04  0.12340389846E+04  0.25500000920E-02 0.  1.
        2   -1    0    0  501    0  0.00000000000E+00  0.00000000000E+00 -0.25424207609E+04  0.25424207609E+04  0.25500000920E-02 0. -1.
    10030    2    1    2    0    0  0.00000000000E+00  0.00000000000E+00 -0.13083817763E+04  0.37764597455E+04  0.35425676193E+04 0.  0.
        1    1    3    3  502    0  0.26122082056E+03 -0.18830915552E+03 -0.25109543565E+04  0.25315189977E+04  0.50400001928E-02 0. -1.
       -1    1    3    3    0  502 -0.26122082056E+03  0.18830915552E+03  0.12025725802E+04  0.12449407479E+04  0.50400001928E-02 0.  1.
</event>
<event>
 5   0  0.1566576E-06  0.3246764E+04  0.7818609E-02  0.8176575E-01
       -2   -1    0    0    0  501  0.00000000000E+00  0.00000000000E+00  0.11754790855E+04  0.11754790855E+04  0.25500000920E-02 0. -1.
        2   -1    0    0  501    0  0.00000000000E+00  0.00000000000E+00 -0.22419531257E+04  0.22419531257E+04  0.25500000920E-02 0.  1.
    10030    2    1    2    0    0  0.00000000000E+00  0.00000000000E+00 -0.10664740402E+04  0.34174322112E+04  0.32467639335E+04 0.  0.
        4    1    3    3  502    0  0.91067631217E+03 -0.64003783933E+03  0.71056766926E+03  0.13205634429E+04  0.12699999809E+01 0. -1.
       -4    1    3    3    0  502 -0.91067631217E+03  0.64003783933E+03 -0.17770417095E+04  0.20968687683E+04  0.12699999809E+01 0.  1.
</event>
<event>
 5   0  0.7707500E-07  0.1957262E+04  0.7818609E-02  0.8626867E-01
        4   -1    0    0  501    0  0.00000000000E+00  0.00000000000E+00  0.72569935184E+03  0.72570046311E+03  0.12699999809E+01 0. -1.
       -4   -1    0    0    0  501  0.00000000000E+00  0.00000000000E+00 -0.13197158203E+04  0.13197164314E+04  0.12699999809E+01 0.  1.
    10030    2    1    2    0    0  0.00000000000E+00  0.00000000000E+00 -0.59401646850E+03  0.20454168945E+04  0.19572620437E+04 0.  0.
        4    1    3    3  502    0  0.33095630363E+03 -0.45271583810E+03 -0.11351493472E+04  0.12661158550E+04  0.12699999809E+01 0.  1.
       -4    1    3    3    0  502 -0.33095630363E+03  0.45271583810E+03  0.54113287866E+03  0.77930103955E+03  0.12699999809E+01 0. -1.
</event>
<event>
 5   0  0.2382711E-06  0.3576778E+04  0.7818609E-02  0.8095832E-01
       -2   -1    0    0    0  501  0.00000000000E+00  0.00000000000E+00  0.20158931780E+04  0.20158931780E+04  0.25500000920E-02 0.  1.
        2   -1    0    0  501    0  0.00000000000E+00  0.00000000000E+00 -0.15865601238E+04  0.15865601238E+04  0.25500000920E-02 0. -1.
    10030    2    1    2    0    0  0.00000000000E+00  0.00000000000E+00  0.42933305421E+03  0.36024533018E+04  0.35767782878E+04 0.  0.
        5    1    3    3  502    0  0.12965380663E+04 -0.11777165920E+04 -0.14887642846E+03  0.17579003412E+04  0.46999998093E+01 0. -1.
       -5    1    3    3    0  502 -0.12965380663E+04  0.11777165920E+04  0.57820948268E+03  0.18445529606E+04  0.46999998093E+01 0.  1.
</event>
<event>
 5   0  0.1513502E-06  0.3613010E+04  0.7818609E-02  0.8087518E-01
       -2   -1    0    0    0  501  0.00000000000E+00  0.00000000000E+00  0.13477720922E+04  0.13477720923E+04  0.25500000920E-02 0.  1.
        2   -1    0    0  501    0  0.00000000000E+00  0.00000000000E+00 -0.24213745499E+04  0.24213745499E+04  0.25500000920E-02 0. -1.
    10030    2    1    2    0    0  0.00000000000E+00  0.00000000000E+00 -0.10736024576E+04  0.37691466421E+04  0.36130104031E+04 0.  0.
        3    1    3    3  502    0 -0.15364291710E+03  0.12674969760E+04 -0.18700390996E+04  0.22643323463E+04  0.10100000352E+00 0. -1.
       -3    1    3    3    0  502  0.15364291710E+03 -0.12674969760E+04  0.79643664200E+03  0.15048142958E+04  0.10100000352E+00 0.  1.
</event>
<event>
 5   0  0.2536619E-06  0.3557715E+04  0.7818609E-02  0.8100247E-01
       -2   -1    0    0    0  501  0.00000000000E+00  0.00000000000E+00  0.11943394339E+04  0.11943394339E+04  0.25500000920E-02 0. -1.
        2   -1    0    0  501    0  0.00000000000E+00  0.00000000000E+00 -0.26494421249E+04  0.26494421249E+04  0.25500000920E-02 0.  1.
    10030    2    1    2    0    0  0.00000000000E+00  0.00000000000E+00 -0.14551026910E+04  0.38437815589E+04  0.35577145516E+04 0.  0.
        1    1    3    3  502    0  0.51132472268E+03 -0.35697340040E+03  0.10723732870E+04  0.12405109622E+04  0.50400001928E-02 0. -1.
       -1    1    3    3    0  502 -0.51132472268E+03  0.35697340040E+03 -0.25274759779E+04  0.26032705967E+04  0.50400001928E-02 0.  1.
</event>
<event>
 5   0  0.2382711E-06  0.3063981E+04  0.7818609E-02  0.8225693E-01
        2   -1    0    0  501    0  0.00000000000E+00  0.00000000000E+00  0.13040773337E+04  0.13040773337E+04  0.25500000920E-02 0.  1.
       -2   -1    0    0    0  501  0.00000000000E+00  0.00000000000E+00 -0.17997357825E+04  0.17997357825E+04  0.25500000920E-02 0. -1.
    10030    2    1    2    0    0  0.00000000000E+00  0.00000000000E+00 -0.49565844879E+03  0.31038131163E+04  0.30639808359E+04 0.  0.
        5    1    3    3  502    0 -0.53290715900E+03  0.13379829467E+04  0.28124801835E+03  0.14674164179E+04  0.46999998093E+01 0.  1.
       -5    1    3    3    0  502  0.53290715900E+03 -0.13379829467E+04 -0.77690646714E+03  0.16363966984E+04  0.46999998093E+01 0. -1.
</event>
<event>
 5   0  0.1566576E-06  0.3097063E+04  0.7818609E-02  0.8216544E-01
        2   -1    0    0  501    0  0.00000000000E+00  0.00000000000E+00  0.13568162821E+04  0.13568162821E+04  0.25500000920E-02 0. -1.
       -2   -1    0    0    0  501  0.00000000000E+00  0.00000000000E+00 -0.17673355479E+04  0.17673355479E+04  0.25500000920E-02 0.  1.
    10030    2    1    2    0    0  0.00000000000E+00  0.00000000000E+00 -0.41051926581E+03  0.31241518301E+04  0.30970628973E+04 0.  0.
        4    1    3    3  502    0 -0.95593739585E+03 -0.12086349732E+04 -0.35934789218E+03  0.15823233942E+04  0.12699999809E+01 0. -1.
       -4    1    3    3    0  502  0.95593739585E+03  0.12086349732E+04 -0.51171373630E+02  0.15418284359E+04  0.12699999809E+01 0.  1.
</event>
<event>
 5   0  0.8423692E-07  0.2440872E+04  0.7818609E-02  0.8424358E-01
        1   -1    0    0  501    0  0.00000000000E+00  0.00000000000E+00  0.50526552444E+03  0.50526552446E+03  0.50400001928E-02 0. -1.
       -1   -1    0    0    0  501  0.00000000000E+00  0.00000000000E+00 -0.29478826310E+04  0.29478826310E+04  0.50400001928E-02 0.  1.
    10030    2    1    2    0    0  0.00000000000E+00  0.00000000000E+00 -0.24426171065E+04  0.34531481554E+04  0.24408715358E+04 0.  0.
        2    1    3    3  502    0 -0.15530773853E+03 -0.11693545928E+04 -0.77853799990E+03  0.14133761264E+04  0.25500000920E-02 0. -1.
       -2    1    3    3    0  502  0.15530773853E+03  0.11693545928E+04 -0.16640791066E+04  0.20397720291E+04  0.25500000920E-02 0.  1.
</event>
<event>
 5   0  0.8452742E-07  0.3616197E+04  0.7818609E-02  0.8086792E-01
        1   -1    0    0  501    0  0.00000000000E+00  0.00000000000E+00  0.31658395492E+04  0.31658395492E+04  0.50400001928E-02 0. -1.
       -1   -1    0    0    0  501  0.00000000000E+00  0.00000000000E+00 -0.10326551186E+04  0.10326551186E+04  0.50400001928E-02 0.  1.
    10030    2    1    2    0    0  0.00000000000E+00  0.00000000000E+00  0.21331844306E+04  0.41984946678E+04  0.36161971269E+04 0.  0.
        1    1    3    3  502    0  0.78047734895E+03 -0.14604499166E+04  0.19095646590E+04  0.25275474354E+04  0.50400001928E-02 0.  1.
       -1    1    3    3    0  502 -0.78047734895E+03  0.14604499166E+04  0.22361977155E+03  0.16709472324E+04  0.50400001928E-02 0. -1.
</event>
<event>
 5   0  0.2536619E-06  0.3592577E+04  0.7818609E-02  0.8092194E-01
        2   -1    0    0  501    0  0.00000000000E+00  0.00000000000E+00  0.16015145747E+04  0.16015145747E+04  0.25500000920E-02 0. -1.
       -2   -1    0    0    0  501  0.00000000000E+00  0.00000000000E+00 -0.20147507169E+04  0.20147507169E+04  0.25500000920E-02 0.  1.
    10030    2    1    2    0    0  0.00000000000E+00  0.00000000000E+00 -0.41323614217E+03  0.36162652916E+04  0.35925771460E+04 0.  0.
        1    1    3    3  502    0  0.14428126778E+04  0.70800643630E+03  0.60096310163E+03  0.17158491153E+04  0.50400001928E-02 0. -1.
       -1    1    3    3    0  502 -0.14428126778E+04 -0.70800643630E+03 -0.10141992438E+04  0.19004161763E+04  0.50400001928E-02 0.  1.
</event>
<event>
 5   0  0.2382711E-06  0.1823832E+04  0.7818609E-02  0.8693728E-01
        2   -1    0    0  501    0  0.00000000000E+00  0.00000000000E+00  0.18332983848E+04  0.18332983848E+04  0.25500000920E-02 0. -1.
       -2   -1    0    0    0  501  0.00000000000E+00  0.00000000000E+00 -0.45360345715E+03  0.45360345716E+03  0.25500000920E-02 0.  1.
    10030    2    1    2    0    0  0.00000000000E+00  0.00000000000E+00  0.13796949276E+04  0.22869018419E+04  0.18238316647E+04 0.  0.
        5    1    3    3  502    0 -0.45617860676E+02 -0.25408501464E+03 -0.40681533631E+03  0.48183087462E+03  0.46999998093E+01 0.  1.
       -5    1    3    3    0  502  0.45617860676E+02  0.25408501464E+03  0.17865102639E+04  0.18050709673E+04  0.46999998093E+01 0. -1.
</event>
<event>
 5   0  0.2536619E-06  0.1843496E+04  0.7818609E-02  0.8683505E-01
        2   -1    0    0  501    0  0.00000000000E+00  0.00000000000E+00  0.14513937752E+04  0.14513937752E+04  0.25500000920E-02 0.  1.
       -2   -1    0    0    0  501  0.00000000000E+00  0.00000000000E+00 -0.58538165105E+03  0.58538165106E+03  0.25500000920E-02 0. -1.
    10030    2    1    2    0    0  0.00000000000E+00  0.00000000000E+00  0.86601212411E+03  0.20367754262E+04  0.18434959012E+04 0.  0.
        1    1    3    3  502    0  0.53992459446E+03 -0.49639770765E+03  0.10498317153E+04  0.12806544743E+04  0.50400001928E-02 0.  1.
       -1    1    3    3    0  502 -0.53992459446E+03  0.49639770765E+03 -0.18381959123E+03  0.75612095197E+03  0.50400001928E-02 0. -1.
</event>
<event>
 5   0  0.2536619E-06  0.3542599E+04  0.7818609E-02  0.8103768E-01
        2   -1    0    0  501    0  0.00000000000E+00  0.00000000000E+00  0.17179858160E+04  0.17179858160E+04  0.25500000920E-02 0. -1.
       -2   -1    0    0    0  501  0.00000000000E+00  0.00000000000E+00 -0.18262672464E+04  0.18262672464E+04  0.25500000920E-02 0.  1.
    10030    2    1    2    0    0  0.00000000000E+00  0.00000000000E+00 -0.10828143045E+03  0.35442530624E+04  0.35425986087E+04 0.  0.
        1    1    3    3  502    0 -0.20064270274E+03 -0.95180538954E+03 -0.15351395228E+04  0.18173729249E+04  0.50400001928E-02 0.  1.
       -1    1    3    3    0  502  0.20064270274E+03  0.95180538954E+03  0.14268580923E+04  0.17268801375E+04  0.50400001928E-02 0. -1.
</event>
<event>
 5   0  0.7754556E-07  0.3571176E+04  0.7818609E-02  0.8097126E-01
        1   -1    0    0  501    0  0.00000000000E+00  0.00000000000E+00  0.21884111302E+04  0.21884111302E+04  0.50400001928E-02 0. -1.
       -1   -1    0    0    0  501  0.00000000000E+00  0.00000000000E+00 -0.14569125382E+04  0.14569125382E+04  0.50400001928E-02 0.  1.
    10030    2    1    2    0    0  0.00000000000E+00  0.00000000000E+00  0.73149859201E+03  0.36453236683E+04  0.35711755007E+04 0.  0.
        4    1    3    3  502    0 -0.12695191140E+04 -0.11391652692E+04  0.90486842921E+03  0.19308456123E+04  0.12699999809E+01 0. -1.
       -4    1    3    3    0  502  0.12695191140E+04  0.11391652692E+04 -0.17336983720E+03  0.17144780561E+04  0.12699999809E+01 0.  1.
</event>
<event>
 5   0  0.7754556E-07  0.1864923E+04  0.7818609E-02  0.8672516E-01
        1   -1    0    0  501    0  0.00000000000E+00  0.00000000000E+00  0.11083857690E+04  0.11083857690E+04  0.50400001928E-02 0.  1.
       -1   -1    0    0    0  501  0.00000000000E+00  0.00000000000E+00 -0.78446029769E+03  0.78446029771E+03  0.50400001928E-02 0. -1.
    10030    2    1    2    0    0  0.00000000000E+00  0.00000000000E+00  0.32392547127E+03  0.18928460667E+04  0.18649231945E+04 0.  0.
        4    1    3    3  502    0 -0.89003232955E+03 -0.25045668045E+03  0.39336054276E+02  0.92543775290E+03  0.12699999809E+01 0. -1.
       -4    1    3    3    0  502  0.89003232955E+03  0.25045668045E+03  0.28458941699E+03  0.96740831379E+03  0.12699999809E+01 0.  1.
</event>
<event>
 5   0  0.2536619E-06  0.3508579E+04  0.7818609E-02  0.8111760E-01
       -2   -1    0    0    0  501  0.00000000000E+00  0.00000000000E+00  0.16598492270E+04  0.16598492270E+04  0.25500000920E-02 0. -1.
        2   -1    0    0  501    0  0.00000000000E+00  0.00000000000E+00 -0.18541030072E+04  0.18541030072E+04  0.25500000920E-02 0.  1.
    10030    2    1    2    0    0  0.00000000000E+00  0.00000000000E+00 -0.19425378016E+03  0.35139522342E+04  0.35085788823E+04 0.  0.
        1    1    3    3  502    0 -0.42174231485E+03  0.11383736983E+04 -0.13654668533E+04  0.18270908529E+04  0.50400001928E-02 0.  1.
       -1    1    3    3    0  502  0.42174231485E+03 -0.11383736983E+04  0.11712130732E+04  0.16868613813E+04  0.50400001928E-02 0. -1.
</event>
<event>
 5   0  0.2382711E-06  0.3965441E+04  0.7818609E-02  0.8011555E-01
        2   -1    0    0  501    0  0.00000000000E+00  0.00000000000E+00  0.26135313846E+04  0.26135313846E+04  0.25500000920E-02 0.  1.
       -2   -1    0    0    0  501  0.00000000000E+00  0.00000000000E+00 -0.15041640728E+04  0.15041640728E+04  0.25500000920E-02 0. -1.
    10030    2    1    2    0    0  0.00000000000E+00  0.00000000000E+00  0.11093673117E+04  0.41176954574E+04  0.39654407129E+04 0.  0.
        5    1    3    3  502    0  0.16026084396E+04 -0.11628836537E+04  0.66111649678E+03  0.20875222909E+04  0.46999998093E+01 0. -1.
       -5    1    3    3    0  502 -0.16026084396E+04  0.11628836537E+04  0.44825081496E+03  0.20301731665E+04  0.46999998093E+01 0.  1.
</event>
<event>
 5   0  0.7754556E-07  0.1885160E+04  0.7818609E-02  0.8662279E-01
        1   -1    0    0  501    0  0.00000000000E+00  0.00000000000E+00  0.21108158440E+04  0.21108158440E+04  0.50400001928E-02 0. -1.
       -1   -1    0    0    0  501  0.00000000000E+00  0.00000000000E+00 -0.42090698353E+03  0.42090698356E+03  0.50400001928E-02 0.  1.
    10030    2    1    2    0    0  0.00000000000E+00  0.00000000000E+00  0.16899088604E+04  0.25317228275E+04  0.18851600778E+04 0.  0.
        4    1    3    3  502    0 -0.70964118473E+03  0.27433265861E+03  0.15922165319E+04  0.17646541066E+04  0.12699999809E+01 0. -1.
       -4    1    3    3    0  502  0.70964118473E+03 -0.27433265861E+03  0.97692328531E+02  0.76706872091E+03  0.12699999809E+01 0.  1.
</event>
<event>
 5   0  0.2536619E-06  0.3711470E+04  0.7818609E-02  0.8065425E-01
        2   -1    0    0  501    0  0.00000000000E+00  0.00000000000E+00  0.20587852171E+04  0.20587852171E+04  0.25500000920E-02 0.  1.
       -2   -1    0    0    0  501  0.00000000000E+00  0.00000000000E+00 -0.16727109667E+04  0.16727109667E+04  0.25500000920E-02 0. -1.
    10030    2    1    2    0    0  0.00000000000E+00  0.00000000000E+00  0.38607425037E+03  0.37314961837E+04  0.37114701188E+04 0.  0.
        1    1    3    3  502    0  0.93459253715E+03 -0.15555793545E+04  0.58302476329E+03  0.19060976400E+04  0.50400001928E-02 0.  1.
       -1    1    3    3    0  502 -0.93459253715E+03  0.15555793545E+04 -0.19695051292E+03  0.18253985437E+04  0.50400001928E-02 0. -1.
</event>
<event>
 5   0  0.8423692E-07  0.2303717E+04  0.7818609E-02  0.8476457E-01
       -1   -1    0    0    0  501  0.00000000000E+00  0.00000000000E+00  0.84828342613E+03  0.84828342615E+03  0.50400001928E-02 0. -1.
        1   -1    0    0  501    0  0.00000000000E+00  0.00000000000E+00 -0.15640744025E+04  0.15640744025E+04  0.50400001928E-02 0.  1.
    10030    2    1    2    0    0  0.00000000000E+00  0.00000000000E+00 -0.71579097640E+03  0.24123578287E+04  0.23037173376E+04 0.  0.
        2    1    3    3  502    0 -0.10964127128E+04  0.35222716791E+03 -0.38340790327E+03  0.12137489175E+04  0.25500000920E-02 0.  1.
       -2    1    3    3    0  502  0.10964127128E+04 -0.35222716791E+03 -0.33238307313E+03  0.11986089111E+04  0.25500000920E-02 0. -1.
</event>
<event>
 5   0  0.7754556E-07  0.3458386E+04  0.7818609E-02  0.8123723E-01
        1   -1    0    0  501    0  0.00000000000E+00  0.00000000000E+00  0.16398054578E+04  0.16398054578E+04  0.50400001928E-02 0. -1.
       -1   -1    0    0    0  501  0.00000000000E+00  0.00000000000E+00 -0.18234534772E+04  0.18234534772E+04  0.50400001928E-02 0.  1.
    10030    2    1    2    0    0  0.00000000000E+00  0.00000000000E+00 -0.18364801940E+03  0.34632589350E+04  0.34583863081E+04 0.  0.
        4    1    3    3  502    0  0.53153841958E+03  0.74001411020E+03  0.13799246488E+04  0.16535862916E+04  0.12699999809E+01 0. -1.
       -4    1    3    3    0  502 -0.53153841958E+03 -0.74001411020E+03 -0.15635726682E+04  0.18096726434E+04  0.12699999809E+01 0.  1.
</event>
<event>
 5   0  0.9614835E-07  0.1964100E+04  0.7818609E-02  0.8623592E-01
       -1   -1    0    0    0  501  0.00000000000E+00  0.00000000000E+00  0.83660937144E+03  0.83660937146E+03  0.50400001928E-02 0. -1.
        1   -1    0    0  501    0  0.00000000000E+00  0.00000000000E+00 -0.11527745691E+04  0.11527745691E+04  0.50400001928E-02 0.  1.
    10030    2    1    2    0    0  0.00000000000E+00  0.00000000000E+00 -0.31616519764E+03  0.19893839406E+04  0.19640998016E+04 0.  0.
        4    1    3    3  502    0  0.69553211441E+03  0.65087420348E+03 -0.39994144378E+03  0.10331296735E+04  0.12699999809E+01 0.  1.
       -4    1    3    3    0  502 -0.69553211441E+03 -0.65087420348E+03  0.83776246146E+02  0.95625426704E+03  0.12699999809E+01 0. -1.
</event>
<event>
 5   0  0.2422436E-06  0.3467089E+04  0.7818609E-02  0.8121634E-01
        2   -1    0    0  501    0  0.00000000000E+00  0.00000000000E+00  0.27077993452E+04  0.27077993452E+04  0.25500000920E-02 0.  1.
       -2   -1    0    0    0  501  0.00000000000E+00  0.00000000000E+00 -0.11098225205E+04  0.11098225205E+04  0.25500000920E-02 0. -1.
    10030    2    1    2    0    0  0.00000000000E+00  0.00000000000E+00  0.15979768247E+04  0.38176218657E+04  0.34670890927E+04 0.  0.
        2    1    3    3  502    0  0.16994175437E+04 -0.33613970752E+03  0.72791136005E+03  0.18790595624E+04  0.25500000920E-02 0. -1.
       -2    1    3    3    0  502 -0.16994175437E+04  0.33613970752E+03  0.87006546463E+03  0.19385623033E+04  0.25500000920E-02 0.  1.
</event>
<event>
 5   0  0.1566576E-06  0.3515274E+04  0.7818609E-02  0.8110180E-01
       -2   -1    0    0    0  501  0.00000000000E+00  0.00000000000E+00  0.13879007484E+04  0.13879007484E+04  0.25500000920E-02 0.  1.
        2   -1    0    0  501    0  0.00000000000E+00  0.00000000000E+00 -0.22258710910E+04  0.22258710910E+04  0.25500000920E-02 0. -1.
    10030    2    1    2    0    0  0.00000000000E+00  0.00000000000E+00 -0.83797034261E+03  0.36137718394E+04  0.35152741874E+04 0.  0.
        4    1    3    3  502    0 -0.38177449874E+03  0.16005423337E+04  0.21622716423E+03  0.16595913139E+04  0.12699999809E+01 0.  1.
       -4    1    3    3    0  502  0.38177449874E+03 -0.16005423337E+04 -0.10541975068E+04  0.19541805255E+04  0.12699999809E+01 0. -1.
</event>
<event>
 5   0  0.2231423E-06  0.1931361E+04  0.7818609E-02  0.8639401E-01
       -2   -1    0    0    0  501  0.00000000000E+00  0.00000000000E+00  0.44818449894E+03  0.44818449895E+03  0.25500000920E-02 0. -1.
        2   -1    0    0  501    0  0.00000000000E+00  0.00000000000E+00 -0.20807035390E+04  0.20807035390E+04  0.25500000920E-02 0.  1.
    10030    2    1    2    0    0  0.00000000000E+00  0.00000000000E+00 -0.16325190400E+04  0.25288880379E+04  0.19313612537E+04 0.  0.
        3    1    3    3  502    0 -0.20550318210E+03 -0.10957144141E+03 -0.20433820382E+04  0.20566107125E+04  0.10100000352E+00 0.  1.
       -3    1    3    3    0  502  0.20550318210E+03  0.10957144141E+03  0.41086299817E+03  0.47227732540E+03  0.10100000352E+00 0. -1.
</event>
<event>
 5   0  0.8452742E-07  0.2019248E+04  0.7818609E-02  0.8597674E-01
        1   -1    0    0  501    0  0.00000000000E+00  0.00000000000E+00  0.14090947132E+04  0.14090947132E+04  0.50400001928E-02 0.  1.
       -1   -1    0    0    0  501  0.00000000000E+00  0.00000000000E+00 -0.72340097064E+03  0.72340097066E+03  0.50400001928E-02 0. -1.
    10030    2    1    2    0    0  0.00000000000E+00  0.00000000000E+00  0.68569374258E+03  0.21324956839E+04  0.20192478632E+04 0.  0.
        1    1    3    3  502    0 -0.51499351336E+03  0.85373358304E+03  0.17499547925E+03  0.10122760332E+04  0.50400001928E-02 0. -1.
       -1    1    3    3    0  502  0.51499351336E+03 -0.85373358304E+03  0.51069826333E+03  0.11202196507E+04  0.50400001928E-02 0.  1.
</event>
<event>
 5   0  0.1513502E-06  0.3441801E+04  0.7818609E-02  0.8127723E-01
        2   -1    0    0  501    0  0.00000000000E+00  0.00000000000E+00  0.22086979473E+04  0.22086979473E+04  0.25500000920E-02 0.  1.
       -2   -1    0    0    0  501  0.00000000000E+00  0.00000000000E+00 -0.13408342045E+04  0.13408342045E+04  0.25500000920E-02 0. -1.
    10030    2    1    2    0    0  0.00000000000E+00  0.00000000000E+00  0.86786374285E+03  0.35495321518E+04  0.34418005492E+04 0.  0.
        3    1    3    3  502    0 -0.73820673396E+03  0.11363493533E+04 -0.66005373113E+03  0.15072856309E+04  0.10100000352E+00 0. -1.
       -3    1    3    3    0  502  0.73820673396E+03 -0.11363493533E+04  0.15279174740E+04  0.20422465209E+04  0.10100000352E+00 0.  1.
</event>
<event>
 5   0  0.2422436E-06  0.3488242E+04  0.7818609E-02  0.8116582E-01
        2   -1    0    0  501    0  0.00000000000E+00  0.00000000000E+00  0.81995764323E+03  0.81995764323E+03  0.25500000920E-02 0.  1.
       -2   -1    0    0    0  501  0.00000000000E+00  0.00000000000E+00 -0.37098966378E+04  0.37098966378E+04  0.25500000920E-02 0. -1.
    10030    2    1    2    0    0  0.00000000000E+00  0.00000000000E+00 -0.28899389946E+04  0.45298542810E+04  0.34882420236E+04 0.  0.
        2    1    3    3  502    0  0.14187783761E+04 -0.28381563933E+02 -0.27617723329E+04  0.31050159440E+04  0.25500000920E-02 0. -1.
       -2    1    3    3    0  502 -0.14187783761E+04  0.28381563933E+02 -0.12816666168E+03  0.14248383371E+04  0.25500000920E-02 0.  1.
</event>
<event>
 5   0  0.8452742E-07  0.3616355E+04  0.7818609E-02  0.8086756E-01
        1   -1    0    0  501    0  0.00000000000E+00  0.00000000000E+00  0.18976752939E+04  0.18976752939E+04  0.50400001928E-02 0. -1.
       -1   -1    0    0    0  501  0.00000000000E+00  0.00000000000E+00 -0.17229004734E+04  0.17229004734E+04  0.50400001928E-02 0.  1.
    10030    2    1    2    0    0  0.00000000000E+00  0.00000000000E+00  0.17477482046E+03  0.36205757673E+04  0.36163548842E+04 0.  0.
        1    1    3    3  502    0 -0.24787854136E+03  0.13077027601E+04 -0.11379591496E+04  0.17511371466E+04  0.50400001928E-02 0.  1.
       -1    1    3    3    0  502  0.24787854136E+03 -0.13077027601E+04  0.13127339701E+04  0.18694386206E+04  0.50400001928E-02 0. -1.
</event>
<event>
 5   0  0.1513502E-06  0.3266047E+04  0.7818609E-02  0.8171589E-01
        2   -1    0    0  501    0  0.00000000000E+00  0.00000000000E+00  0.16456434601E+04  0.16456434601E+04  0.25500000920E-02 0. -1.
       -2   -1    0    0    0  501  0.00000000000E+00  0.00000000000E+00 -0.16205000573E+04  0.16205000573E+04  0.25500000920E-02 0.  1.
    10030    2    1    2    0    0  0.00000000000E+00  0.00000000000E+00  0.25143402826E+02  0.32661435175E+04  0.32660467367E+04 0.  0.
        3    1    3    3  502    0 -0.10064387084E+04  0.11535454909E+04  0.58107710266E+03  0.16374482230E+04  0.10100000352E+00 0.  1.
       -3    1    3    3    0  502  0.10064387084E+04 -0.11535454909E+04 -0.55593369984E+03  0.16286952945E+04  0.10100000352E+00 0. -1.
</event>
<event>
 5   0  0.7707500E-07  0.2205002E+04  0.7818609E-02  0.8516349E-01
       -3   -1    0    0    0  501  0.00000000000E+00  0.00000000000E+00  0.74928046288E+03  0.74928046968E+03  0.10100000352E+00 0.  1.
        3   -1    0    0  501    0  0.00000000000E+00  0.00000000000E+00 -0.16222341299E+04  0.16222341330E+04  0.10100000352E+00 0. -1.
    10030    2    1    2    0    0  0.00000000000E+00  0.00000000000E+00 -0.87295366699E+03  0.23715146027E+04  0.22050019061E+04 0.  0.
        3    1    3    3  502    0  0.22528181828E+02 -0.70578309964E+03  0.47414351691E+03  0.85055827992E+03  0.10100000352E+00 0.  1.
       -3    1    3    3    0  502 -0.22528181828E+02  0.70578309964E+03 -0.13470971839E+04  0.15209563228E+04  0.10100000352E+00 0. -1.
</event>
<event>
 5   0  0.1513502E-06  0.3768684E+04  0.7818609E-02  0.8052909E-01
       -2   -1    0    0    0  501  0.00000000000E+00  0.00000000000E+00  0.15691973646E+04  0.15691973646E+04  0.25500000920E-02 0. -1.
        2   -1    0    0  501    0  0.00000000000E+00  0.00000000000E+00 -0.22627773488E+04  0.22627773488E+04  0.25500000920E-02 0.  1.
    10030    2    1    2    0    0  0.00000000000E+00  0.00000000000E+00 -0.69357998418E+03  0.38319747133E+04  0.37686837237E+04 0.  0.
        3    1    3    3  502    0 -0.10492703422E+04 -0.10917068224E+04 -0.14872104852E+04  0.21224012520E+04  0.10100000352E+00 0.  1.
       -3    1    3    3    0  502  0.10492703422E+04  0.10917068224E+04  0.79363050098E+03  0.17095734613E+04  0.10100000352E+00 0. -1.
</event>
<event>
 5   0  0.1566576E-06  0.3596859E+04  0.7818609E-02  0.8091212E-01
        2   -1    0    0  501    0  0.00000000000E+00  0.00000000000E+00  0.17309041772E+04  0.17309041772E+04  0.25500000920E-02 0. -1.
       -2   -1    0    0    0  501  0.00000000000E+00  0.00000000000E+00 -0.18685892281E+04  0.18685892281E+04  0.25500000920E-02 0.  1.
    10030    2    1    2    0    0  0.00000000000E+00  0.00000000000E+00 -0.13768505088E+03  0.35994934054E+04  0.35968591301E+04 0.  0.
        4    1    3    3  502    0 -0.14943625830E+04 -0.28503886557E+03  0.89101613673E+03  0.17630309280E+04  0.12699999809E+01 0. -1.
       -4    1    3    3    0  502  0.14943625830E+04  0.28503886557E+03 -0.10287011876E+04  0.18364624773E+04  0.12699999809E+01 0.  1.
</event>
<event>
 5   0  0.1566576E-06  0.3647054E+04  0.7818609E-02  0.8079798E-01
        2   -1    0    0  501    0  0.00000000000E+00  0.00000000000E+00  0.18628105430E+04  0.18628105430E+04  0.25500000920E-02 0.  1.
       -2   -1    0    0    0  501  0.00000000000E+00  0.00000000000E+00 -0.17850717855E+04  0.17850717855E+04  0.25500000920E-02 0. -1.
    10030    2    1    2    0    0  0.00000000000E+00  0.00000000000E+00  0.77738757492E+02  0.36478823286E+04  0.36470539026E+04 0.  0.
        4    1    3    3  502    0  0.96359280949E+01  0.13389621954E+04  0.12770262892E+04  0.18503270976E+04  0.12699999809E+01 0.  1.
       -4    1    3    3    0  502 -0.96359280949E+01 -0.13389621954E+04 -0.11992875317E+04  0.17975552310E+04  0.12699999809E+01 0. -1.
</event>
<event>
 5   0  0.8452742E-07  0.2364248E+04  0.7818609E-02  0.8453011E-01
        1   -1    0    0  501    0  0.00000000000E+00  0.00000000000E+00  0.10426759316E+04  0.10426759316E+04  0.50400001928E-02 0. -1.
       -1   -1    0    0    0  501  0.00000000000E+00  0.00000000000E+00 -0.13402223407E+04  0.13402223407E+04  0.50400001928E-02 0.  1.
    10030    2    1    2    0    0  0.00000000000E+00  0.00000000000E+00 -0.29754640908E+03  0.23828982723E+04  0.23642483606E+04 0.  0.
        1    1    3    3  502    0 -0.77043894131E+03  0.88266141479E+03  0.97898970156E+01  0.11716497674E+04  0.50400001928E-02 0. -1.
       -1    1    3    3    0  502  0.77043894131E+03 -0.88266141479E+03 -0.30733630609E+03  0.12112485049E+04  0.50400001928E-02 0.  1.
</event>
<event>
 5   0  0.8423692E-07  0.3141129E+04  0.7818609E-02  0.8204540E-01
       -1   -1    0    0    0  501  0.00000000000E+00  0.00000000000E+00  0.12338320358E+04  0.12338320358E+04  0.50400001928E-02 0.  1.
        1   -1    0    0  501    0  0.00000000000E+00  0.00000000000E+00 -0.19991969020E+04  0.19991969021E+04  0.50400001928E-02 0. -1.
    10030    2    1    2    0    0  0.00000000000E+00  0.00000000000E+00 -0.76536486624E+03  0.32330289379E+04  0.31411292133E+04 0.  0.
        2    1    3    3  502    0  0.17660707996E+03  0.14010046163E+04  0.32494137508E+03  0.14489965123E+04  0.25500000920E-02 0.  1.
       -2    1    3    3    0  502 -0.17660707996E+03 -0.14010046163E+04 -0.10903062413E+04  0.17840324255E+04  0.25500000920E-02 0. -1.
</event>
<event>
 5   0  0.2536619E-06  0.3604181E+04  0.7818609E-02  0.8089535E-01
        2   -1    0    0  501    0  0.00000000000E+00  0.00000000000E+00  0.18943384419E+04  0.18943384419E+04  0.25500000920E-02 0. -1.
       -2   -1    0    0    0  501  0.00000000000E+00  0.00000000000E+00 -0.17143350853E+04  0.17143350854E+04  0.25500000920E-02 0.  1.
    10030    2    1    2    0    0  0.00000000000E+00  0.00000000000E+00  0.18000335657E+03  0.36086735273E+04  0.36041813797E+04 0.  0.
        1    1    3    3  502    0 -0.46711673446E+03  0.16538194218E+04  0.63309281980E+03  0.18314265593E+04  0.50400001928E-02 0. -1.
       -1    1    3    3    0  502  0.46711673446E+03 -0.16538194218E+04 -0.45308946322E+03  0.17772469680E+04  0.50400001928E-02 0.  1.
</event>
<event>
 5   0  0.7754556E-07  0.2427433E+04  0.7818609E-02  0.8429304E-01
        1   -1    0    0  501    0  0.00000000000E+00  0.00000000000E+00  0.23430292998E+04  0.23430292998E+04  0.50400001928E-02 0.  1.
       -1   -1    0    0    0  501  0.00000000000E+00  0.00000000000E+00 -0.62871914917E+03  0.62871914919E+03  0.50400001928E-02 0. -1.
    10030    2    1    2    0    0  0.00000000000E+00  0.00000000000E+00  0.17143101506E+04  0.29717484490E+04  0.24274327079E+04 0.  0.
        4    1    3    3  502    0 -0.11817863377E+04 -0.20539329778E+03  0.63042216325E+03  0.13550789909E+04  0.12699999809E+01 0. -1.
       -4    1    3    3    0  502  0.11817863377E+04  0.20539329778E+03  0.10838879874E+04  0.16166694581E+04  0.12699999809E+01 0.  1.
</event>
<event>
 5   0  0.1566576E-06  0.3451612E+04  0.7818609E-02  0.8125354E-01
        2   -1    0    0  501    0  0.00000000000E+00  0.00000000000E+00  0.28209758533E+04  0.28209758533E+04  0.25500000920E-02 0.  1.
       -2   -1    0    0    0  501  0.00000000000E+00  0.00000000000E+00 -0.10558071060E+04  0.10558071060E+04  0.25500000920E-02 0. -1.
    10030    2    1    2    0    0  0.00000000000E+00  0.00000000000E+00  0.17651687473E+04  0.38767829593E+04  0.34516120013E+04 0.  0.
        4    1    3    3  502    0  0.12881082041E+04 -0.51195028904E+03  0.20373803785E+04  0.24641907928E+04  0.12699999809E+01 0.  1.
       -4    1    3    3    0  502 -0.12881082041E+04  0.51195028904E+03 -0.27221163120E+03  0.14125921665E+04  0.12699999809E+01 0. -1.
</event>
<event>
 5   0  0.1513502E-06  0.3501432E+04  0.7818609E-02  0.8113451E-01
       -2   -1    0    0    0  501  0.00000000000E+00  0.00000000000E+00  0.17158227784E+04  0.17158227784E+04  0.25500000920E-02 0.  1.
        2   -1    0    0  501    0  0.00000000000E+00  0.00000000000E+00 -0.17863188068E+04  0.17863188068E+04  0.25500000920E-02 0. -1.
    10030    2    1    2    0    0  0.00000000000E+00  0.00000000000E+00 -0.70496028383E+02  0.35021415852E+04  0.35014319918E+04 0.  0.
        3    1    3    3  502    0  0.30430159101E+02 -0.75688324618E+03  0.15434280369E+04  0.17192929821E+04  0.10100000352E+00 0.  1.
       -3    1    3    3    0  502 -0.30430159101E+02  0.75688324618E+03 -0.16139240653E+04  0.17828486031E+04  0.10100000352E+00 0. -1.
</event>
<event>
 5   0  0.1513502E-06  0.3661370E+04  0.7818609E-02  0.8076577E-01
        2   -1    0    0  501    0  0.00000000000E+00  0.00000000000E+00  0.27183072285E+04  0.27183072285E+04  0.25500000920E-02 0. -1.
       -2   -1    0    0    0  501  0.00000000000E+00  0.00000000000E+00 -0.12329023218E+04  0.12329023218E+04  0.25500000920E-02 0.  1.
    10030    2    1    2    0    0  0.00000000000E+00  0.00000000000E+00  0.14854049068E+04  0.39512095503E+04  0.36613698493E+04 0.  0.
        3    1    3    3  502    0 -0.13103939109E+04 -0.13250789345E+03 -0.62945335872E+03  0.14597609683E+04  0.10100000352E+00 0.  1.
       -3    1    3    3    0  502  0.13103939109E+04  0.13250789345E+03  0.21148582655E+04  0.24914485820E+04  0.10100000352E+00 0. -1.
</event>
<event>
 5   0  0.8423692E-07  0.3004998E+04  0.7818609E-02  0.8242305E-01
        1   -1    0    0  501    0  0.00000000000E+00  0.00000000000E+00  0.12624182836E+04  0.12624182836E+04  0.50400001928E-02 0. -1.
       -1   -1    0    0    0  501  0.00000000000E+00  0.00000000000E+00 -0.17882373807E+04  0.17882373807E+04  0.50400001928E-02 0.  1.
    10030    2    1    2    0    0  0.00000000000E+00  0.00000000000E+00 -0.52581909712E+03  0.30506556643E+04  0.30049982129E+04 0.  0.
        2    1    3    3  502    0  0.13021307228E+04 -0.74877639160E+03 -0.29941506304E+03  0.15316200194E+04  0.25500000920E-02 0.  1.
       -2    1    3    3    0  502 -0.13021307228E+04  0.74877639160E+03 -0.22640403408E+03  0.15190356449E+04  0.25500000920E-02 0. -1.
</event>
<event>
 5   0  0.8423692E-07  0.3618116E+04  0.7818609E-02  0.8086355E-01
        1   -1    0    0  501    0  0.00000000000E+00  0.00000000000E+00  0.97845704190E+03  0.97845704192E+03  0.50400001928E-02 0.  1.
       -1   -1    0    0    0  501  0.00000000000E+00  0.00000000000E+00 -0.33447466716E+04  0.33447466716E+04  0.50400001928E-02 0. -1.
    10030    2    1    2    0    0  0.00000000000E+00  0.00000000000E+00 -0.23662896297E+04  0.43232037135E+04  0.36181160480E+04 0.  0.
        2    1    3    3  502    0  0.17642291690E+04  0.14174492565E+03 -0.16303781199E+04  0.24063933591E+04  0.25500000920E-02 0. -1.
       -2    1    3    3    0  502 -0.17642291690E+04 -0.14174492565E+03 -0.73591150977E+03  0.19168103544E+04  0.25500000920E-02 0.  1.
</event>
<event>
 5   0  0.7754556E-07  0.3491253E+04  0.7818609E-02  0.8115866E-01
        1   -1    0    0  501    0  0.00000000000E+00  0.00000000000E+00  0.15190859495E+04  0.15190859495E+04  0.50400001928E-02 0.  1.
       -1   -1    0    0    0  501  0.00000000000E+00  0.00000000000E+00 -0.20059508123E+04  0.20059508123E+04  0.50400001928E-02 0. -1.
    10030    2    1    2    0    0  0.00000000000E+00  0.00000000000E+00 -0.48686486276E+03  0.35250367618E+04  0.34912528950E+04 0.  0.
        4    1    3    3  502    0  0.83684377437E+03 -0.45194123705E+02  0.13026790572E+04  0.15489752582E+04  0.12699999809E+01 0.  1.
       -4    1    3    3    0  502 -0.83684377437E+03  0.45194123705E+02 -0.17895439200E+04  0.19760615036E+04  0.12699999809E+01 0. -1.
</event>
<event>
 5   0  0.1513502E-06  0.3375906E+04  0.7818609E-02  0.8143845E-01
       -2   -1    0    0    0  501  0.00000000000E+00  0.00000000000E+00  0.15856983146E+04  0.15856983146E+04  0.25500000920E-02 0.  1.
        2   -1    0    0  501    0  0.00000000000E+00  0.00000000000E+00 -0.17968017207E+04  0.17968017207E+04  0.25500000920E-02 0. -1.
    10030    2    1    2    0    0  0.00000000000E+00  0.00000000000E+00 -0.21110340615E+03  0.33825000353E+04  0.33759060770E+04 0.  0.
        3    1    3    3  502    0 -0.67022424470E+03  0.11489854612E+04  0.93562058262E+03  0.16262699693E+04  0.10100000352E+00 0.  1.
       -3    1    3    3    0  502  0.67022424470E+03 -0.11489854612E+04 -0.11467239888E+04  0.17562300660E+04  0.10100000352E+00 0. -1.
</event>
<event>
 5   0  0.1566576E-06  0.3365750E+04  0.7818609E-02  0.8146364E-01
       -2   -1    0    0    0  501  0.00000000000E+00  0.00000000000E+00  0.12890651188E+04  0.12890651188E+04  0.25500000920E-02 0. -1.
        2   -1    0    0  501    0  0.00000000000E+00  0.00000000000E+00 -0.21969943148E+04  0.21969943148E+04  0.25500000920E-02 0.  1.
    10030    2    1    2    0    0  0.00000000000E+00  0.00000000000E+00 -0.90792919600E+03  0.34860594336E+04  0.33657502804E+04 0.  0.
        4    1    3    3  502    0  0.14558946434E+04  0.38993062774E+03 -0.12293165178E+04  0.19449667918E+04  0.12699999809E+01 0.  1.
       -4    1    3    3    0  502 -0.14558946434E+04 -0.38993062774E+03  0.32138732181E+03  0.15410926419E+04  0.12699999809E+01 0. -1.
</event>
<event>
 5   0  0.2536619E-06  0.3459860E+04  0.7818609E-02  0.8123369E-01
        2   -1    0    0  501    0  0.00000000000E+00  0.00000000000E+00  0.16373826189E+04  0.16373826189E+04  0.25500000920E-02 0.  1.
       -2   -1    0    0    0  501  0.00000000000E+00  0.00000000000E+00 -0.18277085872E+04  0.18277085872E+04  0.25500000920E-02 0. -1.
    10030    2    1    2    0    0  0.00000000000E+00  0.00000000000E+00 -0.19032596834E+03  0.34650912061E+04  0.34598602707E+04 0.  0.
        1    1    3    3  502    0 -0.10308236651E+04  0.43313257433E+03 -0.14171803118E+04  0.18051596305E+04  0.50400001928E-02 0. -1.
       -1    1    3    3    0  502  0.10308236651E+04 -0.43313257433E+03  0.12268543435E+04  0.16599315756E+04  0.50400001928E-02 0.  1.
</event>
<event>
 5   0  0.2536619E-06  0.3518231E+04  0.7818609E-02  0.8109483E-01
       -2   -1    0    0    0  501  0.00000000000E+00  0.00000000000E+00  0.14275206295E+04  0.14275206295E+04  0.25500000920E-02 0. -1.
        2   -1    0    0  501    0  0.00000000000E+00  0.00000000000E+00 -0.21677358781E+04  0.21677358781E+04  0.25500000920E-02 0.  1.
    10030    2    1    2    0    0  0.00000000000E+00  0.00000000000E+00 -0.74021524862E+03  0.35952565077E+04  0.35182311950E+04 0.  0.
        1    1    3    3  502    0  0.10249201825E+04  0.37772386316E+03 -0.17791908775E+04  0.20877396571E+04  0.50400001928E-02 0.  1.
       -1    1    3    3    0  502 -0.10249201825E+04 -0.37772386316E+03  0.10389756289E+04  0.15075168506E+04  0.50400001928E-02 0. -1.
</event>
<event>
 5   0  0.2382711E-06  0.3636766E+04  0.7818609E-02  0.8082121E-01
       -2   -1    0    0    0  501  0.00000000000E+00  0.00000000000E+00  0.17375877533E+04  0.17375877533E+04  0.25500000920E-02 0. -1.
        2   -1    0    0  501    0  0.00000000000E+00  0.00000000000E+00 -0.19029356143E+04  0.19029356143E+04  0.25500000920E-02 0.  1.
    10030    2    1    2    0    0  0.00000000000E+00  0.00000000000E+00 -0.16534786102E+03  0.36405233677E+04  0.36367664862E+04 0.  0.
        5    1    3    3  502    0  0.15019158850E+04 -0.91932867387E+03 -0.53655051042E+03  0.18408761708E+04  0.46999998093E+01 0. -1.
       -5    1    3    3    0  502 -0.15019158850E+04  0.91932867387E+03  0.37120264940E+03  0.17996471968E+04  0.46999998093E+01 0.  1.
</event>
<event>
 5   0  0.1634374E-06  0.2068251E+04  0.7818609E-02  0.8575359E-01
        1   -1    0    0  501    0  0.00000000000E+00  0.00000000000E+00  0.99940039544E+03  0.99940039546E+03  0.50400001928E-02 0. -1.
       -1   -1    0    0    0  501  0.00000000000E+00  0.00000000000E+00 -0.10700574370E+04  0.10700574370E+04  0.50400001928E-02 0.  1.
    10030    2    1    2    0    0  0.00000000000E+00  0.00000000000E+00 -0.70657041585E+02  0.20694578325E+04  0.20682512669E+04 0.  0.
        5    1    3    3  502    0 -0.48402082513E+03 -0.26684674851E+03  0.83920103358E+03  0.10048700469E+04  0.46999998093E+01 0. -1.
       -5    1    3    3    0  502  0.48402082513E+03  0.26684674851E+03 -0.90985807516E+03  0.10645877856E+04  0.46999998093E+01 0.  1.
</event>
<event>
 5   0  0.1513502E-06  0.2241416E+04  0.7818609E-02  0.8501385E-01
        2   -1    0    0  501    0  0.00000000000E+00  0.00000000000E+00  0.13286774694E+04  0.13286774694E+04  0.25500000920E-02 0. -1.
       -2   -1    0    0    0  501  0.00000000000E+00  0.00000000000E+00 -0.94529053955E+03  0.94529053955E+03  0.25500000920E-02 0.  1.
    10030    2    1    2    0    0  0.00000000000E+00  0.00000000000E+00  0.38338692982E+03  0.22739680089E+04  0.22414158400E+04 0.  0.
        3    1    3    3  502    0 -0.40697295449E+03 -0.87704125293E+03 -0.38324479411E+03  0.10400504447E+04  0.10100000352E+00 0.  1.
       -3    1    3    3    0  502  0.40697295449E+03  0.87704125293E+03  0.76663172393E+03  0.12339175643E+04  0.10100000352E+00 0. -1.
</event>
<event>
 5   0  0.8423692E-07  0.3567443E+04  0.7818609E-02  0.8097990E-01
        1   -1    0    0  501    0  0.00000000000E+00  0.00000000000E+00  0.17440194616E+04  0.17440194616E+04  0.50400001928E-02 0. -1.
       -1   -1    0    0    0  501  0.00000000000E+00  0.00000000000E+00 -0.18243269499E+04  0.18243269499E+04  0.50400001928E-02 0.  1.
    10030    2    1    2    0    0  0.00000000000E+00  0.00000000000E+00 -0.80307488295E+02  0.35683464115E+04  0.35674426162E+04 0.  0.
        2    1    3    3  502    0 -0.11504661289E+03 -0.14942848343E+04  0.92732385488E+03  0.17623996202E+04  0.25500000920E-02 0. -1.
       -2    1    3    3    0  502  0.11504661289E+03  0.14942848343E+04 -0.10076313432E+04  0.18059467913E+04  0.25500000920E-02 0.  1.
</event>
<event>
 5   0  0.2422436E-06  0.2615236E+04  0.7818609E-02  0.8363044E-01
       -2   -1    0    0    0  501  0.00000000000E+00  0.00000000000E+00  0.65925786241E+03  0.65925786242E+03  0.25500000920E-02 0. -1.
        2   -1    0    0  501    0  0.00000000000E+00  0.00000000000E+00 -0.25936212771E+04  0.25936212771E+04  0.25500000920E-02 0.  1.
    10030    2    1    2    0    0  0.00000000000E+00  0.00000000000E+00 -0.19343634147E+04  0.32528791395E+04  0.26152362945E+04 0.  0.
        2    1    3    3  502    0  0.41796448816E+03 -0.70704584933E+03  0.29837350160E+03  0.87386205598E+03  0.25500000920E-02 0. -1.
       -2    1    3    3    0  502 -0.41796448816E+03  0.70704584933E+03 -0.22327369163E+04  0.23790170835E+04  0.25500000920E-02 0.  1.
</event>
<event>
 5   0  0.7754556E-07  0.2335715E+04  0.7818609E-02  0.8463971E-01
       -1   -1    0    0    0  501  0.00000000000E+00  0.00000000000E+00  0.67767290746E+03  0.67767290748E+03  0.50400001928E-02 0.  1.
        1   -1    0    0  501    0  0.00000000000E+00  0.00000000000E+00 -0.20126089877E+04  0.20126089877E+04  0.50400001928E-02 0. -1.
    10030    2    1    2    0    0  0.00000000000E+00  0.00000000000E+00 -0.13349360802E+04  0.26902818951E+04  0.23357145239E+04 0.  0.
        4    1    3    3  502    0  0.87599854043E+03 -0.75590767105E+03 -0.85001737288E+03  0.14357231617E+04  0.12699999809E+01 0.  1.
       -4    1    3    3    0  502 -0.87599854043E+03  0.75590767105E+03 -0.48491870732E+03  0.12545587334E+04  0.12699999809E+01 0. -1.
</event>
<event>
 5   0  0.1513502E-06  0.2564038E+04  0.7818609E-02  0.8380520E-01
       -2   -1    0    0    0  501  0.00000000000E+00  0.00000000000E+00  0.15331145202E+04  0.15331145202E+04  0.25500000920E-02 0. -1.
        2   -1    0    0  501    0  0.00000000000E+00  0.00000000000E+00 -0.10720485602E+04  0.10720485602E+04  0.25500000920E-02 0.  1.
    10030    2    1    2    0    0  0.00000000000E+00  0.00000000000E+00  0.46106596000E+03  0.26051630805E+04  0.25640383883E+04 0.  0.
        3    1    3    3  502    0 -0.54595436977E+03  0.74441870320E+03  0.11343782678E+04  0.14625455357E+04  0.10100000352E+00 0. -1.
       -3    1    3    3    0  502  0.54595436977E+03 -0.74441870320E+03 -0.67331230777E+03  0.11426175447E+04  0.10100000352E+00 0.  1.
</event>
<event>
 5   0  0.1513502E-06  0.4134173E+04  0.7818609E-02  0.7978013E-01
        2   -1    0    0  501    0  0.00000000000E+00  0.00000000000E+00  0.26954787402E+04  0.26954787402E+04  0.25500000920E-02 0.  1.
       -2   -1    0    0    0  501  0.00000000000E+00  0.00000000000E+00 -0.15851905253E+04  0.15851905253E+04  0.25500000920E-02 0. -1.
    10030    2    1    2    0    0  0.00000000000E+00  0.00000000000E+00  0.11102882150E+04  0.42806692655E+04  0.41341733685E+04 0.  0.
        3    1    3    3  502    0 -0.39465347317E+03 -0.19798263849E+04  0.10151658737E+04  0.22596516633E+04  0.10100000352E+00 0.  1.
       -3    1    3    3    0  502  0.39465347317E+03  0.19798263849E+04  0.95122341274E+02  0.20210176022E+04  0.10100000352E+00 0. -1.
</event>
<event>
 5   0  0.7754556E-07  0.3492361E+04  0.7818609E-02  0.8115603E-01
       -1   -1    0    0    0  501  0.00000000000E+00  0.00000000000E+00  0.17934352461E+04  0.17934352461E+04  0.50400001928E-02 0. -1.
        1   -1    0    0  501    0  0.00000000000E+00  0.00000000000E+00 -0.17001709355E+04  0.17001709355E+04  0.50400001928E-02 0.  1.
    10030    2    1    2    0    0  0.00000000000E+00  0.00000000000E+00  0.93264310601E+02  0.34936061816E+04  0.34923610811E+04 0.  0.
        4    1    3    3  502    0 -0.11076449151E+04 -0.10787030223E+04  0.85850476867E+03  0.17684766097E+04  0.12699999809E+01 0. -1.
       -4    1    3    3    0  502  0.11076449151E+04  0.10787030223E+04 -0.76524045807E+03  0.17251295719E+04  0.12699999809E+01 0.  1.
</event>
<event>
 5   0  0.8423692E-07  0.3609610E+04  0.7818609E-02  0.8088294E-01
        1   -1    0    0  501    0  0.00000000000E+00  0.00000000000E+00  0.16561458132E+04  0.16561458132E+04  0.50400001928E-02 0. -1.
       -1   -1    0    0    0  501  0.00000000000E+00  0.00000000000E+00 -0.19668076405E+04  0.19668076405E+04  0.50400001928E-02 0.  1.
    10030    2    1    2    0    0  0.00000000000E+00  0.00000000000E+00 -0.31066182737E+03  0.36229534537E+04  0.36096095297E+04 0.  0.
        2    1    3    3  502    0  0.99092968533E+03  0.14881987709E+04 -0.40249930280E+03  0.18326709775E+04  0.25500000920E-02 0. -1.
       -2    1    3    3    0  502 -0.99092968533E+03 -0.14881987709E+04  0.91837475434E+02  0.17902824763E+04  0.25500000920E-02 0.  1.
</event>
<event>
 5   0  0.7707500E-07  0.2313902E+04  0.7818609E-02  0.8472460E-01
        3   -1    0    0  501    0  0.00000000000E+00  0.00000000000E+00  0.10895406937E+04  0.10895406984E+04  0.10100000352E+00 0.  1.
       -3   -1    0    0    0  501  0.00000000000E+00  0.00000000000E+00 -0.12285325174E+04  0.12285325215E+04  0.10100000352E+00 0. -1.
    10030    2    1    2    0    0  0.00000000000E+00  0.00000000000E+00 -0.13899182363E+03  0.23180732199E+04  0.23139024884E+04 0.  0.
        3    1    3    3  502    0  0.34085070725E+03  0.10795908864E+04  0.16934624401E+03  0.11447156185E+04  0.10100000352E+00 0.  1.
       -3    1    3    3    0  502 -0.34085070725E+03 -0.10795908864E+04 -0.30833806764E+03  0.11733576014E+04  0.10100000352E+00 0. -1.
</event>
<event>
 5   0  0.1634374E-06  0.3630232E+04  0.7818609E-02  0.8083602E-01
        1   -1    0    0  501    0  0.00000000000E+00  0.00000000000E+00  0.15963887976E+04  0.15963887976E+04  0.50400001928E-02 0.  1.
       -1   -1    0    0    0  501  0.00000000000E+00  0.00000000000E+00 -0.20638120982E+04  0.20638120982E+04  0.50400001928E-02 0. -1.
    10030    2    1    2    0    0  0.00000000000E+00  0.00000000000E+00 -0.46742330063E+03  0.36602008958E+04  0.36302322316E+04 0.  0.
        5    1    3    3  502    0 -0.53568844235E+03 -0.71745920038E+03 -0.18256425633E+04  0.20333968305E+04  0.46999998093E+01 0. -1.
       -5    1    3    3    0  502  0.53568844235E+03  0.71745920038E+03  0.13582192626E+04  0.16268040653E+04  0.46999998093E+01 0.  1.
</event>
<event>
 5   0  0.1513502E-06  0.3606180E+04  0.7818609E-02  0.8089078E-01
        2   -1    0    0  501    0  0.00000000000E+00  0.00000000000E+00  0.96805697351E+03  0.96805697352E+03  0.25500000920E-02 0. -1.
       -2   -1    0    0    0  501  0.00000000000E+00  0.00000000000E+00 -0.33584113329E+04  0.33584113329E+04  0.25500000920E-02 0.  1.
    10030    2    1    2    0    0  0.00000000000E+00  0.00000000000E+00 -0.23903543594E+04  0.43264683064E+04  0.36061799793E+04 0.  0.
        3    1    3    3  502    0 -0.12201220768E+04 -0.10545401541E+04 -0.22763491517E+03  0.16286713861E+04  0.10100000352E+00 0. -1.
       -3    1    3    3    0  502  0.12201220768E+04  0.10545401541E+04 -0.21627194442E+04  0.26977969204E+04  0.10100000352E+00 0.  1.
</event>
<event>
 5   0  0.1513502E-06  0.3614874E+04  0.7818609E-02  0.8087093E-01
       -2   -1    0    0    0  501  0.00000000000E+00  0.00000000000E+00  0.16476743370E+04  0.16476743370E+04  0.25500000920E-02 0. -1.
        2   -1    0    0  501    0  0.00000000000E+00  0.00000000000E+00 -0.19826902388E+04  0.19826902388E+04  0.25500000920E-02 0.  1.
    10030    2    1    2    0    0  0.00000000000E+00  0.00000000000E+00 -0.33501590181E+03  0.36303645759E+04  0.36148736215E+04 0.  0.
        3    1    3    3  502    0 -0.11938150270E+04  0.93292322627E+03  0.82225473714E+03  0.17238453898E+04  0.10100000352E+00 0. -1.
       -3    1    3    3    0  502  0.11938150270E+04 -0.93292322627E+03 -0.11572706390E+04  0.19065191861E+04  0.10100000352E+00 0.  1.
</event>
<event>
 5   0  0.1513502E-06  0.3439265E+04  0.7818609E-02  0.8128336E-01
       -2   -1    0    0    0  501  0.00000000000E+00  0.00000000000E+00  0.16606236936E+04  0.16606236936E+04  0.25500000920E-02 0. -1.
        2   -1    0    0  501    0  0.00000000000E+00  0.00000000000E+00 -0.17807378757E+04  0.17807378757E+04  0.25500000920E-02 0.  1.
    10030    2    1    2    0    0  0.00000000000E+00  0.00000000000E+00 -0.12011418204E+03  0.34413615693E+04  0.34392647519E+04 0.  0.
        3    1    3    3  502    0  0.14004215001E+04  0.95130119100E+03  0.24175764525E+03  0.17101465152E+04  0.10100000352E+00 0.  1.
       -3    1    3    3    0  502 -0.14004215001E+04 -0.95130119100E+03 -0.36187182729E+03  0.17312150541E+04  0.10100000352E+00 0. -1.
</event>
<event>
 5   0  0.1513502E-06  0.3562176E+04  0.7818609E-02  0.8099211E-01
       -2   -1    0    0    0  501  0.00000000000E+00  0.00000000000E+00  0.17419707656E+04  0.17419707656E+04  0.25500000920E-02 0.  1.
        2   -1    0    0  501    0  0.00000000000E+00  0.00000000000E+00 -0.18210834071E+04  0.18210834071E+04  0.25500000920E-02 0. -1.
    10030    2    1    2    0    0  0.00000000000E+00  0.00000000000E+00 -0.79112641515E+02  0.35630541727E+04  0.35621757716E+04 0.  0.
        3    1    3    3  502    0 -0.24796768324E+03 -0.15776140168E+04 -0.82836988964E+03  0.17990415899E+04  0.10100000352E+00 0. -1.
       -3    1    3    3    0  502  0.24796768324E+03  0.15776140168E+04  0.74925724813E+03  0.17640125828E+04  0.10100000352E+00 0.  1.
</event>
<event>
 5   0  0.2382711E-06  0.3520798E+04  0.7818609E-02  0.8108879E-01
       -2   -1    0    0    0  501  0.00000000000E+00  0.00000000000E+00  0.11682100507E+04  0.11682100507E+04  0.25500000920E-02 0. -1.
        2   -1    0    0  501    0  0.00000000000E+00  0.00000000000E+00 -0.26527803246E+04  0.26527803246E+04  0.25500000920E-02 0.  1.
    10030    2    1    2    0    0  0.00000000000E+00  0.00000000000E+00 -0.14845702739E+04  0.38209903753E+04  0.35207979990E+04 0.  0.
        5    1    3    3  502    0 -0.12246957806E+04  0.45548377018E+03 -0.20225442315E+04  0.24079145496E+04  0.46999998093E+01 0.  1.
       -5    1    3    3    0  502  0.12246957806E+04 -0.45548377018E+03  0.53797395758E+03  0.14130758256E+04  0.46999998093E+01 0. -1.
</event>
<event>
 5   0  0.1513502E-06  0.2549094E+04  0.7818609E-02  0.8385701E-01
       -2   -1    0    0    0  501  0.00000000000E+00  0.00000000000E+00  0.60622901702E+03  0.60622901702E+03  0.25500000920E-02 0. -1.
        2   -1    0    0  501    0  0.00000000000E+00  0.00000000000E+00 -0.26796307607E+04  0.26796307607E+04  0.25500000920E-02 0.  1.
    10030    2    1    2    0    0  0.00000000000E+00  0.00000000000E+00 -0.20734017437E+04  0.32858597777E+04  0.25490938955E+04 0.  0.
        3    1    3    3  502    0 -0.32438398911E+03 -0.12133931422E+04 -0.75747763786E+03  0.14667379697E+04  0.10100000352E+00 0.  1.
       -3    1    3    3    0  502  0.32438398911E+03  0.12133931422E+04 -0.13159241058E+04  0.18191218080E+04  0.10100000352E+00 0. -1.
</event>
<event>
 5   0  0.1675752E-06  0.1821778E+04  0.7818609E-02  0.8694803E-01
        2   -1    0    0  501    0  0.00000000000E+00  0.00000000000E+00  0.93109787173E+03  0.93109787173E+03  0.25500000920E-02 0.  1.
       -2   -1    0    0    0  501  0.00000000000E+00  0.00000000000E+00 -0.89111915499E+03  0.89111915499E+03  0.25500000920E-02 0. -1.
    10030    2    1    2    0    0  0.00000000000E+00  0.00000000000E+00  0.39978716744E+02  0.18222170267E+04  0.18217784154E+04 0.  0.
        4    1    3    3  502    0  0.53934415361E+03  0.50170831662E+03  0.55594873429E+03  0.92286724888E+03  0.12699999809E+01 0.  1.
       -4    1    3    3    0  502 -0.53934415361E+03 -0.50170831662E+03 -0.51597001755E+03  0.89934977784E+03  0.12699999809E+01 0. -1.
</event>
<event>
 5   0  0.1513502E-06  0.3228126E+04  0.7818609E-02  0.8181429E-01
        2   -1    0    0  501    0  0.00000000000E+00  0.00000000000E+00  0.17352362282E+04  0.17352362282E+04  0.25500000920E-02 0.  1.
       -2   -1    0    0    0  501  0.00000000000E+00  0.00000000000E+00 -0.15013509650E+04  0.15013509650E+04  0.25500000920E-02 0. -1.
    10030    2    1    2    0    0  0.00000000000E+00  0.00000000000E+00  0.23388526320E+03  0.32365871932E+04  0.32281255153E+04 0.  0.
        3    1    3    3  502    0  0.11110873670E+04  0.19169248560E+03  0.12749321495E+04  0.17019733083E+04  0.10100000352E+00 0.  1.
       -3    1    3    3    0  502 -0.11110873670E+04 -0.19169248560E+03 -0.10410468863E+04  0.15346138849E+04  0.10100000352E+00 0. -1.
</event>
<event>
 5   0  0.2382711E-06  0.2275595E+04  0.7818609E-02  0.8487606E-01
       -2   -1    0    0    0  501  0.00000000000E+00  0.00000000000E+00  0.17869349795E+04  0.17869349795E+04  0.25500000920E-02 0.  1.
        2   -1    0    0  501    0  0.00000000000E+00  0.00000000000E+00 -0.72447143304E+03  0.72447143304E+03  0.25500000920E-02 0. -1.
    10030    2    1    2    0    0  0.00000000000E+00  0.00000000000E+00  0.10624635465E+04  0.25114064125E+04  0.22755951708E+04 0.  0.
        5    1    3    3  502    0 -0.92560665974E+03 -0.19257959226E+02  0.12611640717E+04  0.15645048621E+04  0.46999998093E+01 0.  1.
       -5    1    3    3    0  502  0.92560665974E+03  0.19257959226E+02 -0.19870052529E+03  0.94690155048E+03  0.46999998093E+01 0. -1.
</event>
<event>
 5   0  0.2422436E-06  0.3721130E+04  0.7818609E-02  0.8063295E-01
       -2   -1    0    0    0  501  0.00000000000E+00  0.00000000000E+00  0.13579951238E+04  0.13579951238E+04  0.25500000920E-02 0.  1.
        2   -1    0    0  501    0  0.00000000000E+00  0.00000000000E+00 -0.25491277398E+04  0.25491277398E+04  0.25500000920E-02 0. -1.
    10030    2    1    2    0    0  0.00000000000E+00  0.00000000000E+00 -0.11911326160E+04  0.39071228636E+04  0.37211304952E+04 0.  0.
        2    1    3    3  502    0  0.54733735101E+03 -0.16362736376E+04 -0.13265937192E+04  0.21764237842E+04  0.25500000920E-02 0. -1.
       -2    1    3    3    0  502 -0.54733735101E+03  0.16362736376E+04  0.13546110323E+03  0.17306990794E+04  0.25500000920E-02 0.  1.
</event>
<event>
 5   0  0.8423692E-07  0.2529711E+04  0.7818609E-02  0.8392476E-01
        1   -1    0    0  501    0  0.00000000000E+00  0.00000000000E+00  0.17832046466E+04  0.17832046466E+04  0.50400001928E-02 0. -1.
       -1   -1    0    0    0  501  0.00000000000E+00  0.00000000000E+00 -0.89718251376E+03  0.89718251378E+03  0.50400001928E-02 0.  1.
    10030    2    1    2    0    0  0.00000000000E+00  0.00000000000E+00  0.88602213282E+03  0.26803871604E+04  0.25297114677E+04 0.  0.
        2    1    3    3  502    0 -0.53592831285E+03  0.11440329252E+04  0.37744189798E+03  0.13185191985E+04  0.25500000920E-02 0. -1.
       -2    1    3    3    0  502  0.53592831285E+03 -0.11440329252E+04  0.50858023484E+03  0.13618679619E+04  0.25500000920E-02 0.  1.
</event>
<event>
 5   0  0.8423692E-07  0.2046622E+04  0.7818609E-02  0.8585128E-01
        1   -1    0    0  501    0  0.00000000000E+00  0.00000000000E+00  0.19796244334E+04  0.19796244334E+04  0.50400001928E-02 0.  1.
       -1   -1    0    0    0  501  0.00000000000E+00  0.00000000000E+00 -0.52897193754E+03  0.52897193757E+03  0.50400001928E-02 0. -1.
    10030    2    1    2    0    0  0.00000000000E+00  0.00000000000E+00  0.14506524959E+04  0.25085963710E+04  0.20466223611E+04 0.  0.
        2    1    3    3  502    0  0.21827133231E+03  0.95100193646E+03  0.11033560693E+04  0.14729024657E+04  0.25500000920E-02 0.  1.
       -2    1    3    3    0  502 -0.21827133231E+03 -0.95100193646E+03  0.34729642658E+03  0.10356939053E+04  0.25500000920E-02 0. -1.
</event>
<event>
 5   0  0.1566576E-06  0.3241013E+04  0.7818609E-02  0.8178069E-01
       -2   -1    0    0    0  501  0.00000000000E+00  0.00000000000E+00  0.15324959198E+04  0.15324959198E+04  0.25500000920E-02 0.  1.
        2   -1    0    0  501    0  0.00000000000E+00  0.00000000000E+00 -0.17135712589E+04  0.17135712589E+04  0.25500000920E-02 0. -1.
    10030    2    1    2    0    0  0.00000000000E+00  0.00000000000E+00 -0.18107533905E+03  0.32460671787E+04  0.32410127815E+04 0.  0.
        4    1    3    3  502    0  0.13499328583E+04 -0.88835963527E+03  0.30223106912E+02  0.16162971919E+04  0.12699999809E+01 0. -1.
       -4    1    3    3    0  502 -0.13499328583E+04  0.88835963527E+03 -0.21129844596E+03  0.16297699867E+04  0.12699999809E+01 0.  1.
</event>
<event>
 5   0  0.8452742E-07  0.2338877E+04  0.7818609E-02  0.8462748E-01
       -1   -1    0    0    0  501  0.00000000000E+00  0.00000000000E+00  0.14338693461E+04  0.14338693461E+04  0.50400001928E-02 0. -1.
        1   -1    0    0  501    0  0.00000000000E+00  0.00000000000E+00 -0.95377300333E+03  0.95377300334E+03  0.50400001928E-02 0.  1.
    10030    2    1    2    0    0  0.00000000000E+00  0.00000000000E+00  0.48009634281E+03  0.23876423495E+04  0.23388765446E+04 0.  0.
        1    1    3    3  502    0 -0.91196468749E+03 -0.24445693973E+03 -0.46437322702E+03  0.10521793006E+04  0.50400001928E-02 0.  1.
       -1    1    3    3    0  502  0.91196468749E+03  0.24445693973E+03  0.94446956982E+03  0.13354630489E+04  0.50400001928E-02 0. -1.
</event>
<event>
 5   0  0.2382711E-06  0.2090120E+04  0.7818609E-02  0.8565608E-01
       -2   -1    0    0    0  501  0.00000000000E+00  0.00000000000E+00  0.70688685396E+03  0.70688685397E+03  0.25500000920E-02 0. -1.
        2   -1    0    0  501    0  0.00000000000E+00  0.00000000000E+00 -0.15450144214E+04  0.15450144214E+04  0.25500000920E-02 0.  1.
    10030    2    1    2    0    0  0.00000000000E+00  0.00000000000E+00 -0.83812756745E+03  0.22519012754E+04  0.20901199809E+04 0.  0.
        5    1    3    3  502    0  0.77877467209E+03 -0.22479438978E+03  0.29161861449E+03  0.86144414437E+03  0.46999998093E+01 0. -1.
       -5    1    3    3    0  502 -0.77877467209E+03  0.22479438978E+03 -0.11297461819E+04  0.13904571310E+04  0.46999998093E+01 0.  1.
</event>
<event>
 5   0  0.2536619E-06  0.3412301E+04  0.7818609E-02  0.8134894E-01
        2   -1    0    0  501    0  0.00000000000E+00  0.00000000000E+00  0.19631721659E+04  0.19631721659E+04  0.25500000920E-02 0. -1.
       -2   -1    0    0    0  501  0.00000000000E+00  0.00000000000E+00 -0.14827782672E+04  0.14827782672E+04  0.25500000920E-02 0.  1.
    10030    2    1    2    0    0  0.00000000000E+00  0.00000000000E+00  0.48039389866E+03  0.34459504332E+04  0.34123007033E+04 0.  0.
        1    1    3    3  502    0  0.11956493814E+04 -0.22738493535E+03  0.14476750940E+04  0.18913076244E+04  0.50400001928E-02 0. -1.
       -1    1    3    3    0  502 -0.11956493814E+04  0.22738493535E+03 -0.96728119537E+03  0.15546428088E+04  0.50400001928E-02 0.  1.
</event>
<event>
 5   0  0.1513502E-06  0.2199560E+04  0.7818609E-02  0.8518611E-01
       -2   -1    0    0    0  501  0.00000000000E+00  0.00000000000E+00  0.80404622206E+03  0.80404622207E+03  0.25500000920E-02 0.  1.
        2   -1    0    0  501    0  0.00000000000E+00  0.00000000000E+00 -0.15042872296E+04  0.15042872296E+04  0.25500000920E-02 0. -1.
    10030    2    1    2    0    0  0.00000000000E+00  0.00000000000E+00 -0.70024100750E+03  0.23083334516E+04  0.21995603777E+04 0.  0.
        3    1    3    3  502    0 -0.78918839779E+02 -0.75310833184E+03  0.48688989774E+03  0.90025669977E+03  0.10100000352E+00 0.  1.
       -3    1    3    3    0  502  0.78918839779E+02  0.75310833184E+03 -0.11871309052E+04  0.14080767519E+04  0.10100000352E+00 0. -1.
</event>
<event>
 5   0  0.1566576E-06  0.2459092E+04  0.7818609E-02  0.8417706E-01
       -2   -1    0    0    0  501  0.00000000000E+00  0.00000000000E+00  0.70549014414E+03  0.70549014415E+03  0.25500000920E-02 0. -1.
        2   -1    0    0  501    0  0.00000000000E+00  0.00000000000E+00 -0.21428829367E+04  0.21428829367E+04  0.25500000920E-02 0.  1.
    10030    2    1    2    0    0  0.00000000000E+00  0.00000000000E+00 -0.14373927926E+04  0.28483730808E+04  0.24590915330E+04 0.  0.
        4    1    3    3  502    0  0.79058447588E+03 -0.45625650036E+03  0.23547208114E+03  0.94267837650E+03  0.12699999809E+01 0. -1.
       -4    1    3    3    0  502 -0.79058447588E+03  0.45625650036E+03 -0.16728648737E+04  0.19056947043E+04  0.12699999809E+01 0.  1.
</event>
<event>
 5   0  0.7754556E-07  0.3561614E+04  0.7818609E-02  0.8099342E-01
       -1   -1    0    0    0  501  0.00000000000E+00  0.00000000000E+00  0.11299464283E+04  0.11299464283E+04  0.50400001928E-02 0. -1.
        1   -1    0    0  501    0  0.00000000000E+00  0.00000000000E+00 -0.28065696719E+04  0.28065696719E+04  0.50400001928E-02 0.  1.
    10030    2    1    2    0    0  0.00000000000E+00  0.00000000000E+00 -0.16766232436E+04  0.39365161003E+04  0.35616138907E+04 0.  0.
        4    1    3    3  502    0 -0.10504036732E+03  0.86465705677E+03  0.87844384365E+03  0.12370652788E+04  0.12699999809E+01 0. -1.
       -4    1    3    3    0  502  0.10504036732E+03 -0.86465705677E+03 -0.25550670872E+04  0.26994508215E+04  0.12699999809E+01 0.  1.
</event>
<event>
 5   0  0.1566576E-06  0.3597018E+04  0.7818609E-02  0.8091175E-01
       -2   -1    0    0    0  501  0.00000000000E+00  0.00000000000E+00  0.92212158545E+03  0.92212158545E+03  0.25500000920E-02 0.  1.
        2   -1    0    0  501    0  0.00000000000E+00  0.00000000000E+00 -0.35078181509E+04  0.35078181509E+04  0.25500000920E-02 0. -1.
    10030    2    1    2    0    0  0.00000000000E+00  0.00000000000E+00 -0.25856965654E+04  0.44299397363E+04  0.35970181177E+04 0.  0.
        4    1    3    3  502    0  0.46311027650E+03 -0.15504666569E+04 -0.22596143759E+04  0.27792583045E+04  0.12699999809E+01 0. -1.
       -4    1    3    3    0  502 -0.46311027650E+03  0.15504666569E+04 -0.32608218954E+03  0.16506814319E+04  0.12699999809E+01 0.  1.
</event>
<event>
 5   0  0.8452742E-07  0.2144298E+04  0.7818609E-02  0.8541977E-01
        1   -1    0    0  501    0  0.00000000000E+00  0.00000000000E+00  0.16180427966E+04  0.16180427966E+04  0.50400001928E-02 0. -1.
       -1   -1    0    0    0  501  0.00000000000E+00  0.00000000000E+00 -0.71042855591E+03  0.71042855593E+03  0.50400001928E-02 0.  1.
    10030    2    1    2    0    0  0.00000000000E+00  0.00000000000E+00  0.90761424069E+03  0.23284713525E+04  0.21442983071E+04 0.  0.
        1    1    3    3  502    0  0.45849584147E+02  0.10711318270E+04  0.44420253663E+03  0.11604919081E+04  0.50400001928E-02 0. -1.
       -1    1    3    3    0  502 -0.45849584147E+02 -0.10711318270E+04  0.46341170406E+03  0.11679794445E+04  0.50400001928E-02 0.  1.
</event>
<event>
 5   0  0.1513502E-06  0.3626106E+04  0.7818609E-02  0.8084538E-01
        2   -1    0    0  501    0  0.00000000000E+00  0.00000000000E+00  0.20742382306E+04  0.20742382306E+04  0.25500000920E-02 0. -1.
       -2   -1    0    0    0  501  0.00000000000E+00  0.00000000000E+00 -0.15847555286E+04  0.15847555286E+04  0.25500000920E-02 0.  1.
    10030    2    1    2    0    0  0.00000000000E+00  0.00000000000E+00  0.48948270196E+03  0.36589937592E+04  0.36261056264E+04 0.  0.
        3    1    3    3  502    0  0.22094694964E+03  0.94302122966E+03  0.17913046823E+04  0.20363887324E+04  0.10100000352E+00 0. -1.
       -3    1    3    3    0  502 -0.22094694964E+03 -0.94302122966E+03 -0.13018219804E+04  0.16226050268E+04  0.10100000352E+00 0.  1.
</event>
<event>
 5   0  0.1513502E-06  0.3581822E+04  0.7818609E-02  0.8094668E-01
        2   -1    0    0  501    0  0.00000000000E+00  0.00000000000E+00  0.20333973496E+04  0.20333973496E+04  0.25500000920E-02 0.  1.
       -2   -1    0    0    0  501  0.00000000000E+00  0.00000000000E+00 -0.15773419734E+04  0.15773419734E+04  0.25500000920E-02 0. -1.
    10030    2    1    2    0    0  0.00000000000E+00  0.00000000000E+00  0.45605537620E+03  0.36107393229E+04  0.35818224345E+04 0.  0.
        3    1    3    3  502    0 -0.59249474762E+03 -0.71365312168E+03  0.17723919908E+04  0.20004309993E+04  0.10100000352E+00 0.  1.
       -3    1    3    3    0  502  0.59249474762E+03  0.71365312168E+03 -0.13163366146E+04  0.16103083236E+04  0.10100000352E+00 0. -1.
</event>
<event>
 5   0  0.7754556E-07  0.3578628E+04  0.7818609E-02  0.8095405E-01
        1   -1    0    0  501    0  0.00000000000E+00  0.00000000000E+00  0.17454091703E+04  0.17454091703E+04  0.50400001928E-02 0. -1.
       -1   -1    0    0    0  501  0.00000000000E+00  0.00000000000E+00 -0.18343234904E+04  0.18343234904E+04  0.50400001928E-02 0.  1.
    10030    2    1    2    0    0  0.00000000000E+00  0.00000000000E+00 -0.88914320099E+02  0.35797326607E+04  0.35786282520E+04 0.  0.
        4    1    3    3  502    0 -0.27262130641E+03  0.16937880091E+04 -0.55294781825E+03  0.18024963520E+04  0.12699999809E+01 0.  1.
       -4    1    3    3    0  502  0.27262130641E+03 -0.16937880091E+04  0.46403349815E+03  0.17772363087E+04  0.12699999809E+01 0. -1.
</event>
<event>
 5   0  0.7754556E-07  0.3653020E+04  0.7818609E-02  0.8078454E-01
        1   -1    0    0  501    0  0.00000000000E+00  0.00000000000E+00  0.28736420521E+04  0.28736420521E+04  0.50400001928E-02 0. -1.
       -1   -1    0    0    0  501  0.00000000000E+00  0.00000000000E+00 -0.11609441446E+04  0.11609441446E+04  0.50400001928E-02 0.  1.
    10030    2    1    2    0    0  0.00000000000E+00  0.00000000000E+00  0.17126979075E+04  0.40345861967E+04  0.36530195258E+04 0.  0.
        4    1    3    3  502    0  0.11053532283E+04 -0.13509933070E+04  0.26245784926E+03  0.17651839594E+04  0.12699999809E+01 0.  1.
       -4    1    3    3    0  502 -0.11053532283E+04  0.13509933070E+04  0.14502400582E+04  0.22694022372E+04  0.12699999809E+01 0. -1.
</event>
<event>
 5   0  0.2536619E-06  0.3580934E+04  0.7818609E-02  0.8094873E-01
       -2   -1    0    0    0  501  0.00000000000E+00  0.00000000000E+00  0.22334529498E+04  0.22334529498E+04  0.25500000920E-02 0. -1.
        2   -1    0    0  501    0  0.00000000000E+00  0.00000000000E+00 -0.14353431906E+04  0.14353431906E+04  0.25500000920E-02 0.  1.
    10030    2    1    2    0    0  0.00000000000E+00  0.00000000000E+00  0.79810975916E+03  0.36687961404E+04  0.35809336677E+04 0.  0.
        1    1    3    3  502    0 -0.27202905776E+03  0.17589707941E+04  0.59823014425E+03  0.18777266490E+04  0.50400001928E-02 0.  1.
       -1    1    3    3    0  502  0.27202905776E+03 -0.17589707941E+04  0.19987961491E+03  0.17910694915E+04  0.50400001928E-02 0. -1.
</event>
<event>
 5   0  0.8423692E-07  0.3774568E+04  0.7818609E-02  0.8051635E-01
       -1   -1    0    0    0  501  0.00000000000E+00  0.00000000000E+00  0.15206073845E+04  0.15206073845E+04  0.50400001928E-02 0.  1.
        1   -1    0    0  501    0  0.00000000000E+00  0.00000000000E+00 -0.23423798574E+04  0.23423798574E+04  0.50400001928E-02 0. -1.
    10030    2    1    2    0    0  0.00000000000E+00  0.00000000000E+00 -0.82177247292E+03  0.38629872419E+04  0.37745675823E+04 0.  0.
        2    1    3    3  502    0 -0.59996483829E+03  0.93624592146E+03  0.11497366816E+04  0.15995026320E+04  0.25500000920E-02 0.  1.
       -2    1    3    3    0  502  0.59996483829E+03 -0.93624592146E+03 -0.19715091546E+04  0.22634846099E+04  0.25500000920E-02 0. -1.
</event>
<event>
 5   0  0.1513502E-06  0.3598458E+04  0.7818609E-02  0.8090845E-01
       -2   -1    0    0    0  501  0.00000000000E+00  0.00000000000E+00  0.20106167544E+04  0.20106167544E+04  0.25500000920E-02 0.  1.
        2   -1    0    0  501    0  0.00000000000E+00  0.00000000000E+00 -0.16100660447E+04  0.16100660447E+04  0.25500000920E-02 0. -1.
    10030    2    1    2    0    0  0.00000000000E+00  0.00000000000E+00  0.40055070964E+03  0.36206827991E+04  0.35984584284E+04 0.  0.
        3    1    3    3  502    0 -0.14994382960E+04 -0.88875695607E+03  0.64914901558E+03  0.18599996196E+04  0.10100000352E+00 0.  1.
       -3    1    3    3    0  502  0.14994382960E+04  0.88875695607E+03 -0.24859830595E+03  0.17606831794E+04  0.10100000352E+00 0. -1.
</event>
<event>
 5   0  0.2382711E-06  0.3652415E+04  0.7818609E-02  0.8078590E-01
       -2   -1    0    0    0  501  0.00000000000E+00  0.00000000000E+00  0.12852363197E+04  0.12852363197E+04  0.25500000920E-02 0. -1.
        2   -1    0    0  501    0  0.00000000000E+00  0.00000000000E+00 -0.25948803372E+04  0.25948803372E+04  0.25500000920E-02 0.  1.
    10030    2    1    2    0    0  0.00000000000E+00  0.00000000000E+00 -0.13096440175E+04  0.38801166570E+04  0.36524153404E+04 0.  0.
        5    1    3    3  502    0 -0.34598704444E+03  0.15651097914E+04  0.27479561315E+03  0.16262873095E+04  0.46999998093E+01 0.  1.
       -5    1    3    3    0  502  0.34598704444E+03 -0.15651097914E+04 -0.15844396307E+04  0.22538293474E+04  0.46999998093E+01 0. -1.
</event>
<event>
 5   0  0.1634374E-06  0.2448443E+04  0.7818609E-02  0.8421587E-01
        1   -1    0    0  501    0  0.00000000000E+00  0.00000000000E+00  0.10716140651E+04  0.10716140652E+04  0.50400001928E-02 0.  1.
       -1   -1    0    0    0  501  0.00000000000E+00  0.00000000000E+00 -0.13985619979E+04  0.13985619979E+04  0.50400001928E-02 0. -1.
    10030    2    1    2    0    0  0.00000000000E+00  0.00000000000E+00 -0.32694793275E+03  0.24701760631E+04  0.24484433487E+04 0.  0.
        5    1    3    3  502    0  0.94481118794E+03  0.56602303814E+03 -0.70267683512E+03  0.13064559255E+04  0.46999998093E+01 0. -1.
       -5    1    3    3    0  502 -0.94481118794E+03 -0.56602303814E+03  0.37572890237E+03  0.11637201376E+04  0.46999998093E+01 0.  1.
</event>
<event>
 5   0  0.7754556E-07  0.3271351E+04  0.7818609E-02  0.8170224E-01
        1   -1    0    0  501    0  0.00000000000E+00  0.00000000000E+00  0.16447046245E+04  0.16447046246E+04  0.50400001928E-02 0. -1.
       -1   -1    0    0    0  501  0.00000000000E+00  0.00000000000E+00 -0.16266956539E+04  0.16266956539E+04  0.50400001928E-02 0.  1.
    10030    2    1    2    0    0  0.00000000000E+00  0.00000000000E+00  0.18008970684E+02  0.32714002784E+04  0.32713507086E+04 0.  0.
        4    1    3    3  502    0  0.50831414430E+03 -0.10699510652E+04 -0.11189548477E+04  0.16294907534E+04  0.12699999809E+01 0.  1.
       -4    1    3    3    0  502 -0.50831414430E+03  0.10699510652E+04  0.11369638184E+04  0.16419095251E+04  0.12699999809E+01 0. -1.
</event>
<event>
 5   0  0.1513502E-06  0.3279773E+04  0.7818609E-02  0.8168061E-01
        2   -1    0    0  501    0  0.00000000000E+00  0.00000000000E+00  0.25648003833E+04  0.25648003833E+04  0.25500000920E-02 0. -1.
       -2   -1    0    0    0  501  0.00000000000E+00  0.00000000000E+00 -0.10485137239E+04  0.10485137239E+04  0.25500000920E-02 0.  1.
    10030    2    1    2    0    0  0.00000000000E+00  0.00000000000E+00  0.15162866594E+04  0.36133141072E+04  0.32797734074E+04 0.  0.
        3    1    3    3  502    0 -0.16396648710E+03  0.13584090612E+04  0.17539866889E+04  0.22245515282E+04  0.10100000352E+00 0. -1.
       -3    1    3    3    0  502  0.16396648710E+03 -0.13584090612E+04 -0.23770002953E+03  0.13887625790E+04  0.10100000352E+00 0.  1.
</event>
<event>
 5   0  0.2382711E-06  0.4854339E+04  0.7818609E-02  0.7851378E-01
        2   -1    0    0  501    0  0.00000000000E+00  0.00000000000E+00  0.16324157370E+04  0.16324157370E+04  0.25500000920E-02 0. -1.
       -2   -1    0    0    0  501  0.00000000000E+00  0.00000000000E+00 -0.36088557555E+04  0.36088557555E+04  0.25500000920E-02 0.  1.
    10030    2    1    2    0    0  0.00000000000E+00  0.00000000000E+00 -0.19764400185E+04  0.52412714925E+04  0.48543394722E+04 0.  0.
        5    1    3    3  502    0  0.15697048853E+04  0.13641855777E+04  0.36299325437E+03  0.21111044290E+04  0.46999998093E+01 0. -1.
       -5    1    3    3    0  502 -0.15697048853E+04 -0.13641855777E+04 -0.23394332729E+04  0.31301670635E+04  0.46999998093E+01 0.  1.
</event>
<event>
 5   0  0.8452742E-07  0.3562021E+04  0.7818609E-02  0.8099247E-01
       -1   -1    0    0    0  501  0.00000000000E+00  0.00000000000E+00  0.16210613852E+04  0.16210613852E+04  0.50400001928E-02 0.  1.
        1   -1    0    0  501    0  0.00000000000E+00  0.00000000000E+00 -0.19567415174E+04  0.19567415174E+04  0.50400001928E-02 0. -1.
    10030    2    1    2    0    0  0.00000000000E+00  0.00000000000E+00 -0.33568013220E+03  0.35778029026E+04  0.35620208392E+04 0.  0.
        1    1    3    3  502    0 -0.16820145484E+03 -0.14985955965E+04  0.78394350465E+03  0.16996022799E+04  0.50400001928E-02 0.  1.
       -1    1    3    3    0  502  0.16820145484E+03  0.14985955965E+04 -0.11196236369E+04  0.18782006228E+04  0.50400001928E-02 0. -1.
</event>
<event>
 5   0  0.1513502E-06  0.3504412E+04  0.7818609E-02  0.8112745E-01
        2   -1    0    0  501    0  0.00000000000E+00  0.00000000000E+00  0.22776963256E+04  0.22776963256E+04  0.25500000920E-02 0. -1.
       -2   -1    0    0    0  501  0.00000000000E+00  0.00000000000E+00 -0.13479520023E+04  0.13479520023E+04  0.25500000920E-02 0.  1.
    10030    2    1    2    0    0  0.00000000000E+00  0.00000000000E+00  0.92974432323E+03  0.36256483279E+04  0.35044116897E+04 0.  0.
        3    1    3    3  502    0 -0.14589858473E+04 -0.54773863337E+03  0.12935617905E+04  0.20253294619E+04  0.10100000352E+00 0. -1.
       -3    1    3    3    0  502  0.14589858473E+04  0.54773863337E+03 -0.36381746728E+03  0.16003188660E+04  0.10100000352E+00 0.  1.
</event>
<event>
 5   0  0.1513502E-06  0.3543880E+04  0.7818609E-02  0.8103469E-01
       -2   -1    0    0    0  501  0.00000000000E+00  0.00000000000E+00  0.17641688143E+04  0.17641688143E+04  0.25500000920E-02 0. -1.
        2   -1    0    0  501    0  0.00000000000E+00  0.00000000000E+00 -0.17797454518E+04  0.17797454518E+04  0.25500000920E-02 0.  1.
    10030    2    1    2    0    0  0.00000000000E+00  0.00000000000E+00 -0.15576637526E+02  0.35439142662E+04  0.35438800338E+04 0.  0.
        3    1    3    3  502    0 -0.61502074946E+03 -0.12146074204E+04 -0.11419287663E+04  0.17769420434E+04  0.10100000352E+00 0.  1.
       -3    1    3    3    0  502  0.61502074946E+03  0.12146074204E+04  0.11263521288E+04  0.17669722228E+04  0.10100000352E+00 0. -1.
</event>
<event>
 5   0  0.1566576E-06  0.3607197E+04  0.7818609E-02  0.8088845E-01
       -2   -1    0    0    0  501  0.00000000000E+00  0.00000000000E+00  0.16866402649E+04  0.16866402649E+04  0.25500000920E-02 0.  1.
        2   -1    0    0  501    0  0.00000000000E+00  0.00000000000E+00 -0.19286667908E+04  0.19286667908E+04  0.25500000920E-02 0. -1.
    10030    2    1    2    0    0  0.00000000000E+00  0.00000000000E+00 -0.24202652586E+03  0.36153070557E+04  0.36071967326E+04 0.  0.
        4    1    3    3  502    0  0.12259368904E+04 -0.45805887089E+03  0.11228356256E+04  0.17243841345E+04  0.12699999809E+01 0.  1.
       -4    1    3    3    0  502 -0.12259368904E+04  0.45805887089E+03 -0.13648621515E+04  0.18909229212E+04  0.12699999809E+01 0. -1.
</event>
<event>
 5   0  0.8423692E-07  0.2947881E+04  0.7818609E-02  0.8258772E-01
        1   -1    0    0  501    0  0.00000000000E+00  0.00000000000E+00  0.11162870240E+04  0.11162870240E+04  0.50400001928E-02 0.  1.
       -1   -1    0    0    0  501  0.00000000000E+00  0.00000000000E+00 -0.19461852171E+04  0.19461852171E+04  0.50400001928E-02 0. -1.
    10030    2    1    2    0    0  0.00000000000E+00  0.00000000000E+00 -0.82989819309E+03  0.30624722411E+04  0.29478814794E+04 0.  0.
        2    1    3    3  502    0 -0.81356402105E+03  0.10649581173E+04  0.22248101598E+03  0.13584991757E+04  0.25500000920E-02 0. -1.
       -2    1    3    3    0  502  0.81356402105E+03 -0.10649581173E+04 -0.10523792091E+04  0.17039730654E+04  0.25500000920E-02 0.  1.
</event>
<event>
 5   0  0.1908273E-06  0.3663696E+04  0.7818609E-02  0.8076055E-01
       -1   -1    0    0    0  501  0.00000000000E+00  0.00000000000E+00  0.16629040051E+04  0.16629040051E+04  0.50400001928E-02 0.  1.
        1   -1    0    0  501    0  0.00000000000E+00  0.00000000000E+00 -0.20179556663E+04  0.20179556663E+04  0.50400001928E-02 0. -1.
    10030    2    1    2    0    0  0.00000000000E+00  0.00000000000E+00 -0.35505166120E+03  0.36808596715E+04  0.36636957078E+04 0.  0.
        3    1    3    3  502    0  0.52342587506E+03 -0.13683006703E+04 -0.12824257932E+04  0.19470072666E+04  0.10100000352E+00 0. -1.
       -3    1    3    3    0  502 -0.52342587506E+03  0.13683006703E+04  0.92737413198E+03  0.17338524049E+04  0.10100000352E+00 0.  1.
</event>
<event>
 5   0  0.7754556E-07  0.3666713E+04  0.7818609E-02  0.8075379E-01
        1   -1    0    0  501    0  0.00000000000E+00  0.00000000000E+00  0.18700756795E+04  0.18700756795E+04  0.50400001928E-02 0. -1.
       -1   -1    0    0    0  501  0.00000000000E+00  0.00000000000E+00 -0.17973583631E+04  0.17973583631E+04  0.50400001928E-02 0.  1.
    10030    2    1    2    0    0  0.00000000000E+00  0.00000000000E+00  0.72717316435E+02  0.36674340426E+04  0.36667130578E+04 0.  0.
        4    1    3    3  502    0 -0.16544585055E+04 -0.31219074488E+03  0.76210352548E+03  0.18481069785E+04  0.12699999809E+01 0.  1.
       -4    1    3    3    0  502  0.16544585055E+04  0.31219074488E+03 -0.68938620904E+03  0.18193270640E+04  0.12699999809E+01 0. -1.
</event>
<event>
 5   0  0.2422436E-06  0.3359853E+04  0.7818609E-02  0.8147831E-01
        2   -1    0    0  501    0  0.00000000000E+00  0.00000000000E+00  0.17468828299E+04  0.17468828299E+04  0.25500000920E-02 0.  1.
       -2   -1    0    0    0  501  0.00000000000E+00  0.00000000000E+00 -0.16155364177E+04  0.16155364177E+04  0.25500000920E-02 0. -1.
    10030    2    1    2    0    0  0.00000000000E+00  0.00000000000E+00  0.13134641219E+03  0.33624192475E+04  0.33598528712E+04 0.  0.
        2    1    3    3  502    0 -0.12758828405E+04  0.98713171824E+03 -0.40356315142E+03  0.16628798120E+04  0.25500000920E-02 0. -1.
       -2    1    3    3    0  502  0.12758828405E+04 -0.98713171824E+03  0.53490956360E+03  0.16995394356E+04  0.25500000920E-02 0.  1.
</event>
<event>
 5   0  0.8452742E-07  0.3482026E+04  0.7818609E-02  0.8118063E-01
       -1   -1    0    0    0  501  0.00000000000E+00  0.00000000000E+00  0.22293583647E+04  0.22293583647E+04  0.50400001928E-02 0.  1.
        1   -1    0    0  501    0  0.00000000000E+00  0.00000000000E+00 -0.13596406077E+04  0.13596406077E+04  0.50400001928E-02 0. -1.
    10030    2    1    2    0    0  0.00000000000E+00  0.00000000000E+00  0.86971775705E+03  0.35889989724E+04  0.34820259401E+04 0.  0.
        1    1    3    3  502    0 -0.11574291539E+04  0.11784941193E+04 -0.13216491883E+03  0.16570932989E+04  0.50400001928E-02 0. -1.
       -1    1    3    3    0  502  0.11574291539E+04 -0.11784941193E+04  0.10018826759E+04  0.19319056736E+04  0.50400001928E-02 0.  1.
</event>
<event>
 5   0  0.2382711E-06  0.3538860E+04  0.7818609E-02  0.8104642E-01
        2   -1    0    0  501    0  0.00000000000E+00  0.00000000000E+00  0.15601980181E+04  0.15601980181E+04  0.25500000920E-02 0.  1.
       -2   -1    0    0    0  501  0.00000000000E+00  0.00000000000E+00 -0.20067207819E+04  0.20067207819E+04  0.25500000920E-02 0. -1.
    10030    2    1    2    0    0  0.00000000000E+00  0.00000000000E+00 -0.44652276382E+03  0.35669187999E+04  0.35388595828E+04 0.  0.
        5    1    3    3  502    0  0.10642010833E+04 -0.13736087416E+04 -0.55987760397E+03  0.18255985162E+04  0.46999998093E+01 0.  1.
       -5    1    3    3    0  502 -0.10642010833E+04  0.13736087416E+04  0.11335484015E+03  0.17413202838E+04  0.46999998093E+01 0. -1.
</event>
<event>
 5   0  0.8423692E-07  0.2678508E+04  0.7818609E-02  0.8342012E-01
        1   -1    0    0  501    0  0.00000000000E+00  0.00000000000E+00  0.10906519995E+04  0.10906519995E+04  0.50400001928E-02 0. -1.
       -1   -1    0    0    0  501  0.00000000000E+00  0.00000000000E+00 -0.16445222883E+04  0.16445222883E+04  0.50400001928E-02 0.  1.
    10030    2    1    2    0    0  0.00000000000E+00  0.00000000000E+00 -0.55387028881E+03  0.27351742878E+04  0.26785081833E+04 0.  0.
        2    1    3    3  502    0 -0.56934672352E+02 -0.47459094155E+03  0.10005807741E+04  0.11088913402E+04  0.25500000920E-02 0. -1.
       -2    1    3    3    0  502  0.56934672352E+02  0.47459094155E+03 -0.15544510629E+04  0.16262829477E+04  0.25500000920E-02 0.  1.
</event>
<event>
 5   0  0.2536619E-06  0.3617262E+04  0.7818609E-02  0.8086549E-01
       -2   -1    0    0    0  501  0.00000000000E+00  0.00000000000E+00  0.15078577420E+04  0.15078577420E+04  0.25500000920E-02 0.  1.
        2   -1    0    0  501    0  0.00000000000E+00  0.00000000000E+00 -0.21694001387E+04  0.21694001387E+04  0.25500000920E-02 0. -1.
    10030    2    1    2    0    0  0.00000000000E+00  0.00000000000E+00 -0.66154239672E+03  0.36772578806E+04  0.36172623872E+04 0.  0.
        1    1    3    3  502    0 -0.88002652769E+03 -0.15248416110E+04 -0.75183680857E+03  0.19143790677E+04  0.50400001928E-02 0. -1.
       -1    1    3    3    0  502  0.88002652769E+03  0.15248416110E+04  0.90294411843E+02  0.17628788129E+04  0.50400001928E-02 0.  1.
</event>
<event>
 5   0  0.2536619E-06  0.3567159E+04  0.7818609E-02  0.8098056E-01
       -2   -1    0    0    0  501  0.00000000000E+00  0.00000000000E+00  0.13567776143E+04  0.13567776143E+04  0.25500000920E-02 0.  1.
        2   -1    0    0  501    0  0.00000000000E+00  0.00000000000E+00 -0.23446408259E+04  0.23446408259E+04  0.25500000920E-02 0. -1.
    10030    2    1    2    0    0  0.00000000000E+00  0.00000000000E+00 -0.98786321162E+03  0.37014184402E+04  0.35671591981E+04 0.  0.
        1    1    3    3  502    0  0.34992644701E+03  0.12230419218E+04 -0.17911346850E+04  0.21969168215E+04  0.50400001928E-02 0. -1.
       -1    1    3    3    0  502 -0.34992644701E+03 -0.12230419218E+04  0.80327147335E+03  0.15045016187E+04  0.50400001928E-02 0.  1.
</event>
<event>
 5   0  0.2382711E-06  0.3531675E+04  0.7818609E-02  0.8106324E-01
       -2   -1    0    0    0  501  0.00000000000E+00  0.00000000000E+00  0.12512945896E+04  0.12512945896E+04  0.25500000920E-02 0. -1.
        2   -1    0    0  501    0  0.00000000000E+00  0.00000000000E+00 -0.24919647633E+04  0.24919647633E+04  0.25500000920E-02 0.  1.
    10030    2    1    2    0    0  0.00000000000E+00  0.00000000000E+00 -0.12406701737E+04  0.37432593529E+04  0.35316749714E+04 0.  0.
        5    1    3    3  502    0 -0.15790212469E+04  0.35319591943E+03 -0.13698832832E+04  0.21200607905E+04  0.46999998093E+01 0.  1.
       -5    1    3    3    0  502  0.15790212469E+04 -0.35319591943E+03  0.12921310952E+03  0.16231985625E+04  0.46999998093E+01 0. -1.
</event>
<event>
 5   0  0.1634374E-06  0.3574068E+04  0.7818609E-02  0.8096458E-01
       -1   -1    0    0    0  501  0.00000000000E+00  0.00000000000E+00  0.18383976280E+04  0.18383976280E+04  0.50400001928E-02 0.  1.
        1   -1    0    0  501    0  0.00000000000E+00  0.00000000000E+00 -0.17371053892E+04  0.17371053892E+04  0.50400001928E-02 0. -1.
    10030    2    1    2    0    0  0.00000000000E+00  0.00000000000E+00  0.10129223872E+03  0.35755030172E+04  0.35740679496E+04 0.  0.
        5    1    3    3  502    0  0.62716268769E+03  0.25847413728E+03  0.17045874254E+04  0.18346068509E+04  0.46999998093E+01 0.  1.
       -5    1    3    3    0  502 -0.62716268769E+03 -0.25847413728E+03 -0.16032951867E+04  0.17408961664E+04  0.46999998093E+01 0. -1.
</event>
<event>
 5   0  0.1513502E-06  0.3334723E+04  0.7818609E-02  0.8154116E-01
        2   -1    0    0  501    0  0.00000000000E+00  0.00000000000E+00  0.17424858176E+04  0.17424858176E+04  0.25500000920E-02 0.  1.
       -2   -1    0    0    0  501  0.00000000000E+00  0.00000000000E+00 -0.15954764894E+04  0.15954764894E+04  0.25500000920E-02 0. -1.
    10030    2    1    2    0    0  0.00000000000E+00  0.00000000000E+00  0.14700932816E+03  0.33379623070E+04  0.33347234698E+04 0.  0.
        3    1    3    3  502    0 -0.63197976173E+03  0.41813962992E+03  0.15601596053E+04  0.17344558725E+04  0.10100000352E+00 0.  1.
       -3    1    3    3    0  502  0.63197976173E+03 -0.41813962992E+03 -0.14131502772E+04  0.16035064345E+04  0.10100000352E+00 0. -1.
</event>
<event>
 5   0  0.2536619E-06  0.3552649E+04  0.7818609E-02  0.8101425E-01
        2   -1    0    0  501    0  0.00000000000E+00  0.00000000000E+00  0.21081567999E+04  0.21081567999E+04  0.25500000920E-02 0. -1.
       -2   -1    0    0    0  501  0.00000000000E+00  0.00000000000E+00 -0.14967243004E+04  0.14967243004E+04  0.25500000920E-02 0.  1.
    10030    2    1    2    0    0  0.00000000000E+00  0.00000000000E+00  0.61143249948E+03  0.36048811004E+04  0.35526494404E+04 0.  0.
        1    1    3    3  502    0 -0.11383529811E+04 -0.13109186328E+04 -0.75269406458E+02  0.17378206624E+04  0.50400001928E-02 0. -1.
       -1    1    3    3    0  502  0.11383529811E+04  0.13109186328E+04  0.68670190594E+03  0.18670604379E+04  0.50400001928E-02 0.  1.
</event>
<event>
 5   0  0.7707500E-07  0.2997572E+04  0.7818609E-02  0.8244424E-01
        3   -1    0    0  501    0  0.00000000000E+00  0.00000000000E+00  0.15025775711E+04  0.15025775745E+04  0.10100000352E+00 0. -1.
       -3   -1    0    0    0  501  0.00000000000E+00  0.00000000000E+00 -0.14950042358E+04  0.14950042392E+04  0.10100000352E+00 0.  1.
    10030    2    1    2    0    0  0.00000000000E+00  0.00000000000E+00  0.75733353538E+01  0.29975818137E+04  0.29975722467E+04 0.  0.
        3    1    3    3  502    0  0.43097847845E+02 -0.58961315437E+03  0.13810560113E+04  0.15022705525E+04  0.10100000352E+00 0. -1.
       -3    1    3    3    0  502 -0.43097847845E+02  0.58961315437E+03 -0.13734826760E+04  0.14953112612E+04  0.10100000352E+00 0.  1.
</event>
<event>
 5   0  0.8423692E-07  0.3830407E+04  0.7818609E-02  0.8039661E-01
       -1   -1    0    0    0  501  0.00000000000E+00  0.00000000000E+00  0.15138735943E+04  0.15138735943E+04  0.50400001928E-02 0. -1.
        1   -1    0    0  501    0  0.00000000000E+00  0.00000000000E+00 -0.24229270627E+04  0.24229270627E+04  0.50400001928E-02 0.  1.
    10030    2    1    2    0    0  0.00000000000E+00  0.00000000000E+00 -0.90905346835E+03  0.39368006570E+04  0.38304074463E+04 0.  0.
        2    1    3    3  502    0 -0.50776317228E+03 -0.19378602540E+03 -0.23420083320E+04  0.24042419782E+04  0.25500000920E-02 0.  1.
       -2    1    3    3    0  502  0.50776317228E+03  0.19378602540E+03  0.14329548636E+04  0.15325586788E+04  0.25500000920E-02 0. -1.
</event>
<event>
 5   0  0.1566576E-06  0.3645971E+04  0.7818609E-02  0.8080042E-01
       -2   -1    0    0    0  501  0.00000000000E+00  0.00000000000E+00  0.18806471592E+04  0.18806471592E+04  0.25500000920E-02 0. -1.
        2   -1    0    0  501    0  0.00000000000E+00  0.00000000000E+00 -0.17670919640E+04  0.17670919640E+04  0.25500000920E-02 0.  1.
    10030    2    1    2    0    0  0.00000000000E+00  0.00000000000E+00  0.11355519526E+03  0.36477391232E+04  0.36459711914E+04 0.  0.
        4    1    3    3  502    0 -0.12961065656E+04  0.51036786032E+03  0.12333186108E+04  0.18604956305E+04  0.12699999809E+01 0. -1.
       -4    1    3    3    0  502  0.12961065656E+04 -0.51036786032E+03 -0.11197634156E+04  0.17872434927E+04  0.12699999809E+01 0.  1.
</event>
<event>
 5   0  0.2536619E-06  0.2590538E+04  0.7818609E-02  0.8371422E-01
       -2   -1    0    0    0  501  0.00000000000E+00  0.00000000000E+00  0.50854030432E+03  0.50854030432E+03  0.25500000920E-02 0. -1.
        2   -1    0    0  501    0  0.00000000000E+00  0.00000000000E+00 -0.32990918140E+04  0.32990918140E+04  0.25500000920E-02 0.  1.
    10030    2    1    2    0    0  0.00000000000E+00  0.00000000000E+00 -0.27905515097E+04  0.38076321183E+04  0.25905375157E+04 0.  0.
        1    1    3    3  502    0 -0.24058895253E+03  0.74101928931E+03 -0.29161901893E+04  0.30184694551E+04  0.50400001928E-02 0. -1.
       -1    1    3    3    0  502  0.24058895253E+03 -0.74101928931E+03  0.12563867960E+03  0.78916266323E+03  0.50400001928E-02 0.  1.
</event>
<event>
 5   0  0.2671187E-06  0.1806935E+04  0.7818609E-02  0.8702620E-01
       -2   -1    0    0    0  501  0.00000000000E+00  0.00000000000E+00  0.69446071991E+03  0.69446071991E+03  0.25500000920E-02 0. -1.
        2   -1    0    0  501    0  0.00000000000E+00  0.00000000000E+00 -0.11753781665E+04  0.11753781665E+04  0.25500000920E-02 0.  1.
    10030    2    1    2    0    0  0.00000000000E+00  0.00000000000E+00 -0.48091744657E+03  0.18698388864E+04  0.18069354916E+04 0.  0.
        3    1    3    3  502    0  0.67911397188E+03  0.28181373554E+03 -0.78374911056E+03  0.10746522446E+04  0.10100000352E+00 0.  1.
       -3    1    3    3    0  502 -0.67911397188E+03 -0.28181373554E+03  0.30283166399E+03  0.79518664178E+03  0.10100000352E+00 0. -1.
</event>
<event>
 5   0  0.1513502E-06  0.2451689E+04  0.7818609E-02  0.8420402E-01
        2   -1    0    0  501    0  0.00000000000E+00  0.00000000000E+00  0.17059570235E+04  0.17059570235E+04  0.25500000920E-02 0.  1.
       -2   -1    0    0    0  501  0.00000000000E+00  0.00000000000E+00 -0.88085145908E+03  0.88085145908E+03  0.25500000920E-02 0. -1.
    10030    2    1    2    0    0  0.00000000000E+00  0.00000000000E+00  0.82510556444E+03  0.25868084826E+04  0.24516889960E+04 0.  0.
        3    1    3    3  502    0  0.44310654000E+03  0.36781301771E+03  0.15543510530E+04  0.16575997792E+04  0.10100000352E+00 0.  1.
       -3    1    3    3    0  502 -0.44310654000E+03 -0.36781301771E+03 -0.72924548854E+03  0.92920870343E+03  0.10100000352E+00 0. -1.
</event>
<event>
 5   0  0.1513502E-06  0.3502188E+04  0.7818609E-02  0.8113272E-01
        2   -1    0    0  501    0  0.00000000000E+00  0.00000000000E+00  0.24227230578E+04  0.24227230578E+04  0.25500000920E-02 0. -1.
       -2   -1    0    0    0  501  0.00000000000E+00  0.00000000000E+00 -0.12656541798E+04  0.12656541798E+04  0.25500000920E-02 0.  1.
    10030    2    1    2    0    0  0.00000000000E+00  0.00000000000E+00  0.11570688779E+04  0.36883772376E+04  0.35021876390E+04 0.  0.
        3    1    3    3  502    0 -0.31144204478E+03 -0.26834798780E+03 -0.12141108398E+04  0.12818236741E+04  0.10100000352E+00 0.  1.
       -3    1    3    3    0  502  0.31144204478E+03  0.26834798780E+03  0.23711797178E+04  0.24065535635E+04  0.10100000352E+00 0. -1.
</event>
<event>
 5   0  0.1634374E-06  0.3536214E+04  0.7818609E-02  0.8105261E-01
        1   -1    0    0  501    0  0.00000000000E+00  0.00000000000E+00  0.19157470811E+04  0.19157470811E+04  0.50400001928E-02 0. -1.
       -1   -1    0    0    0  501  0.00000000000E+00  0.00000000000E+00 -0.16318448392E+04  0.16318448392E+04  0.50400001928E-02 0.  1.
    10030    2    1    2    0    0  0.00000000000E+00  0.00000000000E+00  0.28390224187E+03  0.35475919203E+04  0.35362137873E+04 0.  0.
        5    1    3    3  502    0 -0.14480475614E+04  0.81543332090E+03  0.74755450701E+03  0.18222604292E+04  0.46999998093E+01 0.  1.
       -5    1    3    3    0  502  0.14480475614E+04 -0.81543332090E+03 -0.46365226514E+03  0.17253314910E+04  0.46999998093E+01 0. -1.
</event>
<event>
 5   0  0.1566576E-06  0.3548338E+04  0.7818609E-02  0.8102429E-01
        2   -1    0    0  501    0  0.00000000000E+00  0.00000000000E+00  0.23699597737E+04  0.23699597737E+04  0.25500000920E-02 0.  1.
       -2   -1    0    0    0  501  0.00000000000E+00  0.00000000000E+00 -0.13281556896E+04  0.13281556896E+04  0.25500000920E-02 0. -1.
    10030    2    1    2    0    0  0.00000000000E+00  0.00000000000E+00  0.10418040841E+04  0.36981154632E+04  0.35483379532E+04 0.  0.
        4    1    3    3  502    0  0.76254220766E+03 -0.98690534355E+02 -0.11454827321E+04  0.13796168825E+04  0.12699999809E+01 0. -1.
       -4    1    3    3    0  502 -0.76254220766E+03  0.98690534355E+02  0.21872868161E+04  0.23184985808E+04  0.12699999809E+01 0.  1.
</event>
<event>
 5   0  0.2382711E-06  0.3590571E+04  0.7818609E-02  0.8092655E-01
       -2   -1    0    0    0  501  0.00000000000E+00  0.00000000000E+00  0.13787345440E+04  0.13787345440E+04  0.25500000920E-02 0. -1.
        2   -1    0    0  501    0  0.00000000000E+00  0.00000000000E+00 -0.23376876310E+04  0.23376876310E+04  0.25500000920E-02 0.  1.
    10030    2    1    2    0    0  0.00000000000E+00  0.00000000000E+00 -0.95895308704E+03  0.37164221750E+04  0.35905713695E+04 0.  0.
        5    1    3    3  502    0 -0.68535565801E+02  0.49439367830E+03 -0.22644227185E+04  0.23187829935E+04  0.46999998093E+01 0.  1.
       -5    1    3    3    0  502  0.68535565801E+02 -0.49439367830E+03  0.13054696315E+04  0.13976391815E+04  0.46999998093E+01 0. -1.
</event>
<event>
 5   0  0.8423692E-07  0.3539476E+04  0.7818609E-02  0.8104498E-01
       -1   -1    0    0    0  501  0.00000000000E+00  0.00000000000E+00  0.12284990852E+04  0.12284990852E+04  0.50400001928E-02 0. -1.
        1   -1    0    0  501    0  0.00000000000E+00  0.00000000000E+00 -0.25494306197E+04  0.25494306197E+04  0.50400001928E-02 0.  1.
    10030    2    1    2    0    0  0.00000000000E+00  0.00000000000E+00 -0.13209315345E+04  0.37779297049E+04  0.35394763364E+04 0.  0.
        2    1    3    3  502    0 -0.94742558763E+03 -0.59316898890E+03 -0.21249453845E+04  0.24010117827E+04  0.25500000920E-02 0.  1.
       -2    1    3    3    0  502  0.94742558763E+03  0.59316898890E+03  0.80401384996E+03  0.13769179222E+04  0.25500000920E-02 0. -1.
</event>
<event>
 5   0  0.8452742E-07  0.2588225E+04  0.7818609E-02  0.8372212E-01
       -1   -1    0    0    0  501  0.00000000000E+00  0.00000000000E+00  0.98967584142E+03  0.98967584144E+03  0.50400001928E-02 0.  1.
        1   -1    0    0  501    0  0.00000000000E+00  0.00000000000E+00 -0.16921973292E+04  0.16921973292E+04  0.50400001928E-02 0. -1.
    10030    2    1    2    0    0  0.00000000000E+00  0.00000000000E+00 -0.70252148781E+03  0.26818731707E+04  0.25882247319E+04 0.  0.
        1    1    3    3  502    0 -0.51787272761E+03  0.86304523819E+03  0.49161341864E+03  0.11201441865E+04  0.50400001928E-02 0.  1.
       -1    1    3    3    0  502  0.51787272761E+03 -0.86304523819E+03 -0.11941349064E+04  0.15617289842E+04  0.50400001928E-02 0. -1.
</event>
<event>
 5   0  0.2536619E-06  0.3567010E+04  0.7818609E-02  0.8098090E-01
       -2   -1    0    0    0  501  0.00000000000E+00  0.00000000000E+00  0.12138663845E+04  0.12138663845E+04  0.25500000920E-02 0. -1.
        2   -1    0    0  501    0  0.00000000000E+00  0.00000000000E+00 -0.26204620410E+04  0.26204620410E+04  0.25500000920E-02 0.  1.
    10030    2    1    2    0    0  0.00000000000E+00  0.00000000000E+00 -0.14065956565E+04  0.38343284254E+04  0.35670103915E+04 0.  0.
        1    1    3    3  502    0  0.12220981523E+04 -0.76090633191E+03  0.42840116388E+03  0.15020086209E+04  0.50400001928E-02 0. -1.
       -1    1    3    3    0  502 -0.12220981523E+04  0.76090633191E+03 -0.18349968204E+04  0.23323198046E+04  0.50400001928E-02 0.  1.
</event>
<event>
 5   0  0.8423692E-07  0.2518850E+04  0.7818609E-02  0.8396301E-01
        1   -1    0    0  501    0  0.00000000000E+00  0.00000000000E+00  0.11068785867E+04  0.11068785867E+04  0.50400001928E-02 0. -1.
       -1   -1    0    0    0  501  0.00000000000E+00  0.00000000000E+00 -0.14329950495E+04  0.14329950495E+04  0.50400001928E-02 0.  1.
    10030    2    1    2    0    0  0.00000000000E+00  0.00000000000E+00 -0.32611646277E+03  0.25398736362E+04  0.25188501624E+04 0.  0.
        2    1    3    3  502    0 -0.37073791515E+02  0.11816140163E+04  0.27480730442E+03  0.12137154543E+04  0.25500000920E-02 0. -1.
       -2    1    3    3    0  502  0.37073791515E+02 -0.11816140163E+04 -0.60092376720E+03  0.13261581819E+04  0.25500000920E-02 0.  1.
</event>
<event>
 5   0  0.8423692E-07  0.2834549E+04  0.7818609E-02  0.8292622E-01
        1   -1    0    0  501    0  0.00000000000E+00  0.00000000000E+00  0.84485633316E+03  0.84485633317E+03  0.50400001928E-02 0.  1.
       -1   -1    0    0    0  501  0.00000000000E+00  0.00000000000E+00 -0.23775251247E+04  0.23775251247E+04  0.50400001928E-02 0. -1.
    10030    2    1    2    0    0  0.00000000000E+00  0.00000000000E+00 -0.15326687915E+04  0.32223814578E+04  0.28345491062E+04 0.  0.
        2    1    3    3  502    0  0.19085712397E+03  0.76076436254E+03  0.57563641624E+03  0.97290602876E+03  0.25500000920E-02 0.  1.
       -2    1    3    3    0  502 -0.19085712397E+03 -0.76076436254E+03 -0.21083052077E+04  0.22494754291E+04  0.25500000920E-02 0. -1.
</event>
<event>
 5   0  0.1908273E-06  0.3631635E+04  0.7818609E-02  0.8083284E-01
       -1   -1    0    0    0  501  0.00000000000E+00  0.00000000000E+00  0.25216380461E+04  0.25216380461E+04  0.50400001928E-02 0.  1.
        1   -1    0    0  501    0  0.00000000000E+00  0.00000000000E+00 -0.13075599726E+04  0.13075599727E+04  0.50400001928E-02 0. -1.
    10030    2    1    2    0    0  0.00000000000E+00  0.00000000000E+00  0.12140780735E+04  0.38291980188E+04  0.36316348796E+04 0.  0.
        3    1    3    3  502    0  0.10760560261E+04 -0.22617686830E+03  0.21306900216E+04  0.23976848261E+04  0.10100000352E+00 0.  1.
       -3    1    3    3    0  502 -0.10760560261E+04  0.22617686830E+03 -0.91661194811E+03  0.14315131927E+04  0.10100000352E+00 0. -1.
</event>
<event>
 5   0  0.2422436E-06  0.3602320E+04  0.7818609E-02  0.8089960E-01
        2   -1    0    0  501    0  0.00000000000E+00  0.00000000000E+00  0.14577553438E+04  0.14577553438E+04  0.25500000920E-02 0. -1.
       -2   -1    0    0    0  501  0.00000000000E+00  0.00000000000E+00 -0.22254613395E+04  0.22254613395E+04  0.25500000920E-02 0.  1.
    10030    2    1    2    0    0  0.00000000000E+00  0.00000000000E+00 -0.76770599563E+03  0.36832166833E+04  0.36023204522E+04 0.  0.
        2    1    3    3  502    0 -0.17413148580E+04 -0.14514912295E+03  0.62917828596E+02  0.17484863042E+04  0.25500000920E-02 0. -1.
       -2    1    3    3    0  502  0.17413148580E+04  0.14514912295E+03 -0.83062382423E+03  0.19347303792E+04  0.25500000920E-02 0.  1.
</event>
<event>
 5   0  0.1566576E-06  0.3591561E+04  0.7818609E-02  0.8092428E-01
        2   -1    0    0  501    0  0.00000000000E+00  0.00000000000E+00  0.17239904502E+04  0.17239904502E+04  0.25500000920E-02 0.  1.
       -2   -1    0    0    0  501  0.00000000000E+00  0.00000000000E+00 -0.18705595347E+04  0.18705595347E+04  0.25500000920E-02 0. -1.
    10030    2    1    2    0    0  0.00000000000E+00  0.00000000000E+00 -0.14656908448E+03  0.35945499848E+04  0.35915605378E+04 0.  0.
        4    1    3    3  502    0  0.10421034355E+04  0.10129372834E+04  0.98248859311E+03  0.17542254584E+04  0.12699999809E+01 0.  1.
       -4    1    3    3    0  502 -0.10421034355E+04 -0.10129372834E+04 -0.11290576776E+04  0.18403245264E+04  0.12699999809E+01 0. -1.
</event>
<event>
 5   0  0.1513502E-06  0.3211532E+04  0.7818609E-02  0.8185778E-01
       -2   -1    0    0    0  501  0.00000000000E+00  0.00000000000E+00  0.12642599561E+04  0.12642599561E+04  0.25500000920E-02 0.  1.
        2   -1    0    0  501    0  0.00000000000E+00  0.00000000000E+00 -0.20395203890E+04  0.20395203890E+04  0.25500000920E-02 0. -1.
    10030    2    1    2    0    0  0.00000000000E+00  0.00000000000E+00 -0.77526043292E+03  0.33037803451E+04  0.32115316953E+04 0.  0.
        3    1    3    3  502    0 -0.43168231088E+03  0.91544333495E+03 -0.16700733886E+04  0.19528264773E+04  0.10100000352E+00 0. -1.
       -3    1    3    3    0  502  0.43168231088E+03 -0.91544333495E+03  0.89481295565E+03  0.13509538678E+04  0.10100000352E+00 0.  1.
</event>
<event>
 5   0  0.2536619E-06  0.3649688E+04  0.7818609E-02  0.8079204E-01
        2   -1    0    0  501    0  0.00000000000E+00  0.00000000000E+00  0.16273757462E+04  0.16273757462E+04  0.25500000920E-02 0.  1.
       -2   -1    0    0    0  501  0.00000000000E+00  0.00000000000E+00 -0.20462732747E+04  0.20462732747E+04  0.25500000920E-02 0. -1.
    10030    2    1    2    0    0  0.00000000000E+00  0.00000000000E+00 -0.41889752844E+03  0.36736490209E+04  0.36496879304E+04 0.  0.
        1    1    3    3  502    0 -0.14737840290E+04 -0.70965710027E+03 -0.10237114792E+04  0.19296729663E+04  0.50400001928E-02 0. -1.
       -1    1    3    3    0  502  0.14737840290E+04  0.70965710027E+03  0.60481395080E+03  0.17439760546E+04  0.50400001928E-02 0.  1.
</event>
<event>
 5   0  0.1513502E-06  0.3665217E+04  0.7818609E-02  0.8075714E-01
       -2   -1    0    0    0  501  0.00000000000E+00  0.00000000000E+00  0.11682031851E+04  0.11682031851E+04  0.25500000920E-02 0. -1.
        2   -1    0    0  501    0  0.00000000000E+00  0.00000000000E+00 -0.28748887001E+04  0.28748887001E+04  0.25500000920E-02 0.  1.
    10030    2    1    2    0    0  0.00000000000E+00  0.00000000000E+00 -0.17066855150E+04  0.40430918852E+04  0.36652171211E+04 0.  0.
        3    1    3    3  502    0 -0.45686157449E+03  0.73450585650E+03 -0.26355307942E+04  0.27738500192E+04  0.10100000352E+00 0.  1.
       -3    1    3    3    0  502  0.45686157449E+03 -0.73450585650E+03  0.92884527921E+03  0.12692418660E+04  0.10100000352E+00 0. -1.
</event>
<event>
 5   0  0.2422436E-06  0.3523612E+04  0.7818609E-02  0.8108217E-01
        2   -1    0    0  501    0  0.00000000000E+00  0.00000000000E+00  0.20536087355E+04  0.20536087355E+04  0.25500000920E-02 0. -1.
       -2   -1    0    0    0  501  0.00000000000E+00  0.00000000000E+00 -0.15114664987E+04  0.15114664987E+04  0.25500000920E-02 0.  1.
    10030    2    1    2    0    0  0.00000000000E+00  0.00000000000E+00  0.54214223683E+03  0.35650752341E+04  0.35236122403E+04 0.  0.
        2    1    3    3  502    0 -0.45866175094E+03 -0.10517236512E+04 -0.10816232259E+04  0.15768329154E+04  0.25500000920E-02 0.  1.
       -2    1    3    3    0  502  0.45866175094E+03  0.10517236512E+04  0.16237654627E+04  0.19882423188E+04  0.25500000920E-02 0. -1.
</event>
<event>
 5   0  0.7754556E-07  0.1860197E+04  0.7818609E-02  0.8674927E-01
        1   -1    0    0  501    0  0.00000000000E+00  0.00000000000E+00  0.17475287244E+04  0.17475287244E+04  0.50400001928E-02 0.  1.
       -1   -1    0    0    0  501  0.00000000000E+00  0.00000000000E+00 -0.49503208398E+03  0.49503208401E+03  0.50400001928E-02 0. -1.
    10030    2    1    2    0    0  0.00000000000E+00  0.00000000000E+00  0.12524966404E+04  0.22425608084E+04  0.18601965340E+04 0.  0.
        4    1    3    3  502    0  0.57350868394E+03  0.12160178500E+03 -0.24424090729E+03  0.63510191180E+03  0.12699999809E+01 0. -1.
       -4    1    3    3    0  502 -0.57350868394E+03 -0.12160178500E+03  0.14967375477E+04  0.16074588966E+04  0.12699999809E+01 0.  1.
</event>
<event>
 5   0  0.8423692E-07  0.3416585E+04  0.7818609E-02  0.8133848E-01
        1   -1    0    0  501    0  0.00000000000E+00  0.00000000000E+00  0.13521933879E+04  0.13521933879E+04  0.50400001928E-02 0. -1.
       -1   -1    0    0    0  501  0.00000000000E+00  0.00000000000E+00 -0.21581706723E+04  0.21581706723E+04  0.50400001928E-02 0.  1.
    10030    2    1    2    0    0  0.00000000000E+00  0.00000000000E+00 -0.80597728437E+03  0.35103640602E+04  0.34165854962E+04 0.  0.
        2    1    3    3  502    0  0.76220157273E+03  0.36148338361E+03 -0.19292393189E+04  0.21056081838E+04  0.25500000920E-02 0.  1.
       -2    1    3    3    0  502 -0.76220157273E+03 -0.36148338361E+03  0.11232620345E+04  0.14047558764E+04  0.25500000920E-02 0. -1.
</event>
<event>
 5   0  0.1566576E-06  0.3549890E+04  0.7818609E-02  0.8102067E-01
       -2   -1    0    0    0  501  0.00000000000E+00  0.00000000000E+00  0.12357764099E+04  0.12357764099E+04  0.25500000920E-02 0.  1.
        2   -1    0    0  501    0  0.00000000000E+00  0.00000000000E+00 -0.25493529470E+04  0.25493529470E+04  0.25500000920E-02 0. -1.
    10030    2    1    2    0    0  0.00000000000E+00  0.00000000000E+00 -0.13135765371E+04  0.37851293569E+04  0.35498902700E+04 0.  0.
        4    1    3    3  502    0  0.15807349586E+04 -0.25922693146E+03 -0.14719816756E+04  0.21754662207E+04  0.12699999809E+01 0. -1.
       -4    1    3    3    0  502 -0.15807349586E+04  0.25922693146E+03  0.15840513844E+03  0.16096631362E+04  0.12699999809E+01 0.  1.
</event>
<event>
 5   0  0.1566576E-06  0.1862078E+04  0.7818609E-02  0.8673966E-01
        2   -1    0    0  501    0  0.00000000000E+00  0.00000000000E+00  0.10249368135E+04  0.10249368135E+04  0.25500000920E-02 0.  1.
       -2   -1    0    0    0  501  0.00000000000E+00  0.00000000000E+00 -0.84574382553E+03  0.84574382553E+03  0.25500000920E-02 0. -1.
    10030    2    1    2    0    0  0.00000000000E+00  0.00000000000E+00  0.17919298798E+03  0.18706806390E+04  0.18620783889E+04 0.  0.
        4    1    3    3  502    0  0.17602531115E+03  0.32835137002E+03  0.94678665115E+03  0.10174507890E+04  0.12699999809E+01 0.  1.
       -4    1    3    3    0  502 -0.17602531115E+03 -0.32835137002E+03 -0.76759366317E+03  0.85322985004E+03  0.12699999809E+01 0. -1.
</event>
<event>
 5   0  0.2382711E-06  0.1915590E+04  0.7818609E-02  0.8647135E-01
       -2   -1    0    0    0  501  0.00000000000E+00  0.00000000000E+00  0.33130718498E+03  0.33130718499E+03  0.25500000920E-02 0.  1.
        2   -1    0    0  501    0  0.00000000000E+00  0.00000000000E+00 -0.27689455794E+04  0.27689455794E+04  0.25500000920E-02 0. -1.
    10030    2    1    2    0    0  0.00000000000E+00  0.00000000000E+00 -0.24376383944E+04  0.31002527644E+04  0.19155903166E+04 0.  0.
        5    1    3    3  502    0  0.63198237769E+03  0.42270540294E+03 -0.27613581672E+03  0.80892191382E+03  0.46999998093E+01 0.  1.
       -5    1    3    3    0  502 -0.63198237769E+03 -0.42270540294E+03 -0.21615025777E+04  0.22913308506E+04  0.46999998093E+01 0. -1.
</event>
<event>
 5   0  0.2382711E-06  0.3709372E+04  0.7818609E-02  0.8065888E-01
       -2   -1    0    0    0  501  0.00000000000E+00  0.00000000000E+00  0.14379543089E+04  0.14379543089E+04  0.25500000920E-02 0. -1.
        2   -1    0    0  501    0  0.00000000000E+00  0.00000000000E+00 -0.23921895707E+04  0.23921895707E+04  0.25500000920E-02 0.  1.
    10030    2    1    2    0    0  0.00000000000E+00  0.00000000000E+00 -0.95423526185E+03  0.38301438796E+04  0.37093715375E+04 0.  0.
        5    1    3    3  502    0  0.84509999901E+02 -0.28820932969E+03  0.14126709239E+04  0.14442533666E+04  0.46999998093E+01 0. -1.
       -5    1    3    3    0  502 -0.84509999901E+02  0.28820932969E+03 -0.23669061857E+04  0.23858905130E+04  0.46999998093E+01 0.  1.
</event>
<event>
 5   0  0.2422436E-06  0.3098991E+04  0.7818609E-02  0.8216015E-01
        2   -1    0    0  501    0  0.00000000000E+00  0.00000000000E+00  0.21455415485E+04  0.21455415485E+04  0.25500000920E-02 0.  1.
       -2   -1    0    0    0  501  0.00000000000E+00  0.00000000000E+00 -0.11190353276E+04  0.11190353276E+04  0.25500000920E-02 0. -1.
    10030    2    1    2    0    0  0.00000000000E+00  0.00000000000E+00  0.10265062210E+04  0.32645768761E+04  0.30989913130E+04 0.  0.
        2    1    3    3  502    0 -0.14943688318E+04  0.21453862277E+03  0.88085678056E+03  0.17478769105E+04  0.25500000920E-02 0. -1.
       -2    1    3    3    0  502  0.14943688318E+04 -0.21453862277E+03  0.14564944042E+03  0.15166999656E+04  0.25500000920E-02 0.  1.
</event>
<event>
 5   0  0.2536619E-06  0.3112327E+04  0.7818609E-02  0.8212363E-01
        2   -1    0    0  501    0  0.00000000000E+00  0.00000000000E+00  0.12576187994E+04  0.12576187994E+04  0.25500000920E-02 0.  1.
       -2   -1    0    0    0  501  0.00000000000E+00  0.00000000000E+00 -0.19255788605E+04  0.19255788605E+04  0.25500000920E-02 0. -1.
    10030    2    1    2    0    0  0.00000000000E+00  0.00000000000E+00 -0.66796006113E+03  0.31831976599E+04  0.31123265733E+04 0.  0.
        1    1    3    3  502    0 -0.12301688444E+04 -0.72791433083E+02 -0.13058979347E+04  0.17955454308E+04  0.50400001928E-02 0. -1.
       -1    1    3    3    0  502  0.12301688444E+04  0.72791433083E+02  0.63793787352E+03  0.13876522291E+04  0.50400001928E-02 0.  1.
</event>
<event>
 5   0  0.2422436E-06  0.3648932E+04  0.7818609E-02  0.8079374E-01
        2   -1    0    0  501    0  0.00000000000E+00  0.00000000000E+00  0.23057125179E+04  0.23057125179E+04  0.25500000920E-02 0.  1.
       -2   -1    0    0    0  501  0.00000000000E+00  0.00000000000E+00 -0.14436647873E+04  0.14436647873E+04  0.25500000920E-02 0. -1.
    10030    2    1    2    0    0  0.00000000000E+00  0.00000000000E+00  0.86204773063E+03  0.37493773052E+04  0.36489318830E+04 0.  0.
        2    1    3    3  502    0 -0.74188914385E+03 -0.13602483380E+04  0.14208697814E+04  0.21022716234E+04  0.25500000920E-02 0. -1.
       -2    1    3    3    0  502  0.74188914385E+03  0.13602483380E+04 -0.55882205079E+03  0.16471056818E+04  0.25500000920E-02 0.  1.
</event>
<event>
 5   0  0.2536619E-06  0.3533459E+04  0.7818609E-02  0.8105906E-01
       -2   -1    0    0    0  501  0.00000000000E+00  0.00000000000E+00  0.15843720787E+04  0.15843720787E+04  0.25500000920E-02 0.  1.
        2   -1    0    0  501    0  0.00000000000E+00  0.00000000000E+00 -0.19700763074E+04  0.19700763074E+04  0.25500000920E-02 0. -1.
    10030    2    1    2    0    0  0.00000000000E+00  0.00000000000E+00 -0.38570422861E+03  0.35544483861E+04  0.35334594348E+04 0.  0.
        1    1    3    3  502    0  0.12981289137E+03 -0.16717880871E+04  0.36687656234E+03  0.17164862968E+04  0.50400001928E-02 0.  1.
       -1    1    3    3    0  502 -0.12981289137E+03  0.16717880871E+04 -0.75258079095E+03  0.18379620893E+04  0.50400001928E-02 0. -1.
</event>
<event>
 5   0  0.1908273E-06  0.2118341E+04  0.7818609E-02  0.8553207E-01
       -1   -1    0    0    0  501  0.00000000000E+00  0.00000000000E+00  0.11639446939E+04  0.11639446939E+04  0.50400001928E-02 0.  1.
        1   -1    0    0  501    0  0.00000000000E+00  0.00000000000E+00 -0.96382813313E+03  0.96382813314E+03  0.50400001928E-02 0. -1.
    10030    2    1    2    0    0  0.00000000000E+00  0.00000000000E+00  0.20011656074E+03  0.21277728270E+04  0.21183414657E+04 0.  0.
        3    1    3    3  502    0  0.29671465491E+03  0.96534463662E+03 -0.22060084924E+03  0.10337284937E+04  0.10100000352E+00 0.  1.
       -3    1    3    3    0  502 -0.29671465491E+03 -0.96534463662E+03  0.42071740998E+03  0.10940443333E+04  0.10100000352E+00 0. -1.
</event>
<event>
 5   0  0.1513502E-06  0.3544643E+04  0.7818609E-02  0.8103291E-01
       -2   -1    0    0    0  501  0.00000000000E+00  0.00000000000E+00  0.23866475031E+04  0.23866475031E+04  0.25500000920E-02 0.  1.
        2   -1    0    0  501    0  0.00000000000E+00  0.00000000000E+00 -0.13161234548E+04  0.13161234548E+04  0.25500000920E-02 0. -1.
    10030    2    1    2    0    0  0.00000000000E+00  0.00000000000E+00  0.10705240483E+04  0.37027709578E+04  0.35446425812E+04 0.  0.
        3    1    3    3  502    0  0.10549111216E+04 -0.55610672412E+03  0.19048697595E+04  0.22473586661E+04  0.10100000352E+00 0.  1.
       -3    1    3    3    0  502 -0.10549111216E+04  0.55610672412E+03 -0.83434571121E+03  0.14554122918E+04  0.10100000352E+00 0. -1.
</event>
<event>
 5   0  0.1566576E-06  0.3589095E+04  0.7818609E-02  0.8092994E-01
        2   -1    0    0  501    0  0.00000000000E+00  0.00000000000E+00  0.22306604898E+04  0.22306604898E+04  0.25500000920E-02 0. -1.
       -2   -1    0    0    0  501  0.00000000000E+00  0.00000000000E+00 -0.14436981625E+04  0.14436981625E+04  0.25500000920E-02 0.  1.
    10030    2    1    2    0    0  0.00000000000E+00  0.00000000000E+00  0.78696232732E+03  0.36743586524E+04  0.35890948443E+04 0.  0.
        4    1    3    3  502    0  0.17062494968E+04 -0.51103776512E+03  0.61766252199E+03  0.18851937690E+04  0.12699999809E+01 0. -1.
       -4    1    3    3    0  502 -0.17062494968E+04  0.51103776512E+03  0.16929980533E+03  0.17891648833E+04  0.12699999809E+01 0.  1.
</event>
<event>
 5   0  0.2422436E-06  0.3721355E+04  0.7818609E-02  0.8063246E-01
       -2   -1    0    0    0  501  0.00000000000E+00  0.00000000000E+00  0.20485979737E+04  0.20485979737E+04  0.25500000920E-02 0.  1.
        2   -1    0    0  501    0  0.00000000000E+00  0.00000000000E+00 -0.16899951082E+04  0.16899951082E+04  0.25500000920E-02 0. -1.
    10030    2    1    2    0    0  0.00000000000E+00  0.00000000000E+00  0.35860286545E+03  0.37385930819E+04  0.37213548900E+04 0.  0.
        2    1    3    3  502    0  0.57956952833E+03  0.75791243458E+03  0.17841329450E+04  0.20232306992E+04  0.25500000920E-02 0.  1.
       -2    1    3    3    0  502 -0.57956952833E+03 -0.75791243458E+03 -0.14255300795E+04  0.17153623828E+04  0.25500000920E-02 0. -1.
</event>
<event>
 5   0  0.1908273E-06  0.3025557E+04  0.7818609E-02  0.8236471E-01
        1   -1    0    0  501    0  0.00000000000E+00  0.00000000000E+00  0.11605281713E+04  0.11605281713E+04  0.50400001928E-02 0.  1.
       -1   -1    0    0    0  501  0.00000000000E+00  0.00000000000E+00 -0.19719452757E+04  0.19719452757E+04  0.50400001928E-02 0. -1.
    10030    2    1    2    0    0  0.00000000000E+00  0.00000000000E+00 -0.81141710444E+03  0.31324734470E+04  0.30255565073E+04 0.  0.
        3    1    3    3  502    0  0.52940249458E+03 -0.13228667417E+04  0.12043733139E+03  0.14299470545E+04  0.10100000352E+00 0.  1.
       -3    1    3    3    0  502 -0.52940249458E+03  0.13228667417E+04 -0.93185443583E+03  0.17025263926E+04  0.10100000352E+00 0. -1.
</event>
<event>
 5   0  0.1634374E-06  0.2811340E+04  0.7818609E-02  0.8299757E-01
       -1   -1    0    0    0  501  0.00000000000E+00  0.00000000000E+00  0.75584398416E+03  0.75584398418E+03  0.50400001928E-02 0.  1.
        1   -1    0    0  501    0  0.00000000000E+00  0.00000000000E+00 -0.26141738153E+04  0.26141738153E+04  0.50400001928E-02 0. -1.
    10030    2    1    2    0    0  0.00000000000E+00  0.00000000000E+00 -0.18583298311E+04  0.33700177995E+04  0.28113395753E+04 0.  0.
        5    1    3    3  502    0 -0.19566217917E+03  0.13889656210E+04 -0.81945537202E+03  0.16245117363E+04  0.46999998093E+01 0.  1.
       -5    1    3    3    0  502  0.19566217917E+03 -0.13889656210E+04 -0.10388744591E+04  0.17455060631E+04  0.46999998093E+01 0. -1.
</event>
<event>
 5   0  0.1566576E-06  0.3523424E+04  0.7818609E-02  0.8108261E-01
       -2   -1    0    0    0  501  0.00000000000E+00  0.00000000000E+00  0.22144159849E+04  0.22144159849E+04  0.25500000920E-02 0. -1.
        2   -1    0    0  501    0  0.00000000000E+00  0.00000000000E+00 -0.14015561397E+04  0.14015561397E+04  0.25500000920E-02 0.  1.
    10030    2    1    2    0    0  0.00000000000E+00  0.00000000000E+00  0.81285984521E+03  0.36159721246E+04  0.35234235167E+04 0.  0.
        4    1    3    3  502    0 -0.63675771306E+03  0.24779259728E+03  0.20728939764E+04  0.21826022557E+04  0.12699999809E+01 0. -1.
       -4    1    3    3    0  502  0.63675771306E+03 -0.24779259728E+03 -0.12600341312E+04  0.14333698689E+04  0.12699999809E+01 0.  1.
</event>
<event>
 5   0  0.1513502E-06  0.3710909E+04  0.7818609E-02  0.8065549E-01
        2   -1    0    0  501    0  0.00000000000E+00  0.00000000000E+00  0.20362193926E+04  0.20362193926E+04  0.25500000920E-02 0. -1.
       -2   -1    0    0    0  501  0.00000000000E+00  0.00000000000E+00 -0.16907366919E+04  0.16907366919E+04  0.25500000920E-02 0.  1.
    10030    2    1    2    0    0  0.00000000000E+00  0.00000000000E+00  0.34548270068E+03  0.37269560845E+04  0.37109086972E+04 0.  0.
        3    1    3    3  502    0  0.10158150945E+04  0.34704375187E+03 -0.13472070178E+04  0.17225813278E+04  0.10100000352E+00 0.  1.
       -3    1    3    3    0  502 -0.10158150945E+04 -0.34704375187E+03  0.16926897185E+04  0.20043747567E+04  0.10100000352E+00 0. -1.
</event>
<event>
 5   0  0.1513502E-06  0.3350550E+04  0.7818609E-02  0.8150151E-01
       -2   -1    0    0    0  501  0.00000000000E+00  0.00000000000E+00  0.13487636840E+04  0.13487636840E+04  0.25500000920E-02 0.  1.
        2   -1    0    0  501    0  0.00000000000E+00  0.00000000000E+00 -0.20808288347E+04  0.20808288347E+04  0.25500000920E-02 0. -1.
    10030    2    1    2    0    0  0.00000000000E+00  0.00000000000E+00 -0.73206515069E+03  0.34295925187E+04  0.33505500235E+04 0.  0.
        3    1    3    3  502    0  0.14535962776E+04  0.69521977957E+02  0.48346827017E+03  0.15334656899E+04  0.10100000352E+00 0.  1.
       -3    1    3    3    0  502 -0.14535962776E+04 -0.69521977957E+02 -0.12155334209E+04  0.18961268288E+04  0.10100000352E+00 0. -1.
</event>
<event>
 5   0  0.8423692E-07  0.2675295E+04  0.7818609E-02  0.8343066E-01
       -1   -1    0    0    0  501  0.00000000000E+00  0.00000000000E+00  0.90998947934E+03  0.90998947936E+03  0.50400001928E-02 0.  1.
        1   -1    0    0  501    0  0.00000000000E+00  0.00000000000E+00 -0.19662872427E+04  0.19662872427E+04  0.50400001928E-02 0. -1.
    10030    2    1    2    0    0  0.00000000000E+00  0.00000000000E+00 -0.10562977634E+04  0.28762767221E+04  0.26752949028E+04 0.  0.
        2    1    3    3  502    0  0.36656020324E+03 -0.45810992856E+03 -0.18205680456E+04  0.19127726206E+04  0.25500000920E-02 0. -1.
       -2    1    3    3    0  502 -0.36656020324E+03  0.45810992856E+03  0.76427028226E+03  0.96350410150E+03  0.25500000920E-02 0.  1.
</event>
<event>
 5   0  0.8423692E-07  0.3612703E+04  0.7818609E-02  0.8087588E-01
       -1   -1    0    0    0  501  0.00000000000E+00  0.00000000000E+00  0.13109526438E+04  0.13109526438E+04  0.50400001928E-02 0.  1.
        1   -1    0    0  501    0  0.00000000000E+00  0.00000000000E+00 -0.24889583123E+04  0.24889583123E+04  0.50400001928E-02 0. -1.
    10030    2    1    2    0    0  0.00000000000E+00  0.00000000000E+00 -0.11780056685E+04  0.37999109561E+04  0.36127034087E+04 0.  0.
        2    1    3    3  502    0 -0.23851978101E+03 -0.41478242599E+03  0.12430870462E+04  0.13319915733E+04  0.25500000920E-02 0.  1.
       -2    1    3    3    0  502  0.23851978101E+03  0.41478242599E+03 -0.24210927147E+04  0.24679193828E+04  0.25500000920E-02 0. -1.
</event>
<event>
 5   0  0.2382711E-06  0.2038440E+04  0.7818609E-02  0.8588857E-01
       -2   -1    0    0    0  501  0.00000000000E+00  0.00000000000E+00  0.73528807367E+03  0.73528807368E+03  0.25500000920E-02 0.  1.
        2   -1    0    0  501    0  0.00000000000E+00  0.00000000000E+00 -0.14127918263E+04  0.14127918263E+04  0.25500000920E-02 0. -1.
    10030    2    1    2    0    0  0.00000000000E+00  0.00000000000E+00 -0.67750375266E+03  0.21480799000E+04  0.20384395802E+04 0.  0.
        5    1    3    3  502    0  0.76541394143E+03  0.37834943352E+02 -0.10468280439E+04  0.12973669597E+04  0.46999998093E+01 0. -1.
       -5    1    3    3    0  502 -0.76541394143E+03 -0.37834943352E+02  0.36932429124E+03  0.85071294029E+03  0.46999998093E+01 0.  1.
</event>
<event>
 5   0  0.1566576E-06  0.3371751E+04  0.7818609E-02  0.8144875E-01
        2   -1    0    0  501    0  0.00000000000E+00  0.00000000000E+00  0.29230894277E+04  0.29230894277E+04  0.25500000920E-02 0. -1.
       -2   -1    0    0    0  501  0.00000000000E+00  0.00000000000E+00 -0.97231914932E+03  0.97231914933E+03  0.25500000920E-02 0.  1.
    10030    2    1    2    0    0  0.00000000000E+00  0.00000000000E+00  0.19507702783E+04  0.38954085770E+04  0.33717507771E+04 0.  0.
        4    1    3    3  502    0 -0.54129763079E+03 -0.11850615367E+04  0.22115101854E+04  0.25667397383E+04  0.12699999809E+01 0. -1.
       -4    1    3    3    0  502  0.54129763079E+03  0.11850615367E+04 -0.26073990707E+03  0.13286688387E+04  0.12699999809E+01 0.  1.
</event>
<event>
 5   0  0.1513502E-06  0.3599398E+04  0.7818609E-02  0.8090630E-01
       -2   -1    0    0    0  501  0.00000000000E+00  0.00000000000E+00  0.11121953446E+04  0.11121953446E+04  0.25500000920E-02 0. -1.
        2   -1    0    0  501    0  0.00000000000E+00  0.00000000000E+00 -0.29121826159E+04  0.29121826159E+04  0.25500000920E-02 0.  1.
    10030    2    1    2    0    0  0.00000000000E+00  0.00000000000E+00 -0.17999872712E+04  0.40243779605E+04  0.35993976986E+04 0.  0.
        3    1    3    3  502    0  0.65762746346E+03  0.34390573765E+03 -0.27331409423E+04  0.28321024801E+04  0.10100000352E+00 0.  1.
       -3    1    3    3    0  502 -0.65762746346E+03 -0.34390573765E+03  0.93315367109E+03  0.11922754804E+04  0.10100000352E+00 0. -1.
</event>
<event>
 5   0  0.2536619E-06  0.3574120E+04  0.7818609E-02  0.8096446E-01
        2   -1    0    0  501    0  0.00000000000E+00  0.00000000000E+00  0.19436386284E+04  0.19436386284E+04  0.25500000920E-02 0. -1.
       -2   -1    0    0    0  501  0.00000000000E+00  0.00000000000E+00 -0.16430953756E+04  0.16430953756E+04  0.25500000920E-02 0.  1.
    10030    2    1    2    0    0  0.00000000000E+00  0.00000000000E+00  0.30054325279E+03  0.35867340040E+04  0.35741201111E+04 0.  0.
        1    1    3    3  502    0 -0.11185982351E+04 -0.11708970253E+04  0.90879753566E+03  0.18569261742E+04  0.50400001928E-02 0. -1.
       -1    1    3    3    0  502  0.11185982351E+04  0.11708970253E+04 -0.60825428287E+03  0.17298078298E+04  0.50400001928E-02 0.  1.
</event>
<event>
 5   0  0.7754556E-07  0.1893172E+04  0.7818609E-02  0.8658263E-01
       -1   -1    0    0    0  501  0.00000000000E+00  0.00000000000E+00  0.10223741767E+04  0.10223741767E+04  0.50400001928E-02 0.  1.
        1   -1    0    0  501    0  0.00000000000E+00  0.00000000000E+00 -0.87641580846E+03  0.87641580848E+03  0.50400001928E-02 0. -1.
    10030    2    1    2    0    0  0.00000000000E+00  0.00000000000E+00  0.14595836825E+03  0.18987899852E+04  0.18931718260E+04 0.  0.
        4    1    3    3  502    0  0.45864345613E+02 -0.90656921007E+03  0.34220080879E+03  0.97008982949E+03  0.12699999809E+01 0.  1.
       -4    1    3    3    0  502 -0.45864345613E+02  0.90656921007E+03 -0.19624244054E+03  0.92870015571E+03  0.12699999809E+01 0. -1.
</event>
<event>
 5   0  0.1566576E-06  0.3450490E+04  0.7818609E-02  0.8125624E-01
       -2   -1    0    0    0  501  0.00000000000E+00  0.00000000000E+00  0.14458466918E+04  0.14458466918E+04  0.25500000920E-02 0.  1.
        2   -1    0    0  501    0  0.00000000000E+00  0.00000000000E+00 -0.20586352253E+04  0.20586352253E+04  0.25500000920E-02 0. -1.
    10030    2    1    2    0    0  0.00000000000E+00  0.00000000000E+00 -0.61278853351E+03  0.35044819172E+04  0.34504903595E+04 0.  0.
        4    1    3    3  502    0  0.41535831245E+03 -0.12839907952E+04 -0.13980686098E+04  0.19431295223E+04  0.12699999809E+01 0. -1.
       -4    1    3    3    0  502 -0.41535831245E+03  0.12839907952E+04  0.78528007625E+03  0.15613523949E+04  0.12699999809E+01 0.  1.
</event>
<event>
 5   0  0.8423692E-07  0.1894088E+04  0.7818609E-02  0.8657805E-01
       -1   -1    0    0    0  501  0.00000000000E+00  0.00000000000E+00  0.90527845782E+03  0.90527845784E+03  0.50400001928E-02 0.  1.
        1   -1    0    0  501    0  0.00000000000E+00  0.00000000000E+00 -0.99073681850E+03  0.99073681851E+03  0.50400001928E-02 0. -1.
    10030    2    1    2    0    0  0.00000000000E+00  0.00000000000E+00 -0.85458360673E+02  0.18960152763E+04  0.18940883814E+04 0.  0.
        2    1    3    3  502    0  0.80293557769E+03  0.22916765667E+03  0.40456915909E+03  0.92784673373E+03  0.25500000920E-02 0.  1.
       -2    1    3    3    0  502 -0.80293557769E+03 -0.22916765667E+03 -0.49002751976E+03  0.96816854262E+03  0.25500000920E-02 0. -1.
</event>
<event>
 5   0  0.1513502E-06  0.3410272E+04  0.7818609E-02  0.8135390E-01
       -2   -1    0    0    0  501  0.00000000000E+00  0.00000000000E+00  0.17086108671E+04  0.17086108671E+04  0.25500000920E-02 0.  1.
        2   -1    0    0  501    0  0.00000000000E+00  0.00000000000E+00 -0.17016679975E+04  0.17016679975E+04  0.25500000920E-02 0. -1.
    10030    2    1    2    0    0  0.00000000000E+00  0.00000000000E+00  0.69428696521E+01  0.34102788646E+04  0.34102717972E+04 0.  0.
        3    1    3    3  502    0  0.74999597092E+03  0.15300282568E+04  0.66780328454E+02  0.17052683207E+04  0.10100000352E+00 0. -1.
       -3    1    3    3    0  502 -0.74999597092E+03 -0.15300282568E+04 -0.59837458801E+02  0.17050105439E+04  0.10100000352E+00 0.  1.
</event>
<event>
 5   0  0.1566576E-06  0.3329508E+04  0.7818609E-02  0.8155427E-01
       -2   -1    0    0    0  501  0.00000000000E+00  0.00000000000E+00  0.18869557761E+04  0.18869557761E+04  0.25500000920E-02 0.  1.
        2   -1    0    0  501    0  0.00000000000E+00  0.00000000000E+00 -0.14687181501E+04  0.14687181501E+04  0.25500000920E-02 0. -1.
    10030    2    1    2    0    0  0.00000000000E+00  0.00000000000E+00  0.41823762604E+03  0.33556739261E+04  0.33295081899E+04 0.  0.
        4    1    3    3  502    0  0.21325568643E+03  0.68772060944E+02 -0.14534501073E+04  0.14706210972E+04  0.12699999809E+01 0. -1.
       -4    1    3    3    0  502 -0.21325568643E+03 -0.68772060944E+02  0.18716877333E+04  0.18850528290E+04  0.12699999809E+01 0.  1.
</event>
<event>
 5   0  0.7754556E-07  0.2773804E+04  0.7818609E-02  0.8311448E-01
        1   -1    0    0  501    0  0.00000000000E+00  0.00000000000E+00  0.12344476353E+04  0.12344476354E+04  0.50400001928E-02 0. -1.
       -1   -1    0    0    0  501  0.00000000000E+00  0.00000000000E+00 -0.15581839921E+04  0.15581839921E+04  0.50400001928E-02 0.  1.
    10030    2    1    2    0    0  0.00000000000E+00  0.00000000000E+00 -0.32373635677E+03  0.27926316275E+04  0.27738035579E+04 0.  0.
        4    1    3    3  502    0 -0.59550829524E+03 -0.11757310428E+04  0.27294448913E+03  0.13459100719E+04  0.12699999809E+01 0.  1.
       -4    1    3    3    0  502  0.59550829524E+03  0.11757310428E+04 -0.59668084590E+03  0.14467215556E+04  0.12699999809E+01 0. -1.
</event>
<event>
 5   0  0.2536619E-06  0.3737552E+04  0.7818609E-02  0.8059690E-01
        2   -1    0    0  501    0  0.00000000000E+00  0.00000000000E+00  0.26004674599E+04  0.26004674599E+04  0.25500000920E-02 0.  1.
       -2   -1    0    0    0  501  0.00000000000E+00  0.00000000000E+00 -0.13429601933E+04  0.13429601933E+04  0.25500000920E-02 0. -1.
    10030    2    1    2    0    0  0.00000000000E+00  0.00000000000E+00  0.12575072666E+04  0.39434276532E+04  0.37375522913E+04 0.  0.
        1    1    3    3  502    0  0.10367744095E+04 -0.33085936958E+03  0.22316309604E+04  0.24828503463E+04  0.50400001928E-02 0.  1.
       -1    1    3    3    0  502 -0.10367744095E+04  0.33085936958E+03 -0.97412369379E+03  0.14605773069E+04  0.50400001928E-02 0. -1.
</event>
<event>
 5   0  0.1908273E-06  0.3612092E+04  0.7818609E-02  0.8087728E-01
       -1   -1    0    0    0  501  0.00000000000E+00  0.00000000000E+00  0.15449348996E+04  0.15449348996E+04  0.50400001928E-02 0.  1.
        1   -1    0    0  501    0  0.00000000000E+00  0.00000000000E+00 -0.21112871903E+04  0.21112871903E+04  0.50400001928E-02 0. -1.
    10030    2    1    2    0    0  0.00000000000E+00  0.00000000000E+00 -0.56635229074E+03  0.36562220899E+04  0.36120915067E+04 0.  0.
        3    1    3    3  502    0  0.97373656780E+03  0.72620497249E+03  0.10696647732E+04  0.16185546957E+04  0.10100000352E+00 0.  1.
       -3    1    3    3    0  502 -0.97373656780E+03 -0.72620497249E+03 -0.16360170640E+04  0.20376673942E+04  0.10100000352E+00 0. -1.
</event>
<event>
 5   0  0.1634374E-06  0.3507033E+04  0.7818609E-02  0.8112125E-01
       -1   -1    0    0    0  501  0.00000000000E+00  0.00000000000E+00  0.11806638193E+04  0.11806638193E+04  0.50400001928E-02 0.  1.
        1   -1    0    0  501    0  0.00000000000E+00  0.00000000000E+00 -0.26043146371E+04  0.26043146371E+04  0.50400001928E-02 0. -1.
    10030    2    1    2    0    0  0.00000000000E+00  0.00000000000E+00 -0.14236508178E+04  0.37849784565E+04  0.35070329717E+04 0.  0.
        5    1    3    3  502    0  0.87672570292E+03 -0.10535996080E+04  0.46850417652E+03  0.14485297186E+04  0.46999998093E+01 0.  1.
       -5    1    3    3    0  502 -0.87672570292E+03  0.10535996080E+04 -0.18921549943E+04  0.23364487379E+04  0.46999998093E+01 0. -1.
</event>
<event>
 5   0  0.7754556E-07  0.3517452E+04  0.7818609E-02  0.8109666E-01
        1   -1    0    0  501    0  0.00000000000E+00  0.00000000000E+00  0.18432403557E+04  0.18432403557E+04  0.50400001928E-02 0. -1.
       -1   -1    0    0    0  501  0.00000000000E+00  0.00000000000E+00 -0.16780870139E+04  0.16780870139E+04  0.50400001928E-02 0.  1.
    10030    2    1    2    0    0  0.00000000000E+00  0.00000000000E+00  0.16515334185E+03  0.35213273696E+04  0.35174523192E+04 0.  0.
        4    1    3    3  502    0  0.46732394667E+03  0.12352744746E+04 -0.10800904894E+04  0.17061335753E+04  0.12699999809E+01 0.  1.
       -4    1    3    3    0  502 -0.46732394667E+03 -0.12352744746E+04  0.12452438312E+04  0.18151937943E+04  0.12699999809E+01 0. -1.
</event>
<event>
 5   0  0.8452742E-07  0.2468901E+04  0.7818609E-02  0.8414149E-01
        1   -1    0    0  501    0  0.00000000000E+00  0.00000000000E+00  0.10327746918E+04  0.10327746918E+04  0.50400001928E-02 0.  1.
       -1   -1    0    0    0  501  0.00000000000E+00  0.00000000000E+00 -0.14755091302E+04  0.14755091302E+04  0.50400001928E-02 0. -1.
    10030    2    1    2    0    0  0.00000000000E+00  0.00000000000E+00 -0.44273443837E+03  0.25082838220E+04  0.24689013647E+04 0.  0.
        1    1    3    3  502    0 -0.94342965321E+03  0.59914559561E+03 -0.75397535569E+03  0.13481519915E+04  0.50400001928E-02 0. -1.
       -1    1    3    3    0  502  0.94342965321E+03 -0.59914559561E+03  0.31124091732E+03  0.11601318304E+04  0.50400001928E-02 0.  1.
</event>
<event>
 5   0  0.8452742E-07  0.1965771E+04  0.7818609E-02  0.8622793E-01
       -1   -1    0    0    0  501  0.00000000000E+00  0.00000000000E+00  0.15796326674E+04  0.15796326674E+04  0.50400001928E-02 0.  1.
        1   -1    0    0  501    0  0.00000000000E+00  0.00000000000E+00 -0.61157496321E+03  0.61157496323E+03  0.50400001928E-02 0. -1.
    10030    2    1    2    0    0  0.00000000000E+00  0.00000000000E+00  0.96805770418E+03  0.21912076306E+04  0.19657708824E+04 0.  0.
        1    1    3    3  502    0 -0.70770279975E+03  0.28797457852E+03  0.11732328259E+04  0.14000885238E+04  0.50400001928E-02 0.  1.
       -1    1    3    3    0  502  0.70770279975E+03 -0.28797457852E+03 -0.20517512170E+03  0.79111910686E+03  0.50400001928E-02 0. -1.
</event>
<event>
 5   0  0.8423692E-07  0.3610391E+04  0.7818609E-02  0.8088116E-01
        1   -1    0    0  501    0  0.00000000000E+00  0.00000000000E+00  0.12392593959E+04  0.12392593959E+04  0.50400001928E-02 0. -1.
       -1   -1    0    0    0  501  0.00000000000E+00  0.00000000000E+00 -0.26295792658E+04  0.26295792658E+04  0.50400001928E-02 0.  1.
    10030    2    1    2    0    0  0.00000000000E+00  0.00000000000E+00 -0.13903198699E+04  0.38688386617E+04  0.36103910106E+04 0.  0.
        2    1    3    3  502    0  0.13061368275E+04  0.67591046428E+03  0.42662180108E+03  0.15312917844E+04  0.25500000920E-02 0. -1.
       -2    1    3    3    0  502 -0.13061368275E+04 -0.67591046428E+03 -0.18169416709E+04  0.23375468773E+04  0.25500000920E-02 0.  1.
</event>
<event>
 5   0  0.8452742E-07  0.3314189E+04  0.7818609E-02  0.8159294E-01
       -1   -1    0    0    0  501  0.00000000000E+00  0.00000000000E+00  0.33289122501E+04  0.33289122501E+04  0.50400001928E-02 0.  1.
        1   -1    0    0  501    0  0.00000000000E+00  0.00000000000E+00 -0.82488271748E+03  0.82488271750E+03  0.50400001928E-02 0. -1.
    10030    2    1    2    0    0  0.00000000000E+00  0.00000000000E+00  0.25040295326E+04  0.41537949676E+04  0.33141890008E+04 0.  0.
        1    1    3    3  502    0 -0.12877119948E+04  0.10300879792E+04  0.14567301961E+04  0.22003059539E+04  0.50400001928E-02 0.  1.
       -1    1    3    3    0  502  0.12877119948E+04 -0.10300879792E+04  0.10472993365E+04  0.19534890137E+04  0.50400001928E-02 0. -1.
</event>
<event>
 5   0  0.7754556E-07  0.3149590E+04  0.7818609E-02  0.8202259E-01
       -1   -1    0    0    0  501  0.00000000000E+00  0.00000000000E+00  0.29226623983E+04  0.29226623983E+04  0.50400001928E-02 0. -1.
        1   -1    0    0  501    0  0.00000000000E+00  0.00000000000E+00 -0.84853416553E+03  0.84853416555E+03  0.50400001928E-02 0.  1.
    10030    2    1    2    0    0  0.00000000000E+00  0.00000000000E+00  0.20741282327E+04  0.37711965638E+04  0.31495897506E+04 0.  0.
        4    1    3    3  502    0  0.12223820456E+03 -0.71352106736E+03 -0.63749712474E+03  0.96460286604E+03  0.12699999809E+01 0.  1.
       -4    1    3    3    0  502 -0.12223820456E+03  0.71352106736E+03  0.27116253575E+04  0.28065936978E+04  0.12699999809E+01 0. -1.
</event>
<event>
 5   0  0.1908273E-06  0.3532241E+04  0.7818609E-02  0.8106192E-01
       -1   -1    0    0    0  501  0.00000000000E+00  0.00000000000E+00  0.15265947301E+04  0.15265947301E+04  0.50400001928E-02 0. -1.
        1   -1    0    0  501    0  0.00000000000E+00  0.00000000000E+00 -0.20432279912E+04  0.20432279912E+04  0.50400001928E-02 0.  1.
    10030    2    1    2    0    0  0.00000000000E+00  0.00000000000E+00 -0.51663326113E+03  0.35698227213E+04  0.35322406960E+04 0.  0.
        3    1    3    3  502    0  0.28691430649E+03  0.14802834802E+04  0.67104452153E+03  0.16504119974E+04  0.10100000352E+00 0. -1.
       -3    1    3    3    0  502 -0.28691430649E+03 -0.14802834802E+04 -0.11876777827E+04  0.19194107238E+04  0.10100000352E+00 0.  1.
</event>
<event>
 5   0  0.2536619E-06  0.2722561E+04  0.7818609E-02  0.8327722E-01
        2   -1    0    0  501    0  0.00000000000E+00  0.00000000000E+00  0.13590206683E+04  0.13590206683E+04  0.25500000920E-02 0.  1.
       -2   -1    0    0    0  501  0.00000000000E+00  0.00000000000E+00 -0.13635439708E+04  0.13635439708E+04  0.25500000920E-02 0. -1.
    10030    2    1    2    0    0  0.00000000000E+00  0.00000000000E+00 -0.45233025033E+01  0.27225646392E+04  0.27225608817E+04 0.  0.
        1    1    3    3  502    0 -0.34678890714E+02 -0.13267897309E+04  0.30024632509E+03  0.13607797291E+04  0.50400001928E-02 0.  1.
       -1    1    3    3    0  502  0.34678890714E+02  0.13267897309E+04 -0.30476962759E+03  0.13617849101E+04  0.50400001928E-02 0. -1.
</event>
<event>
 5   0  0.2422436E-06  0.3642758E+04  0.7818609E-02  0.8080767E-01
        2   -1    0    0  501    0  0.00000000000E+00  0.00000000000E+00  0.16816579163E+04  0.16816579163E+04  0.25500000920E-02 0.  1.
       -2   -1    0    0    0  501  0.00000000000E+00  0.00000000000E+00 -0.19727086914E+04  0.19727086915E+04  0.25500000920E-02 0. -1.
    10030    2    1    2    0    0  0.00000000000E+00  0.00000000000E+00 -0.29105077520E+03  0.36543666077E+04  0.36427578495E+04 0.  0.
        2    1    3    3  502    0  0.10649761333E+04  0.62821751126E+03 -0.14871690508E+04  0.19340380533E+04  0.25500000920E-02 0. -1.
       -2    1    3    3    0  502 -0.10649761333E+04 -0.62821751126E+03  0.11961182756E+04  0.17203285544E+04  0.25500000920E-02 0.  1.
</event>
<event>
 5   0  0.1634374E-06  0.3467544E+04  0.7818609E-02  0.8121525E-01
        1   -1    0    0  501    0  0.00000000000E+00  0.00000000000E+00  0.13062209881E+04  0.13062209881E+04  0.50400001928E-02 0.  1.
       -1   -1    0    0    0  501  0.00000000000E+00  0.00000000000E+00 -0.23012683262E+04  0.23012683262E+04  0.50400001928E-02 0. -1.
    10030    2    1    2    0    0  0.00000000000E+00  0.00000000000E+00 -0.99504733808E+03  0.36074893143E+04  0.34675437917E+04 0.  0.
        5    1    3    3  502    0  0.84602253877E+03  0.10182557224E+04  0.66718752564E+03  0.14824844473E+04  0.46999998093E+01 0.  1.
       -5    1    3    3    0  502 -0.84602253877E+03 -0.10182557224E+04 -0.16622348637E+04  0.21250048669E+04  0.46999998093E+01 0. -1.
</event>
<event>
 5   0  0.2536619E-06  0.3718394E+04  0.7818609E-02  0.8063898E-01
       -2   -1    0    0    0  501  0.00000000000E+00  0.00000000000E+00  0.19746908883E+04  0.19746908883E+04  0.25500000920E-02 0.  1.
        2   -1    0    0  501    0  0.00000000000E+00  0.00000000000E+00 -0.17504576032E+04  0.17504576032E+04  0.25500000920E-02 0. -1.
    10030    2    1    2    0    0  0.00000000000E+00  0.00000000000E+00  0.22423328507E+03  0.37251484916E+04  0.37183935669E+04 0.  0.
        1    1    3    3  502    0 -0.13776931290E+04  0.89788443224E+03  0.98108955757E+03  0.19148815972E+04  0.50400001928E-02 0.  1.
       -1    1    3    3    0  502  0.13776931290E+04 -0.89788443224E+03 -0.75685627250E+03  0.18102668943E+04  0.50400001928E-02 0. -1.
</event>
<event>
 5   0  0.2536619E-06  0.2442233E+04  0.7818609E-02  0.8423859E-01
       -2   -1    0    0    0  501  0.00000000000E+00  0.00000000000E+00  0.82404002091E+03  0.82404002092E+03  0.25500000920E-02 0. -1.
        2   -1    0    0  501    0  0.00000000000E+00  0.00000000000E+00 -0.18095311406E+04  0.18095311406E+04  0.25500000920E-02 0.  1.
    10030    2    1    2    0    0  0.00000000000E+00  0.00000000000E+00 -0.98549111972E+03  0.26335711616E+04  0.24422334688E+04 0.  0.
        1    1    3    3  502    0  0.54255462443E+03 -0.72323350071E+03  0.39234798738E+03  0.98558062089E+03  0.50400001928E-02 0. -1.
       -1    1    3    3    0  502 -0.54255462443E+03  0.72323350071E+03 -0.13778391071E+04  0.16479905407E+04  0.50400001928E-02 0.  1.
</event>
<event>
 5   0  0.1566576E-06  0.3748212E+04  0.7818609E-02  0.8057361E-01
       -2   -1    0    0    0  501  0.00000000000E+00  0.00000000000E+00  0.16220558484E+04  0.16220558484E+04  0.25500000920E-02 0.  1.
        2   -1    0    0  501    0  0.00000000000E+00  0.00000000000E+00 -0.21653220023E+04  0.21653220023E+04  0.25500000920E-02 0. -1.
    10030    2    1    2    0    0  0.00000000000E+00  0.00000000000E+00 -0.54326615392E+03  0.37873778507E+04  0.37482119564E+04 0.  0.
        4    1    3    3  502    0 -0.82382735360E+02  0.16712611885E+04 -0.11244730084E+04  0.20160213379E+04  0.12699999809E+01 0. -1.
       -4    1    3    3    0  502  0.82382735360E+02 -0.16712611885E+04  0.58120685448E+03  0.17713565129E+04  0.12699999809E+01 0.  1.
</event>
<event>
 5   0  0.2422436E-06  0.3593783E+04  0.7818609E-02  0.8091917E-01
        2   -1    0    0  501    0  0.00000000000E+00  0.00000000000E+00  0.23854983095E+04  0.23854983095E+04  0.25500000920E-02 0. -1.
       -2   -1    0    0    0  501  0.00000000000E+00  0.00000000000E+00 -0.13535195232E+04  0.13535195232E+04  0.25500000920E-02 0.  1.
    10030    2    1    2    0    0  0.00000000000E+00  0.00000000000E+00  0.10319787863E+04  0.37390178327E+04  0.35937827060E+04 0.  0.
        2    1    3    3  502    0 -0.15456129974E+04  0.20269276112E+03 -0.41389451073E+03  0.16128585056E+04  0.25500000920E-02 0.  1.
       -2    1    3    3    0  502  0.15456129974E+04 -0.20269276112E+03  0.14458732970E+04  0.21261593271E+04  0.25500000920E-02 0. -1.
</event>
<event>
 5   0  0.1634374E-06  0.3685018E+04  0.7818609E-02  0.8071290E-01
        1   -1    0    0  501    0  0.00000000000E+00  0.00000000000E+00  0.20427122779E+04  0.20427122779E+04  0.50400001928E-02 0.  1.
       -1   -1    0    0    0  501  0.00000000000E+00  0.00000000000E+00 -0.16619277821E+04  0.16619277821E+04  0.50400001928E-02 0. -1.
    10030    2    1    2    0    0  0.00000000000E+00  0.00000000000E+00  0.38078449580E+03  0.37046400600E+04  0.36850184724E+04 0.  0.
        5    1    3    3  502    0 -0.64030994347E+03 -0.11620515525E+04 -0.10948742098E+04  0.17202128530E+04  0.46999998093E+01 0. -1.
       -5    1    3    3    0  502  0.64030994347E+03  0.11620515525E+04  0.14756587056E+04  0.19844272070E+04  0.46999998093E+01 0.  1.
</event>
<event>
 5   0  0.2422436E-06  0.2477167E+04  0.7818609E-02  0.8411165E-01
       -2   -1    0    0    0  501  0.00000000000E+00  0.00000000000E+00  0.10254041078E+04  0.10254041078E+04  0.25500000920E-02 0. -1.
        2   -1    0    0  501    0  0.00000000000E+00  0.00000000000E+00 -0.14960824925E+04  0.14960824925E+04  0.25500000920E-02 0.  1.
    10030    2    1    2    0    0  0.00000000000E+00  0.00000000000E+00 -0.47067838470E+03  0.25214866002E+04  0.24771670378E+04 0.  0.
        2    1    3    3  502    0  0.26447897730E+03 -0.74261275537E+03  0.73708863716E+03  0.10792230969E+04  0.25500000920E-02 0. -1.
       -2    1    3    3    0  502 -0.26447897730E+03  0.74261275537E+03 -0.12077670219E+04  0.14422635033E+04  0.25500000920E-02 0.  1.
</event>
<event>
 5   0  0.1634374E-06  0.2482462E+04  0.7818609E-02  0.8409260E-01
        1   -1    0    0  501    0  0.00000000000E+00  0.00000000000E+00  0.12745777680E+04  0.12745777680E+04  0.50400001928E-02 0. -1.
       -1   -1    0    0    0  501  0.00000000000E+00  0.00000000000E+00 -0.12087569001E+04  0.12087569001E+04  0.50400001928E-02 0.  1.
    10030    2    1    2    0    0  0.00000000000E+00  0.00000000000E+00  0.65820867868E+02  0.24833346681E+04  0.24824622227E+04 0.  0.
        5    1    3    3  502    0 -0.38115371315E+03  0.24101073461E+03 -0.11238991305E+04  0.12110060581E+04  0.46999998093E+01 0.  1.
       -5    1    3    3    0  502  0.38115371315E+03 -0.24101073461E+03  0.11897199984E+04  0.12723286100E+04  0.46999998093E+01 0. -1.
</event>
<event>
 5   0  0.8423692E-07  0.3248431E+04  0.7818609E-02  0.8176143E-01
       -1   -1    0    0    0  501  0.00000000000E+00  0.00000000000E+00  0.12681873125E+04  0.12681873125E+04  0.50400001928E-02 0. -1.
        1   -1    0    0  501    0  0.00000000000E+00  0.00000000000E+00 -0.20801940712E+04  0.20801940712E+04  0.50400001928E-02 0.  1.
    10030    2    1    2    0    0  0.00000000000E+00  0.00000000000E+00 -0.81200675873E+03  0.33483813837E+04  0.32484308388E+04 0.  0.
        2    1    3    3  502    0  0.87486831409E+03 -0.91140669636E+03 -0.14582053525E+04  0.19293572980E+04  0.25500000920E-02 0.  1.
       -2    1    3    3    0  502 -0.87486831409E+03  0.91140669636E+03  0.64619859382E+03  0.14190240857E+04  0.25500000920E-02 0. -1.
</event>
<event>
 5   0  0.2382711E-06  0.3268598E+04  0.7818609E-02  0.8170932E-01
        2   -1    0    0  501    0  0.00000000000E+00  0.00000000000E+00  0.23999265221E+04  0.23999265221E+04  0.25500000920E-02 0. -1.
       -2   -1    0    0    0  501  0.00000000000E+00  0.00000000000E+00 -0.11129232486E+04  0.11129232486E+04  0.25500000920E-02 0.  1.
    10030    2    1    2    0    0  0.00000000000E+00  0.00000000000E+00  0.12870032736E+04  0.35128497707E+04  0.32685984894E+04 0.  0.
        5    1    3    3  502    0  0.57850706304E+03  0.10371810679E+04 -0.56311386287E+03  0.13143569919E+04  0.46999998093E+01 0.  1.
       -5    1    3    3    0  502 -0.57850706304E+03 -0.10371810679E+04  0.18501171364E+04  0.21984927787E+04  0.46999998093E+01 0. -1.
</event>
<event>
 5   0  0.8423692E-07  0.2872323E+04  0.7818609E-02  0.8281160E-01
       -1   -1    0    0    0  501  0.00000000000E+00  0.00000000000E+00  0.15924778422E+04  0.15924778422E+04  0.50400001928E-02 0. -1.
        1   -1    0    0  501    0  0.00000000000E+00  0.00000000000E+00 -0.12951893096E+04  0.12951893096E+04  0.50400001928E-02 0.  1.
    10030    2    1    2    0    0  0.00000000000E+00  0.00000000000E+00  0.29728853260E+03  0.28876671517E+04  0.28723232944E+04 0.  0.
        2    1    3    3  502    0 -0.19253590033E+03  0.79921748020E+03  0.13325349087E+04  0.15657164292E+04  0.25500000920E-02 0. -1.
       -2    1    3    3    0  502  0.19253590033E+03 -0.79921748020E+03 -0.10352463761E+04  0.13219507226E+04  0.25500000920E-02 0.  1.
</event>
<event>
 5   0  0.2536619E-06  0.3560677E+04  0.7818609E-02  0.8099559E-01
        2   -1    0    0  501    0  0.00000000000E+00  0.00000000000E+00  0.23240928333E+04  0.23240928333E+04  0.25500000920E-02 0. -1.
       -2   -1    0    0    0  501  0.00000000000E+00  0.00000000000E+00 -0.13638033112E+04  0.13638033112E+04  0.25500000920E-02 0.  1.
    10030    2    1    2    0    0  0.00000000000E+00  0.00000000000E+00  0.96028952214E+03  0.36878961445E+04  0.35606771837E+04 0.  0.
        1    1    3    3  502    0  0.19427661862E+02 -0.13882138870E+04 -0.67416577770E+03  0.15433777004E+04  0.50400001928E-02 0.  1.
       -1    1    3    3    0  502 -0.19427661862E+02  0.13882138870E+04  0.16344552998E+04  0.21445184441E+04  0.50400001928E-02 0. -1.
</event>
<event>
 5   0  0.1566576E-06  0.3403291E+04  0.7818609E-02  0.8137099E-01
       -2   -1    0    0    0  501  0.00000000000E+00  0.00000000000E+00  0.17629896013E+04  0.17629896013E+04  0.25500000920E-02 0.  1.
        2   -1    0    0  501    0  0.00000000000E+00  0.00000000000E+00 -0.16424357321E+04  0.16424357321E+04  0.25500000920E-02 0. -1.
    10030    2    1    2    0    0  0.00000000000E+00  0.00000000000E+00  0.12055386924E+03  0.34054253334E+04  0.34032908289E+04 0.  0.
        4    1    3    3  502    0  0.57591529591E+03 -0.74274487165E+03 -0.13591497239E+04  0.16524642075E+04  0.12699999809E+01 0. -1.
       -4    1    3    3    0  502 -0.57591529591E+03  0.74274487165E+03  0.14797035931E+04  0.17529611259E+04  0.12699999809E+01 0.  1.
</event>
<event>
 5   0  0.8452742E-07  0.3480816E+04  0.7818609E-02  0.8118351E-01
       -1   -1    0    0    0  501  0.00000000000E+00  0.00000000000E+00  0.14053089759E+04  0.14053089759E+04  0.50400001928E-02 0.  1.
        1   -1    0    0  501    0  0.00000000000E+00  0.00000000000E+00 -0.21554122849E+04  0.21554122849E+04  0.50400001928E-02 0. -1.
    10030    2    1    2    0    0  0.00000000000E+00  0.00000000000E+00 -0.75010330903E+03  0.35607212609E+04  0.34808161289E+04 0.  0.
        1    1    3    3  502    0 -0.52094925847E+02 -0.16272016722E+04 -0.10044156918E+04  0.19129427711E+04  0.50400001928E-02 0. -1.
       -1    1    3    3    0  502  0.52094925847E+02  0.16272016722E+04  0.25431238278E+03  0.16477784898E+04  0.50400001928E-02 0.  1.
</event>
<event>
 5   0  0.1513502E-06  0.3518073E+04  0.7818609E-02  0.8109520E-01
       -2   -1    0    0    0  501  0.00000000000E+00  0.00000000000E+00  0.13466447485E+04  0.13466447485E+04  0.25500000920E-02 0.  1.
        2   -1    0    0  501    0  0.00000000000E+00  0.00000000000E+00 -0.22977175936E+04  0.22977175936E+04  0.25500000920E-02 0. -1.
    10030    2    1    2    0    0  0.00000000000E+00  0.00000000000E+00 -0.95107284513E+03  0.36443623421E+04  0.35180729560E+04 0.  0.
        3    1    3    3  502    0  0.50742985206E+03 -0.92478885610E+03 -0.19337214466E+04  0.22027251591E+04  0.10100000352E+00 0. -1.
       -3    1    3    3    0  502 -0.50742985206E+03  0.92478885610E+03  0.98264860150E+03  0.14416371830E+04  0.10100000352E+00 0.  1.
</event>
<event>
 5   0  0.8452742E-07  0.2299634E+04  0.7818609E-02  0.8478065E-01
       -1   -1    0    0    0  501  0.00000000000E+00  0.00000000000E+00  0.16298596553E+04  0.16298596553E+04  0.50400001928E-02 0.  1.
        1   -1    0    0  501    0  0.00000000000E+00  0.00000000000E+00 -0.81116142448E+03  0.81116142449E+03  0.50400001928E-02 0. -1.
    10030    2    1    2    0    0  0.00000000000E+00  0.00000000000E+00  0.81869823079E+03  0.24410210798E+04  0.22996341271E+04 0.  0.
        1    1    3    3  502    0 -0.78776974242E+03  0.45886753181E+03 -0.33439992652E+03  0.97106327791E+03  0.50400001928E-02 0. -1.
       -1    1    3    3    0  502  0.78776974242E+03 -0.45886753181E+03  0.11530981573E+04  0.14699578019E+04  0.50400001928E-02 0.  1.
</event>
<event>
 5   0  0.2382711E-06  0.1882779E+04  0.7818609E-02  0.8663476E-01
       -2   -1    0    0    0  501  0.00000000000E+00  0.00000000000E+00  0.25211484117E+04  0.25211484117E+04  0.25500000920E-02 0. -1.
        2   -1    0    0  501    0  0.00000000000E+00  0.00000000000E+00 -0.35151225981E+03  0.35151225982E+03  0.25500000920E-02 0.  1.
    10030    2    1    2    0    0  0.00000000000E+00  0.00000000000E+00  0.21696361519E+04  0.28726606715E+04  0.18827794088E+04 0.  0.
        5    1    3    3  502    0  0.82780168787E+03  0.42099459784E+03  0.13197071001E+04  0.16137351102E+04  0.46999998093E+01 0.  1.
       -5    1    3    3    0  502 -0.82780168787E+03 -0.42099459784E+03  0.84992905175E+03  0.12589255613E+04  0.46999998093E+01 0. -1.
</event>
<event>
 5   0  0.2422436E-06  0.3422086E+04  0.7818609E-02  0.8132507E-01
        2   -1    0    0  501    0  0.00000000000E+00  0.00000000000E+00  0.19167351054E+04  0.19167351054E+04  0.25500000920E-02 0.  1.
       -2   -1    0    0    0  501  0.00000000000E+00  0.00000000000E+00 -0.15274243596E+04  0.15274243596E+04  0.25500000920E-02 0. -1.
    10030    2    1    2    0    0  0.00000000000E+00  0.00000000000E+00  0.38931074578E+03  0.34441594649E+04  0.34220858498E+04 0.  0.
        2    1    3    3  502    0 -0.12589444060E+03  0.11990884558E+04 -0.10272621178E+04  0.15839602248E+04  0.25500000920E-02 0. -1.
       -2    1    3    3    0  502  0.12589444060E+03 -0.11990884558E+04  0.14165728636E+04  0.18601992401E+04  0.25500000920E-02 0.  1.
</event>
<event>
 5   0  0.7707500E-07  0.2655396E+04  0.7818609E-02  0.8349624E-01
       -3   -1    0    0    0  501  0.00000000000E+00  0.00000000000E+00  0.60494236628E+03  0.60494237471E+03  0.10100000352E+00 0.  1.
        3   -1    0    0  501    0  0.00000000000E+00  0.00000000000E+00 -0.29139674646E+04  0.29139674664E+04  0.10100000352E+00 0. -1.
    10030    2    1    2    0    0  0.00000000000E+00  0.00000000000E+00 -0.23090250983E+04  0.35189098411E+04  0.26553963103E+04 0.  0.
        1    1    3    3  502    0  0.25122783760E+03 -0.10232679089E+04 -0.22250427332E+04  0.24619114127E+04  0.50400001928E-02 0. -1.
       -1    1    3    3    0  502 -0.25122783760E+03  0.10232679089E+04 -0.83982365168E+02  0.10569984283E+04  0.50400001928E-02 0.  1.
</event>
<event>
 5   0  0.7754556E-07  0.2529161E+04  0.7818609E-02  0.8392670E-01
        1   -1    0    0  501    0  0.00000000000E+00  0.00000000000E+00  0.13835256309E+04  0.13835256309E+04  0.50400001928E-02 0. -1.
       -1   -1    0    0    0  501  0.00000000000E+00  0.00000000000E+00 -0.11558613730E+04  0.11558613730E+04  0.50400001928E-02 0.  1.
    10030    2    1    2    0    0  0.00000000000E+00  0.00000000000E+00  0.22766425789E+03  0.25393870039E+04  0.25291609955E+04 0.  0.
        4    1    3    3  502    0 -0.31338145029E+03  0.90754864212E+03  0.94014797497E+03  0.13437753901E+04  0.12699999809E+01 0. -1.
       -4    1    3    3    0  502  0.31338145029E+03 -0.90754864212E+03 -0.71248371708E+03  0.11956116139E+04  0.12699999809E+01 0.  1.
</event>
<event>
 5   0  0.1566576E-06  0.2870577E+04  0.7818609E-02  0.8281686E-01
       -2   -1    0    0    0  501  0.00000000000E+00  0.00000000000E+00  0.11249214656E+04  0.11249214656E+04  0.25500000920E-02 0. -1.
        2   -1    0    0  501    0  0.00000000000E+00  0.00000000000E+00 -0.18312867510E+04  0.18312867510E+04  0.25500000920E-02 0.  1.
    10030    2    1    2    0    0  0.00000000000E+00  0.00000000000E+00 -0.70636528540E+03  0.29562082165E+04  0.28705774860E+04 0.  0.
        4    1    3    3  502    0  0.59896588236E+03  0.62903113250E+03 -0.15299017084E+04  0.17592729021E+04  0.12699999809E+01 0.  1.
       -4    1    3    3    0  502 -0.59896588236E+03 -0.62903113250E+03  0.82353642301E+03  0.11969353144E+04  0.12699999809E+01 0. -1.
</event>
<event>
 5   0  0.7754556E-07  0.3106521E+04  0.7818609E-02  0.8213951E-01
        1   -1    0    0  501    0  0.00000000000E+00  0.00000000000E+00  0.28356209108E+04  0.28356209108E+04  0.50400001928E-02 0. -1.
       -1   -1    0    0    0  501  0.00000000000E+00  0.00000000000E+00 -0.85082524968E+03  0.85082524970E+03  0.50400001928E-02 0.  1.
    10030    2    1    2    0    0  0.00000000000E+00  0.00000000000E+00  0.19847956611E+04  0.36864461605E+04  0.31065207995E+04 0.  0.
        4    1    3    3  502    0  0.74211251833E+03  0.11205290588E+04  0.68386330730E+02  0.13457320182E+04  0.12699999809E+01 0. -1.
       -4    1    3    3    0  502 -0.74211251833E+03 -0.11205290588E+04  0.19164093304E+04  0.23407141423E+04  0.12699999809E+01 0.  1.
</event>
<event>
 5   0  0.1566576E-06  0.3043410E+04  0.7818609E-02  0.8231442E-01
       -2   -1    0    0    0  501  0.00000000000E+00  0.00000000000E+00  0.12752106891E+04  0.12752106891E+04  0.25500000920E-02 0.  1.
        2   -1    0    0  501    0  0.00000000000E+00  0.00000000000E+00 -0.18158459987E+04  0.18158459987E+04  0.25500000920E-02 0. -1.
    10030    2    1    2    0    0  0.00000000000E+00  0.00000000000E+00 -0.54063530964E+03  0.30910566879E+04  0.30434100791E+04 0.  0.
        4    1    3    3  502    0  0.12844434623E+04 -0.50370262528E+03 -0.92229682116E+03  0.16595615028E+04  0.12699999809E+01 0. -1.
       -4    1    3    3    0  502 -0.12844434623E+04  0.50370262528E+03  0.38166151153E+03  0.14314951850E+04  0.12699999809E+01 0.  1.
</event>
<event>
 5   0  0.1513502E-06  0.2981006E+04  0.7818609E-02  0.8249176E-01
       -2   -1    0    0    0  501  0.00000000000E+00  0.00000000000E+00  0.14470549025E+04  0.14470549025E+04  0.25500000920E-02 0. -1.
        2   -1    0    0  501    0  0.00000000000E+00  0.00000000000E+00 -0.15352553058E+04  0.15352553058E+04  0.25500000920E-02 0.  1.
    10030    2    1    2    0    0  0.00000000000E+00  0.00000000000E+00 -0.88200403333E+02  0.29823102084E+04  0.29810056806E+04 0.  0.
        3    1    3    3  502    0 -0.80219287344E+03  0.86013414112E+03  0.87186288877E+03  0.14640659322E+04  0.10100000352E+00 0. -1.
       -3    1    3    3    0  502  0.80219287344E+03 -0.86013414112E+03 -0.96006329210E+03  0.15182442761E+04  0.10100000352E+00 0.  1.
</event>
<event>
 5   0  0.8423692E-07  0.3730346E+04  0.7818609E-02  0.8061270E-01
       -1   -1    0    0    0  501  0.00000000000E+00  0.00000000000E+00  0.15951268362E+04  0.15951268362E+04  0.50400001928E-02 0. -1.
        1   -1    0    0  501    0  0.00000000000E+00  0.00000000000E+00 -0.21809364906E+04  0.21809364906E+04  0.50400001928E-02 0.  1.
    10030    2    1    2    0    0  0.00000000000E+00  0.00000000000E+00 -0.58580965431E+03  0.37760633268E+04  0.37303460023E+04 0.  0.
        2    1    3    3  502    0 -0.60871194248E+03 -0.60047049209E+03  0.13850519109E+04  0.16277173700E+04  0.25500000920E-02 0. -1.
       -2    1    3    3    0  502  0.60871194248E+03  0.60047049209E+03 -0.19708615652E+04  0.21483459568E+04  0.25500000920E-02 0.  1.
</event>
<event>
 5   0  0.1513502E-06  0.3356993E+04  0.7818609E-02  0.8148543E-01
        2   -1    0    0  501    0  0.00000000000E+00  0.00000000000E+00  0.15096303804E+04  0.15096303804E+04  0.25500000920E-02 0. -1.
       -2   -1    0    0    0  501  0.00000000000E+00  0.00000000000E+00 -0.18662518937E+04  0.18662518937E+04  0.25500000920E-02 0.  1.
    10030    2    1    2    0    0  0.00000000000E+00  0.00000000000E+00 -0.35662151334E+03  0.33758822741E+04  0.33569930332E+04 0.  0.
        3    1    3    3  502    0 -0.38743520263E+03  0.16209870977E+04  0.21920983285E+02  0.16667890529E+04  0.10100000352E+00 0. -1.
       -3    1    3    3    0  502  0.38743520263E+03 -0.16209870977E+04 -0.37854249662E+03  0.17090932213E+04  0.10100000352E+00 0.  1.
</event>
<event>
 5   0  0.2382711E-06  0.3025207E+04  0.7818609E-02  0.8236569E-01
        2   -1    0    0  501    0  0.00000000000E+00  0.00000000000E+00  0.14905485762E+04  0.14905485762E+04  0.25500000920E-02 0. -1.
       -2   -1    0    0    0  501  0.00000000000E+00  0.00000000000E+00 -0.15349846517E+04  0.15349846517E+04  0.25500000920E-02 0.  1.
    10030    2    1    2    0    0  0.00000000000E+00  0.00000000000E+00 -0.44436075569E+02  0.30255332279E+04  0.30252068935E+04 0.  0.
        5    1    3    3  502    0 -0.61237230830E+03 -0.56332590979E+03  0.12410932595E+04  0.14942123321E+04  0.46999998093E+01 0. -1.
       -5    1    3    3    0  502  0.61237230830E+03  0.56332590979E+03 -0.12855293351E+04  0.15313208958E+04  0.46999998093E+01 0.  1.
</event>
<event>
 5   0  0.2422436E-06  0.1774853E+04  0.7818609E-02  0.8719788E-01
        2   -1    0    0  501    0  0.00000000000E+00  0.00000000000E+00  0.67506362182E+03  0.67506362183E+03  0.25500000920E-02 0. -1.
       -2   -1    0    0    0  501  0.00000000000E+00  0.00000000000E+00 -0.11665954837E+04  0.11665954837E+04  0.25500000920E-02 0.  1.
    10030    2    1    2    0    0  0.00000000000E+00  0.00000000000E+00 -0.49153186190E+03  0.18416591055E+04  0.17748534277E+04 0.  0.
        2    1    3    3  502    0 -0.62234516117E+03 -0.57841073197E+03  0.20108361646E+02  0.84986870792E+03  0.25500000920E-02 0. -1.
       -2    1    3    3    0  502  0.62234516117E+03  0.57841073197E+03 -0.51164022354E+03  0.99179039763E+03  0.25500000920E-02 0.  1.
</event>
<event>
 5   0  0.1908273E-06  0.3369110E+04  0.7818609E-02  0.8145530E-01
       -1   -1    0    0    0  501  0.00000000000E+00  0.00000000000E+00  0.12807265693E+04  0.12807265693E+04  0.50400001928E-02 0.  1.
        1   -1    0    0  501    0  0.00000000000E+00  0.00000000000E+00 -0.22157152234E+04  0.22157152234E+04  0.50400001928E-02 0. -1.
    10030    2    1    2    0    0  0.00000000000E+00  0.00000000000E+00 -0.93498865413E+03  0.34964417927E+04  0.33691098864E+04 0.  0.
        3    1    3    3  502    0  0.53565344620E+03 -0.79653927363E+03  0.96913859064E+03  0.13640487700E+04  0.10100000352E+00 0.  1.
       -3    1    3    3    0  502 -0.53565344620E+03  0.79653927363E+03 -0.19041272448E+04  0.21323930227E+04  0.10100000352E+00 0. -1.
</event>
</LesHouchesEvents>
