<LesHouchesEvents version="3.0">
<header>
<!--
#*********************************************************************
#                                                                    *
#                        MadGraph5_aMC@NLO                           *
#                                                                    *
#                           Going Beyond                             *
#                                                                    *
#                   http://madgraph.hep.uiuc.edu                     *
#                   http://madgraph.phys.ucl.ac.be                   *
#                   http://amcatnlo.cern.ch                          *
#                                                                    *
#                     The MadGraph5_aMC@NLO team                     *
#                                                                    *
#....................................................................*
#                                                                    *
# This file contains all the information necessary to reproduce      *
# the events generated:                                              *
#                                                                    *
# 1. software version                                                *
# 2. proc_card          : code generation info including model       *
# 3. param_card         : model primary parameters in the LH format  *
# 4. run_card           : running parameters (collider and cuts)     *
# 5. pythia_card        : present only if pythia has been run        *
# 6. pgs_card           : present only if pgs has been run           *
# 7. delphes_cards      : present only if delphes has been run       *
#                                                                    *
#                                                                    *
#*********************************************************************
-->
<MGVersion>
#5.2.2.3
</MGVersion>
<MG5ProcCard>
#************************************************************
#*                     MadGraph5_aMC@NLO                    *
#*                                                          *
#*                *                       *                 *
#*                  *        * *        *                   *
#*                    * * * * 5 * * * *                     *
#*                  *        * *        *                   *
#*                *                       *                 *
#*                                                          *
#*                                                          *
#*         VERSION 2.2.3                 2015-02-10         *
#*                                                          *
#*    The MadGraph5_aMC@NLO Development Team - Find us at   *
#*    https://server06.fynu.ucl.ac.be/projects/madgraph     *
#*                                                          *
#************************************************************
#*                                                          *
#*               Command File for MadGraph5_aMC@NLO         *
#*                                                          *
#*     run as ./bin/mg5_aMC  filename                       *
#*                                                          *
#************************************************************
set group_subprocesses Auto
set ignore_six_quark_processes False
set loop_optimized_output True
set gauge unitary
set complex_mass_scheme False
import model sm
define p = g u c d s u~ c~ d~ s~
define j = g u c d s u~ c~ d~ s~
define l+ = e+ mu+
define l- = e- mu-
define vl = ve vm vt
define vl~ = ve~ vm~ vt~
import model Zprime_UFO
generate p p > zph, zph > j j
add process p p > zph, zph > b b~
output Dijet_signal
</MG5ProcCard>
<MGProcCard>
#*********************************************************************
#                        MadGraph/MadEvent                           *
#                   http://madgraph.hep.uiuc.edu                     *
#                                                                    *
#                          proc_card.dat                             *
#*********************************************************************
#                                                                    *
#            This Files is generated by MADGRAPH 5                   *
#                                                                    *
# WARNING: This Files is generated for MADEVENT (compatibility issue)*
#          This files is NOT a valid MG4 proc_card.dat               *
#          Running this in MG4 will NEVER reproduce the result of MG5*
#                                                                    *
#*********************************************************************
#*********************************************************************
# Process(es) requested : mg2 input                                  *
#*********************************************************************
# Begin PROCESS # This is TAG. Do not modify this line
p p > zph , zph > j j           #Process
# Be carefull the coupling are here in MG5 convention
          
end_coup           # End the couplings input

done               # this tells MG there are no more procs
# End PROCESS  # This is TAG. Do not modify this line
#*********************************************************************
# Model information                                                  *
#*********************************************************************
# Begin MODEL  # This is TAG. Do not modify this line
Zprime_UFO
# End   MODEL  # This is TAG. Do not modify this line
#*********************************************************************
# Start multiparticle definitions                                    *
#*********************************************************************
# Begin MULTIPARTICLES # This is TAG. Do not modify this line

# End  MULTIPARTICLES # This is TAG. Do not modify this line
</MGProcCard>
<MGRunCard>
#*********************************************************************
#                       MadGraph5_aMC@NLO                            *
#                                                                    *
#                     run_card.dat MadEvent                          *
#                                                                    *
#  This file is used to set the parameters of the run.               *
#                                                                    *
#  Some notation/conventions:                                        *
#                                                                    *
#   Lines starting with a '# ' are info or comments                  *
#                                                                    *
#   mind the format:   value    = variable     ! comment             *
#*********************************************************************
#
#*******************                                                 
# Running parameters
#*******************                                                 
#                                                                    
#*********************************************************************
# Tag name for the run (one word)                                    *
#*********************************************************************
  tag_1     = run_tag ! name of the run 
#*********************************************************************
# Run to generate the grid pack                                      *
#*********************************************************************
  .false.     = gridpack  !True = setting up the grid pack
#*********************************************************************
# Number of events and rnd seed                                      *
# Warning: Do not generate more than 1M events in a single run       *
# If you want to run Pythia, avoid more than 50k events in a run.    *
#*********************************************************************
  2000 = nevents ! Number of unweighted events requested 
 1290 = iseed   ! rnd seed (0=assigned automatically=default))
#*********************************************************************
# Collider type and energy                                           *
# lpp: 0=No PDF, 1=proton, -1=antiproton, 2=photon from proton,      *
#                                         3=photon from electron     *
#*********************************************************************
        1     = lpp1    ! beam 1 type 
        1     = lpp2    ! beam 2 type
     4000     = ebeam1  ! beam 1 total energy in GeV
     4000     = ebeam2  ! beam 2 total energy in GeV
#*********************************************************************
# Beam polarization from -100 (left-handed) to 100 (right-handed)    *
#*********************************************************************
        0     = polbeam1 ! beam polarization for beam 1
        0     = polbeam2 ! beam polarization for beam 2
#*********************************************************************
# PDF CHOICE: this automatically fixes also alpha_s and its evol.    *
#*********************************************************************
 'nn23lo1'    = pdlabel     ! PDF set                                     
 230000    = lhaid     ! if pdlabel=lhapdf, this is the lhapdf number
#*********************************************************************
# Renormalization and factorization scales                           *
#*********************************************************************
 F        = fixed_ren_scale  ! if .true. use fixed ren scale
 F        = fixed_fac_scale  ! if .true. use fixed fac scale
 91.1880  = scale            ! fixed ren scale
 91.1880  = dsqrt_q2fact1    ! fixed fact scale for pdf1
 91.1880  = dsqrt_q2fact2    ! fixed fact scale for pdf2
 1        = scalefact        ! scale factor for event-by-event scales
#*********************************************************************
# Matching - Warning! ickkw > 1 is still beta
#*********************************************************************
 0        = ickkw            ! 0 no matching, 1 MLM, 2 CKKW matching
 1        = highestmult      ! for ickkw=2, highest mult group
 1        = ktscheme         ! for ickkw=1, 1 Durham kT, 2 Pythia pTE
 1        = alpsfact         ! scale factor for QCD emission vx
 F        = chcluster        ! cluster only according to channel diag
 T        = pdfwgt           ! for ickkw=1, perform pdf reweighting
 5        = asrwgtflavor     ! highest quark flavor for a_s reweight
 T        = clusinfo         ! include clustering tag in output
 3.0      = lhe_version       ! Change the way clustering information pass to shower.        
#*********************************************************************
#**********************************************************
#
#**********************************************************
# Automatic ptj and mjj cuts if xqcut > 0
# (turn off for VBF and single top processes)
#**********************************************************
   T  = auto_ptj_mjj  ! Automatic setting of ptj and mjj
#**********************************************************
#                                                                    
#**********************************
# BW cutoff (M+/-bwcutoff*Gamma)
#**********************************
  15  = bwcutoff      ! (M+/-bwcutoff*Gamma)
#**********************************************************
# Apply pt/E/eta/dr/mij cuts on decay products or not
# (note that etmiss/ptll/ptheavy/ht/sorted cuts always apply)
#**********************************************************
   T  = cut_decays    ! Cut decay products 
#*************************************************************
# Number of helicities to sum per event (0 = all helicities)
# 0 gives more stable result, but longer run time (needed for
# long decay chains e.g.).
# Use >=2 if most helicities contribute, e.g. pure QCD.
#*************************************************************
   0  = nhel          ! Number of helicities used per event
#*******************                                                 
# Standard Cuts
#*******************                                                 
#                                                                    
#*********************************************************************
# Minimum and maximum pt's (for max, -1 means no cut)                *
#*********************************************************************
 20  = ptj       ! minimum pt for the jets 
  0  = ptb       ! minimum pt for the b 
 10  = pta       ! minimum pt for the photons 
 10  = ptl       ! minimum pt for the charged leptons 
  0  = misset    ! minimum missing Et (sum of neutrino's momenta)
  0  = ptheavy   ! minimum pt for one heavy final state
 1.0 = ptonium   ! minimum pt for the quarkonium states
 -1  = ptjmax    ! maximum pt for the jets
 -1  = ptbmax    ! maximum pt for the b
 -1  = ptamax    ! maximum pt for the photons
 -1  = ptlmax    ! maximum pt for the charged leptons
 -1  = missetmax ! maximum missing Et (sum of neutrino's momenta)
#*********************************************************************
# Minimum and maximum E's (in the center of mass frame)              *
#*********************************************************************
  0  = ej     ! minimum E for the jets 
  0  = eb     ! minimum E for the b 
  0  = ea     ! minimum E for the photons 
  0  = el     ! minimum E for the charged leptons 
 -1   = ejmax ! maximum E for the jets
 -1   = ebmax ! maximum E for the b
 -1   = eamax ! maximum E for the photons
 -1   = elmax ! maximum E for the charged leptons
#*********************************************************************
# Maximum and minimum absolute rapidity (for max, -1 means no cut)   *
#*********************************************************************
   5  = etaj    ! max rap for the jets 
  -1  = etab    ! max rap for the b
 2.5  = etaa    ! max rap for the photons 
 2.5  = etal    ! max rap for the charged leptons 
 0.6  = etaonium ! max rap for the quarkonium states
   0  = etajmin ! min rap for the jets
   0  = etabmin ! min rap for the b
   0  = etaamin ! min rap for the photons
   0  = etalmin ! main rap for the charged leptons
#*********************************************************************
# Minimum and maximum DeltaR distance                                *
#*********************************************************************
 0.4 = drjj    ! min distance between jets 
 0   = drbb    ! min distance between b's 
 0.4 = drll    ! min distance between leptons 
 0.4 = draa    ! min distance between gammas 
 0   = drbj    ! min distance between b and jet 
 0.4 = draj    ! min distance between gamma and jet 
 0.4 = drjl    ! min distance between jet and lepton 
 0   = drab    ! min distance between gamma and b 
 0   = drbl    ! min distance between b and lepton 
 0.4 = dral    ! min distance between gamma and lepton 
 -1  = drjjmax ! max distance between jets
 -1  = drbbmax ! max distance between b's
 -1  = drllmax ! max distance between leptons
 -1  = draamax ! max distance between gammas
 -1  = drbjmax ! max distance between b and jet
 -1  = drajmax ! max distance between gamma and jet
 -1  = drjlmax ! max distance between jet and lepton
 -1  = drabmax ! max distance between gamma and b
 -1  = drblmax ! max distance between b and lepton
 -1  = dralmax ! maxdistance between gamma and lepton
#*********************************************************************
# Minimum and maximum invariant mass for pairs                       *
# WARNING: for four lepton final state mmll cut require to have      *
#          different lepton masses for each flavor!                  *           
#*********************************************************************
 0   = mmjj    ! min invariant mass of a jet pair 
 0   = mmbb    ! min invariant mass of a b pair 
 0   = mmaa    ! min invariant mass of gamma gamma pair
 0   = mmll    ! min invariant mass of l+l- (same flavour) lepton pair
 -1  = mmjjmax ! max invariant mass of a jet pair
 -1  = mmbbmax ! max invariant mass of a b pair
 -1  = mmaamax ! max invariant mass of gamma gamma pair
 -1  = mmllmax ! max invariant mass of l+l- (same flavour) lepton pair
#*********************************************************************
# Minimum and maximum invariant mass for all letpons                 *
#*********************************************************************
 0   = mmnl    ! min invariant mass for all letpons (l+- and vl) 
 -1  = mmnlmax ! max invariant mass for all letpons (l+- and vl) 
#*********************************************************************
# Minimum and maximum pt for 4-momenta sum of leptons                *
#*********************************************************************
 0   = ptllmin  ! Minimum pt for 4-momenta sum of leptons(l and vl)
 -1  = ptllmax  ! Maximum pt for 4-momenta sum of leptons(l and vl)
#*********************************************************************
# Inclusive cuts                                                     *
#*********************************************************************
 0  = xptj ! minimum pt for at least one jet  
 0  = xptb ! minimum pt for at least one b 
 0  = xpta ! minimum pt for at least one photon 
 0  = xptl ! minimum pt for at least one charged lepton 
#*********************************************************************
# Control the pt's of the jets sorted by pt                          *
#*********************************************************************
 0   = ptj1min ! minimum pt for the leading jet in pt
 0   = ptj2min ! minimum pt for the second jet in pt
 0   = ptj3min ! minimum pt for the third jet in pt
 0   = ptj4min ! minimum pt for the fourth jet in pt
 -1  = ptj1max ! maximum pt for the leading jet in pt 
 -1  = ptj2max ! maximum pt for the second jet in pt
 -1  = ptj3max ! maximum pt for the third jet in pt
 -1  = ptj4max ! maximum pt for the fourth jet in pt
 0   = cutuse  ! reject event if fails any (0) / all (1) jet pt cuts
#*********************************************************************
# Control the pt's of leptons sorted by pt                           *
#*********************************************************************
 0   = ptl1min ! minimum pt for the leading lepton in pt
 0   = ptl2min ! minimum pt for the second lepton in pt
 0   = ptl3min ! minimum pt for the third lepton in pt
 0   = ptl4min ! minimum pt for the fourth lepton in pt
 -1  = ptl1max ! maximum pt for the leading lepton in pt 
 -1  = ptl2max ! maximum pt for the second lepton in pt
 -1  = ptl3max ! maximum pt for the third lepton in pt
 -1  = ptl4max ! maximum pt for the fourth lepton in pt
#*********************************************************************
# Control the Ht(k)=Sum of k leading jets                            *
#*********************************************************************
 0   = htjmin ! minimum jet HT=Sum(jet pt)
 -1  = htjmax ! maximum jet HT=Sum(jet pt)
 0   = ihtmin  !inclusive Ht for all partons (including b)
 -1  = ihtmax  !inclusive Ht for all partons (including b)
 0   = ht2min ! minimum Ht for the two leading jets
 0   = ht3min ! minimum Ht for the three leading jets
 0   = ht4min ! minimum Ht for the four leading jets
 -1  = ht2max ! maximum Ht for the two leading jets
 -1  = ht3max ! maximum Ht for the three leading jets
 -1  = ht4max ! maximum Ht for the four leading jets
#***********************************************************************
# Photon-isolation cuts, according to hep-ph/9801442                   *
# When ptgmin=0, all the other parameters are ignored                  *
# When ptgmin>0, pta and draj are not going to be used                 *
#***********************************************************************
   0 = ptgmin ! Min photon transverse momentum
 0.4 = R0gamma ! Radius of isolation code
 1.0 = xn ! n parameter of eq.(3.4) in hep-ph/9801442
 1.0 = epsgamma ! epsilon_gamma parameter of eq.(3.4) in hep-ph/9801442
 .true. = isoEM ! isolate photons from EM energy (photons and leptons)
#*********************************************************************
# WBF cuts                                                           *
#*********************************************************************
 0   = xetamin ! minimum rapidity for two jets in the WBF case  
 0   = deltaeta ! minimum rapidity for two jets in the WBF case 
#*********************************************************************
# KT DURHAM CUT                                                      *
#*********************************************************************
 -1    =  ktdurham        
 0.4  =  dparameter 
#*********************************************************************
# maximal pdg code for quark to be considered as a light jet         *
# (otherwise b cuts are applied)                                     *
#*********************************************************************
 4 = maxjetflavor    ! Maximum jet pdg code
#*********************************************************************
# Jet measure cuts                                                   *
#*********************************************************************
 0   = xqcut   ! minimum kt jet measure between partons
#*********************************************************************
#
#*********************************************************************
# Store info for systematics studies                                 *
# WARNING: If use_syst is T, matched Pythia output is                *
#          meaningful ONLY if plotted taking matchscale              *
#          reweighting into account!                                 *
#*********************************************************************
   F  = use_syst      ! Enable systematics studies
#
#**************************************
# Parameter of the systematics study
#  will be used by SysCalc (if installed)
#**************************************                                  
#
0.5 1 2 = sys_scalefact  # factorization/renormalization scale factor
0.5 1 2 = sys_alpsfact  # \alpha_s emission scale factors
30 50 = sys_matchscale # variation of merging scale
# PDF sets and number of members (0 or none for all members).
CT10nlo.LHgrid = sys_pdf # matching scales
# MSTW2008nlo68cl.LHgrid 1  = sys_pdf
</MGRunCard>
<slha>
######################################################################
## PARAM_CARD AUTOMATICALY GENERATED BY MG5 FOLLOWING UFO MODEL   ####
######################################################################
##                                                                  ##
##  Width set on Auto will be computed following the information    ##
##        present in the decay.py files of the model.               ##
##        See  arXiv:1402.1178 for more details.                    ##
##                                                                  ##
######################################################################

###################################
## INFORMATION FOR CKMBLOCK
###################################
Block ckmblock 
    1 2.277360e-01 # cabi 

###################################
## INFORMATION FOR FRBLOCK
###################################
Block frblock 
    1 6.000000e-01 # gz 

###################################
## INFORMATION FOR MASS
###################################
Block mass 
    1 5.040000e-03 # MD 
    2 2.550000e-03 # MU 
    3 1.010000e-01 # MS 
    4 1.270000e+00 # MC 
    5 4.700000e+00 # MB 
    6 1.720000e+02 # MT 
   11 5.110000e-04 # Me 
   13 1.056600e-01 # MM 
   15 1.777000e+00 # MTA 
   23 9.118760e+01 # MZ 
   25 1.200000e+02 # MH 
  10030 2.100000e+03 # MZph 
  10031 3.000000e+02 # MZpl 
## Dependent parameters, given by model restrictions.
## Those values should be edited following the 
## analytical expression. MG5 ignores those values 
## but they are important for interfacing the output of MG5
## to external program such as Pythia.
  12 0.000000 # ve : 0.0 
  14 0.000000 # vm : 0.0 
  16 0.000000 # vt : 0.0 
  21 0.000000 # g : 0.0 
  22 0.000000 # a : 0.0 
  24 79.824360 # w+ : cmath.sqrt(MZ__exp__2/2. + cmath.sqrt(MZ__exp__4/4. - (aEW*cmath.pi*MZ__exp__2)/(Gf*sqrt__2))) 

###################################
## INFORMATION FOR SMINPUTS
###################################
Block sminputs 
    1 1.279000e+02 # aEWM1 
    2 1.166370e-05 # Gf 
    3 1.184000e-01 # aS 

###################################
## INFORMATION FOR YUKAWA
###################################
Block yukawa 
    1 5.040000e-03 # ymdo 
    2 2.550000e-03 # ymup 
    3 1.010000e-01 # yms 
    4 1.270000e+00 # ymc 
    5 4.700000e+00 # ymb 
    6 1.720000e+02 # ymt 
   11 5.110000e-04 # yme 
   13 1.056600e-01 # ymm 
   15 1.777000e+00 # ymtau 

###################################
## INFORMATION FOR DECAY
###################################
DECAY   6 1.508336e+00 # WT 
DECAY  23 2.495200e+00 # WZ 
DECAY  24 2.085000e+00 # WW 
DECAY  25 5.753088e-03 # WH 
## Dependent parameters, given by model restrictions.
## Those values should be edited following the 
## analytical expression. MG5 ignores those values 
## but they are important for interfacing the output of MG5
## to external program such as Pythia.
DECAY  1 0.000000 # d : 0.0 
DECAY  2 0.000000 # u : 0.0 
DECAY  3 0.000000 # s : 0.0 
DECAY  4 0.000000 # c : 0.0 
DECAY  5 0.000000 # b : 0.0 
DECAY  11 0.000000 # e- : 0.0 
DECAY  12 0.000000 # ve : 0.0 
DECAY  13 0.000000 # mu- : 0.0 
DECAY  14 0.000000 # vm : 0.0 
DECAY  15 0.000000 # ta- : 0.0 
DECAY  16 0.000000 # vt : 0.0 
DECAY  21 0.000000 # g : 0.0 
DECAY  22 0.000000 # a : 0.0 
DECAY  10030 0.308725 # zph : (gz__exp__2*MZph*(5 + cmath.sqrt(1 - (4*MT__exp__2)/MZph__exp__2)))/(144.*cmath.pi) 
DECAY  10031 0.132629 # zpl : (5*gz__exp__2*MZpl)/(144.*cmath.pi) 
#===========================================================
# QUANTUM NUMBERS OF NEW STATE(S) (NON SM PDG CODE)
#===========================================================

Block QNUMBERS 10030  # zph 
        1 0  # 3 times electric charge
        2 3  # number of spin states (2S+1)
        3 1  # colour rep (1: singlet, 3: triplet, 8: octet)
        4 0  # Particle/Antiparticle distinction (0=own anti)
Block QNUMBERS 10031  # zpl 
        1 0  # 3 times electric charge
        2 3  # number of spin states (2S+1)
        3 1  # colour rep (1: singlet, 3: triplet, 8: octet)
        4 0  # Particle/Antiparticle distinction (0=own anti)
</slha>
## END BANNER##
<MGGenerationInfo>
#  Number of Events        :         3941
#  Integrated weight (pb)  :  0.90399E-02
#  Max wgt                 :  0.32798E-05
#  Average wgt             :  0.22938E-05
</MGGenerationInfo>
</header>
<init>
     2212     2212  0.40000000000E+04  0.40000000000E+04 0 0  247000  247000 2   1
  0.90396779615E-02  0.20084506671E-04  0.32797890000E-05   0
</init>
<event>
 5   0  0.3130517E-05  0.2089988E+04  0.7818609E-02  0.8565666E-01
       -2   -1    0    0    0  501  0.00000000000E+00  0.00000000000E+00  0.59141483873E+03  0.59141483874E+03  0.25500000920E-02 0. -1.
        2   -1    0    0  501    0  0.00000000000E+00  0.00000000000E+00 -0.18464415349E+04  0.18464415349E+04  0.25500000920E-02 0.  1.
    10030    2    1    2    0    0  0.00000000000E+00  0.00000000000E+00 -0.12550266962E+04  0.24378563736E+04  0.20899884426E+04 0.  0.
        1    1    3    3  502    0 -0.96222255179E+03  0.39754938398E+03 -0.73246208995E+03  0.12729565841E+04  0.50400001928E-02 0.  1.
       -1    1    3    3    0  502  0.96222255179E+03 -0.39754938398E+03 -0.52256460622E+03  0.11648997895E+04  0.50400001928E-02 0. -1.
</event>
<event>
 5   0  0.3130517E-05  0.2037542E+04  0.7818609E-02  0.8589267E-01
        2   -1    0    0  501    0  0.00000000000E+00  0.00000000000E+00  0.21218072743E+04  0.21218072743E+04  0.25500000920E-02 0.  1.
       -2   -1    0    0    0  501  0.00000000000E+00  0.00000000000E+00 -0.48915561441E+03  0.48915561442E+03  0.25500000920E-02 0. -1.
    10030    2    1    2    0    0  0.00000000000E+00  0.00000000000E+00  0.16326516599E+04  0.26109628887E+04  0.20375415980E+04 0.  0.
        1    1    3    3  502    0 -0.22234482380E+03  0.23953183441E+03 -0.42015673968E+03  0.53230104856E+03  0.50400001928E-02 0. -1.
       -1    1    3    3    0  502  0.22234482380E+03 -0.23953183441E+03  0.20528083996E+04  0.20786618402E+04  0.50400001928E-02 0.  1.
</event>
<event>
 5   0  0.3257130E-05  0.2104216E+04  0.7818609E-02  0.8559389E-01
       -2   -1    0    0    0  501  0.00000000000E+00  0.00000000000E+00  0.82843484946E+03  0.82843484947E+03  0.25500000920E-02 0.  1.
        2   -1    0    0  501    0  0.00000000000E+00  0.00000000000E+00 -0.13361713835E+04  0.13361713835E+04  0.25500000920E-02 0. -1.
    10030    2    1    2    0    0  0.00000000000E+00  0.00000000000E+00 -0.50773653400E+03  0.21646062329E+04  0.21042157103E+04 0.  0.
        3    1    3    3  502    0 -0.11100003854E+02  0.55662352513E+03  0.66448929040E+03  0.86689041180E+03  0.10100000352E+00 0.  1.
       -3    1    3    3    0  502  0.11100003854E+02 -0.55662352513E+03 -0.11722258244E+04  0.12977158211E+04  0.10100000352E+00 0. -1.
</event>
<event>
 5   0  0.3130517E-05  0.2102454E+04  0.7818609E-02  0.8560163E-01
        2   -1    0    0  501    0  0.00000000000E+00  0.00000000000E+00  0.20949578052E+04  0.20949578052E+04  0.25500000920E-02 0. -1.
       -2   -1    0    0    0  501  0.00000000000E+00  0.00000000000E+00 -0.52749428777E+03  0.52749428778E+03  0.25500000920E-02 0.  1.
    10030    2    1    2    0    0  0.00000000000E+00  0.00000000000E+00  0.15674635175E+04  0.26224520930E+04  0.21024540665E+04 0.  0.
        1    1    3    3  502    0  0.94196304825E+03  0.37877732155E+03  0.11237556600E+04  0.15144614313E+04  0.50400001928E-02 0. -1.
       -1    1    3    3    0  502 -0.94196304825E+03 -0.37877732155E+03  0.44370785747E+03  0.11079906617E+04  0.50400001928E-02 0.  1.
</event>
<event>
 5   0  0.3257130E-05  0.2116998E+04  0.7818609E-02  0.8553793E-01
       -2   -1    0    0    0  501  0.00000000000E+00  0.00000000000E+00  0.11749350304E+04  0.11749350304E+04  0.25500000920E-02 0.  1.
        2   -1    0    0  501    0  0.00000000000E+00  0.00000000000E+00 -0.95360135122E+03  0.95360135122E+03  0.25500000920E-02 0. -1.
    10030    2    1    2    0    0  0.00000000000E+00  0.00000000000E+00  0.22133367921E+03  0.21285363816E+04  0.21169975273E+04 0.  0.
        3    1    3    3  502    0 -0.42923199025E+03  0.65952688641E+03 -0.60114942558E+03  0.99025070432E+03  0.10100000352E+00 0. -1.
       -3    1    3    3    0  502  0.42923199025E+03 -0.65952688641E+03  0.82248310478E+03  0.11382856773E+04  0.10100000352E+00 0.  1.
</event>
<event>
 5   0  0.1513292E-05  0.2097602E+04  0.7818609E-02  0.8562300E-01
       -1   -1    0    0    0  501  0.00000000000E+00  0.00000000000E+00  0.12227642421E+04  0.12227642421E+04  0.50400001928E-02 0. -1.
        1   -1    0    0  501    0  0.00000000000E+00  0.00000000000E+00 -0.89958791100E+03  0.89958791101E+03  0.50400001928E-02 0.  1.
    10030    2    1    2    0    0  0.00000000000E+00  0.00000000000E+00  0.32317633114E+03  0.21223521532E+04  0.20976023744E+04 0.  0.
        1    1    3    3  502    0 -0.39321032092E+03 -0.17788621662E+03  0.11287569872E+04  0.12084495019E+04  0.50400001928E-02 0. -1.
       -1    1    3    3    0  502  0.39321032092E+03  0.17788621662E+03 -0.80558065604E+03  0.91390265125E+03  0.50400001928E-02 0.  1.
</event>
<event>
 5   0  0.1466480E-05  0.2095658E+04  0.7818609E-02  0.8563159E-01
       -1   -1    0    0    0  501  0.00000000000E+00  0.00000000000E+00  0.68531873460E+03  0.68531873462E+03  0.50400001928E-02 0.  1.
        1   -1    0    0  501    0  0.00000000000E+00  0.00000000000E+00 -0.16020942640E+04  0.16020942640E+04  0.50400001928E-02 0. -1.
    10030    2    1    2    0    0  0.00000000000E+00  0.00000000000E+00 -0.91677552941E+03  0.22874129986E+04  0.20956576188E+04 0.  0.
        3    1    3    3  502    0  0.63879985804E+03  0.23536659753E+03  0.41104115407E+03  0.79524683866E+03  0.10100000352E+00 0.  1.
       -3    1    3    3    0  502 -0.63879985804E+03 -0.23536659753E+03 -0.13278166835E+04  0.14921661600E+04  0.10100000352E+00 0. -1.
</event>
<event>
 5   0  0.3130517E-05  0.2105310E+04  0.7818609E-02  0.8558908E-01
        2   -1    0    0  501    0  0.00000000000E+00  0.00000000000E+00  0.90938733762E+03  0.90938733763E+03  0.25500000920E-02 0.  1.
       -2   -1    0    0    0  501  0.00000000000E+00  0.00000000000E+00 -0.12184938690E+04  0.12184938690E+04  0.25500000920E-02 0. -1.
    10030    2    1    2    0    0  0.00000000000E+00  0.00000000000E+00 -0.30910653137E+03  0.21278812066E+04  0.21053103291E+04 0.  0.
        1    1    3    3  502    0  0.21715230111E+03  0.26695879246E+03 -0.11600355816E+04  0.12100019295E+04  0.50400001928E-02 0. -1.
       -1    1    3    3    0  502 -0.21715230111E+03 -0.26695879246E+03  0.85092905026E+03  0.91787927711E+03  0.50400001928E-02 0.  1.
</event>
<event>
 5   0  0.1435410E-05  0.2090226E+04  0.7818609E-02  0.8565561E-01
       -1   -1    0    0    0  501  0.00000000000E+00  0.00000000000E+00  0.13930913187E+04  0.13930913187E+04  0.50400001928E-02 0. -1.
        1   -1    0    0  501    0  0.00000000000E+00  0.00000000000E+00 -0.78405560692E+03  0.78405560693E+03  0.50400001928E-02 0.  1.
    10030    2    1    2    0    0  0.00000000000E+00  0.00000000000E+00  0.60903571178E+03  0.21771469256E+04  0.20902258820E+04 0.  0.
        2    1    3    3  502    0  0.71147090261E+03  0.76126666524E+03  0.22026352749E+03  0.10650041326E+04  0.25500000920E-02 0. -1.
       -2    1    3    3    0  502 -0.71147090261E+03 -0.76126666524E+03  0.38877218429E+03  0.11121427931E+04  0.25500000920E-02 0.  1.
</event>
<event>
 5   0  0.3130517E-05  0.2092208E+04  0.7818609E-02  0.8564684E-01
       -2   -1    0    0    0  501  0.00000000000E+00  0.00000000000E+00  0.96094172160E+03  0.96094172160E+03  0.25500000920E-02 0.  1.
        2   -1    0    0  501    0  0.00000000000E+00  0.00000000000E+00 -0.11388136154E+04  0.11388136154E+04  0.25500000920E-02 0. -1.
    10030    2    1    2    0    0  0.00000000000E+00  0.00000000000E+00 -0.17787189384E+03  0.20997553370E+04  0.20922079402E+04 0.  0.
        1    1    3    3  502    0 -0.97524389191E+03 -0.37678840693E+03 -0.53263896279E+02  0.10468558616E+04  0.50400001928E-02 0.  1.
       -1    1    3    3    0  502  0.97524389191E+03  0.37678840693E+03 -0.12460799756E+03  0.10528994754E+04  0.50400001928E-02 0. -1.
</event>
<event>
 5   0  0.1129987E-05  0.2095686E+04  0.7818609E-02  0.8563146E-01
        4   -1    0    0  501    0  0.00000000000E+00  0.00000000000E+00  0.13343513231E+04  0.13343519275E+04  0.12699999809E+01 0.  1.
       -4   -1    0    0    0  501  0.00000000000E+00  0.00000000000E+00 -0.82285151799E+03  0.82285249806E+03  0.12699999809E+01 0. -1.
    10030    2    1    2    0    0  0.00000000000E+00  0.00000000000E+00  0.51149980515E+03  0.21572044256E+04  0.20956857787E+04 0.  0.
        5    1    3    3  502    0  0.30237041600E+03 -0.97874797321E+03  0.48262207461E+03  0.11323964061E+04  0.46999998093E+01 0.  1.
       -5    1    3    3    0  502 -0.30237041600E+03  0.97874797321E+03  0.28877730532E+02  0.10248080195E+04  0.46999998093E+01 0. -1.
</event>
<event>
 5   0  0.3108326E-05  0.2101706E+04  0.7818609E-02  0.8560492E-01
        2   -1    0    0  501    0  0.00000000000E+00  0.00000000000E+00  0.11766381495E+04  0.11766381495E+04  0.25500000920E-02 0. -1.
       -2   -1    0    0    0  501  0.00000000000E+00  0.00000000000E+00 -0.93851411477E+03  0.93851411478E+03  0.25500000920E-02 0.  1.
    10030    2    1    2    0    0  0.00000000000E+00  0.00000000000E+00  0.23812403469E+03  0.21151522642E+04  0.21017055086E+04 0.  0.
        5    1    3    3  502    0  0.60359644909E+02 -0.10437439032E+04  0.22568702120E+03  0.10695799848E+04  0.46999998093E+01 0. -1.
       -5    1    3    3    0  502 -0.60359644909E+02  0.10437439032E+04  0.12437013489E+02  0.10455722795E+04  0.46999998093E+01 0.  1.
</event>
<event>
 5   0  0.1453430E-05  0.2100657E+04  0.7818609E-02  0.8560954E-01
        1   -1    0    0  501    0  0.00000000000E+00  0.00000000000E+00  0.13621816641E+04  0.13621816641E+04  0.50400001928E-02 0.  1.
       -1   -1    0    0    0  501  0.00000000000E+00  0.00000000000E+00 -0.80986994938E+03  0.80986994940E+03  0.50400001928E-02 0. -1.
    10030    2    1    2    0    0  0.00000000000E+00  0.00000000000E+00  0.55231171475E+03  0.21720516135E+04  0.21006570357E+04 0.  0.
        5    1    3    3  502    0  0.33369859839E+03 -0.90053573602E+03  0.71587208183E+03  0.11978373404E+04  0.46999998093E+01 0.  1.
       -5    1    3    3    0  502 -0.33369859839E+03  0.90053573602E+03 -0.16356036707E+03  0.97421427319E+03  0.46999998093E+01 0. -1.
</event>
<event>
 5   0  0.1513292E-05  0.2096160E+04  0.7818609E-02  0.8562937E-01
        1   -1    0    0  501    0  0.00000000000E+00  0.00000000000E+00  0.15257102085E+04  0.15257102086E+04  0.50400001928E-02 0.  1.
       -1   -1    0    0    0  501  0.00000000000E+00  0.00000000000E+00 -0.71997375035E+03  0.71997375036E+03  0.50400001928E-02 0. -1.
    10030    2    1    2    0    0  0.00000000000E+00  0.00000000000E+00  0.80573645820E+03  0.22456839589E+04  0.20961596321E+04 0.  0.
        1    1    3    3  502    0  0.50394106474E+03  0.90614417536E+02 -0.57686153255E+03  0.77132146162E+03  0.50400001928E-02 0. -1.
       -1    1    3    3    0  502 -0.50394106474E+03 -0.90614417536E+02  0.13825979907E+04  0.14743624973E+04  0.50400001928E-02 0.  1.
</event>
<event>
 5   0  0.1466480E-05  0.2100133E+04  0.7818609E-02  0.8561185E-01
        1   -1    0    0  501    0  0.00000000000E+00  0.00000000000E+00  0.10978268147E+04  0.10978268147E+04  0.50400001928E-02 0. -1.
       -1   -1    0    0    0  501  0.00000000000E+00  0.00000000000E+00 -0.10043843098E+04  0.10043843098E+04  0.50400001928E-02 0.  1.
    10030    2    1    2    0    0  0.00000000000E+00  0.00000000000E+00  0.93442504873E+02  0.21022111246E+04  0.21001333554E+04 0.  0.
        3    1    3    3  502    0 -0.62371915573E+03 -0.86651975002E+02 -0.79441115792E+03  0.10137175386E+04  0.10100000352E+00 0.  1.
       -3    1    3    3    0  502  0.62371915573E+03  0.86651975002E+02  0.88785366280E+03  0.10884935860E+04  0.10100000352E+00 0. -1.
</event>
<event>
 5   0  0.1466480E-05  0.2091324E+04  0.7818609E-02  0.8565075E-01
       -1   -1    0    0    0  501  0.00000000000E+00  0.00000000000E+00  0.80953729166E+03  0.80953729168E+03  0.50400001928E-02 0.  1.
        1   -1    0    0  501    0  0.00000000000E+00  0.00000000000E+00 -0.13506596949E+04  0.13506596949E+04  0.50400001928E-02 0. -1.
    10030    2    1    2    0    0  0.00000000000E+00  0.00000000000E+00 -0.54112240323E+03  0.21601969866E+04  0.20913243569E+04 0.  0.
        3    1    3    3  502    0 -0.41464144208E+03 -0.47908474757E+03 -0.11297969723E+04  0.12953342927E+04  0.10100000352E+00 0. -1.
       -3    1    3    3    0  502  0.41464144208E+03  0.47908474757E+03  0.58867456910E+03  0.86486269393E+03  0.10100000352E+00 0.  1.
</event>
<event>
 5   0  0.3130517E-05  0.2098936E+04  0.7818609E-02  0.8561712E-01
        2   -1    0    0  501    0  0.00000000000E+00  0.00000000000E+00  0.10731677739E+04  0.10731677739E+04  0.25500000920E-02 0. -1.
       -2   -1    0    0    0  501  0.00000000000E+00  0.00000000000E+00 -0.10262911937E+04  0.10262911937E+04  0.25500000920E-02 0.  1.
    10030    2    1    2    0    0  0.00000000000E+00  0.00000000000E+00  0.46876580236E+02  0.20994589676E+04  0.20989355738E+04 0.  0.
        1    1    3    3  502    0  0.90262570557E+03 -0.71436279716E+02  0.55417999795E+03  0.10615798494E+04  0.50400001928E-02 0. -1.
       -1    1    3    3    0  502 -0.90262570557E+03  0.71436279716E+02 -0.50730341771E+03  0.10378791182E+04  0.50400001928E-02 0.  1.
</event>
<event>
 5   0  0.1492552E-05  0.2185367E+04  0.7818609E-02  0.8524543E-01
       -1   -1    0    0    0  501  0.00000000000E+00  0.00000000000E+00  0.11447432412E+04  0.11447432412E+04  0.50400001928E-02 0. -1.
        1   -1    0    0  501    0  0.00000000000E+00  0.00000000000E+00 -0.10429916245E+04  0.10429916246E+04  0.50400001928E-02 0.  1.
    10030    2    1    2    0    0  0.00000000000E+00  0.00000000000E+00  0.10175161664E+03  0.21877348658E+04  0.21853673493E+04 0.  0.
        4    1    3    3  502    0 -0.73408779793E+03  0.56134092647E+03  0.63457476777E+03  0.11210152896E+04  0.12699999809E+01 0. -1.
       -4    1    3    3    0  502  0.73408779793E+03 -0.56134092647E+03 -0.53282315113E+03  0.10667195761E+04  0.12699999809E+01 0.  1.
</event>
<event>
 5   0  0.1513292E-05  0.2099226E+04  0.7818609E-02  0.8561585E-01
        1   -1    0    0  501    0  0.00000000000E+00  0.00000000000E+00  0.80103465607E+03  0.80103465608E+03  0.50400001928E-02 0.  1.
       -1   -1    0    0    0  501  0.00000000000E+00  0.00000000000E+00 -0.13753300721E+04  0.13753300721E+04  0.50400001928E-02 0. -1.
    10030    2    1    2    0    0  0.00000000000E+00  0.00000000000E+00 -0.57429541602E+03  0.21763647282E+04  0.20992256204E+04 0.  0.
        1    1    3    3  502    0 -0.95047470633E+03  0.31190224612E+02 -0.74766863395E+03  0.12097038413E+04  0.50400001928E-02 0. -1.
       -1    1    3    3    0  502  0.95047470633E+03 -0.31190224612E+02  0.17337321792E+03  0.96666088687E+03  0.50400001928E-02 0.  1.
</event>
<event>
 5   0  0.3279789E-05  0.2089142E+04  0.7818609E-02  0.8566041E-01
        2   -1    0    0  501    0  0.00000000000E+00  0.00000000000E+00  0.15049982779E+04  0.15049982779E+04  0.25500000920E-02 0.  1.
       -2   -1    0    0    0  501  0.00000000000E+00  0.00000000000E+00 -0.72500332580E+03  0.72500332580E+03  0.25500000920E-02 0. -1.
    10030    2    1    2    0    0  0.00000000000E+00  0.00000000000E+00  0.77999495214E+03  0.22300016037E+04  0.20891421750E+04 0.  0.
        2    1    3    3  502    0 -0.14688256750E+03  0.11196911429E+03  0.14874309502E+04  0.14988536963E+04  0.25500000920E-02 0.  1.
       -2    1    3    3    0  502  0.14688256750E+03 -0.11196911429E+03 -0.70743599808E+03  0.73114790745E+03  0.25500000920E-02 0. -1.
</event>
<event>
 5   0  0.1466480E-05  0.2102516E+04  0.7818609E-02  0.8560136E-01
       -1   -1    0    0    0  501  0.00000000000E+00  0.00000000000E+00  0.60780215421E+03  0.60780215424E+03  0.50400001928E-02 0.  1.
        1   -1    0    0  501    0  0.00000000000E+00  0.00000000000E+00 -0.18182620997E+04  0.18182620997E+04  0.50400001928E-02 0. -1.
    10030    2    1    2    0    0  0.00000000000E+00  0.00000000000E+00 -0.12104599455E+04  0.24260642539E+04  0.21025162270E+04 0.  0.
        3    1    3    3  502    0 -0.91455422838E+03 -0.19885515952E+03 -0.52819971588E+02  0.93741280700E+03  0.10100000352E+00 0.  1.
       -3    1    3    3    0  502  0.91455422838E+03  0.19885515952E+03 -0.11576399739E+04  0.14886514469E+04  0.10100000352E+00 0. -1.
</event>
<event>
 5   0  0.3257130E-05  0.2135605E+04  0.7818609E-02  0.8545719E-01
       -2   -1    0    0    0  501  0.00000000000E+00  0.00000000000E+00  0.75483590158E+03  0.75483590159E+03  0.25500000920E-02 0.  1.
        2   -1    0    0  501    0  0.00000000000E+00  0.00000000000E+00 -0.15105294653E+04  0.15105294653E+04  0.25500000920E-02 0. -1.
    10030    2    1    2    0    0  0.00000000000E+00  0.00000000000E+00 -0.75569356369E+03  0.22653653669E+04  0.21356047114E+04 0.  0.
        3    1    3    3  502    0  0.81221269690E+03  0.55425850401E+03  0.63753233852E+02  0.98537121904E+03  0.10100000352E+00 0. -1.
       -3    1    3    3    0  502 -0.81221269690E+03 -0.55425850401E+03 -0.81944679754E+03  0.12799941478E+04  0.10100000352E+00 0.  1.
</event>
<event>
 5   0  0.1513292E-05  0.2101578E+04  0.7818609E-02  0.8560549E-01
       -1   -1    0    0    0  501  0.00000000000E+00  0.00000000000E+00  0.57306120565E+03  0.57306120567E+03  0.50400001928E-02 0. -1.
        1   -1    0    0  501    0  0.00000000000E+00  0.00000000000E+00 -0.19267707581E+04  0.19267707581E+04  0.50400001928E-02 0.  1.
    10030    2    1    2    0    0  0.00000000000E+00  0.00000000000E+00 -0.13537095524E+04  0.24998319638E+04  0.21015780487E+04 0.  0.
        1    1    3    3  502    0 -0.33565062127E+03 -0.24907404567E+03  0.46992562165E+03  0.62891120971E+03  0.50400001928E-02 0. -1.
       -1    1    3    3    0  502  0.33565062127E+03  0.24907404567E+03 -0.18236351741E+04  0.18709207541E+04  0.50400001928E-02 0.  1.
</event>
<event>
 5   0  0.3279789E-05  0.2099901E+04  0.7818609E-02  0.8561287E-01
        2   -1    0    0  501    0  0.00000000000E+00  0.00000000000E+00  0.78043850561E+03  0.78043850561E+03  0.25500000920E-02 0. -1.
       -2   -1    0    0    0  501  0.00000000000E+00  0.00000000000E+00 -0.14125343438E+04  0.14125343438E+04  0.25500000920E-02 0.  1.
    10030    2    1    2    0    0  0.00000000000E+00  0.00000000000E+00 -0.63209583823E+03  0.21929728494E+04  0.20999011333E+04 0.  0.
        2    1    3    3  502    0 -0.36796010223E+03 -0.25535486550E+03  0.67567060715E+03  0.81063648668E+03  0.25500000920E-02 0. -1.
       -2    1    3    3    0  502  0.36796010223E+03  0.25535486550E+03 -0.13077664454E+04  0.13823363628E+04  0.25500000920E-02 0.  1.
</event>
<event>
 5   0  0.1435410E-05  0.2101251E+04  0.7818609E-02  0.8560692E-01
        1   -1    0    0  501    0  0.00000000000E+00  0.00000000000E+00  0.22480648466E+04  0.22480648466E+04  0.50400001928E-02 0.  1.
       -1   -1    0    0    0  501  0.00000000000E+00  0.00000000000E+00 -0.49100645880E+03  0.49100645883E+03  0.50400001928E-02 0. -1.
    10030    2    1    2    0    0  0.00000000000E+00  0.00000000000E+00  0.17570583878E+04  0.27390713055E+04  0.21012513981E+04 0.  0.
        2    1    3    3  502    0 -0.54360589051E+03 -0.33375995093E+03  0.19667426032E+04  0.20676023641E+04  0.25500000920E-02 0.  1.
       -2    1    3    3    0  502  0.54360589051E+03  0.33375995093E+03 -0.20968421532E+03  0.67146894135E+03  0.25500000920E-02 0. -1.
</event>
<event>
 5   0  0.3257130E-05  0.2094064E+04  0.7818609E-02  0.8563863E-01
        2   -1    0    0  501    0  0.00000000000E+00  0.00000000000E+00  0.76296953873E+03  0.76296953874E+03  0.25500000920E-02 0.  1.
       -2   -1    0    0    0  501  0.00000000000E+00  0.00000000000E+00 -0.14368542209E+04  0.14368542209E+04  0.25500000920E-02 0. -1.
    10030    2    1    2    0    0  0.00000000000E+00  0.00000000000E+00 -0.67388468220E+03  0.21998237597E+04  0.20940639935E+04 0.  0.
        3    1    3    3  502    0 -0.62984389017E+02  0.46379353884E+03 -0.13208364665E+04  0.14013138340E+04  0.10100000352E+00 0. -1.
       -3    1    3    3    0  502  0.62984389017E+02 -0.46379353884E+03  0.64695178432E+03  0.79850992565E+03  0.10100000352E+00 0.  1.
</event>
<event>
 5   0  0.3108326E-05  0.2104442E+04  0.7818609E-02  0.8559289E-01
       -2   -1    0    0    0  501  0.00000000000E+00  0.00000000000E+00  0.10914267354E+04  0.10914267354E+04  0.25500000920E-02 0. -1.
        2   -1    0    0  501    0  0.00000000000E+00  0.00000000000E+00 -0.10144235923E+04  0.10144235923E+04  0.25500000920E-02 0.  1.
    10030    2    1    2    0    0  0.00000000000E+00  0.00000000000E+00  0.77003143092E+02  0.21058503277E+04  0.21044419969E+04 0.  0.
        5    1    3    3  502    0 -0.24315865780E+03 -0.10067484246E+04 -0.14730633708E+03  0.10461308571E+04  0.46999998093E+01 0.  1.
       -5    1    3    3    0  502  0.24315865780E+03  0.10067484246E+04  0.22430948017E+03  0.10597194705E+04  0.46999998093E+01 0. -1.
</event>
<event>
 5   0  0.1435410E-05  0.2095767E+04  0.7818609E-02  0.8563110E-01
       -1   -1    0    0    0  501  0.00000000000E+00  0.00000000000E+00  0.52542624638E+03  0.52542624640E+03  0.50400001928E-02 0.  1.
        1   -1    0    0  501    0  0.00000000000E+00  0.00000000000E+00 -0.20898453104E+04  0.20898453104E+04  0.50400001928E-02 0. -1.
    10030    2    1    2    0    0  0.00000000000E+00  0.00000000000E+00 -0.15644190641E+04  0.26152715568E+04  0.20957667590E+04 0.  0.
        2    1    3    3  502    0 -0.24615966636E+03 -0.83831837976E+03 -0.60282252746E+02  0.87578892274E+03  0.25500000920E-02 0.  1.
       -2    1    3    3    0  502  0.24615966636E+03  0.83831837976E+03 -0.15041368113E+04  0.17394826341E+04  0.25500000920E-02 0. -1.
</event>
<event>
 5   0  0.3257130E-05  0.2100600E+04  0.7818609E-02  0.8560979E-01
        2   -1    0    0  501    0  0.00000000000E+00  0.00000000000E+00  0.13166402397E+04  0.13166402397E+04  0.25500000920E-02 0.  1.
       -2   -1    0    0    0  501  0.00000000000E+00  0.00000000000E+00 -0.83783736237E+03  0.83783736237E+03  0.25500000920E-02 0. -1.
    10030    2    1    2    0    0  0.00000000000E+00  0.00000000000E+00  0.47880287737E+03  0.21544776021E+04  0.21006002815E+04 0.  0.
        3    1    3    3  502    0 -0.44936084439E+03  0.33572873085E+03 -0.67134409864E+03  0.87483818970E+03  0.10100000352E+00 0. -1.
       -3    1    3    3    0  502  0.44936084439E+03 -0.33572873085E+03  0.11501469760E+04  0.12796394124E+04  0.10100000352E+00 0.  1.
</event>
<event>
 5   0  0.3130517E-05  0.2091566E+04  0.7818609E-02  0.8564968E-01
        2   -1    0    0  501    0  0.00000000000E+00  0.00000000000E+00  0.18181667304E+04  0.18181667304E+04  0.25500000920E-02 0. -1.
       -2   -1    0    0    0  501  0.00000000000E+00  0.00000000000E+00 -0.60151939831E+03  0.60151939831E+03  0.25500000920E-02 0.  1.
    10030    2    1    2    0    0  0.00000000000E+00  0.00000000000E+00  0.12166473321E+04  0.24196861287E+04  0.20915664538E+04 0.  0.
        1    1    3    3  502    0 -0.47905760141E+03  0.42119638193E+03 -0.35039207228E+03  0.72778924282E+03  0.50400001928E-02 0.  1.
       -1    1    3    3    0  502  0.47905760141E+03 -0.42119638193E+03  0.15670394044E+04  0.16918968859E+04  0.50400001928E-02 0. -1.
</event>
<event>
 5   0  0.1453430E-05  0.2090073E+04  0.7818609E-02  0.8565629E-01
        1   -1    0    0  501    0  0.00000000000E+00  0.00000000000E+00  0.10200833637E+04  0.10200833637E+04  0.50400001928E-02 0. -1.
       -1   -1    0    0    0  501  0.00000000000E+00  0.00000000000E+00 -0.10705999053E+04  0.10705999053E+04  0.50400001928E-02 0.  1.
    10030    2    1    2    0    0  0.00000000000E+00  0.00000000000E+00 -0.50516541631E+02  0.20906832690E+04  0.20900728720E+04 0.  0.
        5    1    3    3  502    0  0.38292879321E+03 -0.17929261732E+03  0.93068748461E+03  0.10222434090E+04  0.46999998093E+01 0. -1.
       -5    1    3    3    0  502 -0.38292879321E+03  0.17929261732E+03 -0.98120402624E+03  0.10684398600E+04  0.46999998093E+01 0.  1.
</event>
<event>
 5   0  0.3257130E-05  0.2099178E+04  0.7818609E-02  0.8561606E-01
       -2   -1    0    0    0  501  0.00000000000E+00  0.00000000000E+00  0.62109194961E+03  0.62109194961E+03  0.25500000920E-02 0. -1.
        2   -1    0    0  501    0  0.00000000000E+00  0.00000000000E+00 -0.17737101070E+04  0.17737101070E+04  0.25500000920E-02 0.  1.
    10030    2    1    2    0    0  0.00000000000E+00  0.00000000000E+00 -0.11526181574E+04  0.23948020566E+04  0.20991779995E+04 0.  0.
        3    1    3    3  502    0  0.85064863962E+03  0.32820640621E+03 -0.11694460997E+04  0.14828778585E+04  0.10100000352E+00 0. -1.
       -3    1    3    3    0  502 -0.85064863962E+03 -0.32820640621E+03  0.16827942276E+02  0.91192419806E+03  0.10100000352E+00 0.  1.
</event>
<event>
 5   0  0.1492552E-05  0.2091129E+04  0.7818609E-02  0.8565161E-01
       -1   -1    0    0    0  501  0.00000000000E+00  0.00000000000E+00  0.12445524943E+04  0.12445524943E+04  0.50400001928E-02 0.  1.
        1   -1    0    0  501    0  0.00000000000E+00  0.00000000000E+00 -0.87839240822E+03  0.87839240823E+03  0.50400001928E-02 0. -1.
    10030    2    1    2    0    0  0.00000000000E+00  0.00000000000E+00  0.36616008606E+03  0.21229449025E+04  0.20911293242E+04 0.  0.
        4    1    3    3  502    0 -0.35680957622E+03 -0.84843306945E+03  0.68666340288E+03  0.11483292162E+04  0.12699999809E+01 0.  1.
       -4    1    3    3    0  502  0.35680957622E+03  0.84843306945E+03 -0.32050331682E+03  0.97461568632E+03  0.12699999809E+01 0. -1.
</event>
<event>
 5   0  0.1513292E-05  0.2128136E+04  0.7818609E-02  0.8548950E-01
       -1   -1    0    0    0  501  0.00000000000E+00  0.00000000000E+00  0.66605990311E+03  0.66605990313E+03  0.50400001928E-02 0. -1.
        1   -1    0    0  501    0  0.00000000000E+00  0.00000000000E+00 -0.16999075043E+04  0.16999075043E+04  0.50400001928E-02 0.  1.
    10030    2    1    2    0    0  0.00000000000E+00  0.00000000000E+00 -0.10338476012E+04  0.23659674074E+04  0.21281355480E+04 0.  0.
        1    1    3    3  502    0  0.76909021196E+03 -0.71523020367E+03 -0.32699165857E+03  0.10999897923E+04  0.50400001928E-02 0. -1.
       -1    1    3    3    0  502 -0.76909021196E+03  0.71523020367E+03 -0.70685594260E+03  0.12659776151E+04  0.50400001928E-02 0.  1.
</event>
<event>
 5   0  0.1466480E-05  0.2097316E+04  0.7818609E-02  0.8562426E-01
        1   -1    0    0  501    0  0.00000000000E+00  0.00000000000E+00  0.16186306853E+04  0.16186306853E+04  0.50400001928E-02 0.  1.
       -1   -1    0    0    0  501  0.00000000000E+00  0.00000000000E+00 -0.67939160188E+03  0.67939160189E+03  0.50400001928E-02 0. -1.
    10030    2    1    2    0    0  0.00000000000E+00  0.00000000000E+00  0.93923908343E+03  0.22980222872E+04  0.20973164703E+04 0.  0.
        3    1    3    3  502    0 -0.34419711301E+03  0.98108016561E+03  0.61943030417E+03  0.12102412387E+04  0.10100000352E+00 0.  1.
       -3    1    3    3    0  502  0.34419711301E+03 -0.98108016561E+03  0.31980877926E+03  0.10877810485E+04  0.10100000352E+00 0. -1.
</event>
<event>
 5   0  0.3242231E-05  0.2093126E+04  0.7818609E-02  0.8564278E-01
       -2   -1    0    0    0  501  0.00000000000E+00  0.00000000000E+00  0.45330652827E+03  0.45330652828E+03  0.25500000920E-02 0.  1.
        2   -1    0    0  501    0  0.00000000000E+00  0.00000000000E+00 -0.24162323007E+04  0.24162323007E+04  0.25500000920E-02 0. -1.
    10030    2    1    2    0    0  0.00000000000E+00  0.00000000000E+00 -0.19629257725E+04  0.28695388290E+04  0.20931257733E+04 0.  0.
        4    1    3    3  502    0  0.52855385371E+03 -0.44740224961E+03 -0.20572355687E+04  0.21706583673E+04  0.12699999809E+01 0. -1.
       -4    1    3    3    0  502 -0.52855385371E+03  0.44740224961E+03  0.94309796283E+02  0.69888046174E+03  0.12699999809E+01 0.  1.
</event>
<event>
 5   0  0.3242231E-05  0.2098575E+04  0.7818609E-02  0.8561871E-01
        2   -1    0    0  501    0  0.00000000000E+00  0.00000000000E+00  0.21380621175E+04  0.21380621175E+04  0.25500000920E-02 0.  1.
       -2   -1    0    0    0  501  0.00000000000E+00  0.00000000000E+00 -0.51495437274E+03  0.51495437275E+03  0.25500000920E-02 0. -1.
    10030    2    1    2    0    0  0.00000000000E+00  0.00000000000E+00  0.16231077448E+04  0.26530164903E+04  0.20985751706E+04 0.  0.
        4    1    3    3  502    0  0.90929522040E+03 -0.52221939351E+03  0.86005581478E+03  0.13561815919E+04  0.12699999809E+01 0. -1.
       -4    1    3    3    0  502 -0.90929522040E+03  0.52221939351E+03  0.76305192998E+03  0.12968348983E+04  0.12699999809E+01 0.  1.
</event>
<event>
 5   0  0.1435410E-05  0.2111178E+04  0.7818609E-02  0.8556335E-01
       -1   -1    0    0    0  501  0.00000000000E+00  0.00000000000E+00  0.62384805295E+03  0.62384805297E+03  0.50400001928E-02 0. -1.
        1   -1    0    0  501    0  0.00000000000E+00  0.00000000000E+00 -0.17861217883E+04  0.17861217883E+04  0.50400001928E-02 0.  1.
    10030    2    1    2    0    0  0.00000000000E+00  0.00000000000E+00 -0.11622737354E+04  0.24099698413E+04  0.21111784387E+04 0.  0.
        2    1    3    3  502    0 -0.53478892212E+03  0.33063165845E+03 -0.15490505942E+04  0.16717877342E+04  0.25500000920E-02 0.  1.
       -2    1    3    3    0  502  0.53478892212E+03 -0.33063165845E+03  0.38677685880E+03  0.73818210713E+03  0.25500000920E-02 0. -1.
</event>
<event>
 5   0  0.1466480E-05  0.2088155E+04  0.7818609E-02  0.8566479E-01
        1   -1    0    0  501    0  0.00000000000E+00  0.00000000000E+00  0.10608220943E+04  0.10608220943E+04  0.50400001928E-02 0.  1.
       -1   -1    0    0    0  501  0.00000000000E+00  0.00000000000E+00 -0.10275969823E+04  0.10275969823E+04  0.50400001928E-02 0. -1.
    10030    2    1    2    0    0  0.00000000000E+00  0.00000000000E+00  0.33225112051E+02  0.20884190766E+04  0.20881547672E+04 0.  0.
        3    1    3    3  502    0  0.35119787256E+03  0.77168557468E+03  0.62599994632E+03  0.10539044145E+04  0.10100000352E+00 0.  1.
       -3    1    3    3    0  502 -0.35119787256E+03 -0.77168557468E+03 -0.59277483427E+03  0.10345146622E+04  0.10100000352E+00 0. -1.
</event>
<event>
 5   0  0.1453430E-05  0.2100981E+04  0.7818609E-02  0.8560811E-01
        1   -1    0    0  501    0  0.00000000000E+00  0.00000000000E+00  0.16305067440E+04  0.16305067440E+04  0.50400001928E-02 0. -1.
       -1   -1    0    0    0  501  0.00000000000E+00  0.00000000000E+00 -0.67680229568E+03  0.67680229570E+03  0.50400001928E-02 0.  1.
    10030    2    1    2    0    0  0.00000000000E+00  0.00000000000E+00  0.95370444833E+03  0.23073090397E+04  0.21009813969E+04 0.  0.
        5    1    3    3  502    0 -0.68000006734E+03 -0.17947671336E+02  0.13559561224E+04  0.15170238318E+04  0.46999998093E+01 0. -1.
       -5    1    3    3    0  502  0.68000006734E+03  0.17947671336E+02 -0.40225167407E+03  0.79028520787E+03  0.46999998093E+01 0.  1.
</event>
<event>
 5   0  0.3279789E-05  0.2122988E+04  0.7818609E-02  0.8551184E-01
        2   -1    0    0  501    0  0.00000000000E+00  0.00000000000E+00  0.98926690992E+03  0.98926690992E+03  0.25500000920E-02 0.  1.
       -2   -1    0    0    0  501  0.00000000000E+00  0.00000000000E+00 -0.11389940004E+04  0.11389940004E+04  0.25500000920E-02 0. -1.
    10030    2    1    2    0    0  0.00000000000E+00  0.00000000000E+00 -0.14972709045E+03  0.21282609103E+04  0.21229875884E+04 0.  0.
        2    1    3    3  502    0 -0.23681154103E+03 -0.10144804832E+04 -0.27913109666E+03  0.10785010551E+04  0.25500000920E-02 0. -1.
       -2    1    3    3    0  502  0.23681154103E+03  0.10144804832E+04  0.12940400621E+03  0.10497598552E+04  0.25500000920E-02 0.  1.
</event>
<event>
 5   0  0.3257130E-05  0.2098743E+04  0.7818609E-02  0.8561797E-01
        2   -1    0    0  501    0  0.00000000000E+00  0.00000000000E+00  0.17574774478E+04  0.17574774478E+04  0.25500000920E-02 0.  1.
       -2   -1    0    0    0  501  0.00000000000E+00  0.00000000000E+00 -0.62656885487E+03  0.62656885488E+03  0.25500000920E-02 0. -1.
    10030    2    1    2    0    0  0.00000000000E+00  0.00000000000E+00  0.11309085929E+04  0.23840463027E+04  0.20987430828E+04 0.  0.
        3    1    3    3  502    0 -0.55281182421E+03  0.89114521686E+03  0.52234973154E+03  0.11715758459E+04  0.10100000352E+00 0. -1.
       -3    1    3    3    0  502  0.55281182421E+03 -0.89114521686E+03  0.60855886136E+03  0.12124704567E+04  0.10100000352E+00 0.  1.
</event>
<event>
 5   0  0.3130517E-05  0.2097303E+04  0.7818609E-02  0.8562432E-01
        2   -1    0    0  501    0  0.00000000000E+00  0.00000000000E+00  0.13035116673E+04  0.13035116673E+04  0.25500000920E-02 0. -1.
       -2   -1    0    0    0  501  0.00000000000E+00  0.00000000000E+00 -0.84362102262E+03  0.84362102262E+03  0.25500000920E-02 0.  1.
    10030    2    1    2    0    0  0.00000000000E+00  0.00000000000E+00  0.45989064469E+03  0.21471326899E+04  0.20973028830E+04 0.  0.
        1    1    3    3  502    0 -0.88155107482E+03 -0.41486509047E+03 -0.16711548900E+03  0.98852057515E+03  0.50400001928E-02 0. -1.
       -1    1    3    3    0  502  0.88155107482E+03  0.41486509047E+03  0.62700613369E+03  0.11586121148E+04  0.50400001928E-02 0.  1.
</event>
<event>
 5   0  0.3279789E-05  0.2086906E+04  0.7818609E-02  0.8567033E-01
        2   -1    0    0  501    0  0.00000000000E+00  0.00000000000E+00  0.11521330931E+04  0.11521330931E+04  0.25500000920E-02 0.  1.
       -2   -1    0    0    0  501  0.00000000000E+00  0.00000000000E+00 -0.94502468240E+03  0.94502468241E+03  0.25500000920E-02 0. -1.
    10030    2    1    2    0    0  0.00000000000E+00  0.00000000000E+00  0.20710841068E+03  0.20971577755E+04  0.20869060452E+04 0.  0.
        2    1    3    3  502    0  0.80356020020E+03 -0.48792184892E+03 -0.35145864078E+03  0.10036433142E+04  0.25500000920E-02 0. -1.
       -2    1    3    3    0  502 -0.80356020020E+03  0.48792184892E+03  0.55856705147E+03  0.10935144613E+04  0.25500000920E-02 0.  1.
</event>
<event>
 5   0  0.3257130E-05  0.2148339E+04  0.7818609E-02  0.8540244E-01
       -2   -1    0    0    0  501  0.00000000000E+00  0.00000000000E+00  0.91857316320E+03  0.91857316321E+03  0.25500000920E-02 0. -1.
        2   -1    0    0  501    0  0.00000000000E+00  0.00000000000E+00 -0.12561221868E+04  0.12561221868E+04  0.25500000920E-02 0.  1.
    10030    2    1    2    0    0  0.00000000000E+00  0.00000000000E+00 -0.33754902361E+03  0.21746953500E+04  0.21483390147E+04 0.  0.
        3    1    3    3  502    0 -0.92363865825E+03  0.25193517874E+03 -0.66184414147E+03  0.11638803130E+04  0.10100000352E+00 0.  1.
       -3    1    3    3    0  502  0.92363865825E+03 -0.25193517874E+03  0.32429511785E+03  0.10108150370E+04  0.10100000352E+00 0. -1.
</event>
<event>
 5   0  0.1466480E-05  0.2104299E+04  0.7818609E-02  0.8559352E-01
       -1   -1    0    0    0  501  0.00000000000E+00  0.00000000000E+00  0.10807889806E+04  0.10807889806E+04  0.50400001928E-02 0.  1.
        1   -1    0    0  501    0  0.00000000000E+00  0.00000000000E+00 -0.10242689916E+04  0.10242689916E+04  0.50400001928E-02 0. -1.
    10030    2    1    2    0    0  0.00000000000E+00  0.00000000000E+00  0.56519988954E+02  0.21050579722E+04  0.21042990656E+04 0.  0.
        3    1    3    3  502    0 -0.40121022961E+03 -0.39667240248E+03  0.91666810520E+03  0.10763823988E+04  0.10100000352E+00 0.  1.
       -3    1    3    3    0  502  0.40121022961E+03  0.39667240248E+03 -0.86014811625E+03  0.10286755734E+04  0.10100000352E+00 0. -1.
</event>
<event>
 5   0  0.3108326E-05  0.2092301E+04  0.7818609E-02  0.8564642E-01
       -2   -1    0    0    0  501  0.00000000000E+00  0.00000000000E+00  0.66161553959E+03  0.66161553959E+03  0.25500000920E-02 0.  1.
        2   -1    0    0  501    0  0.00000000000E+00  0.00000000000E+00 -0.16541801121E+04  0.16541801121E+04  0.25500000920E-02 0. -1.
    10030    2    1    2    0    0  0.00000000000E+00  0.00000000000E+00 -0.99256457247E+03  0.23157956517E+04  0.20923013812E+04 0.  0.
        5    1    3    3  502    0 -0.49872385468E+02 -0.10434333824E+04 -0.43397820606E+03  0.11311939054E+04  0.46999998093E+01 0. -1.
       -5    1    3    3    0  502  0.49872385468E+02  0.10434333824E+04 -0.55858636640E+03  0.11846017462E+04  0.46999998093E+01 0.  1.
</event>
<event>
 5   0  0.1453430E-05  0.2097994E+04  0.7818609E-02  0.8562128E-01
       -1   -1    0    0    0  501  0.00000000000E+00  0.00000000000E+00  0.10391144477E+04  0.10391144477E+04  0.50400001928E-02 0. -1.
        1   -1    0    0  501    0  0.00000000000E+00  0.00000000000E+00 -0.10589733758E+04  0.10589733758E+04  0.50400001928E-02 0.  1.
    10030    2    1    2    0    0  0.00000000000E+00  0.00000000000E+00 -0.19858928101E+02  0.20980878235E+04  0.20979938365E+04 0.  0.
        5    1    3    3  502    0  0.53329486173E+02  0.91949547341E+03  0.49214530011E+03  0.10442916480E+04  0.46999998093E+01 0. -1.
       -5    1    3    3    0  502 -0.53329486173E+02 -0.91949547341E+03 -0.51200422822E+03  0.10537961755E+04  0.46999998093E+01 0.  1.
</event>
<event>
 5   0  0.1466480E-05  0.2120753E+04  0.7818609E-02  0.8552156E-01
       -1   -1    0    0    0  501  0.00000000000E+00  0.00000000000E+00  0.78836467124E+03  0.78836467126E+03  0.50400001928E-02 0.  1.
        1   -1    0    0  501    0  0.00000000000E+00  0.00000000000E+00 -0.14262409405E+04  0.14262409405E+04  0.50400001928E-02 0. -1.
    10030    2    1    2    0    0  0.00000000000E+00  0.00000000000E+00 -0.63787626923E+03  0.22146056117E+04  0.21207526684E+04 0.  0.
        3    1    3    3  502    0  0.49961263790E+03 -0.54479810017E+03  0.47495647868E+03  0.87863611623E+03  0.10100000352E+00 0.  1.
       -3    1    3    3    0  502 -0.49961263790E+03  0.54479810017E+03 -0.11128327479E+04  0.13359694955E+04  0.10100000352E+00 0. -1.
</event>
<event>
 5   0  0.3257130E-05  0.2090824E+04  0.7818609E-02  0.8565296E-01
        2   -1    0    0  501    0  0.00000000000E+00  0.00000000000E+00  0.23485636127E+04  0.23485636127E+04  0.25500000920E-02 0.  1.
       -2   -1    0    0    0  501  0.00000000000E+00  0.00000000000E+00 -0.46534248309E+03  0.46534248310E+03  0.25500000920E-02 0. -1.
    10030    2    1    2    0    0  0.00000000000E+00  0.00000000000E+00  0.18832211296E+04  0.28139060958E+04  0.20908241660E+04 0.  0.
        3    1    3    3  502    0  0.64550971828E+03  0.70586307130E+03  0.15093570264E+04  0.17869202879E+04  0.10100000352E+00 0.  1.
       -3    1    3    3    0  502 -0.64550971828E+03 -0.70586307130E+03  0.37386410319E+03  0.10269858079E+04  0.10100000352E+00 0. -1.
</event>
<event>
 5   0  0.1513292E-05  0.2093627E+04  0.7818609E-02  0.8564056E-01
       -1   -1    0    0    0  501  0.00000000000E+00  0.00000000000E+00  0.10214226470E+04  0.10214226470E+04  0.50400001928E-02 0.  1.
        1   -1    0    0  501    0  0.00000000000E+00  0.00000000000E+00 -0.10728358669E+04  0.10728358669E+04  0.50400001928E-02 0. -1.
    10030    2    1    2    0    0  0.00000000000E+00  0.00000000000E+00 -0.51413219937E+02  0.20942585139E+04  0.20936273317E+04 0.  0.
        1    1    3    3  502    0  0.94090376955E+02  0.10417465934E+04 -0.67311060946E+02  0.10481506298E+04  0.50400001928E-02 0.  1.
       -1    1    3    3    0  502 -0.94090376955E+02 -0.10417465934E+04  0.15897841009E+02  0.10461078841E+04  0.50400001928E-02 0. -1.
</event>
<event>
 5   0  0.1466480E-05  0.2110505E+04  0.7818609E-02  0.8556630E-01
       -1   -1    0    0    0  501  0.00000000000E+00  0.00000000000E+00  0.47429710276E+03  0.47429710278E+03  0.50400001928E-02 0.  1.
        1   -1    0    0  501    0  0.00000000000E+00  0.00000000000E+00 -0.23478073474E+04  0.23478073474E+04  0.50400001928E-02 0. -1.
    10030    2    1    2    0    0  0.00000000000E+00  0.00000000000E+00 -0.18735102446E+04  0.28221044502E+04  0.21105053639E+04 0.  0.
        3    1    3    3  502    0 -0.64742623629E+03 -0.35531765224E+03  0.71143667615E+02  0.74193853995E+03  0.10100000352E+00 0.  1.
       -3    1    3    3    0  502  0.64742623629E+03  0.35531765224E+03 -0.19446539122E+04  0.20801659102E+04  0.10100000352E+00 0. -1.
</event>
<event>
 5   0  0.1435410E-05  0.2091802E+04  0.7818609E-02  0.8564863E-01
        1   -1    0    0  501    0  0.00000000000E+00  0.00000000000E+00  0.16809003732E+04  0.16809003732E+04  0.50400001928E-02 0. -1.
       -1   -1    0    0    0  501  0.00000000000E+00  0.00000000000E+00 -0.65078735114E+03  0.65078735116E+03  0.50400001928E-02 0.  1.
    10030    2    1    2    0    0  0.00000000000E+00  0.00000000000E+00  0.10301130221E+04  0.23316877244E+04  0.20918018085E+04 0.  0.
        2    1    3    3  502    0 -0.59625557504E+03  0.35477240422E+03  0.13874483530E+04  0.15512566203E+04  0.25500000920E-02 0. -1.
       -2    1    3    3    0  502  0.59625557504E+03 -0.35477240422E+03 -0.35733533094E+03  0.78043110414E+03  0.25500000920E-02 0.  1.
</event>
<event>
 5   0  0.1453430E-05  0.2095361E+04  0.7818609E-02  0.8563290E-01
        1   -1    0    0  501    0  0.00000000000E+00  0.00000000000E+00  0.19708052569E+04  0.19708052569E+04  0.50400001928E-02 0.  1.
       -1   -1    0    0    0  501  0.00000000000E+00  0.00000000000E+00 -0.55694694829E+03  0.55694694832E+03  0.50400001928E-02 0. -1.
    10030    2    1    2    0    0  0.00000000000E+00  0.00000000000E+00  0.14138583086E+04  0.25277522052E+04  0.20953605642E+04 0.  0.
        5    1    3    3  502    0 -0.80468795862E+03  0.54079955583E+03  0.11858770836E+04  0.15317680691E+04  0.46999998093E+01 0.  1.
       -5    1    3    3    0  502  0.80468795862E+03 -0.54079955583E+03  0.22798122502E+03  0.99598413606E+03  0.46999998093E+01 0. -1.
</event>
<event>
 5   0  0.3242231E-05  0.2114365E+04  0.7818609E-02  0.8554942E-01
       -2   -1    0    0    0  501  0.00000000000E+00  0.00000000000E+00  0.94214073715E+03  0.94214073716E+03  0.25500000920E-02 0. -1.
        2   -1    0    0  501    0  0.00000000000E+00  0.00000000000E+00 -0.11862721132E+04  0.11862721132E+04  0.25500000920E-02 0.  1.
    10030    2    1    2    0    0  0.00000000000E+00  0.00000000000E+00 -0.24413137609E+03  0.21284128504E+04  0.21143654209E+04 0.  0.
        4    1    3    3  502    0  0.88937901066E+03 -0.53587193619E+03  0.77949936350E+02  0.10412644055E+04  0.12699999809E+01 0. -1.
       -4    1    3    3    0  502 -0.88937901066E+03  0.53587193619E+03 -0.32208131244E+03  0.10871484449E+04  0.12699999809E+01 0.  1.
</event>
<event>
 5   0  0.3130517E-05  0.2100012E+04  0.7818609E-02  0.8561238E-01
        2   -1    0    0  501    0  0.00000000000E+00  0.00000000000E+00  0.91511482786E+03  0.91511482787E+03  0.25500000920E-02 0.  1.
       -2   -1    0    0    0  501  0.00000000000E+00  0.00000000000E+00 -0.12047808976E+04  0.12047808976E+04  0.25500000920E-02 0. -1.
    10030    2    1    2    0    0  0.00000000000E+00  0.00000000000E+00 -0.28966606976E+03  0.21198957255E+04  0.21000122512E+04 0.  0.
        1    1    3    3  502    0 -0.10143709033E+04 -0.18623946704E+03 -0.34387856097E+03  0.10871457737E+04  0.50400001928E-02 0. -1.
       -1    1    3    3    0  502  0.10143709033E+04  0.18623946704E+03  0.54212491208E+02  0.10327499518E+04  0.50400001928E-02 0.  1.
</event>
<event>
 5   0  0.1492552E-05  0.2105555E+04  0.7818609E-02  0.8558800E-01
       -1   -1    0    0    0  501  0.00000000000E+00  0.00000000000E+00  0.12943070125E+04  0.12943070125E+04  0.50400001928E-02 0. -1.
        1   -1    0    0  501    0  0.00000000000E+00  0.00000000000E+00 -0.85631930334E+03  0.85631930336E+03  0.50400001928E-02 0.  1.
    10030    2    1    2    0    0  0.00000000000E+00  0.00000000000E+00  0.43798770915E+03  0.21506263159E+04  0.21055546341E+04 0.  0.
        4    1    3    3  502    0  0.33386558238E+03  0.95671506495E+03 -0.72721804350E+02  0.10159035468E+04  0.12699999809E+01 0.  1.
       -4    1    3    3    0  502 -0.33386558238E+03 -0.95671506495E+03  0.51070951350E+03  0.11347227691E+04  0.12699999809E+01 0. -1.
</event>
<event>
 5   0  0.3279789E-05  0.2104654E+04  0.7818609E-02  0.8559196E-01
       -2   -1    0    0    0  501  0.00000000000E+00  0.00000000000E+00  0.93163976308E+03  0.93163976308E+03  0.25500000920E-02 0.  1.
        2   -1    0    0  501    0  0.00000000000E+00  0.00000000000E+00 -0.11886489332E+04  0.11886489332E+04  0.25500000920E-02 0. -1.
    10030    2    1    2    0    0  0.00000000000E+00  0.00000000000E+00 -0.25700917008E+03  0.21202886962E+04  0.21046544709E+04 0.  0.
        2    1    3    3  502    0 -0.39983680594E+03  0.97044263203E+03 -0.20499114131E+03  0.10694156075E+04  0.25500000920E-02 0. -1.
       -2    1    3    3    0  502  0.39983680594E+03 -0.97044263203E+03 -0.52018028771E+02  0.10508730888E+04  0.25500000920E-02 0.  1.
</event>
<event>
 5   0  0.1453430E-05  0.2111819E+04  0.7818609E-02  0.8556055E-01
        1   -1    0    0  501    0  0.00000000000E+00  0.00000000000E+00  0.10340628334E+04  0.10340628334E+04  0.50400001928E-02 0.  1.
       -1   -1    0    0    0  501  0.00000000000E+00  0.00000000000E+00 -0.10782179005E+04  0.10782179005E+04  0.50400001928E-02 0. -1.
    10030    2    1    2    0    0  0.00000000000E+00  0.00000000000E+00 -0.44155067110E+02  0.21122807339E+04  0.21118191752E+04 0.  0.
        5    1    3    3  502    0 -0.69490733939E+03  0.45841494456E+03 -0.67174431640E+03  0.10697209862E+04  0.46999998093E+01 0. -1.
       -5    1    3    3    0  502  0.69490733939E+03 -0.45841494456E+03  0.62758924929E+03  0.10425597477E+04  0.46999998093E+01 0.  1.
</event>
<event>
 5   0  0.3279789E-05  0.2110286E+04  0.7818609E-02  0.8556726E-01
        2   -1    0    0  501    0  0.00000000000E+00  0.00000000000E+00  0.94656348589E+03  0.94656348590E+03  0.25500000920E-02 0.  1.
       -2   -1    0    0    0  501  0.00000000000E+00  0.00000000000E+00 -0.11761772975E+04  0.11761772975E+04  0.25500000920E-02 0. -1.
    10030    2    1    2    0    0  0.00000000000E+00  0.00000000000E+00 -0.22961381156E+03  0.21227407834E+04  0.21102857463E+04 0.  0.
        2    1    3    3  502    0 -0.76597726581E+03  0.59770871802E+03 -0.52875680877E+03  0.11061467562E+04  0.25500000920E-02 0. -1.
       -2    1    3    3    0  502  0.76597726581E+03 -0.59770871802E+03  0.29914299721E+03  0.10165940272E+04  0.25500000920E-02 0.  1.
</event>
<event>
 5   0  0.1492552E-05  0.2113809E+04  0.7818609E-02  0.8555185E-01
        1   -1    0    0  501    0  0.00000000000E+00  0.00000000000E+00  0.21199732066E+04  0.21199732066E+04  0.50400001928E-02 0. -1.
       -1   -1    0    0    0  501  0.00000000000E+00  0.00000000000E+00 -0.52691552129E+03  0.52691552132E+03  0.50400001928E-02 0.  1.
    10030    2    1    2    0    0  0.00000000000E+00  0.00000000000E+00  0.15930576853E+04  0.26468887280E+04  0.21138086832E+04 0.  0.
        4    1    3    3  502    0  0.71085969542E+03  0.69300382597E+03  0.12505564798E+04  0.15967056496E+04  0.12699999809E+01 0. -1.
       -4    1    3    3    0  502 -0.71085969542E+03 -0.69300382597E+03  0.34250120552E+03  0.10501830784E+04  0.12699999809E+01 0.  1.
</event>
<event>
 5   0  0.1492552E-05  0.2106089E+04  0.7818609E-02  0.8558566E-01
        1   -1    0    0  501    0  0.00000000000E+00  0.00000000000E+00  0.13538094205E+04  0.13538094205E+04  0.50400001928E-02 0.  1.
       -1   -1    0    0    0  501  0.00000000000E+00  0.00000000000E+00 -0.81909774010E+03  0.81909774011E+03  0.50400001928E-02 0. -1.
    10030    2    1    2    0    0  0.00000000000E+00  0.00000000000E+00  0.53471168042E+03  0.21729071606E+04  0.21060885422E+04 0.  0.
        4    1    3    3  502    0  0.97998041827E+03 -0.37154648091E+03  0.16167453609E+03  0.10604473943E+04  0.12699999809E+01 0. -1.
       -4    1    3    3    0  502 -0.97998041827E+03  0.37154648091E+03  0.37303714433E+03  0.11124597663E+04  0.12699999809E+01 0.  1.
</event>
<event>
 5   0  0.1435410E-05  0.2102298E+04  0.7818609E-02  0.8560232E-01
       -1   -1    0    0    0  501  0.00000000000E+00  0.00000000000E+00  0.10197893090E+04  0.10197893091E+04  0.50400001928E-02 0.  1.
        1   -1    0    0  501    0  0.00000000000E+00  0.00000000000E+00 -0.10834729344E+04  0.10834729344E+04  0.50400001928E-02 0. -1.
    10030    2    1    2    0    0  0.00000000000E+00  0.00000000000E+00 -0.63683625323E+02  0.21032622434E+04  0.21022979001E+04 0.  0.
        2    1    3    3  502    0  0.63686459059E+03  0.35237265219E+03 -0.79057687684E+03  0.10746044812E+04  0.25500000920E-02 0. -1.
       -2    1    3    3    0  502 -0.63686459059E+03 -0.35237265219E+03  0.72689325152E+03  0.10286577623E+04  0.25500000920E-02 0.  1.
</event>
<event>
 5   0  0.3242231E-05  0.2101503E+04  0.7818609E-02  0.8560582E-01
        2   -1    0    0  501    0  0.00000000000E+00  0.00000000000E+00  0.72125064850E+03  0.72125064850E+03  0.25500000920E-02 0. -1.
       -2   -1    0    0    0  501  0.00000000000E+00  0.00000000000E+00 -0.15307834106E+04  0.15307834106E+04  0.25500000920E-02 0.  1.
    10030    2    1    2    0    0  0.00000000000E+00  0.00000000000E+00 -0.80953276207E+03  0.22520340591E+04  0.21015028219E+04 0.  0.
        4    1    3    3  502    0  0.49540385236E+03 -0.76370226478E+02  0.58486519676E+03  0.77027676825E+03  0.12699999809E+01 0. -1.
       -4    1    3    3    0  502 -0.49540385236E+03  0.76370226478E+02 -0.13943979588E+04  0.14817572908E+04  0.12699999809E+01 0.  1.
</event>
<event>
 5   0  0.1129987E-05  0.2088614E+04  0.7818609E-02  0.8566276E-01
        3   -1    0    0  501    0  0.00000000000E+00  0.00000000000E+00  0.13402390766E+04  0.13402390804E+04  0.10100000352E+00 0.  1.
       -3   -1    0    0    0  501  0.00000000000E+00  0.00000000000E+00 -0.81371797088E+03  0.81371797715E+03  0.10100000352E+00 0. -1.
    10030    2    1    2    0    0  0.00000000000E+00  0.00000000000E+00  0.52652110568E+03  0.21539570575E+04  0.20886135427E+04 0.  0.
        2    1    3    3  502    0  0.18759644612E+03  0.64073550169E+03  0.10914042183E+04  0.12794129816E+04  0.25500000920E-02 0.  1.
       -2    1    3    3    0  502 -0.18759644612E+03 -0.64073550169E+03 -0.56488311266E+03  0.87454407590E+03  0.25500000920E-02 0. -1.
</event>
<event>
 5   0  0.3108326E-05  0.2098263E+04  0.7818609E-02  0.8562009E-01
        2   -1    0    0  501    0  0.00000000000E+00  0.00000000000E+00  0.12626292347E+04  0.12626292347E+04  0.25500000920E-02 0.  1.
       -2   -1    0    0    0  501  0.00000000000E+00  0.00000000000E+00 -0.87173409827E+03  0.87173409827E+03  0.25500000920E-02 0. -1.
    10030    2    1    2    0    0  0.00000000000E+00  0.00000000000E+00  0.39089513640E+03  0.21343633329E+04  0.20982630506E+04 0.  0.
        5    1    3    3  502    0 -0.73765567870E+02  0.19839714864E+03 -0.84977783974E+03  0.87575524806E+03  0.46999998093E+01 0. -1.
       -5    1    3    3    0  502  0.73765567870E+02 -0.19839714864E+03  0.12406729761E+04  0.12586080849E+04  0.46999998093E+01 0.  1.
</event>
<event>
 5   0  0.3108326E-05  0.2077498E+04  0.7818609E-02  0.8571221E-01
        2   -1    0    0  501    0  0.00000000000E+00  0.00000000000E+00  0.14876212123E+04  0.14876212123E+04  0.25500000920E-02 0. -1.
       -2   -1    0    0    0  501  0.00000000000E+00  0.00000000000E+00 -0.72531886527E+03  0.72531886528E+03  0.25500000920E-02 0.  1.
    10030    2    1    2    0    0  0.00000000000E+00  0.00000000000E+00  0.76230234703E+03  0.22129400776E+04  0.20774982355E+04 0.  0.
        5    1    3    3  502    0  0.19860728449E+03  0.96122610774E+03  0.74328158025E+03  0.12312148802E+04  0.46999998093E+01 0. -1.
       -5    1    3    3    0  502 -0.19860728449E+03 -0.96122610774E+03  0.19020766788E+02  0.98172519740E+03  0.46999998093E+01 0.  1.
</event>
<event>
 5   0  0.3242231E-05  0.2103574E+04  0.7818609E-02  0.8559671E-01
        2   -1    0    0  501    0  0.00000000000E+00  0.00000000000E+00  0.12208248149E+04  0.12208248149E+04  0.25500000920E-02 0. -1.
       -2   -1    0    0    0  501  0.00000000000E+00  0.00000000000E+00 -0.90615408501E+03  0.90615408502E+03  0.25500000920E-02 0.  1.
    10030    2    1    2    0    0  0.00000000000E+00  0.00000000000E+00  0.31467072992E+03  0.21269789000E+04  0.21035735244E+04 0.  0.
        4    1    3    3  502    0  0.88426602221E+03  0.39424132714E+02 -0.41711719031E+03  0.97850346122E+03  0.12699999809E+01 0.  1.
       -4    1    3    3    0  502 -0.88426602221E+03 -0.39424132714E+02  0.73178792024E+03  0.11484754387E+04  0.12699999809E+01 0. -1.
</event>
<event>
 5   0  0.1492552E-05  0.2136849E+04  0.7818609E-02  0.8545182E-01
       -1   -1    0    0    0  501  0.00000000000E+00  0.00000000000E+00  0.47492537558E+03  0.47492537561E+03  0.50400001928E-02 0.  1.
        1   -1    0    0  501    0  0.00000000000E+00  0.00000000000E+00 -0.24036011557E+04  0.24036011557E+04  0.50400001928E-02 0. -1.
    10030    2    1    2    0    0  0.00000000000E+00  0.00000000000E+00 -0.19286757801E+04  0.28785265313E+04  0.21368492522E+04 0.  0.
        4    1    3    3  502    0 -0.95856619314E+03 -0.27362132816E+03 -0.44643195135E+03  0.10922549510E+04  0.12699999809E+01 0.  1.
       -4    1    3    3    0  502  0.95856619314E+03  0.27362132816E+03 -0.14822438287E+04  0.17862715803E+04  0.12699999809E+01 0. -1.
</event>
<event>
 5   0  0.1435410E-05  0.2096088E+04  0.7818609E-02  0.8562969E-01
       -1   -1    0    0    0  501  0.00000000000E+00  0.00000000000E+00  0.88420674410E+03  0.88420674411E+03  0.50400001928E-02 0.  1.
        1   -1    0    0  501    0  0.00000000000E+00  0.00000000000E+00 -0.12422393037E+04  0.12422393038E+04  0.50400001928E-02 0. -1.
    10030    2    1    2    0    0  0.00000000000E+00  0.00000000000E+00 -0.35803255965E+03  0.21264460479E+04  0.20960881376E+04 0.  0.
        2    1    3    3  502    0 -0.46737473880E+03 -0.81603740846E+03 -0.64836158006E+03  0.11422473187E+04  0.25500000920E-02 0. -1.
       -2    1    3    3    0  502  0.46737473880E+03  0.81603740846E+03  0.29032902041E+03  0.98419872921E+03  0.25500000920E-02 0.  1.
</event>
<event>
 5   0  0.3279789E-05  0.2103223E+04  0.7818609E-02  0.8559825E-01
       -2   -1    0    0    0  501  0.00000000000E+00  0.00000000000E+00  0.66558814531E+03  0.66558814532E+03  0.25500000920E-02 0. -1.
        2   -1    0    0  501    0  0.00000000000E+00  0.00000000000E+00 -0.16615188378E+04  0.16615188378E+04  0.25500000920E-02 0.  1.
    10030    2    1    2    0    0  0.00000000000E+00  0.00000000000E+00 -0.99593069244E+03  0.23271069831E+04  0.21032234704E+04 0.  0.
        2    1    3    3  502    0 -0.38625863011E+03 -0.80952622132E+03  0.10943197952E+03  0.90360599294E+03  0.25500000920E-02 0. -1.
       -2    1    3    3    0  502  0.38625863011E+03  0.80952622132E+03 -0.11053626720E+04  0.14235009901E+04  0.25500000920E-02 0.  1.
</event>
<event>
 5   0  0.1435410E-05  0.2106582E+04  0.7818609E-02  0.8558350E-01
       -1   -1    0    0    0  501  0.00000000000E+00  0.00000000000E+00  0.85164500272E+03  0.85164500274E+03  0.50400001928E-02 0.  1.
        1   -1    0    0  501    0  0.00000000000E+00  0.00000000000E+00 -0.13026807905E+04  0.13026807905E+04  0.50400001928E-02 0. -1.
    10030    2    1    2    0    0  0.00000000000E+00  0.00000000000E+00 -0.45103578778E+03  0.21543257932E+04  0.21065816722E+04 0.  0.
        2    1    3    3  502    0 -0.23562417640E+03 -0.67276755162E+03  0.56748333835E+03  0.91113789863E+03  0.25500000920E-02 0.  1.
       -2    1    3    3    0  502  0.23562417640E+03  0.67276755162E+03 -0.10185191261E+04  0.12431878946E+04  0.25500000920E-02 0. -1.
</event>
<event>
 5   0  0.3257130E-05  0.2041944E+04  0.7818609E-02  0.8587258E-01
        2   -1    0    0  501    0  0.00000000000E+00  0.00000000000E+00  0.20532649349E+04  0.20532649349E+04  0.25500000920E-02 0. -1.
       -2   -1    0    0    0  501  0.00000000000E+00  0.00000000000E+00 -0.50767112561E+03  0.50767112562E+03  0.25500000920E-02 0.  1.
    10030    2    1    2    0    0  0.00000000000E+00  0.00000000000E+00  0.15455938093E+04  0.25609360606E+04  0.20419435063E+04 0.  0.
        3    1    3    3  502    0  0.99487708610E+02  0.95753923569E+03  0.11992209307E+04  0.15378264021E+04  0.10100000352E+00 0. -1.
       -3    1    3    3    0  502 -0.99487708610E+02 -0.95753923569E+03  0.34637287862E+03  0.10231096585E+04  0.10100000352E+00 0.  1.
</event>
<event>
 5   0  0.3108326E-05  0.2131115E+04  0.7818609E-02  0.8547659E-01
       -2   -1    0    0    0  501  0.00000000000E+00  0.00000000000E+00  0.10093740255E+04  0.10093740255E+04  0.25500000920E-02 0.  1.
        2   -1    0    0  501    0  0.00000000000E+00  0.00000000000E+00 -0.11248687238E+04  0.11248687238E+04  0.25500000920E-02 0. -1.
    10030    2    1    2    0    0  0.00000000000E+00  0.00000000000E+00 -0.11549469834E+03  0.21342427494E+04  0.21311154562E+04 0.  0.
        5    1    3    3  502    0 -0.14704019763E+03  0.33967685737E+03 -0.10584082848E+04  0.11212722125E+04  0.46999998093E+01 0. -1.
       -5    1    3    3    0  502  0.14704019763E+03 -0.33967685737E+03  0.94291358643E+03  0.10129705369E+04  0.46999998093E+01 0.  1.
</event>
<event>
 5   0  0.1453430E-05  0.2137453E+04  0.7818609E-02  0.8544922E-01
       -1   -1    0    0    0  501  0.00000000000E+00  0.00000000000E+00  0.79210253874E+03  0.79210253875E+03  0.50400001928E-02 0. -1.
        1   -1    0    0  501    0  0.00000000000E+00  0.00000000000E+00 -0.14419548172E+04  0.14419548172E+04  0.50400001928E-02 0.  1.
    10030    2    1    2    0    0  0.00000000000E+00  0.00000000000E+00 -0.64985227848E+03  0.22340573560E+04  0.21374527564E+04 0.  0.
        5    1    3    3  502    0 -0.91350152682E+03  0.15596562190E+03  0.23143213238E+03  0.95519277458E+03  0.46999998093E+01 0. -1.
       -5    1    3    3    0  502  0.91350152682E+03 -0.15596562190E+03 -0.88128441086E+03  0.12788645814E+04  0.46999998093E+01 0.  1.
</event>
<event>
 5   0  0.1466480E-05  0.2097597E+04  0.7818609E-02  0.8562303E-01
        1   -1    0    0  501    0  0.00000000000E+00  0.00000000000E+00  0.16310865183E+04  0.16310865183E+04  0.50400001928E-02 0.  1.
       -1   -1    0    0    0  501  0.00000000000E+00  0.00000000000E+00 -0.67438363086E+03  0.67438363088E+03  0.50400001928E-02 0. -1.
    10030    2    1    2    0    0  0.00000000000E+00  0.00000000000E+00  0.95670288741E+03  0.23054701492E+04  0.20975967663E+04 0.  0.
        3    1    3    3  502    0 -0.37100170594E+03 -0.94827195515E+03  0.20222533132E+03  0.10381507894E+04  0.10100000352E+00 0. -1.
       -3    1    3    3    0  502  0.37100170594E+03  0.94827195515E+03  0.75447755609E+03  0.12673193597E+04  0.10100000352E+00 0.  1.
</event>
<event>
 5   0  0.3257130E-05  0.2101623E+04  0.7818609E-02  0.8560529E-01
       -2   -1    0    0    0  501  0.00000000000E+00  0.00000000000E+00  0.71199808007E+03  0.71199808007E+03  0.25500000920E-02 0. -1.
        2   -1    0    0  501    0  0.00000000000E+00  0.00000000000E+00 -0.15508542151E+04  0.15508542151E+04  0.25500000920E-02 0.  1.
    10030    2    1    2    0    0  0.00000000000E+00  0.00000000000E+00 -0.83885613502E+03  0.22628522952E+04  0.21016233950E+04 0.  0.
        3    1    3    3  502    0  0.52918180077E+03  0.47853818406E+03 -0.12500873800E+04  0.14393577178E+04  0.10100000352E+00 0.  1.
       -3    1    3    3    0  502 -0.52918180077E+03 -0.47853818406E+03  0.41123124501E+03  0.82349457737E+03  0.10100000352E+00 0. -1.
</event>
<event>
 5   0  0.3130517E-05  0.2114441E+04  0.7818609E-02  0.8554909E-01
        2   -1    0    0  501    0  0.00000000000E+00  0.00000000000E+00  0.18227399237E+04  0.18227399237E+04  0.25500000920E-02 0.  1.
       -2   -1    0    0    0  501  0.00000000000E+00  0.00000000000E+00 -0.61320608204E+03  0.61320608205E+03  0.25500000920E-02 0. -1.
    10030    2    1    2    0    0  0.00000000000E+00  0.00000000000E+00  0.12095338417E+04  0.24359460058E+04  0.21144410204E+04 0.  0.
        1    1    3    3  502    0 -0.78666673857E+03 -0.38800283340E+02 -0.20770764446E+03  0.81455048042E+03  0.50400001928E-02 0. -1.
       -1    1    3    3    0  502  0.78666673857E+03  0.38800283340E+02  0.14172414861E+04  0.16213955253E+04  0.50400001928E-02 0.  1.
</event>
<event>
 5   0  0.3130517E-05  0.2163321E+04  0.7818609E-02  0.8533852E-01
        2   -1    0    0  501    0  0.00000000000E+00  0.00000000000E+00  0.16250045749E+04  0.16250045749E+04  0.25500000920E-02 0.  1.
       -2   -1    0    0    0  501  0.00000000000E+00  0.00000000000E+00 -0.71999137422E+03  0.71999137423E+03  0.25500000920E-02 0. -1.
    10030    2    1    2    0    0  0.00000000000E+00  0.00000000000E+00  0.90501320066E+03  0.23449959491E+04  0.21633208518E+04 0.  0.
        1    1    3    3  502    0 -0.31989934412E+03  0.10003647530E+04  0.17208448558E+03  0.10642736018E+04  0.50400001928E-02 0. -1.
       -1    1    3    3    0  502  0.31989934412E+03 -0.10003647530E+04  0.73292871508E+03  0.12807223473E+04  0.50400001928E-02 0.  1.
</event>
<event>
 5   0  0.3279789E-05  0.2105445E+04  0.7818609E-02  0.8558849E-01
       -2   -1    0    0    0  501  0.00000000000E+00  0.00000000000E+00  0.78536152317E+03  0.78536152318E+03  0.25500000920E-02 0. -1.
        2   -1    0    0  501    0  0.00000000000E+00  0.00000000000E+00 -0.14111007481E+04  0.14111007481E+04  0.25500000920E-02 0.  1.
    10030    2    1    2    0    0  0.00000000000E+00  0.00000000000E+00 -0.62573922492E+03  0.21964622713E+04  0.21054445924E+04 0.  0.
        2    1    3    3  502    0 -0.43486692660E+03 -0.69889125928E+03 -0.99749062205E+03  0.12932694140E+04  0.25500000920E-02 0. -1.
       -2    1    3    3    0  502  0.43486692660E+03  0.69889125928E+03  0.37175139712E+03  0.90319285727E+03  0.25500000920E-02 0.  1.
</event>
<event>
 5   0  0.1513292E-05  0.2117384E+04  0.7818609E-02  0.8553624E-01
        1   -1    0    0  501    0  0.00000000000E+00  0.00000000000E+00  0.66273284871E+03  0.66273284873E+03  0.50400001928E-02 0.  1.
       -1   -1    0    0    0  501  0.00000000000E+00  0.00000000000E+00 -0.16912229944E+04  0.16912229944E+04  0.50400001928E-02 0. -1.
    10030    2    1    2    0    0  0.00000000000E+00  0.00000000000E+00 -0.10284901457E+04  0.23539558432E+04  0.21173842664E+04 0.  0.
        1    1    3    3  502    0  0.54118627405E+03  0.76254990380E+03  0.37674072235E+02  0.93583346528E+03  0.50400001928E-02 0.  1.
       -1    1    3    3    0  502 -0.54118627405E+03 -0.76254990380E+03 -0.10661642180E+04  0.14181223779E+04  0.50400001928E-02 0. -1.
</event>
<event>
 5   0  0.3130517E-05  0.2099136E+04  0.7818609E-02  0.8561624E-01
        2   -1    0    0  501    0  0.00000000000E+00  0.00000000000E+00  0.10580875601E+04  0.10580875601E+04  0.25500000920E-02 0.  1.
       -2   -1    0    0    0  501  0.00000000000E+00  0.00000000000E+00 -0.10411171477E+04  0.10411171477E+04  0.25500000920E-02 0. -1.
    10030    2    1    2    0    0  0.00000000000E+00  0.00000000000E+00  0.16970412383E+02  0.20992047078E+04  0.20991361105E+04 0.  0.
        1    1    3    3  502    0 -0.71628495919E+03  0.46338414381E+03 -0.60292997712E+03  0.10446595449E+04  0.50400001928E-02 0. -1.
       -1    1    3    3    0  502  0.71628495919E+03 -0.46338414381E+03  0.61990038951E+03  0.10545451628E+04  0.50400001928E-02 0.  1.
</event>
<event>
 5   0  0.3242231E-05  0.2141065E+04  0.7818609E-02  0.8543367E-01
        2   -1    0    0  501    0  0.00000000000E+00  0.00000000000E+00  0.20114656220E+04  0.20114656220E+04  0.25500000920E-02 0. -1.
       -2   -1    0    0    0  501  0.00000000000E+00  0.00000000000E+00 -0.56975346160E+03  0.56975346161E+03  0.25500000920E-02 0.  1.
    10030    2    1    2    0    0  0.00000000000E+00  0.00000000000E+00  0.14417121604E+04  0.25812190836E+04  0.21410646894E+04 0.  0.
        4    1    3    3  502    0  0.56173796287E+03 -0.50248114324E+03 -0.19570073667E+03  0.77867658850E+03  0.12699999809E+01 0.  1.
       -4    1    3    3    0  502 -0.56173796287E+03  0.50248114324E+03  0.16374128971E+04  0.18025424951E+04  0.12699999809E+01 0. -1.
</event>
<event>
 5   0  0.3257130E-05  0.2104805E+04  0.7818609E-02  0.8559130E-01
        2   -1    0    0  501    0  0.00000000000E+00  0.00000000000E+00  0.15068883800E+04  0.15068883800E+04  0.25500000920E-02 0.  1.
       -2   -1    0    0    0  501  0.00000000000E+00  0.00000000000E+00 -0.73499223474E+03  0.73499223474E+03  0.25500000920E-02 0. -1.
    10030    2    1    2    0    0  0.00000000000E+00  0.00000000000E+00  0.77189614522E+03  0.22418806147E+04  0.21048052241E+04 0.  0.
        3    1    3    3  502    0 -0.86991654583E+03  0.59128304019E+03  0.42254898701E+03  0.11335422740E+04  0.10100000352E+00 0. -1.
       -3    1    3    3    0  502  0.86991654583E+03 -0.59128304019E+03  0.34934715821E+03  0.11083383407E+04  0.10100000352E+00 0.  1.
</event>
<event>
 5   0  0.1453430E-05  0.2081157E+04  0.7818609E-02  0.8569589E-01
        1   -1    0    0  501    0  0.00000000000E+00  0.00000000000E+00  0.14264776792E+04  0.14264776792E+04  0.50400001928E-02 0. -1.
       -1   -1    0    0    0  501  0.00000000000E+00  0.00000000000E+00 -0.75907536096E+03  0.75907536098E+03  0.50400001928E-02 0.  1.
    10030    2    1    2    0    0  0.00000000000E+00  0.00000000000E+00  0.66740231826E+03  0.21855530402E+04  0.20811574273E+04 0.  0.
        5    1    3    3  502    0  0.16165038884E+03 -0.24486087043E+03  0.13821262340E+04  0.14129340787E+04  0.46999998093E+01 0. -1.
       -5    1    3    3    0  502 -0.16165038884E+03  0.24486087043E+03 -0.71472391569E+03  0.77261896155E+03  0.46999998093E+01 0.  1.
</event>
<event>
 5   0  0.1435410E-05  0.2088327E+04  0.7818609E-02  0.8566403E-01
        1   -1    0    0  501    0  0.00000000000E+00  0.00000000000E+00  0.96693954060E+03  0.96693954061E+03  0.50400001928E-02 0.  1.
       -1   -1    0    0    0  501  0.00000000000E+00  0.00000000000E+00 -0.11275544988E+04  0.11275544988E+04  0.50400001928E-02 0. -1.
    10030    2    1    2    0    0  0.00000000000E+00  0.00000000000E+00 -0.16061495817E+03  0.20944940394E+04  0.20883266306E+04 0.  0.
        2    1    3    3  502    0 -0.13292496648E+03  0.84731812885E+03 -0.67759960445E+03  0.10930499907E+04  0.25500000920E-02 0. -1.
       -2    1    3    3    0  502  0.13292496648E+03 -0.84731812885E+03  0.51698464628E+03  0.10014440487E+04  0.25500000920E-02 0.  1.
</event>
<event>
 5   0  0.3130517E-05  0.2103465E+04  0.7818609E-02  0.8559719E-01
       -2   -1    0    0    0  501  0.00000000000E+00  0.00000000000E+00  0.56791568689E+03  0.56791568690E+03  0.25500000920E-02 0.  1.
        2   -1    0    0  501    0  0.00000000000E+00  0.00000000000E+00 -0.19477202472E+04  0.19477202472E+04  0.25500000920E-02 0. -1.
    10030    2    1    2    0    0  0.00000000000E+00  0.00000000000E+00 -0.13798045603E+04  0.25156359341E+04  0.21034646487E+04 0.  0.
        1    1    3    3  502    0  0.95924566126E+03  0.20474384839E+03 -0.23596354839E+03  0.10088364973E+04  0.50400001928E-02 0.  1.
       -1    1    3    3    0  502 -0.95924566126E+03 -0.20474384839E+03 -0.11438410119E+04  0.15067994367E+04  0.50400001928E-02 0. -1.
</event>
<event>
 5   0  0.3242231E-05  0.2032985E+04  0.7818609E-02  0.8591353E-01
       -2   -1    0    0    0  501  0.00000000000E+00  0.00000000000E+00  0.60334709587E+03  0.60334709588E+03  0.25500000920E-02 0. -1.
        2   -1    0    0  501    0  0.00000000000E+00  0.00000000000E+00 -0.17125411489E+04  0.17125411489E+04  0.25500000920E-02 0.  1.
    10030    2    1    2    0    0  0.00000000000E+00  0.00000000000E+00 -0.11091940530E+04  0.23158882448E+04  0.20329847307E+04 0.  0.
        4    1    3    3  502    0  0.49096266750E+03 -0.71848414868E+03 -0.11530515859E+04  0.14445737729E+04  0.12699999809E+01 0.  1.
       -4    1    3    3    0  502 -0.49096266750E+03  0.71848414868E+03  0.43857532869E+02  0.87131447186E+03  0.12699999809E+01 0. -1.
</event>
<event>
 5   0  0.3257130E-05  0.2101712E+04  0.7818609E-02  0.8560490E-01
       -2   -1    0    0    0  501  0.00000000000E+00  0.00000000000E+00  0.72622744766E+03  0.72622744766E+03  0.25500000920E-02 0.  1.
        2   -1    0    0  501    0  0.00000000000E+00  0.00000000000E+00 -0.15205957630E+04  0.15205957631E+04  0.25500000920E-02 0. -1.
    10030    2    1    2    0    0  0.00000000000E+00  0.00000000000E+00 -0.79436831539E+03  0.22468232107E+04  0.21017120449E+04 0.  0.
        3    1    3    3  502    0  0.33675438715E+03 -0.56759527912E+03  0.47703684996E+03  0.81432922370E+03  0.10100000352E+00 0.  1.
       -3    1    3    3    0  502 -0.33675438715E+03  0.56759527912E+03 -0.12714051654E+04  0.14324939870E+04  0.10100000352E+00 0. -1.
</event>
<event>
 5   0  0.1513292E-05  0.2066241E+04  0.7818609E-02  0.8576262E-01
        1   -1    0    0  501    0  0.00000000000E+00  0.00000000000E+00  0.18556129210E+04  0.18556129210E+04  0.50400001928E-02 0. -1.
       -1   -1    0    0    0  501  0.00000000000E+00  0.00000000000E+00 -0.57519439143E+03  0.57519439145E+03  0.50400001928E-02 0.  1.
    10030    2    1    2    0    0  0.00000000000E+00  0.00000000000E+00  0.12804185296E+04  0.24308073125E+04  0.20662411717E+04 0.  0.
        1    1    3    3  502    0 -0.79322592820E+02  0.88679443252E+03  0.12567372105E+04  0.15401574126E+04  0.50400001928E-02 0. -1.
       -1    1    3    3    0  502  0.79322592820E+02 -0.88679443252E+03  0.23681319093E+02  0.89064989990E+03  0.50400001928E-02 0.  1.
</event>
<event>
 5   0  0.3279789E-05  0.2099347E+04  0.7818609E-02  0.8561531E-01
       -2   -1    0    0    0  501  0.00000000000E+00  0.00000000000E+00  0.11898157401E+04  0.11898157401E+04  0.25500000920E-02 0.  1.
        2   -1    0    0  501    0  0.00000000000E+00  0.00000000000E+00 -0.92603792184E+03  0.92603792184E+03  0.25500000920E-02 0. -1.
    10030    2    1    2    0    0  0.00000000000E+00  0.00000000000E+00  0.26377781824E+03  0.21158536619E+04  0.20993470369E+04 0.  0.
        2    1    3    3  502    0 -0.91600123571E+03  0.50028004384E+03  0.19314163283E+02  0.10438924384E+04  0.25500000920E-02 0. -1.
       -2    1    3    3    0  502  0.91600123571E+03 -0.50028004384E+03  0.24446365496E+03  0.10719612235E+04  0.25500000920E-02 0.  1.
</event>
<event>
 5   0  0.1513292E-05  0.2104836E+04  0.7818609E-02  0.8559116E-01
       -1   -1    0    0    0  501  0.00000000000E+00  0.00000000000E+00  0.73366745096E+03  0.73366745098E+03  0.50400001928E-02 0. -1.
        1   -1    0    0  501    0  0.00000000000E+00  0.00000000000E+00 -0.15096541703E+04  0.15096541703E+04  0.50400001928E-02 0.  1.
    10030    2    1    2    0    0  0.00000000000E+00  0.00000000000E+00 -0.77598671937E+03  0.22433216213E+04  0.21048364564E+04 0.  0.
        1    1    3    3  502    0 -0.67187367513E+03 -0.65682418316E+03 -0.89326492133E+03  0.12964391473E+04  0.50400001928E-02 0.  1.
       -1    1    3    3    0  502  0.67187367513E+03  0.65682418316E+03  0.11727820196E+03  0.94688247402E+03  0.50400001928E-02 0. -1.
</event>
<event>
 5   0  0.1435410E-05  0.2092658E+04  0.7818609E-02  0.8564484E-01
       -1   -1    0    0    0  501  0.00000000000E+00  0.00000000000E+00  0.52556738920E+03  0.52556738922E+03  0.50400001928E-02 0.  1.
        1   -1    0    0  501    0  0.00000000000E+00  0.00000000000E+00 -0.20830912699E+04  0.20830912699E+04  0.50400001928E-02 0. -1.
    10030    2    1    2    0    0  0.00000000000E+00  0.00000000000E+00 -0.15575238807E+04  0.26086586592E+04  0.20926584435E+04 0.  0.
        2    1    3    3  502    0  0.47984169945E+03  0.59242557380E+03 -0.16721222330E+04  0.18377183895E+04  0.25500000920E-02 0. -1.
       -2    1    3    3    0  502 -0.47984169945E+03 -0.59242557380E+03  0.11459835227E+03  0.77094026965E+03  0.25500000920E-02 0.  1.
</event>
<event>
 5   0  0.3108326E-05  0.2098262E+04  0.7818609E-02  0.8562009E-01
        2   -1    0    0  501    0  0.00000000000E+00  0.00000000000E+00  0.95176194714E+03  0.95176194714E+03  0.25500000920E-02 0.  1.
       -2   -1    0    0    0  501  0.00000000000E+00  0.00000000000E+00 -0.11564611820E+04  0.11564611820E+04  0.25500000920E-02 0. -1.
    10030    2    1    2    0    0  0.00000000000E+00  0.00000000000E+00 -0.20469923488E+03  0.21082231292E+04  0.20982618963E+04 0.  0.
        5    1    3    3  502    0 -0.14658874921E+03  0.38459335242E+02  0.94069540622E+03  0.95283645981E+03  0.46999998093E+01 0.  1.
       -5    1    3    3    0  502  0.14658874921E+03 -0.38459335242E+02 -0.11453946411E+04  0.11553866694E+04  0.46999998093E+01 0. -1.
</event>
<event>
 5   0  0.1513292E-05  0.2100031E+04  0.7818609E-02  0.8561230E-01
       -1   -1    0    0    0  501  0.00000000000E+00  0.00000000000E+00  0.79540529978E+03  0.79540529980E+03  0.50400001928E-02 0.  1.
        1   -1    0    0  501    0  0.00000000000E+00  0.00000000000E+00 -0.13861269269E+04  0.13861269270E+04  0.50400001928E-02 0. -1.
    10030    2    1    2    0    0  0.00000000000E+00  0.00000000000E+00 -0.59072162716E+03  0.21815322268E+04  0.21000311463E+04 0.  0.
        1    1    3    3  502    0  0.47566523473E+03  0.36575930843E+03  0.59976232909E+03  0.84838207116E+03  0.50400001928E-02 0.  1.
       -1    1    3    3    0  502 -0.47566523473E+03 -0.36575930843E+03 -0.11904839563E+04  0.13331501556E+04  0.50400001928E-02 0. -1.
</event>
<event>
 5   0  0.3242231E-05  0.2101543E+04  0.7818609E-02  0.8560564E-01
       -2   -1    0    0    0  501  0.00000000000E+00  0.00000000000E+00  0.11679484301E+04  0.11679484301E+04  0.25500000920E-02 0. -1.
        2   -1    0    0  501    0  0.00000000000E+00  0.00000000000E+00 -0.94535100513E+03  0.94535100514E+03  0.25500000920E-02 0.  1.
    10030    2    1    2    0    0  0.00000000000E+00  0.00000000000E+00  0.22259742494E+03  0.21132994352E+04  0.21015434541E+04 0.  0.
        4    1    3    3  502    0 -0.62280466914E+03  0.67364635823E+03 -0.40385063887E+03  0.10023881600E+04  0.12699999809E+01 0.  1.
       -4    1    3    3    0  502  0.62280466914E+03 -0.67364635823E+03  0.62644806381E+03  0.11109112752E+04  0.12699999809E+01 0. -1.
</event>
<event>
 5   0  0.1129987E-05  0.2095339E+04  0.7818609E-02  0.8563299E-01
       -3   -1    0    0    0  501  0.00000000000E+00  0.00000000000E+00  0.15357044563E+04  0.15357044596E+04  0.10100000352E+00 0. -1.
        3   -1    0    0  501    0  0.00000000000E+00  0.00000000000E+00 -0.71472826125E+03  0.71472826838E+03  0.10100000352E+00 0.  1.
    10030    2    1    2    0    0  0.00000000000E+00  0.00000000000E+00  0.82097619508E+03  0.22504327280E+04  0.20953390061E+04 0.  0.
        4    1    3    3  502    0 -0.89626694267E+01 -0.18557476554E+03 -0.69689285813E+03  0.72123476876E+03  0.12699999809E+01 0.  1.
       -4    1    3    3    0  502  0.89626694267E+01  0.18557476554E+03  0.15178690532E+04  0.15291979593E+04  0.12699999809E+01 0. -1.
</event>
<event>
 5   0  0.3257130E-05  0.2098231E+04  0.7818609E-02  0.8562023E-01
        2   -1    0    0  501    0  0.00000000000E+00  0.00000000000E+00  0.19828371218E+04  0.19828371218E+04  0.25500000920E-02 0. -1.
       -2   -1    0    0    0  501  0.00000000000E+00  0.00000000000E+00 -0.55508527544E+03  0.55508527544E+03  0.25500000920E-02 0.  1.
    10030    2    1    2    0    0  0.00000000000E+00  0.00000000000E+00  0.14277518464E+04  0.25379223972E+04  0.20982313408E+04 0.  0.
        3    1    3    3  502    0  0.41008087738E+03 -0.39386604869E+03  0.17803060396E+04  0.18688997820E+04  0.10100000352E+00 0. -1.
       -3    1    3    3    0  502 -0.41008087738E+03  0.39386604869E+03 -0.35255419326E+03  0.66902261523E+03  0.10100000352E+00 0.  1.
</event>
<event>
 5   0  0.3257130E-05  0.2098618E+04  0.7818609E-02  0.8561852E-01
       -2   -1    0    0    0  501  0.00000000000E+00  0.00000000000E+00  0.44329684250E+03  0.44329684251E+03  0.25500000920E-02 0. -1.
        2   -1    0    0  501    0  0.00000000000E+00  0.00000000000E+00 -0.24837740204E+04  0.24837740204E+04  0.25500000920E-02 0.  1.
    10030    2    1    2    0    0  0.00000000000E+00  0.00000000000E+00 -0.20404771779E+04  0.29270708629E+04  0.20986178125E+04 0.  0.
        3    1    3    3  502    0 -0.56302401913E+03 -0.50898503793E+02  0.21273548265E+03  0.60402243301E+03  0.10100000352E+00 0. -1.
       -3    1    3    3    0  502  0.56302401913E+03  0.50898503793E+02 -0.22532126605E+04  0.23230484299E+04  0.10100000352E+00 0.  1.
</event>
<event>
 5   0  0.1466480E-05  0.2104138E+04  0.7818609E-02  0.8559423E-01
        1   -1    0    0  501    0  0.00000000000E+00  0.00000000000E+00  0.23932727307E+04  0.23932727307E+04  0.50400001928E-02 0. -1.
       -1   -1    0    0    0  501  0.00000000000E+00  0.00000000000E+00 -0.46248329959E+03  0.46248329962E+03  0.50400001928E-02 0.  1.
    10030    2    1    2    0    0  0.00000000000E+00  0.00000000000E+00  0.19307894311E+04  0.28557560303E+04  0.21041375139E+04 0.  0.
        3    1    3    3  502    0 -0.60805327447E+03  0.76939319997E+03  0.44831029255E+03  0.10782749229E+04  0.10100000352E+00 0.  1.
       -3    1    3    3    0  502  0.60805327447E+03 -0.76939319997E+03  0.14824791386E+04  0.17774811074E+04  0.10100000352E+00 0. -1.
</event>
<event>
 5   0  0.3279789E-05  0.2101697E+04  0.7818609E-02  0.8560496E-01
        2   -1    0    0  501    0  0.00000000000E+00  0.00000000000E+00  0.76867565472E+03  0.76867565473E+03  0.25500000920E-02 0.  1.
       -2   -1    0    0    0  501  0.00000000000E+00  0.00000000000E+00 -0.14366042555E+04  0.14366042555E+04  0.25500000920E-02 0. -1.
    10030    2    1    2    0    0  0.00000000000E+00  0.00000000000E+00 -0.66792860080E+03  0.22052799103E+04  0.21016971396E+04 0.  0.
        2    1    3    3  502    0 -0.10168125083E+04  0.11462238734E+03 -0.58499744339E+03  0.11786721246E+04  0.25500000920E-02 0. -1.
       -2    1    3    3    0  502  0.10168125083E+04 -0.11462238734E+03 -0.82931157411E+02  0.10266077856E+04  0.25500000920E-02 0.  1.
</event>
<event>
 5   0  0.3242231E-05  0.2097377E+04  0.7818609E-02  0.8562400E-01
       -2   -1    0    0    0  501  0.00000000000E+00  0.00000000000E+00  0.99751605173E+03  0.99751605174E+03  0.25500000920E-02 0.  1.
        2   -1    0    0  501    0  0.00000000000E+00  0.00000000000E+00 -0.11024862074E+04  0.11024862074E+04  0.25500000920E-02 0. -1.
    10030    2    1    2    0    0  0.00000000000E+00  0.00000000000E+00 -0.10497015567E+03  0.21000022591E+04  0.20973771132E+04 0.  0.
        4    1    3    3  502    0 -0.29507351427E+03 -0.46839771176E+03 -0.94426325489E+03  0.10945773169E+04  0.12699999809E+01 0. -1.
       -4    1    3    3    0  502  0.29507351427E+03  0.46839771176E+03  0.83929309922E+03  0.10054249423E+04  0.12699999809E+01 0.  1.
</event>
<event>
 5   0  0.3242231E-05  0.2096552E+04  0.7818609E-02  0.8562764E-01
        2   -1    0    0  501    0  0.00000000000E+00  0.00000000000E+00  0.75008447030E+03  0.75008447031E+03  0.25500000920E-02 0. -1.
       -2   -1    0    0    0  501  0.00000000000E+00  0.00000000000E+00 -0.14650115620E+04  0.14650115620E+04  0.25500000920E-02 0.  1.
    10030    2    1    2    0    0  0.00000000000E+00  0.00000000000E+00 -0.71492709174E+03  0.22150960324E+04  0.20965518563E+04 0.  0.
        4    1    3    3  502    0  0.97530721831E+03 -0.38180182399E+03 -0.40332291331E+03  0.11223492274E+04  0.12699999809E+01 0.  1.
       -4    1    3    3    0  502 -0.97530721831E+03  0.38180182399E+03 -0.31160417843E+03  0.10927468050E+04  0.12699999809E+01 0. -1.
</event>
<event>
 5   0  0.1492552E-05  0.2092815E+04  0.7818609E-02  0.8564415E-01
        1   -1    0    0  501    0  0.00000000000E+00  0.00000000000E+00  0.84817663519E+03  0.84817663521E+03  0.50400001928E-02 0.  1.
       -1   -1    0    0    0  501  0.00000000000E+00  0.00000000000E+00 -0.12909671391E+04  0.12909671391E+04  0.50400001928E-02 0. -1.
    10030    2    1    2    0    0  0.00000000000E+00  0.00000000000E+00 -0.44279050390E+03  0.21391437743E+04  0.20928145300E+04 0.  0.
        4    1    3    3  502    0 -0.27734689660E+03  0.64745479470E+03 -0.10123786491E+04  0.12333009180E+04  0.12699999809E+01 0. -1.
       -4    1    3    3    0  502  0.27734689660E+03 -0.64745479470E+03  0.56958814523E+03  0.90584285631E+03  0.12699999809E+01 0.  1.
</event>
<event>
 5   0  0.1466480E-05  0.2093967E+04  0.7818609E-02  0.8563905E-01
       -1   -1    0    0    0  501  0.00000000000E+00  0.00000000000E+00  0.71400880786E+03  0.71400880788E+03  0.50400001928E-02 0.  1.
        1   -1    0    0  501    0  0.00000000000E+00  0.00000000000E+00 -0.15352400372E+04  0.15352400372E+04  0.50400001928E-02 0. -1.
    10030    2    1    2    0    0  0.00000000000E+00  0.00000000000E+00 -0.82123122933E+03  0.22492488451E+04  0.20939674389E+04 0.  0.
        3    1    3    3  502    0  0.80113994954E+03  0.64487242277E+03 -0.19988033909E+03  0.10476821181E+04  0.10100000352E+00 0.  1.
       -3    1    3    3    0  502 -0.80113994954E+03 -0.64487242277E+03 -0.62135089024E+03  0.12015667270E+04  0.10100000352E+00 0. -1.
</event>
<event>
 5   0  0.1513292E-05  0.2100550E+04  0.7818609E-02  0.8561001E-01
        1   -1    0    0  501    0  0.00000000000E+00  0.00000000000E+00  0.71576756106E+03  0.71576756108E+03  0.50400001928E-02 0.  1.
       -1   -1    0    0    0  501  0.00000000000E+00  0.00000000000E+00 -0.15411109121E+04  0.15411109121E+04  0.50400001928E-02 0. -1.
    10030    2    1    2    0    0  0.00000000000E+00  0.00000000000E+00 -0.82534335104E+03  0.22568784732E+04  0.21005496413E+04 0.  0.
        1    1    3    3  502    0  0.61597265803E+03  0.30194286664E+03  0.44180551325E+03  0.81595583319E+03  0.50400001928E-02 0.  1.
       -1    1    3    3    0  502 -0.61597265803E+03 -0.30194286664E+03 -0.12671488643E+04  0.14409226400E+04  0.50400001928E-02 0. -1.
</event>
<event>
 5   0  0.1492552E-05  0.2095797E+04  0.7818609E-02  0.8563097E-01
        1   -1    0    0  501    0  0.00000000000E+00  0.00000000000E+00  0.12347749468E+04  0.12347749468E+04  0.50400001928E-02 0. -1.
       -1   -1    0    0    0  501  0.00000000000E+00  0.00000000000E+00 -0.88930482905E+03  0.88930482907E+03  0.50400001928E-02 0.  1.
    10030    2    1    2    0    0  0.00000000000E+00  0.00000000000E+00  0.34547011771E+03  0.21240797758E+04  0.20957970541E+04 0.  0.
        4    1    3    3  502    0  0.70578149124E+03 -0.32418397843E+03  0.88569613626E+03  0.11779991613E+04  0.12699999809E+01 0. -1.
       -4    1    3    3    0  502 -0.70578149124E+03  0.32418397843E+03 -0.54022601856E+03  0.94608061457E+03  0.12699999809E+01 0.  1.
</event>
<event>
 5   0  0.1513292E-05  0.2096577E+04  0.7818609E-02  0.8562753E-01
       -1   -1    0    0    0  501  0.00000000000E+00  0.00000000000E+00  0.10931269705E+04  0.10931269705E+04  0.50400001928E-02 0.  1.
        1   -1    0    0  501    0  0.00000000000E+00  0.00000000000E+00 -0.10052890350E+04  0.10052890351E+04  0.50400001928E-02 0. -1.
    10030    2    1    2    0    0  0.00000000000E+00  0.00000000000E+00  0.87837935431E+02  0.20984160055E+04  0.20965767883E+04 0.  0.
        1    1    3    3  502    0  0.91250946469E+03  0.38770663573E+03  0.38468584792E+03  0.10634722188E+04  0.50400001928E-02 0.  1.
       -1    1    3    3    0  502 -0.91250946469E+03 -0.38770663573E+03 -0.29684791249E+03  0.10349437867E+04  0.50400001928E-02 0. -1.
</event>
<event>
 5   0  0.3279789E-05  0.2104734E+04  0.7818609E-02  0.8559161E-01
       -2   -1    0    0    0  501  0.00000000000E+00  0.00000000000E+00  0.67992754275E+03  0.67992754276E+03  0.25500000920E-02 0. -1.
        2   -1    0    0  501    0  0.00000000000E+00  0.00000000000E+00 -0.16288147931E+04  0.16288147931E+04  0.25500000920E-02 0.  1.
    10030    2    1    2    0    0  0.00000000000E+00  0.00000000000E+00 -0.94888725033E+03  0.23087423358E+04  0.21047337503E+04 0.  0.
        2    1    3    3  502    0  0.67557754126E+03 -0.24670528080E+03  0.36827127842E+03  0.80801747775E+03  0.25500000920E-02 0. -1.
       -2    1    3    3    0  502 -0.67557754126E+03  0.24670528080E+03 -0.13171585288E+04  0.15007248581E+04  0.25500000920E-02 0.  1.
</event>
<event>
 5   0  0.1492552E-05  0.2103970E+04  0.7818609E-02  0.8559496E-01
        1   -1    0    0  501    0  0.00000000000E+00  0.00000000000E+00  0.23575785857E+04  0.23575785857E+04  0.50400001928E-02 0. -1.
       -1   -1    0    0    0  501  0.00000000000E+00  0.00000000000E+00 -0.46941084601E+03  0.46941084604E+03  0.50400001928E-02 0.  1.
    10030    2    1    2    0    0  0.00000000000E+00  0.00000000000E+00  0.18881677396E+04  0.28269894317E+04  0.21039704926E+04 0.  0.
        4    1    3    3  502    0 -0.28619685326E+03  0.53428067754E+03 -0.21122181281E+03  0.64185726475E+03  0.12699999809E+01 0.  1.
       -4    1    3    3    0  502  0.28619685326E+03 -0.53428067754E+03  0.20993895525E+04  0.21851321670E+04  0.12699999809E+01 0. -1.
</event>
<event>
 5   0  0.3242231E-05  0.2101791E+04  0.7818609E-02  0.8560455E-01
        2   -1    0    0  501    0  0.00000000000E+00  0.00000000000E+00  0.30585984796E+04  0.30585984796E+04  0.25500000920E-02 0. -1.
       -2   -1    0    0    0  501  0.00000000000E+00  0.00000000000E+00 -0.36107430631E+03  0.36107430632E+03  0.25500000920E-02 0.  1.
    10030    2    1    2    0    0  0.00000000000E+00  0.00000000000E+00  0.26975241733E+04  0.34196727860E+04  0.21017909738E+04 0.  0.
        4    1    3    3  502    0 -0.91963863762E+03 -0.41188033221E+03  0.86337548155E+03  0.13269511924E+04  0.12699999809E+01 0. -1.
       -4    1    3    3    0  502  0.91963863762E+03  0.41188033221E+03  0.18341486918E+04  0.20927215936E+04  0.12699999809E+01 0.  1.
</event>
<event>
 5   0  0.1513292E-05  0.2095338E+04  0.7818609E-02  0.8563300E-01
       -1   -1    0    0    0  501  0.00000000000E+00  0.00000000000E+00  0.77435628906E+03  0.77435628907E+03  0.50400001928E-02 0. -1.
        1   -1    0    0  501    0  0.00000000000E+00  0.00000000000E+00 -0.14174481067E+04  0.14174481067E+04  0.50400001928E-02 0.  1.
    10030    2    1    2    0    0  0.00000000000E+00  0.00000000000E+00 -0.64309181763E+03  0.21918043958E+04  0.20953375440E+04 0.  0.
        1    1    3    3  502    0 -0.32587329557E+03 -0.89287729813E+03 -0.78249971688E+03  0.12311494959E+04  0.50400001928E-02 0. -1.
       -1    1    3    3    0  502  0.32587329557E+03  0.89287729813E+03  0.13940789925E+03  0.96065489989E+03  0.50400001928E-02 0.  1.
</event>
<event>
 5   0  0.1466480E-05  0.2101877E+04  0.7818609E-02  0.8560417E-01
       -1   -1    0    0    0  501  0.00000000000E+00  0.00000000000E+00  0.11937929544E+04  0.11937929544E+04  0.50400001928E-02 0.  1.
        1   -1    0    0  501    0  0.00000000000E+00  0.00000000000E+00 -0.92517868402E+03  0.92517868403E+03  0.50400001928E-02 0. -1.
    10030    2    1    2    0    0  0.00000000000E+00  0.00000000000E+00  0.26861427035E+03  0.21189716384E+04  0.21018770607E+04 0.  0.
        3    1    3    3  502    0  0.25377423616E+03 -0.19759426112E+03 -0.87434337822E+03  0.93162288948E+03  0.10100000352E+00 0. -1.
       -3    1    3    3    0  502 -0.25377423616E+03  0.19759426112E+03  0.11429576486E+04  0.11873487489E+04  0.10100000352E+00 0.  1.
</event>
<event>
 5   0  0.3279789E-05  0.2102519E+04  0.7818609E-02  0.8560134E-01
       -2   -1    0    0    0  501  0.00000000000E+00  0.00000000000E+00  0.58748819257E+03  0.58748819258E+03  0.25500000920E-02 0. -1.
        2   -1    0    0  501    0  0.00000000000E+00  0.00000000000E+00 -0.18811386199E+04  0.18811386199E+04  0.25500000920E-02 0.  1.
    10030    2    1    2    0    0  0.00000000000E+00  0.00000000000E+00 -0.12936504273E+04  0.24686268125E+04  0.21025191821E+04 0.  0.
        2    1    3    3  502    0 -0.76498856268E+03  0.66978752874E+03 -0.96039412283E+03  0.13986349437E+04  0.25500000920E-02 0. -1.
       -2    1    3    3    0  502  0.76498856268E+03 -0.66978752874E+03 -0.33325630452E+03  0.10699918688E+04  0.25500000920E-02 0.  1.
</event>
<event>
 5   0  0.3257130E-05  0.2016946E+04  0.7818609E-02  0.8598738E-01
       -2   -1    0    0    0  501  0.00000000000E+00  0.00000000000E+00  0.57520138470E+03  0.57520138470E+03  0.25500000920E-02 0. -1.
        2   -1    0    0  501    0  0.00000000000E+00  0.00000000000E+00 -0.17681079657E+04  0.17681079657E+04  0.25500000920E-02 0.  1.
    10030    2    1    2    0    0  0.00000000000E+00  0.00000000000E+00 -0.11929065810E+04  0.23433093504E+04  0.20169463554E+04 0.  0.
        3    1    3    3  502    0  0.89323126781E+03  0.21487855228E+03 -0.11324174313E+03  0.92566656665E+03  0.10100000352E+00 0. -1.
       -3    1    3    3    0  502 -0.89323126781E+03 -0.21487855228E+03 -0.10796648379E+04  0.14176427838E+04  0.10100000352E+00 0.  1.
</event>
<event>
 5   0  0.3108326E-05  0.2073010E+04  0.7818609E-02  0.8573227E-01
        2   -1    0    0  501    0  0.00000000000E+00  0.00000000000E+00  0.81131244019E+03  0.81131244019E+03  0.25500000920E-02 0. -1.
       -2   -1    0    0    0  501  0.00000000000E+00  0.00000000000E+00 -0.13242039323E+04  0.13242039323E+04  0.25500000920E-02 0.  1.
    10030    2    1    2    0    0  0.00000000000E+00  0.00000000000E+00 -0.51289149215E+03  0.21355163725E+04  0.20730104907E+04 0.  0.
        5    1    3    3  502    0 -0.15977478867E+03  0.21403606402E+01  0.79853700140E+03  0.81438074440E+03  0.46999998093E+01 0. -1.
       -5    1    3    3    0  502  0.15977478867E+03 -0.21403606402E+01 -0.13114284936E+04  0.13211356281E+04  0.46999998093E+01 0.  1.
</event>
<event>
 5   0  0.1492552E-05  0.2094844E+04  0.7818609E-02  0.8563518E-01
       -1   -1    0    0    0  501  0.00000000000E+00  0.00000000000E+00  0.45192795273E+03  0.45192795275E+03  0.50400001928E-02 0. -1.
        1   -1    0    0  501    0  0.00000000000E+00  0.00000000000E+00 -0.24275824872E+04  0.24275824872E+04  0.50400001928E-02 0.  1.
    10030    2    1    2    0    0  0.00000000000E+00  0.00000000000E+00 -0.19756545345E+04  0.28795104400E+04  0.20948435584E+04 0.  0.
        4    1    3    3  502    0  0.37135249939E+02 -0.39143745160E+03  0.34663126765E+03  0.52417282829E+03  0.12699999809E+01 0. -1.
       -4    1    3    3    0  502 -0.37135249939E+02  0.39143745160E+03 -0.23222858022E+04  0.23553376117E+04  0.12699999809E+01 0.  1.
</event>
<event>
 5   0  0.1513292E-05  0.2101947E+04  0.7818609E-02  0.8560386E-01
       -1   -1    0    0    0  501  0.00000000000E+00  0.00000000000E+00  0.77941642120E+03  0.77941642122E+03  0.50400001928E-02 0.  1.
        1   -1    0    0  501    0  0.00000000000E+00  0.00000000000E+00 -0.14171433353E+04  0.14171433353E+04  0.50400001928E-02 0. -1.
    10030    2    1    2    0    0  0.00000000000E+00  0.00000000000E+00 -0.63772691413E+03  0.21965597566E+04  0.21019465139E+04 0.  0.
        1    1    3    3  502    0 -0.58734371987E+03 -0.85854133390E+03 -0.47554183891E+03  0.11437682929E+04  0.50400001928E-02 0. -1.
       -1    1    3    3    0  502  0.58734371987E+03  0.85854133390E+03 -0.16218507522E+03  0.10527914636E+04  0.50400001928E-02 0.  1.
</event>
<event>
 5   0  0.1466480E-05  0.2086908E+04  0.7818609E-02  0.8567033E-01
       -1   -1    0    0    0  501  0.00000000000E+00  0.00000000000E+00  0.12450765949E+04  0.12450765949E+04  0.50400001928E-02 0. -1.
        1   -1    0    0  501    0  0.00000000000E+00  0.00000000000E+00 -0.87448133612E+03  0.87448133613E+03  0.50400001928E-02 0.  1.
    10030    2    1    2    0    0  0.00000000000E+00  0.00000000000E+00  0.37059525874E+03  0.21195579310E+04  0.20869079944E+04 0.  0.
        3    1    3    3  502    0 -0.50307134688E+03  0.66663560787E+03 -0.45003886838E+03  0.94869321015E+03  0.10100000352E+00 0.  1.
       -3    1    3    3    0  502  0.50307134688E+03 -0.66663560787E+03  0.82063412711E+03  0.11708647208E+04  0.10100000352E+00 0. -1.
</event>
<event>
 5   0  0.3257130E-05  0.2096687E+04  0.7818609E-02  0.8562704E-01
       -2   -1    0    0    0  501  0.00000000000E+00  0.00000000000E+00  0.91121861873E+03  0.91121861874E+03  0.25500000920E-02 0. -1.
        2   -1    0    0  501    0  0.00000000000E+00  0.00000000000E+00 -0.12061038149E+04  0.12061038149E+04  0.25500000920E-02 0.  1.
    10030    2    1    2    0    0  0.00000000000E+00  0.00000000000E+00 -0.29488519612E+03  0.21173224336E+04  0.20966871509E+04 0.  0.
        3    1    3    3  502    0  0.87371894262E+03 -0.56789813869E+03 -0.26316164171E+03  0.10747777196E+04  0.10100000352E+00 0.  1.
       -3    1    3    3    0  502 -0.87371894262E+03  0.56789813869E+03 -0.31723554411E+02  0.10425447140E+04  0.10100000352E+00 0. -1.
</event>
<event>
 5   0  0.3279789E-05  0.2100531E+04  0.7818609E-02  0.8561010E-01
        2   -1    0    0  501    0  0.00000000000E+00  0.00000000000E+00  0.79054369270E+03  0.79054369271E+03  0.25500000920E-02 0.  1.
       -2   -1    0    0    0  501  0.00000000000E+00  0.00000000000E+00 -0.13953148600E+04  0.13953148600E+04  0.25500000920E-02 0. -1.
    10030    2    1    2    0    0  0.00000000000E+00  0.00000000000E+00 -0.60477116730E+03  0.21858585527E+04  0.21005307538E+04 0.  0.
        2    1    3    3  502    0  0.35852041547E+03 -0.89987107142E+03 -0.72477113623E+03  0.12097925580E+04  0.25500000920E-02 0. -1.
       -2    1    3    3    0  502 -0.35852041547E+03  0.89987107142E+03  0.11999996893E+03  0.97606599471E+03  0.25500000920E-02 0.  1.
</event>
<event>
 5   0  0.1435410E-05  0.2108764E+04  0.7818609E-02  0.8557392E-01
        1   -1    0    0  501    0  0.00000000000E+00  0.00000000000E+00  0.11839851407E+04  0.11839851407E+04  0.50400001928E-02 0. -1.
       -1   -1    0    0    0  501  0.00000000000E+00  0.00000000000E+00 -0.93896591340E+03  0.93896591342E+03  0.50400001928E-02 0.  1.
    10030    2    1    2    0    0  0.00000000000E+00  0.00000000000E+00  0.24501922733E+03  0.21229510542E+04  0.21087642724E+04 0.  0.
        2    1    3    3  502    0 -0.52265675960E+03 -0.56479449339E+03  0.84816310815E+03  0.11452264257E+04  0.25500000920E-02 0. -1.
       -2    1    3    3    0  502  0.52265675960E+03  0.56479449339E+03 -0.60314388081E+03  0.97772462845E+03  0.25500000920E-02 0.  1.
</event>
<event>
 5   0  0.1435410E-05  0.2095395E+04  0.7818609E-02  0.8563274E-01
       -1   -1    0    0    0  501  0.00000000000E+00  0.00000000000E+00  0.73954249814E+03  0.73954249815E+03  0.50400001928E-02 0. -1.
        1   -1    0    0  501    0  0.00000000000E+00  0.00000000000E+00 -0.14842562286E+04  0.14842562286E+04  0.50400001928E-02 0.  1.
    10030    2    1    2    0    0  0.00000000000E+00  0.00000000000E+00 -0.74471373046E+03  0.22237987268E+04  0.20953954846E+04 0.  0.
        2    1    3    3  502    0 -0.40737826813E+02 -0.32411151273E+03 -0.14288292050E+04  0.14656946272E+04  0.25500000920E-02 0.  1.
       -2    1    3    3    0  502  0.40737826813E+02  0.32411151273E+03  0.68411547454E+03  0.75810409953E+03  0.25500000920E-02 0. -1.
</event>
<event>
 5   0  0.3130517E-05  0.2134671E+04  0.7818609E-02  0.8546122E-01
        2   -1    0    0  501    0  0.00000000000E+00  0.00000000000E+00  0.17501217319E+04  0.17501217319E+04  0.25500000920E-02 0. -1.
       -2   -1    0    0    0  501  0.00000000000E+00  0.00000000000E+00 -0.65092917747E+03  0.65092917747E+03  0.25500000920E-02 0.  1.
    10030    2    1    2    0    0  0.00000000000E+00  0.00000000000E+00  0.10991925544E+04  0.24010509094E+04  0.21346712153E+04 0.  0.
        1    1    3    3  502    0  0.32523985346E+03 -0.51597467195E+03 -0.43560078429E+03  0.74950574893E+03  0.50400001928E-02 0.  1.
       -1    1    3    3    0  502 -0.32523985346E+03  0.51597467195E+03  0.15347933387E+04  0.16515451604E+04  0.50400001928E-02 0. -1.
</event>
<event>
 5   0  0.1466480E-05  0.2083422E+04  0.7818609E-02  0.8568581E-01
       -1   -1    0    0    0  501  0.00000000000E+00  0.00000000000E+00  0.59735669654E+03  0.59735669656E+03  0.50400001928E-02 0.  1.
        1   -1    0    0  501    0  0.00000000000E+00  0.00000000000E+00 -0.18166061819E+04  0.18166061819E+04  0.50400001928E-02 0. -1.
    10030    2    1    2    0    0  0.00000000000E+00  0.00000000000E+00 -0.12192494854E+04  0.24139628785E+04  0.20834220579E+04 0.  0.
        3    1    3    3  502    0  0.34900244317E+03 -0.70022237893E+03  0.18727893347E+03  0.80447964201E+03  0.10100000352E+00 0.  1.
       -3    1    3    3    0  502 -0.34900244317E+03  0.70022237893E+03 -0.14065284189E+04  0.16094832365E+04  0.10100000352E+00 0. -1.
</event>
<event>
 5   0  0.3130517E-05  0.2105142E+04  0.7818609E-02  0.8558982E-01
       -2   -1    0    0    0  501  0.00000000000E+00  0.00000000000E+00  0.68881808357E+03  0.68881808358E+03  0.25500000920E-02 0.  1.
        2   -1    0    0  501    0  0.00000000000E+00  0.00000000000E+00 -0.16084152856E+04  0.16084152856E+04  0.25500000920E-02 0. -1.
    10030    2    1    2    0    0  0.00000000000E+00  0.00000000000E+00 -0.91959720205E+03  0.22972333692E+04  0.21051418334E+04 0.  0.
        1    1    3    3  502    0 -0.12093711299E+02  0.84153450768E+03  0.23000436069E+03  0.87248414967E+03  0.50400001928E-02 0.  1.
       -1    1    3    3    0  502  0.12093711299E+02 -0.84153450768E+03 -0.11496015627E+04  0.14247492195E+04  0.50400001928E-02 0. -1.
</event>
<event>
 5   0  0.1435410E-05  0.2138520E+04  0.7818609E-02  0.8544462E-01
        1   -1    0    0  501    0  0.00000000000E+00  0.00000000000E+00  0.89733291302E+03  0.89733291303E+03  0.50400001928E-02 0.  1.
       -1   -1    0    0    0  501  0.00000000000E+00  0.00000000000E+00 -0.12741283711E+04  0.12741283711E+04  0.50400001928E-02 0. -1.
    10030    2    1    2    0    0  0.00000000000E+00  0.00000000000E+00 -0.37679545808E+03  0.21714612841E+04  0.21385203509E+04 0.  0.
        2    1    3    3  502    0 -0.81294803138E+03 -0.44617534433E+03  0.35211791556E+03  0.99193949719E+03  0.25500000920E-02 0.  1.
       -2    1    3    3    0  502  0.81294803138E+03  0.44617534433E+03 -0.72891337364E+03  0.11795217870E+04  0.25500000920E-02 0. -1.
</event>
<event>
 5   0  0.1492552E-05  0.2101088E+04  0.7818609E-02  0.8560764E-01
       -1   -1    0    0    0  501  0.00000000000E+00  0.00000000000E+00  0.71006366059E+03  0.71006366061E+03  0.50400001928E-02 0.  1.
        1   -1    0    0  501    0  0.00000000000E+00  0.00000000000E+00 -0.15542866621E+04  0.15542866622E+04  0.50400001928E-02 0. -1.
    10030    2    1    2    0    0  0.00000000000E+00  0.00000000000E+00 -0.84422300155E+03  0.22643503228E+04  0.21010877916E+04 0.  0.
        4    1    3    3  502    0 -0.34568687577E+01 -0.10423366766E+04 -0.28092338904E+03  0.10795356690E+04  0.12699999809E+01 0. -1.
       -4    1    3    3    0  502  0.34568687577E+01  0.10423366766E+04 -0.56329961252E+03  0.11848146537E+04  0.12699999809E+01 0.  1.
</event>
<event>
 5   0  0.3242231E-05  0.2098949E+04  0.7818609E-02  0.8561707E-01
       -2   -1    0    0    0  501  0.00000000000E+00  0.00000000000E+00  0.12957834247E+04  0.12957834247E+04  0.25500000920E-02 0. -1.
        2   -1    0    0  501    0  0.00000000000E+00  0.00000000000E+00 -0.84998513091E+03  0.84998513092E+03  0.25500000920E-02 0.  1.
    10030    2    1    2    0    0  0.00000000000E+00  0.00000000000E+00  0.44579829374E+03  0.21457685556E+04  0.20989489216E+04 0.  0.
        4    1    3    3  502    0 -0.66976256820E+03 -0.57207442325E+03 -0.36039261951E+03  0.95170136944E+03  0.12699999809E+01 0.  1.
       -4    1    3    3    0  502  0.66976256820E+03  0.57207442325E+03  0.80619091325E+03  0.11940671861E+04  0.12699999809E+01 0. -1.
</event>
<event>
 5   0  0.3279789E-05  0.2097803E+04  0.7818609E-02  0.8562212E-01
        2   -1    0    0  501    0  0.00000000000E+00  0.00000000000E+00  0.24469961270E+04  0.24469961270E+04  0.25500000920E-02 0. -1.
       -2   -1    0    0    0  501  0.00000000000E+00  0.00000000000E+00 -0.44961001433E+03  0.44961001434E+03  0.25500000920E-02 0.  1.
    10030    2    1    2    0    0  0.00000000000E+00  0.00000000000E+00  0.19973861127E+04  0.28966061414E+04  0.20978026254E+04 0.  0.
        2    1    3    3  502    0 -0.17199199430E+03 -0.10011898181E+04  0.13593695256E+04  0.16970114334E+04  0.25500000920E-02 0. -1.
       -2    1    3    3    0  502  0.17199199430E+03  0.10011898181E+04  0.63801658707E+03  0.11995947080E+04  0.25500000920E-02 0.  1.
</event>
<event>
 5   0  0.1453430E-05  0.2102457E+04  0.7818609E-02  0.8560162E-01
        1   -1    0    0  501    0  0.00000000000E+00  0.00000000000E+00  0.10654207825E+04  0.10654207825E+04  0.50400001928E-02 0. -1.
       -1   -1    0    0    0  501  0.00000000000E+00  0.00000000000E+00 -0.10372249386E+04  0.10372249386E+04  0.50400001928E-02 0.  1.
    10030    2    1    2    0    0  0.00000000000E+00  0.00000000000E+00  0.28195843875E+02  0.21026457211E+04  0.21024566637E+04 0.  0.
        5    1    3    3  502    0 -0.34597696728E+03 -0.33032105080E+03 -0.92206683508E+03  0.10387691740E+04  0.46999998093E+01 0.  1.
       -5    1    3    3    0  502  0.34597696728E+03  0.33032105080E+03  0.95026267896E+03  0.10638765471E+04  0.46999998093E+01 0. -1.
</event>
<event>
 5   0  0.3108326E-05  0.2098320E+04  0.7818609E-02  0.8561984E-01
        2   -1    0    0  501    0  0.00000000000E+00  0.00000000000E+00  0.29085093276E+04  0.29085093276E+04  0.25500000920E-02 0.  1.
       -2   -1    0    0    0  501  0.00000000000E+00  0.00000000000E+00 -0.37845379216E+03  0.37845379217E+03  0.25500000920E-02 0. -1.
    10030    2    1    2    0    0  0.00000000000E+00  0.00000000000E+00  0.25300555354E+04  0.32869631198E+04  0.20983196940E+04 0.  0.
        5    1    3    3  502    0 -0.33019490564E+02 -0.10409137196E+04  0.14639307068E+04  0.17965819944E+04  0.46999998093E+01 0.  1.
       -5    1    3    3    0  502  0.33019490564E+02  0.10409137196E+04  0.10661248287E+04  0.14903811254E+04  0.46999998093E+01 0. -1.
</event>
<event>
 5   0  0.3279789E-05  0.2096622E+04  0.7818609E-02  0.8562733E-01
        2   -1    0    0  501    0  0.00000000000E+00  0.00000000000E+00  0.16304329770E+04  0.16304329770E+04  0.25500000920E-02 0.  1.
       -2   -1    0    0    0  501  0.00000000000E+00  0.00000000000E+00 -0.67402718254E+03  0.67402718254E+03  0.25500000920E-02 0. -1.
    10030    2    1    2    0    0  0.00000000000E+00  0.00000000000E+00  0.95640579446E+03  0.23044601595E+04  0.20966221842E+04 0.  0.
        2    1    3    3  502    0 -0.62437996598E+03  0.83280130889E+03  0.61525423339E+03  0.12091096450E+04  0.25500000920E-02 0.  1.
       -2    1    3    3    0  502  0.62437996598E+03 -0.83280130889E+03  0.34115156106E+03  0.10953505145E+04  0.25500000920E-02 0. -1.
</event>
<event>
 5   0  0.1129987E-05  0.2102799E+04  0.7818609E-02  0.8560011E-01
        4   -1    0    0  501    0  0.00000000000E+00  0.00000000000E+00  0.11554413965E+04  0.11554420945E+04  0.12699999809E+01 0. -1.
       -4   -1    0    0    0  501  0.00000000000E+00  0.00000000000E+00 -0.95672444764E+03  0.95672529057E+03  0.12699999809E+01 0.  1.
    10030    2    1    2    0    0  0.00000000000E+00  0.00000000000E+00  0.19871694890E+03  0.21121673851E+04  0.21027987628E+04 0.  0.
        1    1    3    3  502    0 -0.86160675808E+03 -0.24756155655E+02  0.70408861201E+03  0.11129779182E+04  0.50400001928E-02 0. -1.
       -1    1    3    3    0  502  0.86160675808E+03  0.24756155655E+02 -0.50537166311E+03  0.99918946687E+03  0.50400001928E-02 0.  1.
</event>
<event>
 5   0  0.1466480E-05  0.2107835E+04  0.7818609E-02  0.8557800E-01
        1   -1    0    0  501    0  0.00000000000E+00  0.00000000000E+00  0.15698673429E+04  0.15698673429E+04  0.50400001928E-02 0.  1.
       -1   -1    0    0    0  501  0.00000000000E+00  0.00000000000E+00 -0.70753912107E+03  0.70753912109E+03  0.50400001928E-02 0. -1.
    10030    2    1    2    0    0  0.00000000000E+00  0.00000000000E+00  0.86232822181E+03  0.22774064640E+04  0.21078354395E+04 0.  0.
        3    1    3    3  502    0 -0.88090922320E+02 -0.10113016891E+04  0.73724079282E+03  0.12545975903E+04  0.10100000352E+00 0.  1.
       -3    1    3    3    0  502  0.88090922320E+02  0.10113016891E+04  0.12508742899E+03  0.10228088736E+04  0.10100000352E+00 0. -1.
</event>
<event>
 5   0  0.3130517E-05  0.2096900E+04  0.7818609E-02  0.8562610E-01
        2   -1    0    0  501    0  0.00000000000E+00  0.00000000000E+00  0.11464183493E+04  0.11464183493E+04  0.25500000920E-02 0. -1.
       -2   -1    0    0    0  501  0.00000000000E+00  0.00000000000E+00 -0.95885346577E+03  0.95885346578E+03  0.25500000920E-02 0.  1.
    10030    2    1    2    0    0  0.00000000000E+00  0.00000000000E+00  0.18756488349E+03  0.21052718150E+04  0.20968998139E+04 0.  0.
        1    1    3    3  502    0 -0.95013851725E+03  0.39712206414E+03  0.29149014875E+03  0.10702502710E+04  0.50400001928E-02 0.  1.
       -1    1    3    3    0  502  0.95013851725E+03 -0.39712206414E+03 -0.10392526526E+03  0.10350215440E+04  0.50400001928E-02 0. -1.
</event>
<event>
 5   0  0.1466480E-05  0.2099883E+04  0.7818609E-02  0.8561295E-01
       -1   -1    0    0    0  501  0.00000000000E+00  0.00000000000E+00  0.52915208102E+03  0.52915208105E+03  0.50400001928E-02 0.  1.
        1   -1    0    0  501    0  0.00000000000E+00  0.00000000000E+00 -0.20832898615E+04  0.20832898615E+04  0.50400001928E-02 0. -1.
    10030    2    1    2    0    0  0.00000000000E+00  0.00000000000E+00 -0.15541377805E+04  0.26124419425E+04  0.20998830116E+04 0.  0.
        3    1    3    3  502    0 -0.28335340949E+03 -0.82571996185E+03 -0.51353590920E+02  0.87449403175E+03  0.10100000352E+00 0.  1.
       -3    1    3    3    0  502  0.28335340949E+03  0.82571996185E+03 -0.15027841895E+04  0.17379479108E+04  0.10100000352E+00 0. -1.
</event>
<event>
 5   0  0.3279789E-05  0.2102047E+04  0.7818609E-02  0.8560342E-01
        2   -1    0    0  501    0  0.00000000000E+00  0.00000000000E+00  0.19122611908E+04  0.19122611908E+04  0.25500000920E-02 0. -1.
       -2   -1    0    0    0  501  0.00000000000E+00  0.00000000000E+00 -0.57766732528E+03  0.57766732528E+03  0.25500000920E-02 0.  1.
    10030    2    1    2    0    0  0.00000000000E+00  0.00000000000E+00  0.13345938655E+04  0.24899285161E+04  0.21020473899E+04 0.  0.
        2    1    3    3  502    0 -0.76275889505E+03  0.35312866513E+03  0.14147219648E+04  0.16455817281E+04  0.25500000920E-02 0. -1.
       -2    1    3    3    0  502  0.76275889505E+03 -0.35312866513E+03 -0.80128099276E+02  0.84434678801E+03  0.25500000920E-02 0.  1.
</event>
<event>
 5   0  0.3257130E-05  0.2109008E+04  0.7818609E-02  0.8557286E-01
        2   -1    0    0  501    0  0.00000000000E+00  0.00000000000E+00  0.59748991301E+03  0.59748991302E+03  0.25500000920E-02 0. -1.
       -2   -1    0    0    0  501  0.00000000000E+00  0.00000000000E+00 -0.18610828023E+04  0.18610828023E+04  0.25500000920E-02 0.  1.
    10030    2    1    2    0    0  0.00000000000E+00  0.00000000000E+00 -0.12635928893E+04  0.24585727153E+04  0.21090075407E+04 0.  0.
        3    1    3    3  502    0  0.23853831319E+03  0.90869978441E+03 -0.73522872135E+02  0.94235951100E+03  0.10100000352E+00 0. -1.
       -3    1    3    3    0  502 -0.23853831319E+03 -0.90869978441E+03 -0.11900700172E+04  0.15162132043E+04  0.10100000352E+00 0.  1.
</event>
<event>
 5   0  0.3130517E-05  0.2105687E+04  0.7818609E-02  0.8558742E-01
        2   -1    0    0  501    0  0.00000000000E+00  0.00000000000E+00  0.14918612915E+04  0.14918612915E+04  0.25500000920E-02 0. -1.
       -2   -1    0    0    0  501  0.00000000000E+00  0.00000000000E+00 -0.74301805267E+03  0.74301805267E+03  0.25500000920E-02 0.  1.
    10030    2    1    2    0    0  0.00000000000E+00  0.00000000000E+00  0.74884323882E+03  0.22348793442E+04  0.21056874143E+04 0.  0.
        1    1    3    3  502    0 -0.61055032225E+03  0.81269349072E+03  0.83298122261E+02  0.10198926331E+04  0.50400001928E-02 0.  1.
       -1    1    3    3    0  502  0.61055032225E+03 -0.81269349072E+03  0.66554511656E+03  0.12149867111E+04  0.50400001928E-02 0. -1.
</event>
<event>
 5   0  0.3108326E-05  0.2100210E+04  0.7818609E-02  0.8561151E-01
        2   -1    0    0  501    0  0.00000000000E+00  0.00000000000E+00  0.77214578329E+03  0.77214578329E+03  0.25500000920E-02 0.  1.
       -2   -1    0    0    0  501  0.00000000000E+00  0.00000000000E+00 -0.14281244845E+04  0.14281244845E+04  0.25500000920E-02 0. -1.
    10030    2    1    2    0    0  0.00000000000E+00  0.00000000000E+00 -0.65597870123E+03  0.22002702678E+04  0.21002097978E+04 0.  0.
        5    1    3    3  502    0 -0.51016356906E+03 -0.81390945488E+03  0.11646665665E+03  0.96762701495E+03  0.46999998093E+01 0.  1.
       -5    1    3    3    0  502  0.51016356906E+03  0.81390945488E+03 -0.77244535788E+03  0.12326432529E+04  0.46999998093E+01 0. -1.
</event>
<event>
 5   0  0.1492552E-05  0.2088979E+04  0.7818609E-02  0.8566114E-01
        1   -1    0    0  501    0  0.00000000000E+00  0.00000000000E+00  0.19203701812E+04  0.19203701812E+04  0.50400001928E-02 0. -1.
       -1   -1    0    0    0  501  0.00000000000E+00  0.00000000000E+00 -0.56809771732E+03  0.56809771735E+03  0.50400001928E-02 0.  1.
    10030    2    1    2    0    0  0.00000000000E+00  0.00000000000E+00  0.13522724639E+04  0.24884678986E+04  0.20889786178E+04 0.  0.
        4    1    3    3  502    0  0.12744888042E+03  0.85126905483E+03  0.13809357876E+04  0.16272330759E+04  0.12699999809E+01 0. -1.
       -4    1    3    3    0  502 -0.12744888042E+03 -0.85126905483E+03 -0.28663323698E+02  0.86123482271E+03  0.12699999809E+01 0.  1.
</event>
<event>
 5   0  0.1453430E-05  0.2097245E+04  0.7818609E-02  0.8562458E-01
       -1   -1    0    0    0  501  0.00000000000E+00  0.00000000000E+00  0.83768234613E+03  0.83768234615E+03  0.50400001928E-02 0. -1.
        1   -1    0    0  501    0  0.00000000000E+00  0.00000000000E+00 -0.13126803888E+04  0.13126803888E+04  0.50400001928E-02 0.  1.
    10030    2    1    2    0    0  0.00000000000E+00  0.00000000000E+00 -0.47499804270E+03  0.21503627350E+04  0.20972450385E+04 0.  0.
        5    1    3    3  502    0  0.35767690581E+03  0.86842534860E+03  0.24067275238E+03  0.96955702193E+03  0.46999998093E+01 0.  1.
       -5    1    3    3    0  502 -0.35767690581E+03 -0.86842534860E+03 -0.71567079508E+03  0.11808057130E+04  0.46999998093E+01 0. -1.
</event>
<event>
 5   0  0.3242231E-05  0.2107980E+04  0.7818609E-02  0.8557736E-01
       -2   -1    0    0    0  501  0.00000000000E+00  0.00000000000E+00  0.13363898634E+04  0.13363898634E+04  0.25500000920E-02 0. -1.
        2   -1    0    0  501    0  0.00000000000E+00  0.00000000000E+00 -0.83126558744E+03  0.83126558744E+03  0.25500000920E-02 0.  1.
    10030    2    1    2    0    0  0.00000000000E+00  0.00000000000E+00  0.50512427596E+03  0.21676554508E+04  0.21079799855E+04 0.  0.
        4    1    3    3  502    0  0.71118939399E+03 -0.77746406667E+03  0.27883061814E+03  0.10899490151E+04  0.12699999809E+01 0. -1.
       -4    1    3    3    0  502 -0.71118939399E+03  0.77746406667E+03  0.22629365782E+03  0.10777064357E+04  0.12699999809E+01 0.  1.
</event>
<event>
 5   0  0.1492552E-05  0.2092565E+04  0.7818609E-02  0.8564526E-01
        1   -1    0    0  501    0  0.00000000000E+00  0.00000000000E+00  0.12918825300E+04  0.12918825300E+04  0.50400001928E-02 0. -1.
       -1   -1    0    0    0  501  0.00000000000E+00  0.00000000000E+00 -0.84737350707E+03  0.84737350708E+03  0.50400001928E-02 0.  1.
    10030    2    1    2    0    0  0.00000000000E+00  0.00000000000E+00  0.44450902296E+03  0.21392560371E+04  0.20925649622E+04 0.  0.
        4    1    3    3  502    0 -0.21816703488E+03  0.83092317082E+03 -0.38829417606E+03  0.94276410145E+03  0.12699999809E+01 0.  1.
       -4    1    3    3    0  502  0.21816703488E+03 -0.83092317082E+03  0.83280319902E+03  0.11964919357E+04  0.12699999809E+01 0. -1.
</event>
<event>
 5   0  0.1513292E-05  0.2098128E+04  0.7818609E-02  0.8562069E-01
        1   -1    0    0  501    0  0.00000000000E+00  0.00000000000E+00  0.83737606382E+03  0.83737606384E+03  0.50400001928E-02 0.  1.
       -1   -1    0    0    0  501  0.00000000000E+00  0.00000000000E+00 -0.13142658427E+04  0.13142658427E+04  0.50400001928E-02 0. -1.
    10030    2    1    2    0    0  0.00000000000E+00  0.00000000000E+00 -0.47688977889E+03  0.21516419066E+04  0.20981275063E+04 0.  0.
        1    1    3    3  502    0 -0.48064055186E+03  0.87374294790E+03 -0.57247131420E+03  0.11498545494E+04  0.50400001928E-02 0.  1.
       -1    1    3    3    0  502  0.48064055186E+03 -0.87374294790E+03  0.95581535305E+02  0.10017873572E+04  0.50400001928E-02 0. -1.
</event>
<event>
 5   0  0.3130517E-05  0.2105337E+04  0.7818609E-02  0.8558896E-01
        2   -1    0    0  501    0  0.00000000000E+00  0.00000000000E+00  0.15861179405E+04  0.15861179406E+04  0.25500000920E-02 0.  1.
       -2   -1    0    0    0  501  0.00000000000E+00  0.00000000000E+00 -0.69863086330E+03  0.69863086330E+03  0.25500000920E-02 0. -1.
    10030    2    1    2    0    0  0.00000000000E+00  0.00000000000E+00  0.88748707725E+03  0.22847488039E+04  0.21053369765E+04 0.  0.
        1    1    3    3  502    0  0.43451285067E+03  0.66488156968E+03  0.11934412435E+04  0.14335867329E+04  0.50400001928E-02 0.  1.
       -1    1    3    3    0  502 -0.43451285067E+03 -0.66488156968E+03 -0.30595416627E+03  0.85116207092E+03  0.50400001928E-02 0. -1.
</event>
<event>
 5   0  0.1453430E-05  0.2102342E+04  0.7818609E-02  0.8560213E-01
       -1   -1    0    0    0  501  0.00000000000E+00  0.00000000000E+00  0.52048033407E+03  0.52048033410E+03  0.50400001928E-02 0.  1.
        1   -1    0    0  501    0  0.00000000000E+00  0.00000000000E+00 -0.21229619958E+04  0.21229619958E+04  0.50400001928E-02 0. -1.
    10030    2    1    2    0    0  0.00000000000E+00  0.00000000000E+00 -0.16024816617E+04  0.26434423299E+04  0.21023415221E+04 0.  0.
        5    1    3    3  502    0  0.99517208765E+03 -0.12216270265E+03 -0.11981562449E+04  0.15623353312E+04  0.46999998093E+01 0. -1.
       -5    1    3    3    0  502 -0.99517208765E+03  0.12216270265E+03 -0.40432541682E+03  0.10811069987E+04  0.46999998093E+01 0.  1.
</event>
<event>
 5   0  0.3242231E-05  0.2101333E+04  0.7818609E-02  0.8560656E-01
       -2   -1    0    0    0  501  0.00000000000E+00  0.00000000000E+00  0.10921768662E+04  0.10921768662E+04  0.25500000920E-02 0. -1.
        2   -1    0    0  501    0  0.00000000000E+00  0.00000000000E+00 -0.10107338279E+04  0.10107338279E+04  0.25500000920E-02 0.  1.
    10030    2    1    2    0    0  0.00000000000E+00  0.00000000000E+00  0.81443038315E+02  0.21029106942E+04  0.21013330101E+04 0.  0.
        4    1    3    3  502    0  0.25726838222E+03 -0.90390296316E+03  0.51083043112E+03  0.10696620633E+04  0.12699999809E+01 0. -1.
       -4    1    3    3    0  502 -0.25726838222E+03  0.90390296316E+03 -0.42938739281E+03  0.10332486309E+04  0.12699999809E+01 0.  1.
</event>
<event>
 5   0  0.3130517E-05  0.2096915E+04  0.7818609E-02  0.8562604E-01
        2   -1    0    0  501    0  0.00000000000E+00  0.00000000000E+00  0.11981869904E+04  0.11981869904E+04  0.25500000920E-02 0. -1.
       -2   -1    0    0    0  501  0.00000000000E+00  0.00000000000E+00 -0.91743867133E+03  0.91743867133E+03  0.25500000920E-02 0.  1.
    10030    2    1    2    0    0  0.00000000000E+00  0.00000000000E+00  0.28074831905E+03  0.21156256617E+04  0.20969149534E+04 0.  0.
        1    1    3    3  502    0 -0.41056389836E+03 -0.79302596677E+03 -0.41390040952E+03  0.98425933963E+03  0.50400001928E-02 0.  1.
       -1    1    3    3    0  502  0.41056389836E+03  0.79302596677E+03  0.69464872858E+03  0.11313663221E+04  0.50400001928E-02 0. -1.
</event>
<event>
 5   0  0.3257130E-05  0.2105784E+04  0.7818609E-02  0.8558700E-01
       -2   -1    0    0    0  501  0.00000000000E+00  0.00000000000E+00  0.59997005516E+03  0.59997005517E+03  0.25500000920E-02 0. -1.
        2   -1    0    0  501    0  0.00000000000E+00  0.00000000000E+00 -0.18477279296E+04  0.18477279296E+04  0.25500000920E-02 0.  1.
    10030    2    1    2    0    0  0.00000000000E+00  0.00000000000E+00 -0.12477578745E+04  0.24476979848E+04  0.21057838710E+04 0.  0.
        3    1    3    3  502    0 -0.97349214395E+02 -0.44863934032E+03  0.47750930630E+03  0.66239661460E+03  0.10100000352E+00 0. -1.
       -3    1    3    3    0  502  0.97349214395E+02  0.44863934032E+03 -0.17252671808E+04  0.17853013702E+04  0.10100000352E+00 0.  1.
</event>
<event>
 5   0  0.3279789E-05  0.2098656E+04  0.7818609E-02  0.8561836E-01
        2   -1    0    0  501    0  0.00000000000E+00  0.00000000000E+00  0.15483939953E+04  0.15483939953E+04  0.25500000920E-02 0.  1.
       -2   -1    0    0    0  501  0.00000000000E+00  0.00000000000E+00 -0.71111715447E+03  0.71111715448E+03  0.25500000920E-02 0. -1.
    10030    2    1    2    0    0  0.00000000000E+00  0.00000000000E+00  0.83727684087E+03  0.22595111498E+04  0.20986562672E+04 0.  0.
        2    1    3    3  502    0 -0.28355491026E+03 -0.69038920742E+03  0.12127694015E+04  0.14240260764E+04  0.25500000920E-02 0.  1.
       -2    1    3    3    0  502  0.28355491026E+03  0.69038920742E+03 -0.37549256066E+03  0.83548507346E+03  0.25500000920E-02 0. -1.
</event>
<event>
 5   0  0.3130517E-05  0.2089732E+04  0.7818609E-02  0.8565780E-01
        2   -1    0    0  501    0  0.00000000000E+00  0.00000000000E+00  0.12600200466E+04  0.12600200466E+04  0.25500000920E-02 0. -1.
       -2   -1    0    0    0  501  0.00000000000E+00  0.00000000000E+00 -0.86645082612E+03  0.86645082612E+03  0.25500000920E-02 0.  1.
    10030    2    1    2    0    0  0.00000000000E+00  0.00000000000E+00  0.39356922052E+03  0.21264708728E+04  0.20897324330E+04 0.  0.
        1    1    3    3  502    0 -0.66306335095E+03 -0.60850339860E+03 -0.34341167259E+03  0.96325540247E+03  0.50400001928E-02 0.  1.
       -1    1    3    3    0  502  0.66306335095E+03  0.60850339860E+03  0.73698089311E+03  0.11632154703E+04  0.50400001928E-02 0. -1.
</event>
<event>
 5   0  0.3108326E-05  0.2103827E+04  0.7818609E-02  0.8559559E-01
        2   -1    0    0  501    0  0.00000000000E+00  0.00000000000E+00  0.71032628442E+03  0.71032628442E+03  0.25500000920E-02 0. -1.
       -2   -1    0    0    0  501  0.00000000000E+00  0.00000000000E+00 -0.15577664821E+04  0.15577664821E+04  0.25500000920E-02 0.  1.
    10030    2    1    2    0    0  0.00000000000E+00  0.00000000000E+00 -0.84744019767E+03  0.22680927665E+04  0.21038274427E+04 0.  0.
        5    1    3    3  502    0  0.83340567576E+02  0.10456424392E+04 -0.50851654311E+03  0.11657293534E+04  0.46999998093E+01 0.  1.
       -5    1    3    3    0  502 -0.83340567576E+02 -0.10456424392E+04 -0.33892365456E+03  0.11023634131E+04  0.46999998093E+01 0. -1.
</event>
<event>
 5   0  0.3279789E-05  0.2092229E+04  0.7818609E-02  0.8564674E-01
       -2   -1    0    0    0  501  0.00000000000E+00  0.00000000000E+00  0.54109291205E+03  0.54109291206E+03  0.25500000920E-02 0.  1.
        2   -1    0    0  501    0  0.00000000000E+00  0.00000000000E+00 -0.20224919319E+04  0.20224919319E+04  0.25500000920E-02 0. -1.
    10030    2    1    2    0    0  0.00000000000E+00  0.00000000000E+00 -0.14813990198E+04  0.25635848439E+04  0.20922294798E+04 0.  0.
        2    1    3    3  502    0  0.68806826955E+03 -0.29704483306E+02 -0.17055205004E+04  0.18393260932E+04  0.25500000920E-02 0. -1.
       -2    1    3    3    0  502 -0.68806826955E+03  0.29704483306E+02  0.22412148060E+03  0.72425875070E+03  0.25500000920E-02 0.  1.
</event>
<event>
 5   0  0.1466480E-05  0.2099587E+04  0.7818609E-02  0.8561425E-01
        1   -1    0    0  501    0  0.00000000000E+00  0.00000000000E+00  0.20698925727E+04  0.20698925728E+04  0.50400001928E-02 0. -1.
       -1   -1    0    0    0  501  0.00000000000E+00  0.00000000000E+00 -0.53242705569E+03  0.53242705572E+03  0.50400001928E-02 0.  1.
    10030    2    1    2    0    0  0.00000000000E+00  0.00000000000E+00  0.15374655171E+04  0.26023196285E+04  0.20995873958E+04 0.  0.
        3    1    3    3  502    0  0.35427319546E+03 -0.52095063587E+03  0.18095462120E+04  0.19160784341E+04  0.10100000352E+00 0. -1.
       -3    1    3    3    0  502 -0.35427319546E+03  0.52095063587E+03 -0.27208069498E+03  0.68624119435E+03  0.10100000352E+00 0.  1.
</event>
<event>
 5   0  0.1513292E-05  0.2123996E+04  0.7818609E-02  0.8550746E-01
        1   -1    0    0  501    0  0.00000000000E+00  0.00000000000E+00  0.13308794365E+04  0.13308794365E+04  0.50400001928E-02 0. -1.
       -1   -1    0    0    0  501  0.00000000000E+00  0.00000000000E+00 -0.84743946696E+03  0.84743946697E+03  0.50400001928E-02 0.  1.
    10030    2    1    2    0    0  0.00000000000E+00  0.00000000000E+00  0.48343996954E+03  0.21783189035E+04  0.21239960078E+04 0.  0.
        1    1    3    3  502    0  0.15015563840E+03  0.77644441445E+03 -0.48522961071E+03  0.92782564073E+03  0.50400001928E-02 0.  1.
       -1    1    3    3    0  502 -0.15015563840E+03 -0.77644441445E+03  0.96866958025E+03  0.12504932628E+04  0.50400001928E-02 0. -1.
</event>
<event>
 5   0  0.3242231E-05  0.2086700E+04  0.7818609E-02  0.8567125E-01
        2   -1    0    0  501    0  0.00000000000E+00  0.00000000000E+00  0.66024794213E+03  0.66024794214E+03  0.25500000920E-02 0. -1.
       -2   -1    0    0    0  501  0.00000000000E+00  0.00000000000E+00 -0.16487436231E+04  0.16487436231E+04  0.25500000920E-02 0.  1.
    10030    2    1    2    0    0  0.00000000000E+00  0.00000000000E+00 -0.98849568095E+03  0.23089915652E+04  0.20867003467E+04 0.  0.
        4    1    3    3  502    0 -0.37183398339E+03 -0.42151421325E+03  0.47839133867E+03  0.73810204511E+03  0.12699999809E+01 0. -1.
       -4    1    3    3    0  502  0.37183398339E+03  0.42151421325E+03 -0.14668870196E+04  0.15708895201E+04  0.12699999809E+01 0.  1.
</event>
<event>
 5   0  0.3108326E-05  0.2079466E+04  0.7818609E-02  0.8570343E-01
       -2   -1    0    0    0  501  0.00000000000E+00  0.00000000000E+00  0.53038037187E+03  0.53038037188E+03  0.25500000920E-02 0. -1.
        2   -1    0    0  501    0  0.00000000000E+00  0.00000000000E+00 -0.20382436570E+04  0.20382436570E+04  0.25500000920E-02 0.  1.
    10030    2    1    2    0    0  0.00000000000E+00  0.00000000000E+00 -0.15078632851E+04  0.25686240289E+04  0.20794657283E+04 0.  0.
        5    1    3    3  502    0 -0.52596901335E+03  0.49707273079E+03 -0.16760621159E+04  0.18256316740E+04  0.46999998093E+01 0.  1.
       -5    1    3    3    0  502  0.52596901335E+03 -0.49707273079E+03  0.16819883081E+03  0.74299235486E+03  0.46999998093E+01 0. -1.
</event>
<event>
 5   0  0.3108326E-05  0.2119001E+04  0.7818609E-02  0.8552919E-01
        2   -1    0    0  501    0  0.00000000000E+00  0.00000000000E+00  0.12137433061E+04  0.12137433061E+04  0.25500000920E-02 0.  1.
       -2   -1    0    0    0  501  0.00000000000E+00  0.00000000000E+00 -0.92485859229E+03  0.92485859230E+03  0.25500000920E-02 0. -1.
    10030    2    1    2    0    0  0.00000000000E+00  0.00000000000E+00  0.28888471381E+03  0.21386018984E+04  0.21190006376E+04 0.  0.
        5    1    3    3  502    0  0.10262209553E+04 -0.24094609365E+03  0.36994567780E+02  0.10547867828E+04  0.46999998093E+01 0.  1.
       -5    1    3    3    0  502 -0.10262209553E+04  0.24094609365E+03  0.25189014603E+03  0.10838151156E+04  0.46999998093E+01 0. -1.
</event>
<event>
 5   0  0.1492552E-05  0.2100112E+04  0.7818609E-02  0.8561194E-01
        1   -1    0    0  501    0  0.00000000000E+00  0.00000000000E+00  0.12673809605E+04  0.12673809605E+04  0.50400001928E-02 0. -1.
       -1   -1    0    0    0  501  0.00000000000E+00  0.00000000000E+00 -0.86999667223E+03  0.86999667224E+03  0.50400001928E-02 0.  1.
    10030    2    1    2    0    0  0.00000000000E+00  0.00000000000E+00  0.39738428829E+03  0.21373776328E+04  0.21001116333E+04 0.  0.
        4    1    3    3  502    0  0.39933761800E+03 -0.88066752288E+03  0.61530890443E+03  0.11461467968E+04  0.12699999809E+01 0. -1.
       -4    1    3    3    0  502 -0.39933761800E+03  0.88066752288E+03 -0.21792461614E+03  0.99123083599E+03  0.12699999809E+01 0.  1.
</event>
<event>
 5   0  0.1453430E-05  0.2099018E+04  0.7818609E-02  0.8561676E-01
        1   -1    0    0  501    0  0.00000000000E+00  0.00000000000E+00  0.79005678585E+03  0.79005678587E+03  0.50400001928E-02 0.  1.
       -1   -1    0    0    0  501  0.00000000000E+00  0.00000000000E+00 -0.13941638988E+04  0.13941638988E+04  0.50400001928E-02 0. -1.
    10030    2    1    2    0    0  0.00000000000E+00  0.00000000000E+00 -0.60410711294E+03  0.21842206847E+04  0.20990175310E+04 0.  0.
        5    1    3    3  502    0  0.78293088891E+03  0.10205424348E+03 -0.10215314179E+04  0.12911019995E+04  0.46999998093E+01 0. -1.
       -5    1    3    3    0  502 -0.78293088891E+03 -0.10205424348E+03  0.41742430494E+03  0.89311868516E+03  0.46999998093E+01 0.  1.
</event>
<event>
 5   0  0.3130517E-05  0.2100594E+04  0.7818609E-02  0.8560982E-01
       -2   -1    0    0    0  501  0.00000000000E+00  0.00000000000E+00  0.65141231152E+03  0.65141231153E+03  0.25500000920E-02 0. -1.
        2   -1    0    0  501    0  0.00000000000E+00  0.00000000000E+00 -0.16934346439E+04  0.16934346439E+04  0.25500000920E-02 0.  1.
    10030    2    1    2    0    0  0.00000000000E+00  0.00000000000E+00 -0.10420223324E+04  0.23448469554E+04  0.21005943690E+04 0.  0.
        1    1    3    3  502    0 -0.57196926672E+03  0.80587741159E+03 -0.91809385508E+03  0.13488823416E+04  0.50400001928E-02 0.  1.
       -1    1    3    3    0  502  0.57196926672E+03 -0.80587741159E+03 -0.12392847729E+03  0.99596461388E+03  0.50400001928E-02 0. -1.
</event>
<event>
 5   0  0.3242231E-05  0.2095363E+04  0.7818609E-02  0.8563289E-01
        2   -1    0    0  501    0  0.00000000000E+00  0.00000000000E+00  0.18843500592E+04  0.18843500592E+04  0.25500000920E-02 0. -1.
       -2   -1    0    0    0  501  0.00000000000E+00  0.00000000000E+00 -0.58250130594E+03  0.58250130595E+03  0.25500000920E-02 0.  1.
    10030    2    1    2    0    0  0.00000000000E+00  0.00000000000E+00  0.13018487533E+04  0.24668513652E+04  0.20953628520E+04 0.  0.
        4    1    3    3  502    0  0.28264821547E+03  0.97865965946E+03  0.93922847783E+03  0.13855744257E+04  0.12699999809E+01 0. -1.
       -4    1    3    3    0  502 -0.28264821547E+03 -0.97865965946E+03  0.36262027547E+03  0.10812769395E+04  0.12699999809E+01 0.  1.
</event>
<event>
 5   0  0.3279789E-05  0.2101812E+04  0.7818609E-02  0.8560446E-01
        2   -1    0    0  501    0  0.00000000000E+00  0.00000000000E+00  0.91428719203E+03  0.91428719203E+03  0.25500000920E-02 0. -1.
       -2   -1    0    0    0  501  0.00000000000E+00  0.00000000000E+00 -0.12079388719E+04  0.12079388719E+04  0.25500000920E-02 0.  1.
    10030    2    1    2    0    0  0.00000000000E+00  0.00000000000E+00 -0.29365167984E+03  0.21222260639E+04  0.21018116370E+04 0.  0.
        2    1    3    3  502    0  0.54116109350E+03 -0.81537586324E+03  0.23992171774E+03  0.10075989074E+04  0.25500000920E-02 0. -1.
       -2    1    3    3    0  502 -0.54116109350E+03  0.81537586324E+03 -0.53357339758E+03  0.11146271565E+04  0.25500000920E-02 0.  1.
</event>
<event>
 5   0  0.3279789E-05  0.2107384E+04  0.7818609E-02  0.8557997E-01
        2   -1    0    0  501    0  0.00000000000E+00  0.00000000000E+00  0.19281234626E+04  0.19281234626E+04  0.25500000920E-02 0.  1.
       -2   -1    0    0    0  501  0.00000000000E+00  0.00000000000E+00 -0.57582790289E+03  0.57582790290E+03  0.25500000920E-02 0. -1.
    10030    2    1    2    0    0  0.00000000000E+00  0.00000000000E+00  0.13522955598E+04  0.25039513655E+04  0.21073844358E+04 0.  0.
        2    1    3    3  502    0  0.85796497577E+03 -0.35558570809E+03  0.12675249850E+04  0.15713575924E+04  0.25500000920E-02 0.  1.
       -2    1    3    3    0  502 -0.85796497577E+03  0.35558570809E+03  0.84770574754E+02  0.93259377319E+03  0.25500000920E-02 0. -1.
</event>
<event>
 5   0  0.1435410E-05  0.2121450E+04  0.7818609E-02  0.8551853E-01
        1   -1    0    0  501    0  0.00000000000E+00  0.00000000000E+00  0.11493228708E+04  0.11493228708E+04  0.50400001928E-02 0.  1.
       -1   -1    0    0    0  501  0.00000000000E+00  0.00000000000E+00 -0.97895717634E+03  0.97895717635E+03  0.50400001928E-02 0. -1.
    10030    2    1    2    0    0  0.00000000000E+00  0.00000000000E+00  0.17036569444E+03  0.21282800471E+04  0.21214503268E+04 0.  0.
        2    1    3    3  502    0 -0.89154398888E+03 -0.48239665080E+03  0.39856754072E+03  0.10892260084E+04  0.25500000920E-02 0.  1.
       -2    1    3    3    0  502  0.89154398888E+03  0.48239665080E+03 -0.22820184628E+03  0.10390540388E+04  0.25500000920E-02 0. -1.
</event>
<event>
 5   0  0.1466480E-05  0.2102621E+04  0.7818609E-02  0.8560090E-01
        1   -1    0    0  501    0  0.00000000000E+00  0.00000000000E+00  0.77774532692E+03  0.77774532693E+03  0.50400001928E-02 0. -1.
       -1   -1    0    0    0  501  0.00000000000E+00  0.00000000000E+00 -0.14210995941E+04  0.14210995941E+04  0.50400001928E-02 0.  1.
    10030    2    1    2    0    0  0.00000000000E+00  0.00000000000E+00 -0.64335426715E+03  0.21988449210E+04  0.21026208107E+04 0.  0.
        3    1    3    3  502    0 -0.67319681031E+03 -0.14309418216E+03 -0.11527691065E+04  0.13425894806E+04  0.10100000352E+00 0.  1.
       -3    1    3    3    0  502  0.67319681031E+03  0.14309418216E+03  0.50941483937E+03  0.85625544036E+03  0.10100000352E+00 0. -1.
</event>
<event>
 5   0  0.3108326E-05  0.2105717E+04  0.7818609E-02  0.8558729E-01
        2   -1    0    0  501    0  0.00000000000E+00  0.00000000000E+00  0.13392668101E+04  0.13392668101E+04  0.25500000920E-02 0. -1.
       -2   -1    0    0    0  501  0.00000000000E+00  0.00000000000E+00 -0.82769963977E+03  0.82769963977E+03  0.25500000920E-02 0.  1.
    10030    2    1    2    0    0  0.00000000000E+00  0.00000000000E+00  0.51156717030E+03  0.21669664498E+04  0.21057166535E+04 0.  0.
        5    1    3    3  502    0  0.27337011105E+03  0.41932249577E+02  0.13012062253E+04  0.13302816476E+04  0.46999998093E+01 0. -1.
       -5    1    3    3    0  502 -0.27337011105E+03 -0.41932249577E+02 -0.78963905499E+03  0.83668480226E+03  0.46999998093E+01 0.  1.
</event>
<event>
 5   0  0.3130517E-05  0.2095050E+04  0.7818609E-02  0.8563427E-01
        2   -1    0    0  501    0  0.00000000000E+00  0.00000000000E+00  0.13637475795E+04  0.13637475795E+04  0.25500000920E-02 0.  1.
       -2   -1    0    0    0  501  0.00000000000E+00  0.00000000000E+00 -0.80462719374E+03  0.80462719374E+03  0.25500000920E-02 0. -1.
    10030    2    1    2    0    0  0.00000000000E+00  0.00000000000E+00  0.55912038581E+03  0.21683747733E+04  0.20950497731E+04 0.  0.
        1    1    3    3  502    0 -0.59144268545E+03 -0.22526933356E+03 -0.58437442883E+03  0.86141987202E+03  0.50400001928E-02 0. -1.
       -1    1    3    3    0  502  0.59144268545E+03  0.22526933356E+03  0.11434948146E+04  0.13069549013E+04  0.50400001928E-02 0.  1.
</event>
<event>
 5   0  0.1492552E-05  0.2093029E+04  0.7818609E-02  0.8564320E-01
       -1   -1    0    0    0  501  0.00000000000E+00  0.00000000000E+00  0.78149869758E+03  0.78149869759E+03  0.50400001928E-02 0. -1.
        1   -1    0    0  501    0  0.00000000000E+00  0.00000000000E+00 -0.14014006172E+04  0.14014006172E+04  0.50400001928E-02 0.  1.
    10030    2    1    2    0    0  0.00000000000E+00  0.00000000000E+00 -0.61990191958E+03  0.21828993148E+04  0.20930291514E+04 0.  0.
        4    1    3    3  502    0 -0.35942983252E+03 -0.97356467344E+03 -0.45054720687E+03  0.11313763195E+04  0.12699999809E+01 0.  1.
       -4    1    3    3    0  502  0.35942983252E+03  0.97356467344E+03 -0.16935471271E+03  0.10515229952E+04  0.12699999809E+01 0. -1.
</event>
<event>
 5   0  0.1466480E-05  0.2106759E+04  0.7818609E-02  0.8558272E-01
       -1   -1    0    0    0  501  0.00000000000E+00  0.00000000000E+00  0.65815523052E+03  0.65815523054E+03  0.50400001928E-02 0. -1.
        1   -1    0    0  501    0  0.00000000000E+00  0.00000000000E+00 -0.16859379042E+04  0.16859379042E+04  0.50400001928E-02 0.  1.
    10030    2    1    2    0    0  0.00000000000E+00  0.00000000000E+00 -0.10277826737E+04  0.23440931348E+04  0.21067594547E+04 0.  0.
        3    1    3    3  502    0 -0.53299395633E+03  0.20732909040E+03 -0.14981595109E+04  0.16036052630E+04  0.10100000352E+00 0.  1.
       -3    1    3    3    0  502  0.53299395633E+03 -0.20732909040E+03  0.47037683713E+03  0.74048787183E+03  0.10100000352E+00 0. -1.
</event>
<event>
 5   0  0.3108326E-05  0.2098386E+04  0.7818609E-02  0.8561955E-01
       -2   -1    0    0    0  501  0.00000000000E+00  0.00000000000E+00  0.94439506390E+03  0.94439506390E+03  0.25500000920E-02 0. -1.
        2   -1    0    0  501    0  0.00000000000E+00  0.00000000000E+00 -0.11656197860E+04  0.11656197860E+04  0.25500000920E-02 0.  1.
    10030    2    1    2    0    0  0.00000000000E+00  0.00000000000E+00 -0.22122472206E+03  0.21100148499E+04  0.20983856388E+04 0.  0.
        5    1    3    3  502    0 -0.86496272997E+03  0.33565358128E+03  0.38195916101E+03  0.10033637135E+04  0.46999998093E+01 0. -1.
       -5    1    3    3    0  502  0.86496272997E+03 -0.33565358128E+03 -0.60318388307E+03  0.11066511364E+04  0.46999998093E+01 0.  1.
</event>
<event>
 5   0  0.3108326E-05  0.2101724E+04  0.7818609E-02  0.8560484E-01
        2   -1    0    0  501    0  0.00000000000E+00  0.00000000000E+00  0.96386832564E+03  0.96386832564E+03  0.25500000920E-02 0. -1.
       -2   -1    0    0    0  501  0.00000000000E+00  0.00000000000E+00 -0.11457073331E+04  0.11457073331E+04  0.25500000920E-02 0.  1.
    10030    2    1    2    0    0  0.00000000000E+00  0.00000000000E+00 -0.18183900745E+03  0.21095756587E+04  0.21017240626E+04 0.  0.
        5    1    3    3  502    0  0.18065167721E+03 -0.97031350553E+03 -0.45302418529E+03  0.10860001519E+04  0.46999998093E+01 0.  1.
       -5    1    3    3    0  502 -0.18065167721E+03  0.97031350553E+03  0.27118517784E+03  0.10235755068E+04  0.46999998093E+01 0. -1.
</event>
<event>
 5   0  0.3279789E-05  0.2089694E+04  0.7818609E-02  0.8565797E-01
       -2   -1    0    0    0  501  0.00000000000E+00  0.00000000000E+00  0.86571268188E+03  0.86571268189E+03  0.25500000920E-02 0.  1.
        2   -1    0    0  501    0  0.00000000000E+00  0.00000000000E+00 -0.12610481175E+04  0.12610481175E+04  0.25500000920E-02 0. -1.
    10030    2    1    2    0    0  0.00000000000E+00  0.00000000000E+00 -0.39533543560E+03  0.21267607994E+04  0.20896940903E+04 0.  0.
        2    1    3    3  502    0  0.89226897494E+03  0.54336401404E+03 -0.21578723546E+03  0.10667485676E+04  0.25500000920E-02 0.  1.
       -2    1    3    3    0  502 -0.89226897494E+03 -0.54336401404E+03 -0.17954820014E+03  0.10600122318E+04  0.25500000920E-02 0. -1.
</event>
<event>
 5   0  0.3242231E-05  0.2104515E+04  0.7818609E-02  0.8559257E-01
       -2   -1    0    0    0  501  0.00000000000E+00  0.00000000000E+00  0.17950711956E+04  0.17950711957E+04  0.25500000920E-02 0. -1.
        2   -1    0    0  501    0  0.00000000000E+00  0.00000000000E+00 -0.61682578829E+03  0.61682578830E+03  0.25500000920E-02 0.  1.
    10030    2    1    2    0    0  0.00000000000E+00  0.00000000000E+00  0.11782454074E+04  0.24118969840E+04  0.21045153412E+04 0.  0.
        4    1    3    3  502    0  0.52254704845E+03 -0.86187918966E+03  0.24272970596E+03  0.10367306682E+04  0.12699999809E+01 0.  1.
       -4    1    3    3    0  502 -0.52254704845E+03  0.86187918966E+03  0.93551570139E+03  0.13751663157E+04  0.12699999809E+01 0. -1.
</event>
<event>
 5   0  0.1513292E-05  0.2101514E+04  0.7818609E-02  0.8560577E-01
       -1   -1    0    0    0  501  0.00000000000E+00  0.00000000000E+00  0.11465960213E+04  0.11465960213E+04  0.50400001928E-02 0. -1.
        1   -1    0    0  501    0  0.00000000000E+00  0.00000000000E+00 -0.96292860448E+03  0.96292860450E+03  0.50400001928E-02 0.  1.
    10030    2    1    2    0    0  0.00000000000E+00  0.00000000000E+00  0.18366741685E+03  0.21095246258E+04  0.21015138417E+04 0.  0.
        1    1    3    3  502    0  0.17429063816E+03 -0.13379104886E+03 -0.93961067039E+03  0.96495879873E+03  0.50400001928E-02 0.  1.
       -1    1    3    3    0  502 -0.17429063816E+03  0.13379104886E+03  0.11232780872E+04  0.11445658271E+04  0.50400001928E-02 0. -1.
</event>
<event>
 5   0  0.1513292E-05  0.2096939E+04  0.7818609E-02  0.8562593E-01
        1   -1    0    0  501    0  0.00000000000E+00  0.00000000000E+00  0.11647872281E+04  0.11647872281E+04  0.50400001928E-02 0. -1.
       -1   -1    0    0    0  501  0.00000000000E+00  0.00000000000E+00 -0.94376783321E+03  0.94376783322E+03  0.50400001928E-02 0.  1.
    10030    2    1    2    0    0  0.00000000000E+00  0.00000000000E+00  0.22101939486E+03  0.21085550613E+04  0.20969394063E+04 0.  0.
        1    1    3    3  502    0 -0.75335526041E+03  0.36354297007E+03  0.74613550610E+03  0.11209040249E+04  0.50400001928E-02 0. -1.
       -1    1    3    3    0  502  0.75335526041E+03 -0.36354297007E+03 -0.52511611123E+03  0.98765103644E+03  0.50400001928E-02 0.  1.
</event>
<event>
 5   0  0.1453430E-05  0.2100528E+04  0.7818609E-02  0.8561011E-01
        1   -1    0    0  501    0  0.00000000000E+00  0.00000000000E+00  0.17068982799E+04  0.17068982799E+04  0.50400001928E-02 0.  1.
       -1   -1    0    0    0  501  0.00000000000E+00  0.00000000000E+00 -0.64623312171E+03  0.64623312173E+03  0.50400001928E-02 0. -1.
    10030    2    1    2    0    0  0.00000000000E+00  0.00000000000E+00  0.10606651582E+04  0.23531314016E+04  0.21005277469E+04 0.  0.
        5    1    3    3  502    0  0.16590698824E+03  0.25918505446E+03  0.16552460588E+04  0.16836162348E+04  0.46999998093E+01 0.  1.
       -5    1    3    3    0  502 -0.16590698824E+03 -0.25918505446E+03 -0.59458090059E+03  0.66951516678E+03  0.46999998093E+01 0. -1.
</event>
<event>
 5   0  0.3130517E-05  0.2089691E+04  0.7818609E-02  0.8565798E-01
       -2   -1    0    0    0  501  0.00000000000E+00  0.00000000000E+00  0.76426792390E+03  0.76426792390E+03  0.25500000920E-02 0. -1.
        2   -1    0    0  501    0  0.00000000000E+00  0.00000000000E+00 -0.14284279781E+04  0.14284279781E+04  0.25500000920E-02 0.  1.
    10030    2    1    2    0    0  0.00000000000E+00  0.00000000000E+00 -0.66416005421E+03  0.21926959020E+04  0.20896905850E+04 0.  0.
        1    1    3    3  502    0  0.12311217440E+02 -0.36095108040E+03  0.69668894310E+03  0.78473736497E+03  0.50400001928E-02 0. -1.
       -1    1    3    3    0  502 -0.12311217440E+02  0.36095108040E+03 -0.13608489973E+04  0.14079585370E+04  0.50400001928E-02 0.  1.
</event>
<event>
 5   0  0.3242231E-05  0.2102462E+04  0.7818609E-02  0.8560160E-01
        2   -1    0    0  501    0  0.00000000000E+00  0.00000000000E+00  0.14450046809E+04  0.14450046809E+04  0.25500000920E-02 0.  1.
       -2   -1    0    0    0  501  0.00000000000E+00  0.00000000000E+00 -0.76476312222E+03  0.76476312223E+03  0.25500000920E-02 0. -1.
    10030    2    1    2    0    0  0.00000000000E+00  0.00000000000E+00  0.68024155870E+03  0.22097678031E+04  0.21024616918E+04 0.  0.
        4    1    3    3  502    0  0.74884713518E+03 -0.55484156572E+03 -0.17097299609E+03  0.94755188418E+03  0.12699999809E+01 0. -1.
       -4    1    3    3    0  502 -0.74884713518E+03  0.55484156572E+03  0.85121455478E+03  0.12622159190E+04  0.12699999809E+01 0.  1.
</event>
<event>
 5   0  0.1492552E-05  0.2102660E+04  0.7818609E-02  0.8560072E-01
       -1   -1    0    0    0  501  0.00000000000E+00  0.00000000000E+00  0.11517616106E+04  0.11517616106E+04  0.50400001928E-02 0. -1.
        1   -1    0    0  501    0  0.00000000000E+00  0.00000000000E+00 -0.95965613594E+03  0.95965613595E+03  0.50400001928E-02 0.  1.
    10030    2    1    2    0    0  0.00000000000E+00  0.00000000000E+00  0.19210547463E+03  0.21114177465E+04  0.21026603118E+04 0.  0.
        4    1    3    3  502    0  0.81688924586E+02  0.86589812050E+03  0.68914016390E+03  0.11096704078E+04  0.12699999809E+01 0. -1.
       -4    1    3    3    0  502 -0.81688924586E+02 -0.86589812050E+03 -0.49703468927E+03  0.10017473388E+04  0.12699999809E+01 0.  1.
</event>
<event>
 5   0  0.1453430E-05  0.2102200E+04  0.7818609E-02  0.8560275E-01
       -1   -1    0    0    0  501  0.00000000000E+00  0.00000000000E+00  0.10010064392E+04  0.10010064392E+04  0.50400001928E-02 0. -1.
        1   -1    0    0  501    0  0.00000000000E+00  0.00000000000E+00 -0.11036999520E+04  0.11036999520E+04  0.50400001928E-02 0.  1.
    10030    2    1    2    0    0  0.00000000000E+00  0.00000000000E+00 -0.10269351285E+03  0.21047063912E+04  0.21021995708E+04 0.  0.
        5    1    3    3  502    0 -0.65761227527E+03 -0.38081878793E+03  0.67568156296E+03  0.10168797954E+04  0.46999998093E+01 0. -1.
       -5    1    3    3    0  502  0.65761227527E+03  0.38081878793E+03 -0.77837507581E+03  0.10878265958E+04  0.46999998093E+01 0.  1.
</event>
<event>
 5   0  0.3130517E-05  0.2103255E+04  0.7818609E-02  0.8559811E-01
        2   -1    0    0  501    0  0.00000000000E+00  0.00000000000E+00  0.19548369388E+04  0.19548369388E+04  0.25500000920E-02 0.  1.
       -2   -1    0    0    0  501  0.00000000000E+00  0.00000000000E+00 -0.56573530301E+03  0.56573530302E+03  0.25500000920E-02 0. -1.
    10030    2    1    2    0    0  0.00000000000E+00  0.00000000000E+00  0.13891016358E+04  0.25205722418E+04  0.21032548756E+04 0.  0.
        1    1    3    3  502    0 -0.10032327776E+04  0.17049848420E+03  0.10124687281E+04  0.14354924815E+04  0.50400001928E-02 0. -1.
       -1    1    3    3    0  502  0.10032327776E+04 -0.17049848420E+03  0.37663290771E+03  0.10850797603E+04  0.50400001928E-02 0.  1.
</event>
<event>
 5   0  0.1466480E-05  0.2085317E+04  0.7818609E-02  0.8567739E-01
       -1   -1    0    0    0  501  0.00000000000E+00  0.00000000000E+00  0.62492047430E+03  0.62492047432E+03  0.50400001928E-02 0.  1.
        1   -1    0    0  501    0  0.00000000000E+00  0.00000000000E+00 -0.17396400581E+04  0.17396400581E+04  0.50400001928E-02 0. -1.
    10030    2    1    2    0    0  0.00000000000E+00  0.00000000000E+00 -0.11147195838E+04  0.23645605325E+04  0.20853169450E+04 0.  0.
        3    1    3    3  502    0 -0.78611435145E+03 -0.59460504279E+03 -0.94289858293E+03  0.13640339726E+04  0.10100000352E+00 0. -1.
       -3    1    3    3    0  502  0.78611435145E+03  0.59460504279E+03 -0.17182100090E+03  0.10005265599E+04  0.10100000352E+00 0.  1.
</event>
<event>
 5   0  0.3279789E-05  0.2093329E+04  0.7818609E-02  0.8564188E-01
        2   -1    0    0  501    0  0.00000000000E+00  0.00000000000E+00  0.87381163929E+03  0.87381163929E+03  0.25500000920E-02 0. -1.
       -2   -1    0    0    0  501  0.00000000000E+00  0.00000000000E+00 -0.12537101392E+04  0.12537101392E+04  0.25500000920E-02 0.  1.
    10030    2    1    2    0    0  0.00000000000E+00  0.00000000000E+00 -0.37989849994E+03  0.21275217785E+04  0.20933289392E+04 0.  0.
        2    1    3    3  502    0  0.90241174184E+03 -0.41709701428E+03 -0.52269532771E+03  0.11231773131E+04  0.25500000920E-02 0.  1.
       -2    1    3    3    0  502 -0.90241174184E+03  0.41709701428E+03  0.14279682777E+03  0.10043444654E+04  0.25500000920E-02 0. -1.
</event>
<event>
 5   0  0.3279789E-05  0.2121939E+04  0.7818609E-02  0.8551640E-01
        2   -1    0    0  501    0  0.00000000000E+00  0.00000000000E+00  0.23135989175E+04  0.23135989175E+04  0.25500000920E-02 0. -1.
       -2   -1    0    0    0  501  0.00000000000E+00  0.00000000000E+00 -0.48653902292E+03  0.48653902292E+03  0.25500000920E-02 0.  1.
    10030    2    1    2    0    0  0.00000000000E+00  0.00000000000E+00  0.18270598945E+04  0.28001379404E+04  0.21219388839E+04 0.  0.
        2    1    3    3  502    0 -0.40969823541E+03 -0.27343697051E+02 -0.37743720641E+03  0.55772678496E+03  0.25500000920E-02 0.  1.
       -2    1    3    3    0  502  0.40969823541E+03  0.27343697051E+02  0.22044971010E+04  0.22424111554E+04  0.25500000920E-02 0. -1.
</event>
<event>
 5   0  0.3242231E-05  0.2104701E+04  0.7818609E-02  0.8559175E-01
       -2   -1    0    0    0  501  0.00000000000E+00  0.00000000000E+00  0.13708887999E+04  0.13708887999E+04  0.25500000920E-02 0.  1.
        2   -1    0    0  501    0  0.00000000000E+00  0.00000000000E+00 -0.80782772734E+03  0.80782772734E+03  0.25500000920E-02 0. -1.
    10030    2    1    2    0    0  0.00000000000E+00  0.00000000000E+00  0.56306107261E+03  0.21787165273E+04  0.21047013885E+04 0.  0.
        4    1    3    3  502    0 -0.27387658884E+03 -0.60630079829E+03 -0.56251519525E+03  0.87122557452E+03  0.12699999809E+01 0. -1.
       -4    1    3    3    0  502  0.27387658884E+03  0.60630079829E+03  0.11255762679E+04  0.13074909528E+04  0.12699999809E+01 0.  1.
</event>
<event>
 5   0  0.3108326E-05  0.2137770E+04  0.7818609E-02  0.8544785E-01
       -2   -1    0    0    0  501  0.00000000000E+00  0.00000000000E+00  0.67572802716E+03  0.67572802717E+03  0.25500000920E-02 0.  1.
        2   -1    0    0  501    0  0.00000000000E+00  0.00000000000E+00 -0.16907915076E+04  0.16907915076E+04  0.25500000920E-02 0. -1.
    10030    2    1    2    0    0  0.00000000000E+00  0.00000000000E+00 -0.10150634804E+04  0.23665195347E+04  0.21377700622E+04 0.  0.
        5    1    3    3  502    0  0.26990598079E+03  0.10238550481E+04 -0.66933889543E+03  0.12526631810E+04  0.46999998093E+01 0. -1.
       -5    1    3    3    0  502 -0.26990598079E+03 -0.10238550481E+04 -0.34572458495E+03  0.11138563537E+04  0.46999998093E+01 0.  1.
</event>
<event>
 5   0  0.3130517E-05  0.2099046E+04  0.7818609E-02  0.8561664E-01
        2   -1    0    0  501    0  0.00000000000E+00  0.00000000000E+00  0.16384779796E+04  0.16384779796E+04  0.25500000920E-02 0. -1.
       -2   -1    0    0    0  501  0.00000000000E+00  0.00000000000E+00 -0.67226939464E+03  0.67226939465E+03  0.25500000920E-02 0.  1.
    10030    2    1    2    0    0  0.00000000000E+00  0.00000000000E+00  0.96620858499E+03  0.23107473743E+04  0.20990460686E+04 0.  0.
        1    1    3    3  502    0  0.90341873313E+03 -0.15035195005E+02 -0.10470241957E+03  0.90959005115E+03  0.50400001928E-02 0.  1.
       -1    1    3    3    0  502 -0.90341873313E+03  0.15035195005E+02  0.10709110046E+04  0.14011573231E+04  0.50400001928E-02 0. -1.
</event>
<event>
 5   0  0.3108326E-05  0.2097488E+04  0.7818609E-02  0.8562351E-01
        2   -1    0    0  501    0  0.00000000000E+00  0.00000000000E+00  0.17235392642E+04  0.17235392642E+04  0.25500000920E-02 0. -1.
       -2   -1    0    0    0  501  0.00000000000E+00  0.00000000000E+00 -0.63814239069E+03  0.63814239069E+03  0.25500000920E-02 0.  1.
    10030    2    1    2    0    0  0.00000000000E+00  0.00000000000E+00  0.10853968735E+04  0.23616816549E+04  0.20974875127E+04 0.  0.
        5    1    3    3  502    0 -0.36496177279E+03  0.71938643169E+03  0.12972810051E+04  0.15276367467E+04  0.46999998093E+01 0. -1.
       -5    1    3    3    0  502  0.36496177279E+03 -0.71938643169E+03 -0.21188413156E+03  0.83404490821E+03  0.46999998093E+01 0.  1.
</event>
<event>
 5   0  0.1492552E-05  0.2101968E+04  0.7818609E-02  0.8560377E-01
        1   -1    0    0  501    0  0.00000000000E+00  0.00000000000E+00  0.13837947542E+04  0.13837947542E+04  0.50400001928E-02 0. -1.
       -1   -1    0    0    0  501  0.00000000000E+00  0.00000000000E+00 -0.79821604069E+03  0.79821604070E+03  0.50400001928E-02 0.  1.
    10030    2    1    2    0    0  0.00000000000E+00  0.00000000000E+00  0.58557871347E+03  0.21820107949E+04  0.21019678112E+04 0.  0.
        4    1    3    3  502    0 -0.63863341708E+02 -0.16183159738E+03  0.13687419318E+04  0.13797550801E+04  0.12699999809E+01 0. -1.
       -4    1    3    3    0  502  0.63863341708E+02  0.16183159738E+03 -0.78316321836E+03  0.80225571473E+03  0.12699999809E+01 0.  1.
</event>
<event>
 5   0  0.1453430E-05  0.2097712E+04  0.7818609E-02  0.8562252E-01
       -1   -1    0    0    0  501  0.00000000000E+00  0.00000000000E+00  0.86589134252E+03  0.86589134254E+03  0.50400001928E-02 0.  1.
        1   -1    0    0  501    0  0.00000000000E+00  0.00000000000E+00 -0.12704817627E+04  0.12704817627E+04  0.50400001928E-02 0. -1.
    10030    2    1    2    0    0  0.00000000000E+00  0.00000000000E+00 -0.40459042020E+03  0.21363731053E+04  0.20977122388E+04 0.  0.
        5    1    3    3  502    0 -0.76717875815E+03 -0.58823076399E+03 -0.61660774916E+03  0.11466498528E+04  0.46999998093E+01 0. -1.
       -5    1    3    3    0  502  0.76717875815E+03  0.58823076399E+03  0.21201732896E+03  0.98972325245E+03  0.46999998093E+01 0.  1.
</event>
<event>
 5   0  0.3242231E-05  0.2097306E+04  0.7818609E-02  0.8562431E-01
       -2   -1    0    0    0  501  0.00000000000E+00  0.00000000000E+00  0.49251211544E+03  0.49251211545E+03  0.25500000920E-02 0. -1.
        2   -1    0    0  501    0  0.00000000000E+00  0.00000000000E+00 -0.22327843321E+04  0.22327843321E+04  0.25500000920E-02 0.  1.
    10030    2    1    2    0    0  0.00000000000E+00  0.00000000000E+00 -0.17402722167E+04  0.27252964476E+04  0.20973062101E+04 0.  0.
        4    1    3    3  502    0 -0.20469569042E+03  0.35422453655E+03  0.38453213227E+03  0.56146408756E+03  0.12699999809E+01 0. -1.
       -4    1    3    3    0  502  0.20469569042E+03 -0.35422453655E+03 -0.21248043490E+04  0.21638323600E+04  0.12699999809E+01 0.  1.
</event>
<event>
 5   0  0.3279789E-05  0.2097839E+04  0.7818609E-02  0.8562196E-01
        2   -1    0    0  501    0  0.00000000000E+00  0.00000000000E+00  0.13471409583E+04  0.13471409583E+04  0.25500000920E-02 0.  1.
       -2   -1    0    0    0  501  0.00000000000E+00  0.00000000000E+00 -0.81671670039E+03  0.81671670039E+03  0.25500000920E-02 0. -1.
    10030    2    1    2    0    0  0.00000000000E+00  0.00000000000E+00  0.53042425790E+03  0.21638576587E+04  0.20978393822E+04 0.  0.
        2    1    3    3  502    0  0.23869096511E+03  0.95890582373E+03 -0.97652331239E+02  0.99298022811E+03  0.25500000920E-02 0.  1.
       -2    1    3    3    0  502 -0.23869096511E+03 -0.95890582373E+03  0.62807658914E+03  0.11708774306E+04  0.25500000920E-02 0. -1.
</event>
<event>
 5   0  0.1453430E-05  0.2099067E+04  0.7818609E-02  0.8561654E-01
       -1   -1    0    0    0  501  0.00000000000E+00  0.00000000000E+00  0.58927150385E+03  0.58927150387E+03  0.50400001928E-02 0.  1.
        1   -1    0    0  501    0  0.00000000000E+00  0.00000000000E+00 -0.18692924437E+04  0.18692924437E+04  0.50400001928E-02 0. -1.
    10030    2    1    2    0    0  0.00000000000E+00  0.00000000000E+00 -0.12800209398E+04  0.24585639476E+04  0.20990671923E+04 0.  0.
        5    1    3    3  502    0 -0.21158994999E+03 -0.31781462120E+03  0.50503046788E+03  0.63313055832E+03  0.46999998093E+01 0.  1.
       -5    1    3    3    0  502  0.21158994999E+03  0.31781462120E+03 -0.17850514077E+04  0.18254333892E+04  0.46999998093E+01 0. -1.
</event>
<event>
 5   0  0.1435410E-05  0.2099747E+04  0.7818609E-02  0.8561355E-01
        1   -1    0    0  501    0  0.00000000000E+00  0.00000000000E+00  0.84747605655E+03  0.84747605657E+03  0.50400001928E-02 0. -1.
       -1   -1    0    0    0  501  0.00000000000E+00  0.00000000000E+00 -0.13006084720E+04  0.13006084720E+04  0.50400001928E-02 0.  1.
    10030    2    1    2    0    0  0.00000000000E+00  0.00000000000E+00 -0.45313241547E+03  0.21480845286E+04  0.20997471648E+04 0.  0.
        2    1    3    3  502    0  0.96367355070E+03 -0.74657026758E+02 -0.64587256746E+03  0.11624937666E+04  0.25500000920E-02 0.  1.
       -2    1    3    3    0  502 -0.96367355070E+03  0.74657026758E+02  0.19274015199E+03  0.98559076201E+03  0.25500000920E-02 0. -1.
</event>
<event>
 5   0  0.3108326E-05  0.2098478E+04  0.7818609E-02  0.8561914E-01
        2   -1    0    0  501    0  0.00000000000E+00  0.00000000000E+00  0.18708475038E+04  0.18708475038E+04  0.25500000920E-02 0. -1.
       -2   -1    0    0    0  501  0.00000000000E+00  0.00000000000E+00 -0.58845125565E+03  0.58845125566E+03  0.25500000920E-02 0.  1.
    10030    2    1    2    0    0  0.00000000000E+00  0.00000000000E+00  0.12823962481E+04  0.24592987595E+04  0.20984780797E+04 0.  0.
        5    1    3    3  502    0  0.87405916322E+03 -0.60268808741E+02 -0.35358471410E+02  0.87686034327E+03  0.46999998093E+01 0.  1.
       -5    1    3    3    0  502 -0.87405916322E+03  0.60268808741E+02  0.13177547196E+04  0.15824384162E+04  0.46999998093E+01 0. -1.
</event>
<event>
 5   0  0.1435410E-05  0.2100765E+04  0.7818609E-02  0.8560907E-01
        1   -1    0    0  501    0  0.00000000000E+00  0.00000000000E+00  0.15415711833E+04  0.15415711833E+04  0.50400001928E-02 0.  1.
       -1   -1    0    0    0  501  0.00000000000E+00  0.00000000000E+00 -0.71570024412E+03  0.71570024414E+03  0.50400001928E-02 0. -1.
    10030    2    1    2    0    0  0.00000000000E+00  0.00000000000E+00  0.82587093920E+03  0.22572714275E+04  0.21007645011E+04 0.  0.
        2    1    3    3  502    0 -0.91756550657E+03  0.14567490430E+03 -0.11363008211E+03  0.93598046569E+03  0.25500000920E-02 0. -1.
       -2    1    3    3    0  502  0.91756550657E+03 -0.14567490430E+03  0.93950102131E+03  0.13212909618E+04  0.25500000920E-02 0.  1.
</event>
<event>
 5   0  0.1466480E-05  0.2100517E+04  0.7818609E-02  0.8561016E-01
        1   -1    0    0  501    0  0.00000000000E+00  0.00000000000E+00  0.27019586640E+04  0.27019586640E+04  0.50400001928E-02 0.  1.
       -1   -1    0    0    0  501  0.00000000000E+00  0.00000000000E+00 -0.40823819224E+03  0.40823819227E+03  0.50400001928E-02 0. -1.
    10030    2    1    2    0    0  0.00000000000E+00  0.00000000000E+00  0.22937204717E+04  0.31101968562E+04  0.21005168131E+04 0.  0.
        3    1    3    3  502    0  0.98795492880E+03  0.16345901166E+03  0.67799839792E+03  0.12093203164E+04  0.10100000352E+00 0.  1.
       -3    1    3    3    0  502 -0.98795492880E+03 -0.16345901166E+03  0.16157220738E+04  0.19008765399E+04  0.10100000352E+00 0. -1.
</event>
<event>
 5   0  0.1513292E-05  0.2045498E+04  0.7818609E-02  0.8585639E-01
       -1   -1    0    0    0  501  0.00000000000E+00  0.00000000000E+00  0.92116969894E+03  0.92116969895E+03  0.50400001928E-02 0. -1.
        1   -1    0    0  501    0  0.00000000000E+00  0.00000000000E+00 -0.11355301418E+04  0.11355301418E+04  0.50400001928E-02 0.  1.
    10030    2    1    2    0    0  0.00000000000E+00  0.00000000000E+00 -0.21436044283E+03  0.20566998407E+04  0.20454984320E+04 0.  0.
        1    1    3    3  502    0  0.60426297721E+03  0.53940403519E+03 -0.73503988409E+03  0.10937888690E+04  0.50400001928E-02 0.  1.
       -1    1    3    3    0  502 -0.60426297721E+03 -0.53940403519E+03  0.52067944127E+03  0.96291097169E+03  0.50400001928E-02 0. -1.
</event>
<event>
 5   0  0.3130517E-05  0.2049210E+04  0.7818609E-02  0.8583953E-01
        2   -1    0    0  501    0  0.00000000000E+00  0.00000000000E+00  0.24943026958E+04  0.24943026958E+04  0.25500000920E-02 0. -1.
       -2   -1    0    0    0  501  0.00000000000E+00  0.00000000000E+00 -0.42088528181E+03  0.42088528182E+03  0.25500000920E-02 0.  1.
    10030    2    1    2    0    0  0.00000000000E+00  0.00000000000E+00  0.20734174140E+04  0.29151879776E+04  0.20492098897E+04 0.  0.
        1    1    3    3  502    0 -0.17980591425E+03  0.98109901994E+03  0.70329435882E+03  0.12204541814E+04  0.50400001928E-02 0.  1.
       -1    1    3    3    0  502  0.17980591425E+03 -0.98109901994E+03  0.13701230552E+04  0.16947337962E+04  0.50400001928E-02 0. -1.
</event>
<event>
 5   0  0.3257130E-05  0.2092701E+04  0.7818609E-02  0.8564465E-01
        2   -1    0    0  501    0  0.00000000000E+00  0.00000000000E+00  0.94982195076E+03  0.94982195076E+03  0.25500000920E-02 0. -1.
       -2   -1    0    0    0  501  0.00000000000E+00  0.00000000000E+00 -0.11526890231E+04  0.11526890231E+04  0.25500000920E-02 0.  1.
    10030    2    1    2    0    0  0.00000000000E+00  0.00000000000E+00 -0.20286707237E+03  0.21025109739E+04  0.20927009691E+04 0.  0.
        3    1    3    3  502    0  0.16305770885E+02 -0.10409451980E+04  0.40182070117E+01  0.10410806595E+04  0.10100000352E+00 0. -1.
       -3    1    3    3    0  502 -0.16305770885E+02  0.10409451980E+04 -0.20688527939E+03  0.10614303144E+04  0.10100000352E+00 0.  1.
</event>
<event>
 5   0  0.3108326E-05  0.2103240E+04  0.7818609E-02  0.8559817E-01
       -2   -1    0    0    0  501  0.00000000000E+00  0.00000000000E+00  0.15150562836E+04  0.15150562836E+04  0.25500000920E-02 0.  1.
        2   -1    0    0  501    0  0.00000000000E+00  0.00000000000E+00 -0.72994303606E+03  0.72994303607E+03  0.25500000920E-02 0. -1.
    10030    2    1    2    0    0  0.00000000000E+00  0.00000000000E+00  0.78511324757E+03  0.22449993197E+04  0.21032401513E+04 0.  0.
        5    1    3    3  502    0 -0.63615234243E+03 -0.22334485244E+03  0.12539890432E+04  0.14237567687E+04  0.46999998093E+01 0.  1.
       -5    1    3    3    0  502  0.63615234243E+03  0.22334485244E+03 -0.46887579563E+03  0.82124255103E+03  0.46999998093E+01 0. -1.
</event>
<event>
 5   0  0.3242231E-05  0.2096285E+04  0.7818609E-02  0.8562882E-01
        2   -1    0    0  501    0  0.00000000000E+00  0.00000000000E+00  0.14010356206E+04  0.14010356206E+04  0.25500000920E-02 0. -1.
       -2   -1    0    0    0  501  0.00000000000E+00  0.00000000000E+00 -0.78413590209E+03  0.78413590209E+03  0.25500000920E-02 0.  1.
    10030    2    1    2    0    0  0.00000000000E+00  0.00000000000E+00  0.61689971851E+03  0.21851715227E+04  0.20962846469E+04 0.  0.
        4    1    3    3  502    0 -0.29725935816E+03 -0.88173130090E+03 -0.19448890537E+03  0.95060021051E+03  0.12699999809E+01 0.  1.
       -4    1    3    3    0  502  0.29725935816E+03  0.88173130090E+03  0.81138862388E+03  0.12345713122E+04  0.12699999809E+01 0. -1.
</event>
<event>
 5   0  0.3130517E-05  0.2112638E+04  0.7818609E-02  0.8555696E-01
       -2   -1    0    0    0  501  0.00000000000E+00  0.00000000000E+00  0.97234825116E+03  0.97234825116E+03  0.25500000920E-02 0. -1.
        2   -1    0    0  501    0  0.00000000000E+00  0.00000000000E+00 -0.11475416283E+04  0.11475416283E+04  0.25500000920E-02 0.  1.
    10030    2    1    2    0    0  0.00000000000E+00  0.00000000000E+00 -0.17519337717E+03  0.21198898795E+04  0.21126382515E+04 0.  0.
        1    1    3    3  502    0 -0.43159173036E+03  0.85749992771E+02  0.87600451494E+03  0.98031035555E+03  0.50400001928E-02 0. -1.
       -1    1    3    3    0  502  0.43159173036E+03 -0.85749992771E+02 -0.10511978921E+04  0.11395795239E+04  0.50400001928E-02 0.  1.
</event>
<event>
 5   0  0.1435410E-05  0.2079544E+04  0.7818609E-02  0.8570308E-01
        1   -1    0    0  501    0  0.00000000000E+00  0.00000000000E+00  0.90649261978E+03  0.90649261980E+03  0.50400001928E-02 0.  1.
       -1   -1    0    0    0  501  0.00000000000E+00  0.00000000000E+00 -0.11926471704E+04  0.11926471704E+04  0.50400001928E-02 0. -1.
    10030    2    1    2    0    0  0.00000000000E+00  0.00000000000E+00 -0.28615455060E+03  0.20991397902E+04  0.20795440442E+04 0.  0.
        2    1    3    3  502    0 -0.20816679535E+03  0.44652911811E+03  0.78119506793E+03  0.92357317099E+03  0.25500000920E-02 0.  1.
       -2    1    3    3    0  502  0.20816679535E+03 -0.44652911811E+03 -0.10673496185E+04  0.11755666192E+04  0.25500000920E-02 0. -1.
</event>
<event>
 5   0  0.1466480E-05  0.2099171E+04  0.7818609E-02  0.8561609E-01
       -1   -1    0    0    0  501  0.00000000000E+00  0.00000000000E+00  0.12243357681E+04  0.12243357681E+04  0.50400001928E-02 0. -1.
        1   -1    0    0  501    0  0.00000000000E+00  0.00000000000E+00 -0.89977770481E+03  0.89977770482E+03  0.50400001928E-02 0.  1.
    10030    2    1    2    0    0  0.00000000000E+00  0.00000000000E+00  0.32455806333E+03  0.21241134730E+04  0.20991712911E+04 0.  0.
        3    1    3    3  502    0  0.30852682798E+03 -0.79821515683E+03 -0.45263702025E+03  0.96809943832E+03  0.10100000352E+00 0.  1.
       -3    1    3    3    0  502 -0.30852682798E+03  0.79821515683E+03  0.77719508358E+03  0.11560140346E+04  0.10100000352E+00 0. -1.
</event>
<event>
 5   0  0.3257130E-05  0.2103144E+04  0.7818609E-02  0.8559860E-01
       -2   -1    0    0    0  501  0.00000000000E+00  0.00000000000E+00  0.11480955386E+04  0.11480955386E+04  0.25500000920E-02 0. -1.
        2   -1    0    0  501    0  0.00000000000E+00  0.00000000000E+00 -0.96316347337E+03  0.96316347337E+03  0.25500000920E-02 0.  1.
    10030    2    1    2    0    0  0.00000000000E+00  0.00000000000E+00  0.18493206522E+03  0.21112590120E+04  0.21031440148E+04 0.  0.
        3    1    3    3  502    0  0.10211853222E+03 -0.49847801745E+03  0.10162859606E+04  0.11365499076E+04  0.10100000352E+00 0. -1.
       -3    1    3    3    0  502 -0.10211853222E+03  0.49847801745E+03 -0.83135389541E+03  0.97470910436E+03  0.10100000352E+00 0.  1.
</event>
<event>
 5   0  0.3257130E-05  0.2105575E+04  0.7818609E-02  0.8558792E-01
        2   -1    0    0  501    0  0.00000000000E+00  0.00000000000E+00  0.14206046005E+04  0.14206046005E+04  0.25500000920E-02 0. -1.
       -2   -1    0    0    0  501  0.00000000000E+00  0.00000000000E+00 -0.78020398558E+03  0.78020398559E+03  0.25500000920E-02 0.  1.
    10030    2    1    2    0    0  0.00000000000E+00  0.00000000000E+00  0.64040061491E+03  0.22008085861E+04  0.21055748586E+04 0.  0.
        3    1    3    3  502    0  0.66434811755E+03  0.81548124272E+03  0.27353479757E+03  0.10868253651E+04  0.10100000352E+00 0.  1.
       -3    1    3    3    0  502 -0.66434811755E+03 -0.81548124272E+03  0.36686581734E+03  0.11139832210E+04  0.10100000352E+00 0. -1.
</event>
<event>
 5   0  0.1435410E-05  0.2088817E+04  0.7818609E-02  0.8566186E-01
        1   -1    0    0  501    0  0.00000000000E+00  0.00000000000E+00  0.98338805683E+03  0.98338805685E+03  0.50400001928E-02 0. -1.
       -1   -1    0    0    0  501  0.00000000000E+00  0.00000000000E+00 -0.11092156112E+04  0.11092156112E+04  0.50400001928E-02 0.  1.
    10030    2    1    2    0    0  0.00000000000E+00  0.00000000000E+00 -0.12582755435E+03  0.20926036680E+04  0.20888172582E+04 0.  0.
        2    1    3    3  502    0  0.76750357977E+03 -0.53811466086E+03 -0.52435729098E+03  0.10740482772E+04  0.25500000920E-02 0.  1.
       -2    1    3    3    0  502 -0.76750357977E+03  0.53811466086E+03  0.39852973662E+03  0.10185553908E+04  0.25500000920E-02 0. -1.
</event>
<event>
 5   0  0.1513292E-05  0.2099714E+04  0.7818609E-02  0.8561370E-01
       -1   -1    0    0    0  501  0.00000000000E+00  0.00000000000E+00  0.56367782273E+03  0.56367782275E+03  0.50400001928E-02 0. -1.
        1   -1    0    0  501    0  0.00000000000E+00  0.00000000000E+00 -0.19553710911E+04  0.19553710911E+04  0.50400001928E-02 0.  1.
    10030    2    1    2    0    0  0.00000000000E+00  0.00000000000E+00 -0.13916932683E+04  0.25190489138E+04  0.20997136179E+04 0.  0.
        1    1    3    3  502    0 -0.17140576232E+03  0.78488902358E+03  0.11497375001E+03  0.81157234915E+03  0.50400001928E-02 0. -1.
       -1    1    3    3    0  502  0.17140576232E+03 -0.78488902358E+03 -0.15066670184E+04  0.17074765647E+04  0.50400001928E-02 0.  1.
</event>
<event>
 5   0  0.3108326E-05  0.2097355E+04  0.7818609E-02  0.8562410E-01
        2   -1    0    0  501    0  0.00000000000E+00  0.00000000000E+00  0.16049769593E+04  0.16049769593E+04  0.25500000920E-02 0.  1.
       -2   -1    0    0    0  501  0.00000000000E+00  0.00000000000E+00 -0.68519612251E+03  0.68519612251E+03  0.25500000920E-02 0. -1.
    10030    2    1    2    0    0  0.00000000000E+00  0.00000000000E+00  0.91978083681E+03  0.22901730818E+04  0.20973545139E+04 0.  0.
        5    1    3    3  502    0 -0.62829602312E+03 -0.70805465239E+03 -0.32818326424E+02  0.94720452701E+03  0.46999998093E+01 0. -1.
       -5    1    3    3    0  502  0.62829602312E+03  0.70805465239E+03  0.95259916323E+03  0.13429685548E+04  0.46999998093E+01 0.  1.
</event>
<event>
 5   0  0.1492552E-05  0.2094699E+04  0.7818609E-02  0.8563582E-01
        1   -1    0    0  501    0  0.00000000000E+00  0.00000000000E+00  0.18295906378E+04  0.18295906378E+04  0.50400001928E-02 0.  1.
       -1   -1    0    0    0  501  0.00000000000E+00  0.00000000000E+00 -0.59955531535E+03  0.59955531538E+03  0.50400001928E-02 0. -1.
    10030    2    1    2    0    0  0.00000000000E+00  0.00000000000E+00  0.12300353225E+04  0.24291459532E+04  0.20946988250E+04 0.  0.
        4    1    3    3  502    0 -0.20051719115E+03 -0.19033693568E+02 -0.57688283231E+03  0.61103587501E+03  0.12699999809E+01 0. -1.
       -4    1    3    3    0  502  0.20051719115E+03  0.19033693568E+02  0.18069181548E+04  0.18181100782E+04  0.12699999809E+01 0.  1.
</event>
<event>
 5   0  0.1513292E-05  0.2071987E+04  0.7818609E-02  0.8573685E-01
        1   -1    0    0  501    0  0.00000000000E+00  0.00000000000E+00  0.10934423700E+04  0.10934423700E+04  0.50400001928E-02 0.  1.
       -1   -1    0    0    0  501  0.00000000000E+00  0.00000000000E+00 -0.98156271443E+03  0.98156271444E+03  0.50400001928E-02 0. -1.
    10030    2    1    2    0    0  0.00000000000E+00  0.00000000000E+00  0.11187965557E+03  0.20750050845E+04  0.20719867382E+04 0.  0.
        1    1    3    3  502    0 -0.91655448237E+03 -0.11612140915E+03 -0.41349237551E+03  0.10121918027E+04  0.50400001928E-02 0. -1.
       -1    1    3    3    0  502  0.91655448237E+03  0.11612140915E+03  0.52537203108E+03  0.10628132818E+04  0.50400001928E-02 0.  1.
</event>
<event>
 5   0  0.3242231E-05  0.2101551E+04  0.7818609E-02  0.8560560E-01
        2   -1    0    0  501    0  0.00000000000E+00  0.00000000000E+00  0.64928043472E+03  0.64928043473E+03  0.25500000920E-02 0. -1.
       -2   -1    0    0    0  501  0.00000000000E+00  0.00000000000E+00 -0.17005427178E+04  0.17005427178E+04  0.25500000920E-02 0.  1.
    10030    2    1    2    0    0  0.00000000000E+00  0.00000000000E+00 -0.10512622831E+04  0.23498231526E+04  0.21015509655E+04 0.  0.
        4    1    3    3  502    0 -0.34047168933E+03 -0.87659832219E+03 -0.14381309213E+01  0.94039846386E+03  0.12699999809E+01 0. -1.
       -4    1    3    3    0  502  0.34047168933E+03  0.87659832219E+03 -0.10498241522E+04  0.14094246887E+04  0.12699999809E+01 0.  1.
</event>
<event>
 5   0  0.1466480E-05  0.2099566E+04  0.7818609E-02  0.8561435E-01
       -1   -1    0    0    0  501  0.00000000000E+00  0.00000000000E+00  0.59038945460E+03  0.59038945462E+03  0.50400001928E-02 0. -1.
        1   -1    0    0  501    0  0.00000000000E+00  0.00000000000E+00 -0.18666398879E+04  0.18666398879E+04  0.50400001928E-02 0.  1.
    10030    2    1    2    0    0  0.00000000000E+00  0.00000000000E+00 -0.12762504333E+04  0.24570293426E+04  0.20995661508E+04 0.  0.
        3    1    3    3  502    0  0.89595157254E+03 -0.47325665803E+03 -0.31690459516E+03  0.10616636084E+04  0.10100000352E+00 0. -1.
       -3    1    3    3    0  502 -0.89595157254E+03  0.47325665803E+03 -0.95934583817E+03  0.13953657342E+04  0.10100000352E+00 0.  1.
</event>
<event>
 5   0  0.1513292E-05  0.2085277E+04  0.7818609E-02  0.8567757E-01
       -1   -1    0    0    0  501  0.00000000000E+00  0.00000000000E+00  0.50857227071E+03  0.50857227074E+03  0.50400001928E-02 0. -1.
        1   -1    0    0  501    0  0.00000000000E+00  0.00000000000E+00 -0.21375435171E+04  0.21375435171E+04  0.50400001928E-02 0.  1.
    10030    2    1    2    0    0  0.00000000000E+00  0.00000000000E+00 -0.16289712464E+04  0.26461157879E+04  0.20852773056E+04 0.  0.
        1    1    3    3  502    0  0.74117981618E+02  0.10324255265E+04 -0.65548940477E+03  0.12251784779E+04  0.50400001928E-02 0. -1.
       -1    1    3    3    0  502 -0.74117981618E+02 -0.10324255265E+04 -0.97348184163E+03  0.14209373100E+04  0.50400001928E-02 0.  1.
</event>
<event>
 5   0  0.1513292E-05  0.2099720E+04  0.7818609E-02  0.8561367E-01
       -1   -1    0    0    0  501  0.00000000000E+00  0.00000000000E+00  0.10004141284E+04  0.10004141284E+04  0.50400001928E-02 0.  1.
        1   -1    0    0  501    0  0.00000000000E+00  0.00000000000E+00 -0.11017493549E+04  0.11017493550E+04  0.50400001928E-02 0. -1.
    10030    2    1    2    0    0  0.00000000000E+00  0.00000000000E+00 -0.10133522654E+03  0.21021634834E+04  0.20997196200E+04 0.  0.
        1    1    3    3  502    0  0.31302175445E+03  0.28756615728E+03 -0.10117477815E+04  0.10974108104E+04  0.50400001928E-02 0. -1.
       -1    1    3    3    0  502 -0.31302175445E+03 -0.28756615728E+03  0.91041255492E+03  0.10047526729E+04  0.50400001928E-02 0.  1.
</event>
<event>
 5   0  0.1453430E-05  0.2097351E+04  0.7818609E-02  0.8562411E-01
       -1   -1    0    0    0  501  0.00000000000E+00  0.00000000000E+00  0.86587140762E+03  0.86587140764E+03  0.50400001928E-02 0. -1.
        1   -1    0    0  501    0  0.00000000000E+00  0.00000000000E+00 -0.12700731373E+04  0.12700731373E+04  0.50400001928E-02 0.  1.
    10030    2    1    2    0    0  0.00000000000E+00  0.00000000000E+00 -0.40420172970E+03  0.21359445450E+04  0.20973507243E+04 0.  0.
        5    1    3    3  502    0 -0.96404570170E+03  0.77913923123E+02 -0.61482764786E+03  0.11460758356E+04  0.46999998093E+01 0.  1.
       -5    1    3    3    0  502  0.96404570170E+03 -0.77913923123E+02  0.21062591816E+03  0.98986870937E+03  0.46999998093E+01 0. -1.
</event>
<event>
 5   0  0.1453430E-05  0.2092485E+04  0.7818609E-02  0.8564561E-01
       -1   -1    0    0    0  501  0.00000000000E+00  0.00000000000E+00  0.76574625670E+03  0.76574625671E+03  0.50400001928E-02 0.  1.
        1   -1    0    0  501    0  0.00000000000E+00  0.00000000000E+00 -0.14294853867E+04  0.14294853867E+04  0.50400001928E-02 0. -1.
    10030    2    1    2    0    0  0.00000000000E+00  0.00000000000E+00 -0.66373912997E+03  0.21952316434E+04  0.20924847277E+04 0.  0.
        5    1    3    3  502    0  0.48121653343E+03  0.27220354063E+03  0.59996579174E+03  0.81587079911E+03  0.46999998093E+01 0.  1.
       -5    1    3    3    0  502 -0.48121653343E+03 -0.27220354063E+03 -0.12637049217E+04  0.13793608443E+04  0.46999998093E+01 0. -1.
</event>
<event>
 5   0  0.1435410E-05  0.2099855E+04  0.7818609E-02  0.8561307E-01
        1   -1    0    0  501    0  0.00000000000E+00  0.00000000000E+00  0.96815047383E+03  0.96815047385E+03  0.50400001928E-02 0.  1.
       -1   -1    0    0    0  501  0.00000000000E+00  0.00000000000E+00 -0.11386119017E+04  0.11386119017E+04  0.50400001928E-02 0. -1.
    10030    2    1    2    0    0  0.00000000000E+00  0.00000000000E+00 -0.17046142788E+03  0.21067623756E+04  0.20998549018E+04 0.  0.
        2    1    3    3  502    0  0.74063872832E+03  0.15771089792E+03 -0.81489827396E+03  0.11124197275E+04  0.25500000920E-02 0. -1.
       -2    1    3    3    0  502 -0.74063872832E+03 -0.15771089792E+03  0.64443684608E+03  0.99434264808E+03  0.25500000920E-02 0.  1.
</event>
<event>
 5   0  0.1435410E-05  0.2099656E+04  0.7818609E-02  0.8561395E-01
        1   -1    0    0  501    0  0.00000000000E+00  0.00000000000E+00  0.14549446296E+04  0.14549446296E+04  0.50400001928E-02 0.  1.
       -1   -1    0    0    0  501  0.00000000000E+00  0.00000000000E+00 -0.75751249167E+03  0.75751249169E+03  0.50400001928E-02 0. -1.
    10030    2    1    2    0    0  0.00000000000E+00  0.00000000000E+00  0.69743213790E+03  0.22124571213E+04  0.20996559067E+04 0.  0.
        2    1    3    3  502    0  0.54673699118E+02 -0.43863699925E+01 -0.75600165125E+03  0.75798875342E+03  0.25500000920E-02 0. -1.
       -2    1    3    3    0  502 -0.54673699118E+02  0.43863699925E+01  0.14534337891E+04  0.14544683678E+04  0.25500000920E-02 0.  1.
</event>
<event>
 5   0  0.1435410E-05  0.2091041E+04  0.7818609E-02  0.8565200E-01
       -1   -1    0    0    0  501  0.00000000000E+00  0.00000000000E+00  0.50374108201E+03  0.50374108203E+03  0.50400001928E-02 0. -1.
        1   -1    0    0  501    0  0.00000000000E+00  0.00000000000E+00 -0.21699904317E+04  0.21699904317E+04  0.50400001928E-02 0.  1.
    10030    2    1    2    0    0  0.00000000000E+00  0.00000000000E+00 -0.16662493497E+04  0.26737315138E+04  0.20910412029E+04 0.  0.
        2    1    3    3  502    0 -0.39710046223E+03 -0.62752746621E+03 -0.17741646999E+04  0.19233148157E+04  0.25500000920E-02 0.  1.
       -2    1    3    3    0  502  0.39710046223E+03  0.62752746621E+03  0.10791535015E+03  0.75041669808E+03  0.25500000920E-02 0. -1.
</event>
<event>
 5   0  0.3108326E-05  0.2096368E+04  0.7818609E-02  0.8562845E-01
        2   -1    0    0  501    0  0.00000000000E+00  0.00000000000E+00  0.21151248126E+04  0.21151248126E+04  0.25500000920E-02 0.  1.
       -2   -1    0    0    0  501  0.00000000000E+00  0.00000000000E+00 -0.51944430430E+03  0.51944430431E+03  0.25500000920E-02 0. -1.
    10030    2    1    2    0    0  0.00000000000E+00  0.00000000000E+00  0.15956805083E+04  0.26345691169E+04  0.20963678463E+04 0.  0.
        5    1    3    3  502    0 -0.69973055852E+03  0.65593848326E+03  0.26645087889E+03  0.99543774753E+03  0.46999998093E+01 0. -1.
       -5    1    3    3    0  502  0.69973055852E+03 -0.65593848326E+03  0.13292296294E+04  0.16391313693E+04  0.46999998093E+01 0.  1.
</event>
<event>
 5   0  0.1513292E-05  0.2115623E+04  0.7818609E-02  0.8554392E-01
       -1   -1    0    0    0  501  0.00000000000E+00  0.00000000000E+00  0.10886776971E+04  0.10886776972E+04  0.50400001928E-02 0.  1.
        1   -1    0    0  501    0  0.00000000000E+00  0.00000000000E+00 -0.10278202613E+04  0.10278202613E+04  0.50400001928E-02 0. -1.
    10030    2    1    2    0    0  0.00000000000E+00  0.00000000000E+00  0.60857435821E+02  0.21164979585E+04  0.21156228352E+04 0.  0.
        1    1    3    3  502    0 -0.28462424668E+03  0.43747427397E+03 -0.89004442247E+03  0.10317818452E+04  0.50400001928E-02 0. -1.
       -1    1    3    3    0  502  0.28462424668E+03 -0.43747427397E+03  0.95090185830E+03  0.10847161132E+04  0.50400001928E-02 0.  1.
</event>
<event>
 5   0  0.1129987E-05  0.2092019E+04  0.7818609E-02  0.8564767E-01
        3   -1    0    0  501    0  0.00000000000E+00  0.00000000000E+00  0.12085262073E+04  0.12085262115E+04  0.10100000352E+00 0.  1.
       -3   -1    0    0    0  501  0.00000000000E+00  0.00000000000E+00 -0.90534724001E+03  0.90534724565E+03  0.10100000352E+00 0. -1.
    10030    2    1    2    0    0  0.00000000000E+00  0.00000000000E+00  0.30317896731E+03  0.21138734572E+04  0.20920190025E+04 0.  0.
        1    1    3    3  502    0  0.29573159352E+03  0.52823771787E+03  0.10135209225E+04  0.11805578861E+04  0.50400001928E-02 0.  1.
       -1    1    3    3    0  502 -0.29573159352E+03 -0.52823771787E+03 -0.71034195519E+03  0.93331557113E+03  0.50400001928E-02 0. -1.
</event>
<event>
 5   0  0.3108326E-05  0.2112648E+04  0.7818609E-02  0.8555692E-01
       -2   -1    0    0    0  501  0.00000000000E+00  0.00000000000E+00  0.10520861377E+04  0.10520861377E+04  0.25500000920E-02 0. -1.
        2   -1    0    0  501    0  0.00000000000E+00  0.00000000000E+00 -0.10605786651E+04  0.10605786651E+04  0.25500000920E-02 0.  1.
    10030    2    1    2    0    0  0.00000000000E+00  0.00000000000E+00 -0.84925274213E+01  0.21126648027E+04  0.21126477335E+04 0.  0.
        5    1    3    3  502    0 -0.49529692216E+03  0.88738453529E+03  0.28390128272E+03  0.10551741007E+04  0.46999998093E+01 0. -1.
       -5    1    3    3    0  502  0.49529692216E+03 -0.88738453529E+03 -0.29239381014E+03  0.10574907020E+04  0.46999998093E+01 0.  1.
</event>
<event>
 5   0  0.1492552E-05  0.2123995E+04  0.7818609E-02  0.8550747E-01
       -1   -1    0    0    0  501  0.00000000000E+00  0.00000000000E+00  0.13472192503E+04  0.13472192503E+04  0.50400001928E-02 0. -1.
        1   -1    0    0  501    0  0.00000000000E+00  0.00000000000E+00 -0.83716018898E+03  0.83716018900E+03  0.50400001928E-02 0.  1.
    10030    2    1    2    0    0  0.00000000000E+00  0.00000000000E+00  0.51005906130E+03  0.21843794393E+04  0.21239946537E+04 0.  0.
        4    1    3    3  502    0  0.80092679354E+03  0.31744540084E+03 -0.38357603275E+03  0.94307343135E+03  0.12699999809E+01 0.  1.
       -4    1    3    3    0  502 -0.80092679354E+03 -0.31744540084E+03  0.89363509405E+03  0.12413060079E+04  0.12699999809E+01 0. -1.
</event>
<event>
 5   0  0.3242231E-05  0.2086001E+04  0.7818609E-02  0.8567435E-01
       -2   -1    0    0    0  501  0.00000000000E+00  0.00000000000E+00  0.73937469096E+03  0.73937469097E+03  0.25500000920E-02 0. -1.
        2   -1    0    0  501    0  0.00000000000E+00  0.00000000000E+00 -0.14713105814E+04  0.14713105814E+04  0.25500000920E-02 0.  1.
    10030    2    1    2    0    0  0.00000000000E+00  0.00000000000E+00 -0.73193589045E+03  0.22106852724E+04  0.20860007732E+04 0.  0.
        4    1    3    3  502    0  0.22877377974E+03  0.87929376812E+03  0.17685181998E+03  0.92562041469E+03  0.12699999809E+01 0. -1.
       -4    1    3    3    0  502 -0.22877377974E+03 -0.87929376812E+03 -0.90878771043E+03  0.12850648577E+04  0.12699999809E+01 0.  1.
</event>
<event>
 5   0  0.3130517E-05  0.2097140E+04  0.7818609E-02  0.8562504E-01
       -2   -1    0    0    0  501  0.00000000000E+00  0.00000000000E+00  0.84091710245E+03  0.84091710245E+03  0.25500000920E-02 0. -1.
        2   -1    0    0  501    0  0.00000000000E+00  0.00000000000E+00 -0.13075001466E+04  0.13075001467E+04  0.25500000920E-02 0.  1.
    10030    2    1    2    0    0  0.00000000000E+00  0.00000000000E+00 -0.46658304420E+03  0.21484172491E+04  0.20971401811E+04 0.  0.
        1    1    3    3  502    0 -0.74957834769E+03 -0.23502330049E+03  0.47823784704E+03  0.91968205890E+03  0.50400001928E-02 0.  1.
       -1    1    3    3    0  502  0.74957834769E+03  0.23502330049E+03 -0.94482089124E+03  0.12287351902E+04  0.50400001928E-02 0. -1.
</event>
<event>
 5   0  0.1466480E-05  0.2097851E+04  0.7818609E-02  0.8562191E-01
       -1   -1    0    0    0  501  0.00000000000E+00  0.00000000000E+00  0.59518778532E+03  0.59518778534E+03  0.50400001928E-02 0. -1.
        1   -1    0    0  501    0  0.00000000000E+00  0.00000000000E+00 -0.18485670606E+04  0.18485670606E+04  0.50400001928E-02 0.  1.
    10030    2    1    2    0    0  0.00000000000E+00  0.00000000000E+00 -0.12533792753E+04  0.24437548460E+04  0.20978508382E+04 0.  0.
        3    1    3    3  502    0  0.61053377243E+03  0.54294070168E+03  0.13957839739E+03  0.82886562967E+03  0.10100000352E+00 0. -1.
       -3    1    3    3    0  502 -0.61053377243E+03 -0.54294070168E+03 -0.13929576727E+04  0.16148892163E+04  0.10100000352E+00 0.  1.
</event>
<event>
 5   0  0.3257130E-05  0.2093845E+04  0.7818609E-02  0.8563960E-01
       -2   -1    0    0    0  501  0.00000000000E+00  0.00000000000E+00  0.10698376067E+04  0.10698376067E+04  0.25500000920E-02 0.  1.
        2   -1    0    0  501    0  0.00000000000E+00  0.00000000000E+00 -0.10244983081E+04  0.10244983081E+04  0.25500000920E-02 0. -1.
    10030    2    1    2    0    0  0.00000000000E+00  0.00000000000E+00  0.45339298608E+02  0.20943359147E+04  0.20938450926E+04 0.  0.
        3    1    3    3  502    0 -0.89231174909E+03  0.13720822704E+02 -0.52485092859E+03  0.10353149405E+04  0.10100000352E+00 0. -1.
       -3    1    3    3    0  502  0.89231174909E+03 -0.13720822704E+02  0.57019022719E+03  0.10590209743E+04  0.10100000352E+00 0.  1.
</event>
<event>
 5   0  0.1492552E-05  0.2137124E+04  0.7818609E-02  0.8545064E-01
        1   -1    0    0  501    0  0.00000000000E+00  0.00000000000E+00  0.11203176956E+04  0.11203176956E+04  0.50400001928E-02 0.  1.
       -1   -1    0    0    0  501  0.00000000000E+00  0.00000000000E+00 -0.10191974240E+04  0.10191974240E+04  0.50400001928E-02 0. -1.
    10030    2    1    2    0    0  0.00000000000E+00  0.00000000000E+00  0.10112027163E+03  0.21395151197E+04  0.21371241513E+04 0.  0.
        4    1    3    3  502    0  0.10540668949E+04 -0.17467374456E+03  0.66558020424E+02  0.10705136706E+04  0.12699999809E+01 0. -1.
       -4    1    3    3    0  502 -0.10540668949E+04  0.17467374456E+03  0.34562251210E+02  0.10690014491E+04  0.12699999809E+01 0.  1.
</event>
<event>
 5   0  0.3279789E-05  0.2112926E+04  0.7818609E-02  0.8555571E-01
        2   -1    0    0  501    0  0.00000000000E+00  0.00000000000E+00  0.14856101453E+04  0.14856101453E+04  0.25500000920E-02 0.  1.
       -2   -1    0    0    0  501  0.00000000000E+00  0.00000000000E+00 -0.75128332947E+03  0.75128332947E+03  0.25500000920E-02 0. -1.
    10030    2    1    2    0    0  0.00000000000E+00  0.00000000000E+00  0.73432681584E+03  0.22368934748E+04  0.21129260624E+04 0.  0.
        2    1    3    3  502    0  0.71448440251E+03  0.71111278259E+01 -0.45668098276E+03  0.84799531224E+03  0.25500000920E-02 0. -1.
       -2    1    3    3    0  502 -0.71448440251E+03 -0.71111278259E+01  0.11910077986E+04  0.13888981625E+04  0.25500000920E-02 0.  1.
</event>
<event>
 5   0  0.1492552E-05  0.2098580E+04  0.7818609E-02  0.8561869E-01
       -1   -1    0    0    0  501  0.00000000000E+00  0.00000000000E+00  0.74765053962E+03  0.74765053964E+03  0.50400001928E-02 0.  1.
        1   -1    0    0  501    0  0.00000000000E+00  0.00000000000E+00 -0.14726252999E+04  0.14726252999E+04  0.50400001928E-02 0. -1.
    10030    2    1    2    0    0  0.00000000000E+00  0.00000000000E+00 -0.72497476024E+03  0.22202758395E+04  0.20985796150E+04 0.  0.
        4    1    3    3  502    0  0.83476423213E+03 -0.45708516012E+03  0.10500684296E+03  0.95748953874E+03  0.12699999809E+01 0.  1.
       -4    1    3    3    0  502 -0.83476423213E+03  0.45708516012E+03 -0.82998160319E+03  0.12627863008E+04  0.12699999809E+01 0. -1.
</event>
<event>
 5   0  0.1492552E-05  0.2104836E+04  0.7818609E-02  0.8559116E-01
       -1   -1    0    0    0  501  0.00000000000E+00  0.00000000000E+00  0.10037849621E+04  0.10037849621E+04  0.50400001928E-02 0. -1.
        1   -1    0    0  501    0  0.00000000000E+00  0.00000000000E+00 -0.11034071476E+04  0.11034071476E+04  0.50400001928E-02 0.  1.
    10030    2    1    2    0    0  0.00000000000E+00  0.00000000000E+00 -0.99622185491E+02  0.21071921097E+04  0.21048358623E+04 0.  0.
        4    1    3    3  502    0 -0.30896469931E+03 -0.88055414077E+02  0.95349288771E+03  0.10061626316E+04  0.12699999809E+01 0. -1.
       -4    1    3    3    0  502  0.30896469931E+03  0.88055414077E+02 -0.10531150732E+04  0.11010294781E+04  0.12699999809E+01 0.  1.
</event>
<event>
 5   0  0.1435410E-05  0.2101325E+04  0.7818609E-02  0.8560660E-01
        1   -1    0    0  501    0  0.00000000000E+00  0.00000000000E+00  0.15443449813E+04  0.15443449813E+04  0.50400001928E-02 0.  1.
       -1   -1    0    0    0  501  0.00000000000E+00  0.00000000000E+00 -0.71479625612E+03  0.71479625613E+03  0.50400001928E-02 0. -1.
    10030    2    1    2    0    0  0.00000000000E+00  0.00000000000E+00  0.82954872515E+03  0.22591412374E+04  0.21013253064E+04 0.  0.
        2    1    3    3  502    0 -0.57201764384E+03 -0.68229676152E+03  0.10144842989E+04  0.13497820003E+04  0.25500000920E-02 0.  1.
       -2    1    3    3    0  502  0.57201764384E+03  0.68229676152E+03 -0.18493557376E+03  0.90935923709E+03  0.25500000920E-02 0. -1.
</event>
<event>
 5   0  0.3279789E-05  0.2099322E+04  0.7818609E-02  0.8561542E-01
        2   -1    0    0  501    0  0.00000000000E+00  0.00000000000E+00  0.21935814752E+04  0.21935814752E+04  0.25500000920E-02 0.  1.
       -2   -1    0    0    0  501  0.00000000000E+00  0.00000000000E+00 -0.50227825022E+03  0.50227825023E+03  0.25500000920E-02 0. -1.
    10030    2    1    2    0    0  0.00000000000E+00  0.00000000000E+00  0.16913032250E+04  0.26958597254E+04  0.20993220478E+04 0.  0.
        2    1    3    3  502    0 -0.72171116874E+03  0.53743748026E+03  0.15396696787E+04  0.17833364169E+04  0.25500000920E-02 0. -1.
       -2    1    3    3    0  502  0.72171116874E+03 -0.53743748026E+03  0.15163354627E+03  0.91252330855E+03  0.25500000920E-02 0.  1.
</event>
<event>
 5   0  0.3130517E-05  0.2097976E+04  0.7818609E-02  0.8562136E-01
       -2   -1    0    0    0  501  0.00000000000E+00  0.00000000000E+00  0.92467243816E+03  0.92467243816E+03  0.25500000920E-02 0. -1.
        2   -1    0    0  501    0  0.00000000000E+00  0.00000000000E+00 -0.11900164137E+04  0.11900164137E+04  0.25500000920E-02 0.  1.
    10030    2    1    2    0    0  0.00000000000E+00  0.00000000000E+00 -0.26534397554E+03  0.21146888519E+04  0.20979755754E+04 0.  0.
        1    1    3    3  502    0 -0.44264522106E+03  0.94565082442E+03 -0.23439724766E+03  0.10701085661E+04  0.50400001928E-02 0.  1.
       -1    1    3    3    0  502  0.44264522106E+03 -0.94565082442E+03 -0.30946727880E+02  0.10445802858E+04  0.50400001928E-02 0. -1.
</event>
<event>
 5   0  0.1129987E-05  0.2118099E+04  0.7818609E-02  0.8553312E-01
       -4   -1    0    0    0  501  0.00000000000E+00  0.00000000000E+00  0.80437391982E+03  0.80437492240E+03  0.12699999809E+01 0.  1.
        4   -1    0    0  501    0  0.00000000000E+00  0.00000000000E+00 -0.13943563537E+04  0.13943569321E+04  0.12699999809E+01 0. -1.
    10030    2    1    2    0    0  0.00000000000E+00  0.00000000000E+00 -0.58998243387E+03  0.21987318545E+04  0.21180987927E+04 0.  0.
        4    1    3    3  502    0  0.75108300318E+03  0.24689730960E+03 -0.10264430031E+04  0.12956352923E+04  0.12699999809E+01 0. -1.
       -4    1    3    3    0  502 -0.75108300318E+03 -0.24689730960E+03  0.43646056924E+03  0.90309656214E+03  0.12699999809E+01 0.  1.
</event>
<event>
 5   0  0.3130517E-05  0.2110321E+04  0.7818609E-02  0.8556710E-01
        2   -1    0    0  501    0  0.00000000000E+00  0.00000000000E+00  0.16099001490E+04  0.16099001490E+04  0.25500000920E-02 0. -1.
       -2   -1    0    0    0  501  0.00000000000E+00  0.00000000000E+00 -0.69157323965E+03  0.69157323965E+03  0.25500000920E-02 0.  1.
    10030    2    1    2    0    0  0.00000000000E+00  0.00000000000E+00  0.91832690932E+03  0.23014733886E+04  0.21103211713E+04 0.  0.
        1    1    3    3  502    0 -0.21507347644E+03 -0.82571743029E+03  0.11361121748E+04  0.14208507130E+04  0.50400001928E-02 0. -1.
       -1    1    3    3    0  502  0.21507347644E+03  0.82571743029E+03 -0.21778526544E+03  0.88062267562E+03  0.50400001928E-02 0.  1.
</event>
<event>
 5   0  0.1513292E-05  0.2090428E+04  0.7818609E-02  0.8565472E-01
       -1   -1    0    0    0  501  0.00000000000E+00  0.00000000000E+00  0.66159608507E+03  0.66159608509E+03  0.50400001928E-02 0.  1.
        1   -1    0    0  501    0  0.00000000000E+00  0.00000000000E+00 -0.16512674322E+04  0.16512674322E+04  0.50400001928E-02 0. -1.
    10030    2    1    2    0    0  0.00000000000E+00  0.00000000000E+00 -0.98967134716E+03  0.23128635173E+04  0.20904277731E+04 0.  0.
        1    1    3    3  502    0 -0.13141768509E+02 -0.92420541497E+03  0.45090523323E+02  0.92539802812E+03  0.50400001928E-02 0.  1.
       -1    1    3    3    0  502  0.13141768509E+02  0.92420541497E+03 -0.10347618705E+04  0.13874654892E+04  0.50400001928E-02 0. -1.
</event>
<event>
 5   0  0.3108326E-05  0.2100970E+04  0.7818609E-02  0.8560816E-01
        2   -1    0    0  501    0  0.00000000000E+00  0.00000000000E+00  0.60767847681E+03  0.60767847681E+03  0.25500000920E-02 0.  1.
       -2   -1    0    0    0  501  0.00000000000E+00  0.00000000000E+00 -0.18159578600E+04  0.18159578600E+04  0.25500000920E-02 0. -1.
    10030    2    1    2    0    0  0.00000000000E+00  0.00000000000E+00 -0.12082793832E+04  0.24236363368E+04  0.21009697821E+04 0.  0.
        5    1    3    3  502    0 -0.78714575363E+03  0.69554330098E+03 -0.59163543408E+03  0.12055842973E+04  0.46999998093E+01 0.  1.
       -5    1    3    3    0  502  0.78714575363E+03 -0.69554330098E+03 -0.61664394909E+03  0.12180520395E+04  0.46999998093E+01 0. -1.
</event>
<event>
 5   0  0.1129987E-05  0.2096631E+04  0.7818609E-02  0.8562729E-01
        3   -1    0    0  501    0  0.00000000000E+00  0.00000000000E+00  0.15015212582E+04  0.15015212616E+04  0.10100000352E+00 0. -1.
       -3   -1    0    0    0  501  0.00000000000E+00  0.00000000000E+00 -0.73190126670E+03  0.73190127367E+03  0.10100000352E+00 0.  1.
    10030    2    1    2    0    0  0.00000000000E+00  0.00000000000E+00  0.76961999148E+03  0.22334225353E+04  0.20966309379E+04 0.  0.
        5    1    3    3  502    0  0.21790244479E+03 -0.29775033540E+03  0.14300557437E+04  0.14768948025E+04  0.46999998093E+01 0. -1.
       -5    1    3    3    0  502 -0.21790244479E+03  0.29775033540E+03 -0.66043575218E+03  0.75652773275E+03  0.46999998093E+01 0.  1.
</event>
<event>
 5   0  0.3242231E-05  0.2085364E+04  0.7818609E-02  0.8567718E-01
       -2   -1    0    0    0  501  0.00000000000E+00  0.00000000000E+00  0.17338346074E+04  0.17338346074E+04  0.25500000920E-02 0.  1.
        2   -1    0    0  501    0  0.00000000000E+00  0.00000000000E+00 -0.62704131248E+03  0.62704131248E+03  0.25500000920E-02 0. -1.
    10030    2    1    2    0    0  0.00000000000E+00  0.00000000000E+00  0.11067932949E+04  0.23608759199E+04  0.20853641676E+04 0.  0.
        4    1    3    3  502    0  0.16671276265E+03  0.88956893147E+03 -0.32749444505E+02  0.90564903141E+03  0.12699999809E+01 0. -1.
       -4    1    3    3    0  502 -0.16671276265E+03 -0.88956893147E+03  0.11395427394E+04  0.14552268885E+04  0.12699999809E+01 0.  1.
</event>
<event>
 5   0  0.3242231E-05  0.2095743E+04  0.7818609E-02  0.8563121E-01
        2   -1    0    0  501    0  0.00000000000E+00  0.00000000000E+00  0.16983668090E+04  0.16983668090E+04  0.25500000920E-02 0.  1.
       -2   -1    0    0    0  501  0.00000000000E+00  0.00000000000E+00 -0.64652387576E+03  0.64652387576E+03  0.25500000920E-02 0. -1.
    10030    2    1    2    0    0  0.00000000000E+00  0.00000000000E+00  0.10518429332E+04  0.23448906847E+04  0.20957430108E+04 0.  0.
        4    1    3    3  502    0 -0.89009071743E+03 -0.51742852786E+03  0.74414465797E+03  0.12703332837E+04  0.12699999809E+01 0.  1.
       -4    1    3    3    0  502  0.89009071743E+03  0.51742852786E+03  0.30769827524E+03  0.10745574011E+04  0.12699999809E+01 0. -1.
</event>
<event>
 5   0  0.1435410E-05  0.2105551E+04  0.7818609E-02  0.8558802E-01
       -1   -1    0    0    0  501  0.00000000000E+00  0.00000000000E+00  0.98635313391E+03  0.98635313392E+03  0.50400001928E-02 0. -1.
        1   -1    0    0  501    0  0.00000000000E+00  0.00000000000E+00 -0.11236707435E+04  0.11236707435E+04  0.50400001928E-02 0.  1.
    10030    2    1    2    0    0  0.00000000000E+00  0.00000000000E+00 -0.13731760956E+03  0.21100238774E+04  0.21055509106E+04 0.  0.
        2    1    3    3  502    0  0.10433381279E+03  0.74170705373E+03 -0.81004207664E+03  0.11032601978E+04  0.25500000920E-02 0.  1.
       -2    1    3    3    0  502 -0.10433381279E+03 -0.74170705373E+03  0.67272446707E+03  0.10067636796E+04  0.25500000920E-02 0. -1.
</event>
<event>
 5   0  0.1466480E-05  0.2101422E+04  0.7818609E-02  0.8560617E-01
        1   -1    0    0  501    0  0.00000000000E+00  0.00000000000E+00  0.99797553716E+03  0.99797553718E+03  0.50400001928E-02 0. -1.
       -1   -1    0    0    0  501  0.00000000000E+00  0.00000000000E+00 -0.11062332214E+04  0.11062332214E+04  0.50400001928E-02 0.  1.
    10030    2    1    2    0    0  0.00000000000E+00  0.00000000000E+00 -0.10825768423E+03  0.21042087586E+04  0.21014220836E+04 0.  0.
        3    1    3    3  502    0  0.10124451350E+04  0.27528378783E+03  0.22251626388E+01  0.10492050690E+04  0.10100000352E+00 0. -1.
       -3    1    3    3    0  502 -0.10124451350E+04 -0.27528378783E+03 -0.11048284687E+03  0.10550036896E+04  0.10100000352E+00 0.  1.
</event>
<event>
 5   0  0.1453430E-05  0.2104212E+04  0.7818609E-02  0.8559390E-01
       -1   -1    0    0    0  501  0.00000000000E+00  0.00000000000E+00  0.85768373555E+03  0.85768373557E+03  0.50400001928E-02 0.  1.
        1   -1    0    0  501    0  0.00000000000E+00  0.00000000000E+00 -0.12906005006E+04  0.12906005006E+04  0.50400001928E-02 0. -1.
    10030    2    1    2    0    0  0.00000000000E+00  0.00000000000E+00 -0.43291676506E+03  0.21482842362E+04  0.21042120221E+04 0.  0.
        5    1    3    3  502    0 -0.75263510499E+03  0.52734632977E+03  0.30647189083E+03  0.96876254193E+03  0.46999998093E+01 0.  1.
       -5    1    3    3    0  502  0.75263510499E+03 -0.52734632977E+03 -0.73938865589E+03  0.11795216943E+04  0.46999998093E+01 0. -1.
</event>
<event>
 5   0  0.3242231E-05  0.2088205E+04  0.7818609E-02  0.8566457E-01
        2   -1    0    0  501    0  0.00000000000E+00  0.00000000000E+00  0.21750425213E+04  0.21750425213E+04  0.25500000920E-02 0.  1.
       -2   -1    0    0    0  501  0.00000000000E+00  0.00000000000E+00 -0.50120873770E+03  0.50120873771E+03  0.25500000920E-02 0. -1.
    10030    2    1    2    0    0  0.00000000000E+00  0.00000000000E+00  0.16738337836E+04  0.26762512590E+04  0.20882052740E+04 0.  0.
        4    1    3    3  502    0 -0.15144697854E+03 -0.30473449983E+03  0.21019766984E+04  0.21293442550E+04  0.12699999809E+01 0.  1.
       -4    1    3    3    0  502  0.15144697854E+03  0.30473449983E+03 -0.42814291479E+03  0.54690700405E+03  0.12699999809E+01 0. -1.
</event>
<event>
 5   0  0.3108326E-05  0.2099210E+04  0.7818609E-02  0.8561592E-01
        2   -1    0    0  501    0  0.00000000000E+00  0.00000000000E+00  0.79149123425E+03  0.79149123426E+03  0.25500000920E-02 0. -1.
       -2   -1    0    0    0  501  0.00000000000E+00  0.00000000000E+00 -0.13918919321E+04  0.13918919321E+04  0.25500000920E-02 0.  1.
    10030    2    1    2    0    0  0.00000000000E+00  0.00000000000E+00 -0.60040069789E+03  0.21833831664E+04  0.20992096259E+04 0.  0.
        5    1    3    3  502    0 -0.23530317765E+03 -0.82177160740E+03  0.33329688350E+03  0.91748845371E+03  0.46999998093E+01 0. -1.
       -5    1    3    3    0  502  0.23530317765E+03  0.82177160740E+03 -0.93369758139E+03  0.12658947127E+04  0.46999998093E+01 0.  1.
</event>
<event>
 5   0  0.3130517E-05  0.2101267E+04  0.7818609E-02  0.8560685E-01
       -2   -1    0    0    0  501  0.00000000000E+00  0.00000000000E+00  0.20668790691E+04  0.20668790691E+04  0.25500000920E-02 0. -1.
        2   -1    0    0  501    0  0.00000000000E+00  0.00000000000E+00 -0.53405692133E+03  0.53405692134E+03  0.25500000920E-02 0.  1.
    10030    2    1    2    0    0  0.00000000000E+00  0.00000000000E+00  0.15328221478E+04  0.26009359905E+04  0.21012673056E+04 0.  0.
        1    1    3    3  502    0  0.38389988013E+03  0.94465041742E+03  0.10797650235E+04  0.14851383892E+04  0.50400001928E-02 0. -1.
       -1    1    3    3    0  502 -0.38389988013E+03 -0.94465041742E+03  0.45305712432E+03  0.11157976013E+04  0.50400001928E-02 0.  1.
</event>
<event>
 5   0  0.3130517E-05  0.2152814E+04  0.7818609E-02  0.8538329E-01
        2   -1    0    0  501    0  0.00000000000E+00  0.00000000000E+00  0.14062964434E+04  0.14062964434E+04  0.25500000920E-02 0. -1.
       -2   -1    0    0    0  501  0.00000000000E+00  0.00000000000E+00 -0.82390317864E+03  0.82390317864E+03  0.25500000920E-02 0.  1.
    10030    2    1    2    0    0  0.00000000000E+00  0.00000000000E+00  0.58239326476E+03  0.22301996220E+04  0.21528140745E+04 0.  0.
        1    1    3    3  502    0  0.98979280745E+03 -0.37469769013E+03  0.49463270563E+03  0.11682250101E+04  0.50400001928E-02 0. -1.
       -1    1    3    3    0  502 -0.98979280745E+03  0.37469769013E+03  0.87760559129E+02  0.10619746120E+04  0.50400001928E-02 0.  1.
</event>
<event>
 5   0  0.1453430E-05  0.2098323E+04  0.7818609E-02  0.8561982E-01
       -1   -1    0    0    0  501  0.00000000000E+00  0.00000000000E+00  0.13584890712E+04  0.13584890712E+04  0.50400001928E-02 0.  1.
        1   -1    0    0  501    0  0.00000000000E+00  0.00000000000E+00 -0.81026794526E+03  0.81026794527E+03  0.50400001928E-02 0. -1.
    10030    2    1    2    0    0  0.00000000000E+00  0.00000000000E+00  0.54822112598E+03  0.21687570165E+04  0.20983232815E+04 0.  0.
        5    1    3    3  502    0  0.96814657414E+03  0.32992550213E+03  0.32690466054E+02  0.10233520326E+04  0.46999998093E+01 0. -1.
       -5    1    3    3    0  502 -0.96814657414E+03 -0.32992550213E+03  0.51553065993E+03  0.11454049840E+04  0.46999998093E+01 0.  1.
</event>
<event>
 5   0  0.1129987E-05  0.2106885E+04  0.7818609E-02  0.8558216E-01
       -3   -1    0    0    0  501  0.00000000000E+00  0.00000000000E+00  0.12474316492E+04  0.12474316533E+04  0.10100000352E+00 0. -1.
        3   -1    0    0  501    0  0.00000000000E+00  0.00000000000E+00 -0.88962099185E+03  0.88962099758E+03  0.10100000352E+00 0.  1.
    10030    2    1    2    0    0  0.00000000000E+00  0.00000000000E+00  0.35781065732E+03  0.21370526508E+04  0.21068852759E+04 0.  0.
        2    1    3    3  502    0  0.28318794372E+03  0.69554159400E+03  0.92824429471E+03  0.11939895272E+04  0.25500000920E-02 0.  1.
       -2    1    3    3    0  502 -0.28318794372E+03 -0.69554159400E+03 -0.57043363739E+03  0.94306312362E+03  0.25500000920E-02 0. -1.
</event>
<event>
 5   0  0.3242231E-05  0.2101207E+04  0.7818609E-02  0.8560712E-01
       -2   -1    0    0    0  501  0.00000000000E+00  0.00000000000E+00  0.63982975072E+03  0.63982975072E+03  0.25500000920E-02 0. -1.
        2   -1    0    0  501    0  0.00000000000E+00  0.00000000000E+00 -0.17250963459E+04  0.17250963459E+04  0.25500000920E-02 0.  1.
    10030    2    1    2    0    0  0.00000000000E+00  0.00000000000E+00 -0.10852665952E+04  0.23649260966E+04  0.21012072387E+04 0.  0.
        4    1    3    3  502    0 -0.94548338675E+03 -0.20836618631E+03 -0.10017676265E+04  0.13931601819E+04  0.12699999809E+01 0.  1.
       -4    1    3    3    0  502  0.94548338675E+03  0.20836618631E+03 -0.83498968699E+02  0.97176591466E+03  0.12699999809E+01 0. -1.
</event>
<event>
 5   0  0.1492552E-05  0.2101859E+04  0.7818609E-02  0.8560425E-01
        1   -1    0    0  501    0  0.00000000000E+00  0.00000000000E+00  0.17075826149E+04  0.17075826149E+04  0.50400001928E-02 0. -1.
       -1   -1    0    0    0  501  0.00000000000E+00  0.00000000000E+00 -0.64679309140E+03  0.64679309142E+03  0.50400001928E-02 0.  1.
    10030    2    1    2    0    0  0.00000000000E+00  0.00000000000E+00  0.10607895235E+04  0.23543757063E+04  0.21018588329E+04 0.  0.
        4    1    3    3  502    0 -0.41271019512E+02 -0.90568359540E+03 -0.64951846433E+02  0.90894797832E+03  0.12699999809E+01 0.  1.
       -4    1    3    3    0  502  0.41271019512E+02  0.90568359540E+03  0.11257413699E+04  0.14454277280E+04  0.12699999809E+01 0. -1.
</event>
<event>
 5   0  0.3242231E-05  0.2007269E+04  0.7818609E-02  0.8603230E-01
        2   -1    0    0  501    0  0.00000000000E+00  0.00000000000E+00  0.91757603985E+03  0.91757603985E+03  0.25500000920E-02 0.  1.
       -2   -1    0    0    0  501  0.00000000000E+00  0.00000000000E+00 -0.10977641854E+04  0.10977641854E+04  0.25500000920E-02 0. -1.
    10030    2    1    2    0    0  0.00000000000E+00  0.00000000000E+00 -0.18018814552E+03  0.20153402252E+04  0.20072689047E+04 0.  0.
        4    1    3    3  502    0  0.45729665166E+03 -0.36186630096E+02  0.80616037367E+03  0.92753752527E+03  0.12699999809E+01 0.  1.
       -4    1    3    3    0  502 -0.45729665166E+03  0.36186630096E+02 -0.98634851919E+03  0.10878027000E+04  0.12699999809E+01 0. -1.
</event>
<event>
 5   0  0.1466480E-05  0.2098051E+04  0.7818609E-02  0.8562102E-01
        1   -1    0    0  501    0  0.00000000000E+00  0.00000000000E+00  0.17131863214E+04  0.17131863214E+04  0.50400001928E-02 0. -1.
       -1   -1    0    0    0  501  0.00000000000E+00  0.00000000000E+00 -0.64234399445E+03  0.64234399447E+03  0.50400001928E-02 0.  1.
    10030    2    1    2    0    0  0.00000000000E+00  0.00000000000E+00  0.10708423269E+04  0.23555303158E+04  0.20980514245E+04 0.  0.
        3    1    3    3  502    0 -0.20602077661E+03  0.97514123978E+03  0.90286202506E+03  0.13448066197E+04  0.10100000352E+00 0. -1.
       -3    1    3    3    0  502  0.20602077661E+03 -0.97514123978E+03  0.16798030185E+03  0.10107236961E+04  0.10100000352E+00 0.  1.
</event>
<event>
 5   0  0.1492552E-05  0.2096917E+04  0.7818609E-02  0.8562603E-01
       -1   -1    0    0    0  501  0.00000000000E+00  0.00000000000E+00  0.94385078748E+03  0.94385078749E+03  0.50400001928E-02 0. -1.
        1   -1    0    0  501    0  0.00000000000E+00  0.00000000000E+00 -0.11646598780E+04  0.11646598781E+04  0.50400001928E-02 0.  1.
    10030    2    1    2    0    0  0.00000000000E+00  0.00000000000E+00 -0.22080909057E+03  0.21085106656E+04  0.20969169207E+04 0.  0.
        4    1    3    3  502    0  0.76517359458E+03  0.56988607936E+03  0.32674360742E+03  0.10084759646E+04  0.12699999809E+01 0. -1.
       -4    1    3    3    0  502 -0.76517359458E+03 -0.56988607936E+03 -0.54755269799E+03  0.11000347009E+04  0.12699999809E+01 0.  1.
</event>
<event>
 5   0  0.1435410E-05  0.2095659E+04  0.7818609E-02  0.8563158E-01
       -1   -1    0    0    0  501  0.00000000000E+00  0.00000000000E+00  0.59187445220E+03  0.59187445222E+03  0.50400001928E-02 0.  1.
        1   -1    0    0  501    0  0.00000000000E+00  0.00000000000E+00 -0.18550331140E+04  0.18550331140E+04  0.50400001928E-02 0. -1.
    10030    2    1    2    0    0  0.00000000000E+00  0.00000000000E+00 -0.12631586618E+04  0.24469075663E+04  0.20956590450E+04 0.  0.
        2    1    3    3  502    0 -0.29575035294E+03  0.63968792313E+03 -0.15369668881E+04  0.16908388822E+04  0.25500000920E-02 0. -1.
       -2    1    3    3    0  502  0.29575035294E+03 -0.63968792313E+03  0.27380822629E+03  0.75606868409E+03  0.25500000920E-02 0.  1.
</event>
<event>
 5   0  0.3130517E-05  0.2176076E+04  0.7818609E-02  0.8528452E-01
        2   -1    0    0  501    0  0.00000000000E+00  0.00000000000E+00  0.12945070308E+04  0.12945070308E+04  0.25500000920E-02 0.  1.
       -2   -1    0    0    0  501  0.00000000000E+00  0.00000000000E+00 -0.91449969845E+03  0.91449969845E+03  0.25500000920E-02 0. -1.
    10030    2    1    2    0    0  0.00000000000E+00  0.00000000000E+00  0.38000733232E+03  0.22090067292E+04  0.21760756322E+04 0.  0.
        1    1    3    3  502    0  0.71289856223E+03 -0.40659535137E+03  0.91515431723E+03  0.12292483737E+04  0.50400001928E-02 0.  1.
       -1    1    3    3    0  502 -0.71289856223E+03  0.40659535137E+03 -0.53514698491E+03  0.97975835555E+03  0.50400001928E-02 0. -1.
</event>
<event>
 5   0  0.1513292E-05  0.2090942E+04  0.7818609E-02  0.8565244E-01
       -1   -1    0    0    0  501  0.00000000000E+00  0.00000000000E+00  0.97451836449E+03  0.97451836451E+03  0.50400001928E-02 0. -1.
        1   -1    0    0  501    0  0.00000000000E+00  0.00000000000E+00 -0.11215897659E+04  0.11215897659E+04  0.50400001928E-02 0.  1.
    10030    2    1    2    0    0  0.00000000000E+00  0.00000000000E+00 -0.14707140144E+03  0.20961081305E+04  0.20909422033E+04 0.  0.
        1    1    3    3  502    0  0.54359786579E+03 -0.72241052128E+03 -0.59984158292E+03  0.10849818089E+04  0.50400001928E-02 0.  1.
       -1    1    3    3    0  502 -0.54359786579E+03  0.72241052128E+03  0.45277018148E+03  0.10111263216E+04  0.50400001928E-02 0. -1.
</event>
<event>
 5   0  0.3130517E-05  0.2122972E+04  0.7818609E-02  0.8551191E-01
       -2   -1    0    0    0  501  0.00000000000E+00  0.00000000000E+00  0.46705563216E+03  0.46705563217E+03  0.25500000920E-02 0.  1.
        2   -1    0    0  501    0  0.00000000000E+00  0.00000000000E+00 -0.24124591793E+04  0.24124591793E+04  0.25500000920E-02 0. -1.
    10030    2    1    2    0    0  0.00000000000E+00  0.00000000000E+00 -0.19454035471E+04  0.28795148115E+04  0.21229721120E+04 0.  0.
        1    1    3    3  502    0 -0.71415316378E+03 -0.67955166437E+03 -0.43879278571E+03  0.10790478741E+04  0.50400001928E-02 0.  1.
       -1    1    3    3    0  502  0.71415316378E+03  0.67955166437E+03 -0.15066107614E+04  0.18004669373E+04  0.50400001928E-02 0. -1.
</event>
<event>
 5   0  0.3279789E-05  0.2103400E+04  0.7818609E-02  0.8559747E-01
       -2   -1    0    0    0  501  0.00000000000E+00  0.00000000000E+00  0.76231100570E+03  0.76231100570E+03  0.25500000920E-02 0.  1.
        2   -1    0    0  501    0  0.00000000000E+00  0.00000000000E+00 -0.14509476040E+04  0.14509476040E+04  0.25500000920E-02 0. -1.
    10030    2    1    2    0    0  0.00000000000E+00  0.00000000000E+00 -0.68863659826E+03  0.22132586097E+04  0.21034004157E+04 0.  0.
        2    1    3    3  502    0 -0.55619282731E+03  0.43974385227E+02 -0.12823902782E+04  0.13985024252E+04  0.25500000920E-02 0. -1.
       -2    1    3    3    0  502  0.55619282731E+03 -0.43974385227E+02  0.59375367991E+03  0.81475618446E+03  0.25500000920E-02 0.  1.
</event>
<event>
 5   0  0.3242231E-05  0.2098222E+04  0.7818609E-02  0.8562027E-01
       -2   -1    0    0    0  501  0.00000000000E+00  0.00000000000E+00  0.75662269333E+03  0.75662269333E+03  0.25500000920E-02 0.  1.
        2   -1    0    0  501    0  0.00000000000E+00  0.00000000000E+00 -0.14546671916E+04  0.14546671916E+04  0.25500000920E-02 0. -1.
    10030    2    1    2    0    0  0.00000000000E+00  0.00000000000E+00 -0.69804449824E+03  0.22112898849E+04  0.20982223032E+04 0.  0.
        4    1    3    3  502    0  0.51252480030E+02 -0.83325314560E+03 -0.10186305851E+04  0.13170222106E+04  0.12699999809E+01 0. -1.
       -4    1    3    3    0  502 -0.51252480030E+02  0.83325314560E+03  0.32058608685E+03  0.89426767432E+03  0.12699999809E+01 0.  1.
</event>
<event>
 5   0  0.1492552E-05  0.2103393E+04  0.7818609E-02  0.8559750E-01
       -1   -1    0    0    0  501  0.00000000000E+00  0.00000000000E+00  0.71994234533E+03  0.71994234535E+03  0.50400001928E-02 0. -1.
        1   -1    0    0  501    0  0.00000000000E+00  0.00000000000E+00 -0.15363248912E+04  0.15363248912E+04  0.50400001928E-02 0.  1.
    10030    2    1    2    0    0  0.00000000000E+00  0.00000000000E+00 -0.81638254588E+03  0.22562672366E+04  0.21033928263E+04 0.  0.
        4    1    3    3  502    0  0.88980765313E+03 -0.37278405463E+03 -0.85735877137E+03  0.12906553710E+04  0.12699999809E+01 0. -1.
       -4    1    3    3    0  502 -0.88980765313E+03  0.37278405463E+03  0.40976225495E+02  0.96561186556E+03  0.12699999809E+01 0.  1.
</event>
<event>
 5   0  0.1513292E-05  0.2102646E+04  0.7818609E-02  0.8560079E-01
       -1   -1    0    0    0  501  0.00000000000E+00  0.00000000000E+00  0.75175822357E+03  0.75175822358E+03  0.50400001928E-02 0.  1.
        1   -1    0    0  501    0  0.00000000000E+00  0.00000000000E+00 -0.14702604099E+04  0.14702604099E+04  0.50400001928E-02 0. -1.
    10030    2    1    2    0    0  0.00000000000E+00  0.00000000000E+00 -0.71850218635E+03  0.22220186335E+04  0.21026462888E+04 0.  0.
        1    1    3    3  502    0 -0.97155211230E+02 -0.97165352870E+03 -0.77089161402E+03  0.12441155877E+04  0.50400001928E-02 0. -1.
       -1    1    3    3    0  502  0.97155211230E+02  0.97165352870E+03  0.52389427672E+02  0.97790304583E+03  0.50400001928E-02 0.  1.
</event>
<event>
 5   0  0.3242231E-05  0.2085382E+04  0.7818609E-02  0.8567710E-01
       -2   -1    0    0    0  501  0.00000000000E+00  0.00000000000E+00  0.12059417114E+04  0.12059417114E+04  0.25500000920E-02 0. -1.
        2   -1    0    0  501    0  0.00000000000E+00  0.00000000000E+00 -0.90153985495E+03  0.90153985496E+03  0.25500000920E-02 0.  1.
    10030    2    1    2    0    0  0.00000000000E+00  0.00000000000E+00  0.30440185649E+03  0.21074815664E+04  0.20853819944E+04 0.  0.
        4    1    3    3  502    0 -0.39374483006E+03  0.84663964179E+03 -0.31679599255E+03  0.98599948683E+03  0.12699999809E+01 0.  1.
       -4    1    3    3    0  502  0.39374483006E+03 -0.84663964179E+03  0.62119784904E+03  0.11214820796E+04  0.12699999809E+01 0. -1.
</event>
<event>
 5   0  0.3108326E-05  0.2101086E+04  0.7818609E-02  0.8560765E-01
        2   -1    0    0  501    0  0.00000000000E+00  0.00000000000E+00  0.83206812971E+03  0.83206812971E+03  0.25500000920E-02 0. -1.
       -2   -1    0    0    0  501  0.00000000000E+00  0.00000000000E+00 -0.13263822240E+04  0.13263822240E+04  0.25500000920E-02 0.  1.
    10030    2    1    2    0    0  0.00000000000E+00  0.00000000000E+00 -0.49431409425E+03  0.21584503537E+04  0.21010857920E+04 0.  0.
        5    1    3    3  502    0 -0.38190429764E+03 -0.66679643183E+03  0.48874567173E+03  0.91069357947E+03  0.46999998093E+01 0. -1.
       -5    1    3    3    0  502  0.38190429764E+03  0.66679643183E+03 -0.98305976598E+03  0.12477567742E+04  0.46999998093E+01 0.  1.
</event>
<event>
 5   0  0.1435410E-05  0.2096744E+04  0.7818609E-02  0.8562679E-01
        1   -1    0    0  501    0  0.00000000000E+00  0.00000000000E+00  0.70832083678E+03  0.70832083680E+03  0.50400001928E-02 0.  1.
       -1   -1    0    0    0  501  0.00000000000E+00  0.00000000000E+00 -0.15516750457E+04  0.15516750457E+04  0.50400001928E-02 0. -1.
    10030    2    1    2    0    0  0.00000000000E+00  0.00000000000E+00 -0.84335420890E+03  0.22599958825E+04  0.20967439203E+04 0.  0.
        2    1    3    3  502    0 -0.58622712905E+03 -0.19102732705E+03  0.49223742750E+03  0.78895587428E+03  0.25500000920E-02 0.  1.
       -2    1    3    3    0  502  0.58622712905E+03  0.19102732705E+03 -0.13355916364E+04  0.14710400082E+04  0.25500000920E-02 0. -1.
</event>
<event>
 5   0  0.1466480E-05  0.2122361E+04  0.7818609E-02  0.8551457E-01
        1   -1    0    0  501    0  0.00000000000E+00  0.00000000000E+00  0.14904460001E+04  0.14904460001E+04  0.50400001928E-02 0. -1.
       -1   -1    0    0    0  501  0.00000000000E+00  0.00000000000E+00 -0.75554823954E+03  0.75554823956E+03  0.50400001928E-02 0.  1.
    10030    2    1    2    0    0  0.00000000000E+00  0.00000000000E+00  0.73489776059E+03  0.22459942397E+04  0.21223608096E+04 0.  0.
        3    1    3    3  502    0  0.86774177568E+03  0.14552365209E+03  0.99526212291E+03  0.13284199735E+04  0.10100000352E+00 0. -1.
       -3    1    3    3    0  502 -0.86774177568E+03 -0.14552365209E+03 -0.26036436232E+03  0.91757426617E+03  0.10100000352E+00 0.  1.
</event>
<event>
 5   0  0.3279789E-05  0.2102600E+04  0.7818609E-02  0.8560099E-01
        2   -1    0    0  501    0  0.00000000000E+00  0.00000000000E+00  0.88971198770E+03  0.88971198771E+03  0.25500000920E-02 0. -1.
       -2   -1    0    0    0  501  0.00000000000E+00  0.00000000000E+00 -0.12422349150E+04  0.12422349150E+04  0.25500000920E-02 0.  1.
    10030    2    1    2    0    0  0.00000000000E+00  0.00000000000E+00 -0.35252292726E+03  0.21319469027E+04  0.21025996246E+04 0.  0.
        2    1    3    3  502    0  0.66709574615E+03 -0.21905455197E+03 -0.96963367684E+03  0.11971595961E+04  0.25500000920E-02 0.  1.
       -2    1    3    3    0  502 -0.66709574615E+03  0.21905455197E+03  0.61711074958E+03  0.93478730657E+03  0.25500000920E-02 0. -1.
</event>
<event>
 5   0  0.3242231E-05  0.2094469E+04  0.7818609E-02  0.8563684E-01
        2   -1    0    0  501    0  0.00000000000E+00  0.00000000000E+00  0.69246502964E+03  0.69246502965E+03  0.25500000920E-02 0.  1.
       -2   -1    0    0    0  501  0.00000000000E+00  0.00000000000E+00 -0.15837627310E+04  0.15837627310E+04  0.25500000920E-02 0. -1.
    10030    2    1    2    0    0  0.00000000000E+00  0.00000000000E+00 -0.89129770131E+03  0.22762277606E+04  0.20944691990E+04 0.  0.
        4    1    3    3  502    0  0.58053758573E+03  0.60822277094E+03 -0.11241165138E+04  0.14037800316E+04  0.12699999809E+01 0. -1.
       -4    1    3    3    0  502 -0.58053758573E+03 -0.60822277094E+03  0.23281881250E+03  0.87244772903E+03  0.12699999809E+01 0.  1.
</event>
<event>
 5   0  0.1513292E-05  0.2100950E+04  0.7818609E-02  0.8560825E-01
       -1   -1    0    0    0  501  0.00000000000E+00  0.00000000000E+00  0.59071056652E+03  0.59071056654E+03  0.50400001928E-02 0. -1.
        1   -1    0    0  501    0  0.00000000000E+00  0.00000000000E+00 -0.18680845926E+04  0.18680845926E+04  0.50400001928E-02 0.  1.
    10030    2    1    2    0    0  0.00000000000E+00  0.00000000000E+00 -0.12773740261E+04  0.24587951591E+04  0.21009496025E+04 0.  0.
        1    1    3    3  502    0 -0.61745798979E+03 -0.67862916498E+03 -0.12373922442E+04  0.15404322376E+04  0.50400001928E-02 0.  1.
       -1    1    3    3    0  502  0.61745798979E+03  0.67862916498E+03 -0.39981781896E+02  0.91836292152E+03  0.50400001928E-02 0. -1.
</event>
<event>
 5   0  0.1513292E-05  0.2107549E+04  0.7818609E-02  0.8557925E-01
        1   -1    0    0  501    0  0.00000000000E+00  0.00000000000E+00  0.19504918137E+04  0.19504918138E+04  0.50400001928E-02 0. -1.
       -1   -1    0    0    0  501  0.00000000000E+00  0.00000000000E+00 -0.56931319502E+03  0.56931319504E+03  0.50400001928E-02 0.  1.
    10030    2    1    2    0    0  0.00000000000E+00  0.00000000000E+00  0.13811786187E+04  0.25198050088E+04  0.21075490280E+04 0.  0.
        1    1    3    3  502    0 -0.58159707760E+03  0.66366058107E+03  0.13792230515E+04  0.16373627434E+04  0.50400001928E-02 0. -1.
       -1    1    3    3    0  502  0.58159707760E+03 -0.66366058107E+03  0.19555672198E+01  0.88244226543E+03  0.50400001928E-02 0.  1.
</event>
<event>
 5   0  0.3257130E-05  0.2068107E+04  0.7818609E-02  0.8575424E-01
       -2   -1    0    0    0  501  0.00000000000E+00  0.00000000000E+00  0.39625058048E+03  0.39625058048E+03  0.25500000920E-02 0. -1.
        2   -1    0    0  501    0  0.00000000000E+00  0.00000000000E+00 -0.26984607766E+04  0.26984607766E+04  0.25500000920E-02 0.  1.
    10030    2    1    2    0    0  0.00000000000E+00  0.00000000000E+00 -0.23022101961E+04  0.30947113571E+04  0.20681070080E+04 0.  0.
        3    1    3    3  502    0  0.40406342901E+03  0.45200140818E+02 -0.25738297868E+04  0.26057455918E+04  0.10100000352E+00 0.  1.
       -3    1    3    3    0  502 -0.40406342901E+03 -0.45200140818E+02  0.27161959069E+03  0.48896576531E+03  0.10100000352E+00 0. -1.
</event>
<event>
 5   0  0.1492552E-05  0.2098416E+04  0.7818609E-02  0.8561941E-01
        1   -1    0    0  501    0  0.00000000000E+00  0.00000000000E+00  0.10783338786E+04  0.10783338786E+04  0.50400001928E-02 0.  1.
       -1   -1    0    0    0  501  0.00000000000E+00  0.00000000000E+00 -0.10208688406E+04  0.10208688407E+04  0.50400001928E-02 0. -1.
    10030    2    1    2    0    0  0.00000000000E+00  0.00000000000E+00  0.57465037972E+02  0.20992027193E+04  0.20984160279E+04 0.  0.
        4    1    3    3  502    0  0.81777970093E+03 -0.59171036699E+03 -0.25764573436E+03  0.10417618418E+04  0.12699999809E+01 0. -1.
       -4    1    3    3    0  502 -0.81777970093E+03  0.59171036699E+03  0.31511077233E+03  0.10574408775E+04  0.12699999809E+01 0.  1.
</event>
<event>
 5   0  0.1513292E-05  0.2096179E+04  0.7818609E-02  0.8562928E-01
        1   -1    0    0  501    0  0.00000000000E+00  0.00000000000E+00  0.14227657550E+04  0.14227657550E+04  0.50400001928E-02 0.  1.
       -1   -1    0    0    0  501  0.00000000000E+00  0.00000000000E+00 -0.77208204367E+03  0.77208204369E+03  0.50400001928E-02 0. -1.
    10030    2    1    2    0    0  0.00000000000E+00  0.00000000000E+00  0.65068371133E+03  0.21948477987E+04  0.20961792784E+04 0.  0.
        1    1    3    3  502    0  0.66168497705E+03  0.81280830239E+03  0.32246546048E+03  0.10965711644E+04  0.50400001928E-02 0. -1.
       -1    1    3    3    0  502 -0.66168497705E+03 -0.81280830239E+03  0.32821825085E+03  0.10982766343E+04  0.50400001928E-02 0.  1.
</event>
<event>
 5   0  0.1513292E-05  0.2112532E+04  0.7818609E-02  0.8555743E-01
        1   -1    0    0  501    0  0.00000000000E+00  0.00000000000E+00  0.20587883979E+04  0.20587883979E+04  0.50400001928E-02 0.  1.
       -1   -1    0    0    0  501  0.00000000000E+00  0.00000000000E+00 -0.54191980404E+03  0.54191980406E+03  0.50400001928E-02 0. -1.
    10030    2    1    2    0    0  0.00000000000E+00  0.00000000000E+00  0.15168685939E+04  0.26007082020E+04  0.21125323242E+04 0.  0.
        1    1    3    3  502    0  0.10437209437E+04 -0.72287794599E+02  0.57952713305E+03  0.11960061169E+04  0.50400001928E-02 0. -1.
       -1    1    3    3    0  502 -0.10437209437E+04  0.72287794599E+02  0.93734146084E+03  0.14047020851E+04  0.50400001928E-02 0.  1.
</event>
<event>
 5   0  0.1466480E-05  0.2073215E+04  0.7818609E-02  0.8573135E-01
        1   -1    0    0  501    0  0.00000000000E+00  0.00000000000E+00  0.13580123632E+04  0.13580123632E+04  0.50400001928E-02 0. -1.
       -1   -1    0    0    0  501  0.00000000000E+00  0.00000000000E+00 -0.79127027705E+03  0.79127027707E+03  0.50400001928E-02 0.  1.
    10030    2    1    2    0    0  0.00000000000E+00  0.00000000000E+00  0.56674208618E+03  0.21492826403E+04  0.20732147201E+04 0.  0.
        3    1    3    3  502    0  0.89913139467E+02  0.60694045583E+03  0.11495469760E+04  0.13030423438E+04  0.10100000352E+00 0. -1.
       -3    1    3    3    0  502 -0.89913139467E+02 -0.60694045583E+03 -0.58280488983E+03  0.84624029647E+03  0.10100000352E+00 0.  1.
</event>
<event>
 5   0  0.3108326E-05  0.2097727E+04  0.7818609E-02  0.8562245E-01
       -2   -1    0    0    0  501  0.00000000000E+00  0.00000000000E+00  0.72885509737E+03  0.72885509737E+03  0.25500000920E-02 0. -1.
        2   -1    0    0  501    0  0.00000000000E+00  0.00000000000E+00 -0.15093729828E+04  0.15093729828E+04  0.25500000920E-02 0.  1.
    10030    2    1    2    0    0  0.00000000000E+00  0.00000000000E+00 -0.78051788543E+03  0.22382280802E+04  0.20977265716E+04 0.  0.
        5    1    3    3  502    0 -0.42724127669E+02  0.10419197404E+04 -0.27015870442E+03  0.10772325246E+04  0.46999998093E+01 0. -1.
       -5    1    3    3    0  502  0.42724127669E+02 -0.10419197404E+04 -0.51035918101E+03  0.11609955556E+04  0.46999998093E+01 0.  1.
</event>
<event>
 5   0  0.1492552E-05  0.2111613E+04  0.7818609E-02  0.8556145E-01
        1   -1    0    0  501    0  0.00000000000E+00  0.00000000000E+00  0.14698376528E+04  0.14698376528E+04  0.50400001928E-02 0.  1.
       -1   -1    0    0    0  501  0.00000000000E+00  0.00000000000E+00 -0.75840164419E+03  0.75840164420E+03  0.50400001928E-02 0. -1.
    10030    2    1    2    0    0  0.00000000000E+00  0.00000000000E+00  0.71143600858E+03  0.22282392970E+04  0.21116129310E+04 0.  0.
        4    1    3    3  502    0 -0.98484973157E+03  0.14709446568E+03  0.72604228439E+03  0.12323574105E+04  0.12699999809E+01 0.  1.
       -4    1    3    3    0  502  0.98484973157E+03 -0.14709446568E+03 -0.14606275812E+02  0.99588188647E+03  0.12699999809E+01 0. -1.
</event>
<event>
 5   0  0.1513292E-05  0.2105028E+04  0.7818609E-02  0.8559032E-01
       -1   -1    0    0    0  501  0.00000000000E+00  0.00000000000E+00  0.13012737482E+04  0.13012737482E+04  0.50400001928E-02 0. -1.
        1   -1    0    0  501    0  0.00000000000E+00  0.00000000000E+00 -0.85130868770E+03  0.85130868771E+03  0.50400001928E-02 0.  1.
    10030    2    1    2    0    0  0.00000000000E+00  0.00000000000E+00  0.44996506050E+03  0.21525824359E+04  0.21050279304E+04 0.  0.
        1    1    3    3  502    0  0.52417740013E+03 -0.60716052660E+03  0.92183137991E+03  0.12219570143E+04  0.50400001928E-02 0. -1.
       -1    1    3    3    0  502 -0.52417740013E+03  0.60716052660E+03 -0.47186631942E+03  0.93062542158E+03  0.50400001928E-02 0.  1.
</event>
<event>
 5   0  0.1513292E-05  0.2162931E+04  0.7818609E-02  0.8534017E-01
       -1   -1    0    0    0  501  0.00000000000E+00  0.00000000000E+00  0.89366968256E+03  0.89366968257E+03  0.50400001928E-02 0. -1.
        1   -1    0    0  501    0  0.00000000000E+00  0.00000000000E+00 -0.13087247083E+04  0.13087247083E+04  0.50400001928E-02 0.  1.
    10030    2    1    2    0    0  0.00000000000E+00  0.00000000000E+00 -0.41505502574E+03  0.22023943909E+04  0.21629309694E+04 0.  0.
        1    1    3    3  502    0 -0.70863198690E+03  0.18579820434E+03  0.60252958863E+03  0.94853685790E+03  0.50400001928E-02 0. -1.
       -1    1    3    3    0  502  0.70863198690E+03 -0.18579820434E+03 -0.10175846144E+04  0.12538575330E+04  0.50400001928E-02 0.  1.
</event>
<event>
 5   0  0.3108326E-05  0.2105195E+04  0.7818609E-02  0.8558958E-01
        2   -1    0    0  501    0  0.00000000000E+00  0.00000000000E+00  0.20426935364E+04  0.20426935364E+04  0.25500000920E-02 0.  1.
       -2   -1    0    0    0  501  0.00000000000E+00  0.00000000000E+00 -0.54240234988E+03  0.54240234989E+03  0.25500000920E-02 0. -1.
    10030    2    1    2    0    0  0.00000000000E+00  0.00000000000E+00  0.15002911865E+04  0.25850958863E+04  0.21051952634E+04 0.  0.
        5    1    3    3  502    0 -0.76592184366E+03 -0.70260963318E+03  0.54598224550E+03  0.11740593127E+04  0.46999998093E+01 0.  1.
       -5    1    3    3    0  502  0.76592184366E+03  0.70260963318E+03  0.95430894101E+03  0.14110365736E+04  0.46999998093E+01 0. -1.
</event>
<event>
 5   0  0.3242231E-05  0.2108375E+04  0.7818609E-02  0.8557563E-01
        2   -1    0    0  501    0  0.00000000000E+00  0.00000000000E+00  0.79182395244E+03  0.79182395244E+03  0.25500000920E-02 0. -1.
       -2   -1    0    0    0  501  0.00000000000E+00  0.00000000000E+00 -0.14034833585E+04  0.14034833585E+04  0.25500000920E-02 0.  1.
    10030    2    1    2    0    0  0.00000000000E+00  0.00000000000E+00 -0.61165940607E+03  0.21953073110E+04  0.21083754316E+04 0.  0.
        4    1    3    3  502    0  0.29302567128E+03  0.58488352658E+02  0.74680619854E+03  0.80436685816E+03  0.12699999809E+01 0. -1.
       -4    1    3    3    0  502 -0.29302567128E+03 -0.58488352658E+02 -0.13584656046E+04  0.13909404528E+04  0.12699999809E+01 0.  1.
</event>
<event>
 5   0  0.1453430E-05  0.2096494E+04  0.7818609E-02  0.8562789E-01
       -1   -1    0    0    0  501  0.00000000000E+00  0.00000000000E+00  0.52168642100E+03  0.52168642102E+03  0.50400001928E-02 0. -1.
        1   -1    0    0  501    0  0.00000000000E+00  0.00000000000E+00 -0.21062884814E+04  0.21062884814E+04  0.50400001928E-02 0.  1.
    10030    2    1    2    0    0  0.00000000000E+00  0.00000000000E+00 -0.15846020604E+04  0.26279749024E+04  0.20964943115E+04 0.  0.
        5    1    3    3  502    0  0.10125478298E+02 -0.33950705915E+03  0.45078100519E+03  0.56444058427E+03  0.46999998093E+01 0. -1.
       -5    1    3    3    0  502 -0.10125478298E+02  0.33950705915E+03 -0.20353830656E+04  0.20635343182E+04  0.46999998093E+01 0.  1.
</event>
<event>
 5   0  0.3242231E-05  0.2101870E+04  0.7818609E-02  0.8560420E-01
        2   -1    0    0  501    0  0.00000000000E+00  0.00000000000E+00  0.18677539512E+04  0.18677539512E+04  0.25500000920E-02 0.  1.
       -2   -1    0    0    0  501  0.00000000000E+00  0.00000000000E+00 -0.59133276504E+03  0.59133276505E+03  0.25500000920E-02 0. -1.
    10030    2    1    2    0    0  0.00000000000E+00  0.00000000000E+00  0.12764211861E+04  0.24590867162E+04  0.21018697470E+04 0.  0.
        4    1    3    3  502    0 -0.53140304825E+03 -0.10107605613E+03  0.16923736558E+04  0.17767205105E+04  0.12699999809E+01 0.  1.
       -4    1    3    3    0  502  0.53140304825E+03  0.10107605613E+03 -0.41595246964E+03  0.68236620572E+03  0.12699999809E+01 0. -1.
</event>
<event>
 5   0  0.1466480E-05  0.2078130E+04  0.7818609E-02  0.8570939E-01
        1   -1    0    0  501    0  0.00000000000E+00  0.00000000000E+00  0.15452323356E+04  0.15452323356E+04  0.50400001928E-02 0.  1.
       -1   -1    0    0    0  501  0.00000000000E+00  0.00000000000E+00 -0.69870177474E+03  0.69870177476E+03  0.50400001928E-02 0. -1.
    10030    2    1    2    0    0  0.00000000000E+00  0.00000000000E+00  0.84653056083E+03  0.22439341103E+04  0.20781304822E+04 0.  0.
        3    1    3    3  502    0  0.46642960893E+03  0.12659867787E+03 -0.56994485797E+03  0.74727568986E+03  0.10100000352E+00 0. -1.
       -3    1    3    3    0  502 -0.46642960893E+03 -0.12659867787E+03  0.14164754188E+04  0.14966584205E+04  0.10100000352E+00 0.  1.
</event>
<event>
 5   0  0.3279789E-05  0.2101914E+04  0.7818609E-02  0.8560401E-01
       -2   -1    0    0    0  501  0.00000000000E+00  0.00000000000E+00  0.52108591538E+03  0.52108591538E+03  0.25500000920E-02 0.  1.
        2   -1    0    0  501    0  0.00000000000E+00  0.00000000000E+00 -0.21196323057E+04  0.21196323057E+04  0.25500000920E-02 0. -1.
    10030    2    1    2    0    0  0.00000000000E+00  0.00000000000E+00 -0.15985463903E+04  0.26407182211E+04  0.21019139281E+04 0.  0.
        2    1    3    3  502    0  0.34021594244E+03  0.88231805976E+03 -0.22316432323E+03  0.97161430683E+03  0.25500000920E-02 0.  1.
       -2    1    3    3    0  502 -0.34021594244E+03 -0.88231805976E+03 -0.13753820671E+04  0.16691039142E+04  0.25500000920E-02 0. -1.
</event>
<event>
 5   0  0.3130517E-05  0.2102027E+04  0.7818609E-02  0.8560351E-01
        2   -1    0    0  501    0  0.00000000000E+00  0.00000000000E+00  0.10525532669E+04  0.10525532669E+04  0.25500000920E-02 0. -1.
       -2   -1    0    0    0  501  0.00000000000E+00  0.00000000000E+00 -0.10494757849E+04  0.10494757849E+04  0.25500000920E-02 0.  1.
    10030    2    1    2    0    0  0.00000000000E+00  0.00000000000E+00  0.30774820453E+01  0.21020290518E+04  0.21020267990E+04 0.  0.
        1    1    3    3  502    0 -0.45998889917E+01 -0.57447188285E+03  0.88164766780E+03  0.10523030520E+04  0.50400001928E-02 0. -1.
       -1    1    3    3    0  502  0.45998889917E+01  0.57447188285E+03 -0.87857018575E+03  0.10497259997E+04  0.50400001928E-02 0.  1.
</event>
<event>
 5   0  0.1492552E-05  0.2112376E+04  0.7818609E-02  0.8555811E-01
       -1   -1    0    0    0  501  0.00000000000E+00  0.00000000000E+00  0.16482130711E+04  0.16482130711E+04  0.50400001928E-02 0.  1.
        1   -1    0    0  501    0  0.00000000000E+00  0.00000000000E+00 -0.67681383475E+03  0.67681383477E+03  0.50400001928E-02 0. -1.
    10030    2    1    2    0    0  0.00000000000E+00  0.00000000000E+00  0.97139923631E+03  0.23250269058E+04  0.21123763009E+04 0.  0.
        4    1    3    3  502    0 -0.21201152529E+03 -0.32643247796E+02  0.16239835601E+04  0.16380899502E+04  0.12699999809E+01 0.  1.
       -4    1    3    3    0  502  0.21201152529E+03  0.32643247796E+02 -0.65258432379E+03  0.68693695566E+03  0.12699999809E+01 0. -1.
</event>
<event>
 5   0  0.3130517E-05  0.2098716E+04  0.7818609E-02  0.8561809E-01
        2   -1    0    0  501    0  0.00000000000E+00  0.00000000000E+00  0.16296083106E+04  0.16296083106E+04  0.25500000920E-02 0.  1.
       -2   -1    0    0    0  501  0.00000000000E+00  0.00000000000E+00 -0.67571595235E+03  0.67571595236E+03  0.25500000920E-02 0. -1.
    10030    2    1    2    0    0  0.00000000000E+00  0.00000000000E+00  0.95389235827E+03  0.23053242630E+04  0.20987161138E+04 0.  0.
        1    1    3    3  502    0  0.26571511013E+01  0.73892795052E+03  0.12953656789E+04  0.14913060781E+04  0.50400001928E-02 0.  1.
       -1    1    3    3    0  502 -0.26571511013E+01 -0.73892795052E+03 -0.34147332066E+03  0.81401818485E+03  0.50400001928E-02 0. -1.
</event>
<event>
 5   0  0.1435410E-05  0.2109278E+04  0.7818609E-02  0.8557167E-01
        1   -1    0    0  501    0  0.00000000000E+00  0.00000000000E+00  0.20397176365E+04  0.20397176365E+04  0.50400001928E-02 0. -1.
       -1   -1    0    0    0  501  0.00000000000E+00  0.00000000000E+00 -0.54530248008E+03  0.54530248010E+03  0.50400001928E-02 0.  1.
    10030    2    1    2    0    0  0.00000000000E+00  0.00000000000E+00  0.14944151564E+04  0.25850201166E+04  0.21092776829E+04 0.  0.
        2    1    3    3  502    0  0.81382705801E+03  0.26204902293E+03 -0.95409136099E+01  0.85502935611E+03  0.25500000920E-02 0. -1.
       -2    1    3    3    0  502 -0.81382705801E+03 -0.26204902293E+03  0.15039560700E+04  0.17299907604E+04  0.25500000920E-02 0.  1.
</event>
<event>
 5   0  0.3242231E-05  0.2098199E+04  0.7818609E-02  0.8562037E-01
       -2   -1    0    0    0  501  0.00000000000E+00  0.00000000000E+00  0.10954049806E+04  0.10954049806E+04  0.25500000920E-02 0. -1.
        2   -1    0    0  501    0  0.00000000000E+00  0.00000000000E+00 -0.10047518566E+04  0.10047518566E+04  0.25500000920E-02 0.  1.
    10030    2    1    2    0    0  0.00000000000E+00  0.00000000000E+00  0.90653123992E+02  0.21001568371E+04  0.20981994070E+04 0.  0.
        4    1    3    3  502    0  0.10217235448E+04 -0.86658776924E+02 -0.17664558218E+03  0.10404970064E+04  0.12699999809E+01 0.  1.
       -4    1    3    3    0  502 -0.10217235448E+04  0.86658776924E+02  0.26729870617E+03  0.10596598307E+04  0.12699999809E+01 0. -1.
</event>
<event>
 5   0  0.3257130E-05  0.2099295E+04  0.7818609E-02  0.8561554E-01
        2   -1    0    0  501    0  0.00000000000E+00  0.00000000000E+00  0.21671921325E+04  0.21671921325E+04  0.25500000920E-02 0. -1.
       -2   -1    0    0    0  501  0.00000000000E+00  0.00000000000E+00 -0.50838117289E+03  0.50838117290E+03  0.25500000920E-02 0.  1.
    10030    2    1    2    0    0  0.00000000000E+00  0.00000000000E+00  0.16588109596E+04  0.26755733054E+04  0.20992948132E+04 0.  0.
        3    1    3    3  502    0 -0.86391408695E+03 -0.74648127664E+02  0.15832434597E+04  0.18051536653E+04  0.10100000352E+00 0. -1.
       -3    1    3    3    0  502  0.86391408695E+03  0.74648127664E+02  0.75567499940E+02  0.87041964009E+03  0.10100000352E+00 0.  1.
</event>
<event>
 5   0  0.1435410E-05  0.2077985E+04  0.7818609E-02  0.8571004E-01
        1   -1    0    0  501    0  0.00000000000E+00  0.00000000000E+00  0.16448618000E+04  0.16448618001E+04  0.50400001928E-02 0.  1.
       -1   -1    0    0    0  501  0.00000000000E+00  0.00000000000E+00 -0.65628924666E+03  0.65628924668E+03  0.50400001928E-02 0. -1.
    10030    2    1    2    0    0  0.00000000000E+00  0.00000000000E+00  0.98857255339E+03  0.23011510467E+04  0.20779847080E+04 0.  0.
        2    1    3    3  502    0  0.44993758722E+03  0.69463765218E+03  0.11898680535E+04  0.14493968694E+04  0.25500000920E-02 0.  1.
       -2    1    3    3    0  502 -0.44993758722E+03 -0.69463765218E+03 -0.20129550013E+03  0.85175417733E+03  0.25500000920E-02 0. -1.
</event>
<event>
 5   0  0.1492552E-05  0.2101709E+04  0.7818609E-02  0.8560491E-01
       -1   -1    0    0    0  501  0.00000000000E+00  0.00000000000E+00  0.52889374846E+03  0.52889374848E+03  0.50400001928E-02 0. -1.
        1   -1    0    0  501    0  0.00000000000E+00  0.00000000000E+00 -0.20879331089E+04  0.20879331089E+04  0.50400001928E-02 0.  1.
    10030    2    1    2    0    0  0.00000000000E+00  0.00000000000E+00 -0.15590393605E+04  0.26168268574E+04  0.21017086083E+04 0.  0.
        4    1    3    3  502    0  0.61250567392E+03  0.77493432843E+03 -0.33300642792E+03  0.10423921085E+04  0.12699999809E+01 0. -1.
       -4    1    3    3    0  502 -0.61250567392E+03 -0.77493432843E+03 -0.12260329326E+04  0.15744347489E+04  0.12699999809E+01 0.  1.
</event>
<event>
 5   0  0.1466480E-05  0.2086564E+04  0.7818609E-02  0.8567185E-01
       -1   -1    0    0    0  501  0.00000000000E+00  0.00000000000E+00  0.15782845642E+04  0.15782845642E+04  0.50400001928E-02 0.  1.
        1   -1    0    0  501    0  0.00000000000E+00  0.00000000000E+00 -0.68963289967E+03  0.68963289969E+03  0.50400001928E-02 0. -1.
    10030    2    1    2    0    0  0.00000000000E+00  0.00000000000E+00  0.88865166455E+03  0.22679174639E+04  0.20865636444E+04 0.  0.
        3    1    3    3  502    0 -0.28225802909E+03 -0.55986155141E+03  0.13506607645E+04  0.14890933693E+04  0.10100000352E+00 0.  1.
       -3    1    3    3    0  502  0.28225802909E+03  0.55986155141E+03 -0.46200909990E+03  0.77882409460E+03  0.10100000352E+00 0. -1.
</event>
<event>
 5   0  0.1466480E-05  0.2099424E+04  0.7818609E-02  0.8561497E-01
        1   -1    0    0  501    0  0.00000000000E+00  0.00000000000E+00  0.12692651370E+04  0.12692651370E+04  0.50400001928E-02 0. -1.
       -1   -1    0    0    0  501  0.00000000000E+00  0.00000000000E+00 -0.86813619499E+03  0.86813619500E+03  0.50400001928E-02 0.  1.
    10030    2    1    2    0    0  0.00000000000E+00  0.00000000000E+00  0.40112894205E+03  0.21374013320E+04  0.20994237367E+04 0.  0.
        3    1    3    3  502    0 -0.46921458533E+02 -0.98872307300E+03  0.55634278562E+03  0.11354700541E+04  0.10100000352E+00 0.  1.
       -3    1    3    3    0  502  0.46921458533E+02  0.98872307300E+03 -0.15521384358E+03  0.10019312780E+04  0.10100000352E+00 0. -1.
</event>
<event>
 5   0  0.3257130E-05  0.2100165E+04  0.7818609E-02  0.8561171E-01
        2   -1    0    0  501    0  0.00000000000E+00  0.00000000000E+00  0.10731687364E+04  0.10731687364E+04  0.25500000920E-02 0.  1.
       -2   -1    0    0    0  501  0.00000000000E+00  0.00000000000E+00 -0.10274926312E+04  0.10274926312E+04  0.25500000920E-02 0. -1.
    10030    2    1    2    0    0  0.00000000000E+00  0.00000000000E+00  0.45676105170E+02  0.21006613676E+04  0.21001647257E+04 0.  0.
        3    1    3    3  502    0 -0.39701258012E+03 -0.40509658325E+03  0.90676119767E+03  0.10695504244E+04  0.10100000352E+00 0.  1.
       -3    1    3    3    0  502  0.39701258012E+03  0.40509658325E+03 -0.86108509250E+03  0.10311109432E+04  0.10100000352E+00 0. -1.
</event>
<event>
 5   0  0.3108326E-05  0.2085841E+04  0.7818609E-02  0.8567506E-01
       -2   -1    0    0    0  501  0.00000000000E+00  0.00000000000E+00  0.49782813335E+03  0.49782813336E+03  0.25500000920E-02 0.  1.
        2   -1    0    0  501    0  0.00000000000E+00  0.00000000000E+00 -0.21848568301E+04  0.21848568301E+04  0.25500000920E-02 0. -1.
    10030    2    1    2    0    0  0.00000000000E+00  0.00000000000E+00 -0.16870286968E+04  0.26826849635E+04  0.20858410269E+04 0.  0.
        5    1    3    3  502    0 -0.36664336410E+03 -0.97587753765E+03 -0.88202953635E+03  0.13655630772E+04  0.46999998093E+01 0.  1.
       -5    1    3    3    0  502  0.36664336410E+03  0.97587753765E+03 -0.80499916042E+03  0.13171218862E+04  0.46999998093E+01 0. -1.
</event>
<event>
 5   0  0.3279789E-05  0.2100465E+04  0.7818609E-02  0.8561038E-01
        2   -1    0    0  501    0  0.00000000000E+00  0.00000000000E+00  0.88337299282E+03  0.88337299282E+03  0.25500000920E-02 0.  1.
       -2   -1    0    0    0  501  0.00000000000E+00  0.00000000000E+00 -0.12486103534E+04  0.12486103534E+04  0.25500000920E-02 0. -1.
    10030    2    1    2    0    0  0.00000000000E+00  0.00000000000E+00 -0.36523736062E+03  0.21319833463E+04  0.21004653435E+04 0.  0.
        2    1    3    3  502    0  0.10452170025E+04  0.89870951025E+02 -0.23268730094E+03  0.10745690998E+04  0.25500000920E-02 0.  1.
       -2    1    3    3    0  502 -0.10452170025E+04 -0.89870951025E+02 -0.13255005968E+03  0.10574142464E+04  0.25500000920E-02 0. -1.
</event>
<event>
 5   0  0.1513292E-05  0.2096808E+04  0.7818609E-02  0.8562651E-01
        1   -1    0    0  501    0  0.00000000000E+00  0.00000000000E+00  0.18840095513E+04  0.18840095513E+04  0.50400001928E-02 0.  1.
       -1   -1    0    0    0  501  0.00000000000E+00  0.00000000000E+00 -0.58341062722E+03  0.58341062724E+03  0.50400001928E-02 0. -1.
    10030    2    1    2    0    0  0.00000000000E+00  0.00000000000E+00  0.13005989241E+04  0.24674201786E+04  0.20968082354E+04 0.  0.
        1    1    3    3  502    0 -0.39242637323E+03 -0.35869697968E+03 -0.41300986636E+03  0.67323037021E+03  0.50400001928E-02 0. -1.
       -1    1    3    3    0  502  0.39242637323E+03  0.35869697968E+03  0.17136087904E+04  0.17941898083E+04  0.50400001928E-02 0.  1.
</event>
<event>
 5   0  0.3279789E-05  0.2101379E+04  0.7818609E-02  0.8560636E-01
        2   -1    0    0  501    0  0.00000000000E+00  0.00000000000E+00  0.20501097065E+04  0.20501097065E+04  0.25500000920E-02 0.  1.
       -2   -1    0    0    0  501  0.00000000000E+00  0.00000000000E+00 -0.53848257339E+03  0.53848257340E+03  0.25500000920E-02 0. -1.
    10030    2    1    2    0    0  0.00000000000E+00  0.00000000000E+00  0.15116271331E+04  0.25885922799E+04  0.21013789287E+04 0.  0.
        2    1    3    3  502    0  0.92135567369E+03  0.46062992861E+03  0.50075091542E+03  0.11453504651E+04  0.25500000920E-02 0. -1.
       -2    1    3    3    0  502 -0.92135567369E+03 -0.46062992861E+03  0.10108762177E+04  0.14432418148E+04  0.25500000920E-02 0.  1.
</event>
<event>
 5   0  0.1513292E-05  0.2098143E+04  0.7818609E-02  0.8562062E-01
        1   -1    0    0  501    0  0.00000000000E+00  0.00000000000E+00  0.89151596247E+03  0.89151596249E+03  0.50400001928E-02 0.  1.
       -1   -1    0    0    0  501  0.00000000000E+00  0.00000000000E+00 -0.12344719130E+04  0.12344719130E+04  0.50400001928E-02 0. -1.
    10030    2    1    2    0    0  0.00000000000E+00  0.00000000000E+00 -0.34295595054E+03  0.21259878755E+04  0.20981433847E+04 0.  0.
        1    1    3    3  502    0 -0.90263999027E+03 -0.50881195128E+03 -0.33767561823E+03  0.10898042838E+04  0.50400001928E-02 0. -1.
       -1    1    3    3    0  502  0.90263999027E+03  0.50881195128E+03 -0.52803323082E+01  0.10361835917E+04  0.50400001928E-02 0.  1.
</event>
<event>
 5   0  0.1453430E-05  0.2098440E+04  0.7818609E-02  0.8561931E-01
        1   -1    0    0  501    0  0.00000000000E+00  0.00000000000E+00  0.79053689276E+03  0.79053689278E+03  0.50400001928E-02 0. -1.
       -1   -1    0    0    0  501  0.00000000000E+00  0.00000000000E+00 -0.13925508784E+04  0.13925508784E+04  0.50400001928E-02 0.  1.
    10030    2    1    2    0    0  0.00000000000E+00  0.00000000000E+00 -0.60201398559E+03  0.21830877711E+04  0.20984402249E+04 0.  0.
        5    1    3    3  502    0 -0.49229725758E+03  0.58907655833E+03 -0.10450292700E+04  0.12967174120E+04  0.46999998093E+01 0.  1.
       -5    1    3    3    0  502  0.49229725758E+03 -0.58907655833E+03  0.44301528439E+03  0.88637035917E+03  0.46999998093E+01 0. -1.
</event>
<event>
 5   0  0.3242231E-05  0.2106860E+04  0.7818609E-02  0.8558227E-01
        2   -1    0    0  501    0  0.00000000000E+00  0.00000000000E+00  0.14662872770E+04  0.14662872770E+04  0.25500000920E-02 0. -1.
       -2   -1    0    0    0  501  0.00000000000E+00  0.00000000000E+00 -0.75681967850E+03  0.75681967851E+03  0.25500000920E-02 0.  1.
    10030    2    1    2    0    0  0.00000000000E+00  0.00000000000E+00  0.70946759854E+03  0.22231069556E+04  0.21068602855E+04 0.  0.
        4    1    3    3  502    0  0.94985369412E+03 -0.27922049894E+03 -0.25022791425E+02  0.99036047995E+03  0.12699999809E+01 0.  1.
       -4    1    3    3    0  502 -0.94985369412E+03  0.27922049894E+03  0.73449038997E+03  0.12327464756E+04  0.12699999809E+01 0. -1.
</event>
<event>
 5   0  0.1466480E-05  0.2092572E+04  0.7818609E-02  0.8564523E-01
        1   -1    0    0  501    0  0.00000000000E+00  0.00000000000E+00  0.12997074838E+04  0.12997074839E+04  0.50400001928E-02 0. -1.
       -1   -1    0    0    0  501  0.00000000000E+00  0.00000000000E+00 -0.84227711592E+03  0.84227711593E+03  0.50400001928E-02 0.  1.
    10030    2    1    2    0    0  0.00000000000E+00  0.00000000000E+00  0.45743036793E+03  0.21419845998E+04  0.20925715004E+04 0.  0.
        3    1    3    3  502    0 -0.58723525093E+03  0.70873843210E+03 -0.28058627513E+03  0.96222870101E+03  0.10100000352E+00 0.  1.
       -3    1    3    3    0  502  0.58723525093E+03 -0.70873843210E+03  0.73801664306E+03  0.11797558988E+04  0.10100000352E+00 0. -1.
</event>
<event>
 5   0  0.1129987E-05  0.2096370E+04  0.7818609E-02  0.8562844E-01
       -3   -1    0    0    0  501  0.00000000000E+00  0.00000000000E+00  0.60566356368E+03  0.60566357210E+03  0.10100000352E+00 0.  1.
        3   -1    0    0  501    0  0.00000000000E+00  0.00000000000E+00 -0.18140290648E+04  0.18140290676E+04  0.10100000352E+00 0. -1.
    10030    2    1    2    0    0  0.00000000000E+00  0.00000000000E+00 -0.12083655011E+04  0.24196926397E+04  0.20963695491E+04 0.  0.
        1    1    3    3  502    0  0.77979666436E+03 -0.10399999190E+03 -0.14036838800E+04  0.16091076009E+04  0.50400001928E-02 0. -1.
       -1    1    3    3    0  502 -0.77979666436E+03  0.10399999190E+03  0.19531837890E+03  0.81058503886E+03  0.50400001928E-02 0.  1.
</event>
<event>
 5   0  0.1513292E-05  0.2095709E+04  0.7818609E-02  0.8563136E-01
       -1   -1    0    0    0  501  0.00000000000E+00  0.00000000000E+00  0.11122001647E+04  0.11122001647E+04  0.50400001928E-02 0.  1.
        1   -1    0    0  501    0  0.00000000000E+00  0.00000000000E+00 -0.98723137364E+03  0.98723137365E+03  0.50400001928E-02 0. -1.
    10030    2    1    2    0    0  0.00000000000E+00  0.00000000000E+00  0.12496879105E+03  0.20994315384E+04  0.20957088504E+04 0.  0.
        1    1    3    3  502    0 -0.67274263510E+03 -0.68550132385E+03  0.48216074899E+03  0.10746970299E+04  0.50400001928E-02 0. -1.
       -1    1    3    3    0  502  0.67274263510E+03  0.68550132385E+03 -0.35719195794E+03  0.10247345085E+04  0.50400001928E-02 0.  1.
</event>
<event>
 5   0  0.1435410E-05  0.2098494E+04  0.7818609E-02  0.8561907E-01
        1   -1    0    0  501    0  0.00000000000E+00  0.00000000000E+00  0.15134329072E+04  0.15134329072E+04  0.50400001928E-02 0. -1.
       -1   -1    0    0    0  501  0.00000000000E+00  0.00000000000E+00 -0.72743148719E+03  0.72743148720E+03  0.50400001928E-02 0.  1.
    10030    2    1    2    0    0  0.00000000000E+00  0.00000000000E+00  0.78600142002E+03  0.22408643944E+04  0.20984935077E+04 0.  0.
        2    1    3    3  502    0 -0.84515421233E+03  0.30066324101E+03 -0.18819972112E+03  0.91657141682E+03  0.25500000920E-02 0.  1.
       -2    1    3    3    0  502  0.84515421233E+03 -0.30066324101E+03  0.97420114114E+03  0.13242929776E+04  0.25500000920E-02 0. -1.
</event>
<event>
 5   0  0.1492552E-05  0.2085792E+04  0.7818609E-02  0.8567528E-01
       -1   -1    0    0    0  501  0.00000000000E+00  0.00000000000E+00  0.39769512252E+03  0.39769512255E+03  0.50400001928E-02 0. -1.
        1   -1    0    0  501    0  0.00000000000E+00  0.00000000000E+00 -0.27348384181E+04  0.27348384181E+04  0.50400001928E-02 0.  1.
    10030    2    1    2    0    0  0.00000000000E+00  0.00000000000E+00 -0.23371432956E+04  0.31325335406E+04  0.20857918399E+04 0.  0.
        4    1    3    3  502    0  0.20038483473E+03  0.84698654074E+03 -0.30571042394E+03  0.92249702352E+03  0.12699999809E+01 0. -1.
       -4    1    3    3    0  502 -0.20038483473E+03 -0.84698654074E+03 -0.20314328716E+04  0.22100365171E+04  0.12699999809E+01 0.  1.
</event>
<event>
 5   0  0.1453430E-05  0.2100039E+04  0.7818609E-02  0.8561226E-01
        1   -1    0    0  501    0  0.00000000000E+00  0.00000000000E+00  0.12530549513E+04  0.12530549513E+04  0.50400001928E-02 0.  1.
       -1   -1    0    0    0  501  0.00000000000E+00  0.00000000000E+00 -0.87988248515E+03  0.87988248516E+03  0.50400001928E-02 0. -1.
    10030    2    1    2    0    0  0.00000000000E+00  0.00000000000E+00  0.37317246618E+03  0.21329374365E+04  0.21000391469E+04 0.  0.
        5    1    3    3  502    0  0.56364661647E+03  0.26619026784E+02 -0.71278715958E+03  0.90911699231E+03  0.46999998093E+01 0. -1.
       -5    1    3    3    0  502 -0.56364661647E+03 -0.26619026784E+02  0.10859596258E+04  0.12238204442E+04  0.46999998093E+01 0.  1.
</event>
<event>
 5   0  0.3130517E-05  0.2105880E+04  0.7818609E-02  0.8558658E-01
        2   -1    0    0  501    0  0.00000000000E+00  0.00000000000E+00  0.76799119196E+03  0.76799119196E+03  0.25500000920E-02 0.  1.
       -2   -1    0    0    0  501  0.00000000000E+00  0.00000000000E+00 -0.14436140083E+04  0.14436140083E+04  0.25500000920E-02 0. -1.
    10030    2    1    2    0    0  0.00000000000E+00  0.00000000000E+00 -0.67562281636E+03  0.22116052003E+04  0.21058801894E+04 0.  0.
        1    1    3    3  502    0 -0.27463683211E+03 -0.69184903895E+03  0.44429311993E+03  0.86687764920E+03  0.50400001928E-02 0.  1.
       -1    1    3    3    0  502  0.27463683211E+03  0.69184903895E+03 -0.11199159363E+04  0.13447275511E+04  0.50400001928E-02 0. -1.
</event>
<event>
 5   0  0.1435410E-05  0.2103232E+04  0.7818609E-02  0.8559821E-01
        1   -1    0    0  501    0  0.00000000000E+00  0.00000000000E+00  0.15603832473E+04  0.15603832473E+04  0.50400001928E-02 0.  1.
       -1   -1    0    0    0  501  0.00000000000E+00  0.00000000000E+00 -0.70873372105E+03  0.70873372107E+03  0.50400001928E-02 0. -1.
    10030    2    1    2    0    0  0.00000000000E+00  0.00000000000E+00  0.85164952626E+03  0.22691169684E+04  0.21032320130E+04 0.  0.
        2    1    3    3  502    0 -0.42430756121E+03 -0.71594677608E+03 -0.26774739129E+03  0.87424559377E+03  0.25500000920E-02 0. -1.
       -2    1    3    3    0  502  0.42430756121E+03  0.71594677608E+03  0.11193969176E+04  0.13948713746E+04  0.25500000920E-02 0.  1.
</event>
<event>
 5   0  0.3257130E-05  0.2105033E+04  0.7818609E-02  0.8559030E-01
        2   -1    0    0  501    0  0.00000000000E+00  0.00000000000E+00  0.82577388572E+03  0.82577388572E+03  0.25500000920E-02 0. -1.
       -2   -1    0    0    0  501  0.00000000000E+00  0.00000000000E+00 -0.13415185420E+04  0.13415185420E+04  0.25500000920E-02 0.  1.
    10030    2    1    2    0    0  0.00000000000E+00  0.00000000000E+00 -0.51574465624E+03  0.21672924277E+04  0.21050329966E+04 0.  0.
        3    1    3    3  502    0 -0.10037870542E+04  0.10674345047E+03 -0.56469363661E+03  0.11566596421E+04  0.10100000352E+00 0.  1.
       -3    1    3    3    0  502  0.10037870542E+04 -0.10674345047E+03  0.48948980371E+02  0.10106327855E+04  0.10100000352E+00 0. -1.
</event>
<event>
 5   0  0.1492552E-05  0.2103668E+04  0.7818609E-02  0.8559629E-01
       -1   -1    0    0    0  501  0.00000000000E+00  0.00000000000E+00  0.84352402707E+03  0.84352402709E+03  0.50400001928E-02 0.  1.
        1   -1    0    0  501    0  0.00000000000E+00  0.00000000000E+00 -0.13115871581E+04  0.13115871581E+04  0.50400001928E-02 0. -1.
    10030    2    1    2    0    0  0.00000000000E+00  0.00000000000E+00 -0.46806313104E+03  0.21551111852E+04  0.21036684924E+04 0.  0.
        4    1    3    3  502    0  0.42117892517E+03  0.57150939753E+03  0.56105216509E+03  0.90487337419E+03  0.12699999809E+01 0. -1.
       -4    1    3    3    0  502 -0.42117892517E+03 -0.57150939753E+03 -0.10291152961E+04  0.12502378110E+04  0.12699999809E+01 0.  1.
</event>
<event>
 5   0  0.3130517E-05  0.2103871E+04  0.7818609E-02  0.8559540E-01
       -2   -1    0    0    0  501  0.00000000000E+00  0.00000000000E+00  0.11325499948E+04  0.11325499948E+04  0.25500000920E-02 0. -1.
        2   -1    0    0  501    0  0.00000000000E+00  0.00000000000E+00 -0.97705874259E+03  0.97705874259E+03  0.25500000920E-02 0.  1.
    10030    2    1    2    0    0  0.00000000000E+00  0.00000000000E+00  0.15549125218E+03  0.21096087374E+04  0.21038705985E+04 0.  0.
        1    1    3    3  502    0  0.31640798588E+03  0.10026568676E+04  0.11149848069E+03  0.10572921635E+04  0.50400001928E-02 0. -1.
       -1    1    3    3    0  502 -0.31640798588E+03 -0.10026568676E+04  0.43992771496E+02  0.10523165739E+04  0.50400001928E-02 0.  1.
</event>
<event>
 5   0  0.1466480E-05  0.2098086E+04  0.7818609E-02  0.8562087E-01
       -1   -1    0    0    0  501  0.00000000000E+00  0.00000000000E+00  0.12146410013E+04  0.12146410013E+04  0.50400001928E-02 0. -1.
        1   -1    0    0  501    0  0.00000000000E+00  0.00000000000E+00 -0.90602215321E+03  0.90602215323E+03  0.50400001928E-02 0.  1.
    10030    2    1    2    0    0  0.00000000000E+00  0.00000000000E+00  0.30861884805E+03  0.21206631545E+04  0.20980864190E+04 0.  0.
        3    1    3    3  502    0  0.54464941651E+03  0.88885297684E+03  0.35619078487E+02  0.10430586418E+04  0.10100000352E+00 0. -1.
       -3    1    3    3    0  502 -0.54464941651E+03 -0.88885297684E+03  0.27299976957E+03  0.10776045127E+04  0.10100000352E+00 0.  1.
</event>
<event>
 5   0  0.3242231E-05  0.2101585E+04  0.7818609E-02  0.8560546E-01
        2   -1    0    0  501    0  0.00000000000E+00  0.00000000000E+00  0.13569519722E+04  0.13569519722E+04  0.25500000920E-02 0. -1.
       -2   -1    0    0    0  501  0.00000000000E+00  0.00000000000E+00 -0.81370927424E+03  0.81370927425E+03  0.25500000920E-02 0.  1.
    10030    2    1    2    0    0  0.00000000000E+00  0.00000000000E+00  0.54324269792E+03  0.21706612464E+04  0.21015845493E+04 0.  0.
        4    1    3    3  502    0  0.54906531660E+02 -0.10275919312E+04  0.52023402819E+02  0.10303727246E+04  0.12699999809E+01 0.  1.
       -4    1    3    3    0  502 -0.54906531660E+02  0.10275919312E+04  0.49121929510E+03  0.11402885218E+04  0.12699999809E+01 0. -1.
</event>
<event>
 5   0  0.3242231E-05  0.2097437E+04  0.7818609E-02  0.8562373E-01
        2   -1    0    0  501    0  0.00000000000E+00  0.00000000000E+00  0.18238799308E+04  0.18238799308E+04  0.25500000920E-02 0.  1.
       -2   -1    0    0    0  501  0.00000000000E+00  0.00000000000E+00 -0.60300583419E+03  0.60300583419E+03  0.25500000920E-02 0. -1.
    10030    2    1    2    0    0  0.00000000000E+00  0.00000000000E+00  0.12208740966E+04  0.24268857650E+04  0.20974367587E+04 0.  0.
        4    1    3    3  502    0 -0.45827315160E+03 -0.23951676403E+03 -0.44524538384E+03  0.68236912771E+03  0.12699999809E+01 0. -1.
       -4    1    3    3    0  502  0.45827315160E+03  0.23951676403E+03  0.16661194805E+04  0.17445166373E+04  0.12699999809E+01 0.  1.
</event>
<event>
 5   0  0.3108326E-05  0.2101730E+04  0.7818609E-02  0.8560482E-01
        2   -1    0    0  501    0  0.00000000000E+00  0.00000000000E+00  0.15400276901E+04  0.15400276901E+04  0.25500000920E-02 0.  1.
       -2   -1    0    0    0  501  0.00000000000E+00  0.00000000000E+00 -0.71707643662E+03  0.71707643663E+03  0.25500000920E-02 0. -1.
    10030    2    1    2    0    0  0.00000000000E+00  0.00000000000E+00  0.82295125350E+03  0.22571041268E+04  0.21017303046E+04 0.  0.
        5    1    3    3  502    0  0.39249985796E+03 -0.32656249407E+03 -0.57489909930E+03  0.76891499232E+03  0.46999998093E+01 0. -1.
       -5    1    3    3    0  502 -0.39249985796E+03  0.32656249407E+03  0.13978503528E+04  0.14881891344E+04  0.46999998093E+01 0.  1.
</event>
<event>
 5   0  0.3279789E-05  0.2099032E+04  0.7818609E-02  0.8561670E-01
        2   -1    0    0  501    0  0.00000000000E+00  0.00000000000E+00  0.12922462748E+04  0.12922462748E+04  0.25500000920E-02 0.  1.
       -2   -1    0    0    0  501  0.00000000000E+00  0.00000000000E+00 -0.85237880624E+03  0.85237880624E+03  0.25500000920E-02 0. -1.
    10030    2    1    2    0    0  0.00000000000E+00  0.00000000000E+00  0.43986746860E+03  0.21446250811E+04  0.20990315263E+04 0.  0.
        2    1    3    3  502    0  0.31717933667E+03 -0.95433817616E+03  0.52665310608E+03  0.11352213794E+04  0.25500000920E-02 0.  1.
       -2    1    3    3    0  502 -0.31717933667E+03  0.95433817616E+03 -0.86785637488E+02  0.10094037017E+04  0.25500000920E-02 0. -1.
</event>
<event>
 5   0  0.3257130E-05  0.2111131E+04  0.7818609E-02  0.8556356E-01
        2   -1    0    0  501    0  0.00000000000E+00  0.00000000000E+00  0.28658329166E+04  0.28658329167E+04  0.25500000920E-02 0. -1.
       -2   -1    0    0    0  501  0.00000000000E+00  0.00000000000E+00 -0.38879383144E+03  0.38879383145E+03  0.25500000920E-02 0.  1.
    10030    2    1    2    0    0  0.00000000000E+00  0.00000000000E+00  0.24770390852E+04  0.32546267481E+04  0.21111306544E+04 0.  0.
        3    1    3    3  502    0 -0.12428624642E+03  0.98410168279E+02 -0.37033680488E+03  0.40284114924E+03  0.10100000352E+00 0.  1.
       -3    1    3    3    0  502  0.12428624642E+03 -0.98410168279E+02  0.28473758901E+04  0.28517855989E+04  0.10100000352E+00 0. -1.
</event>
<event>
 5   0  0.3257130E-05  0.2100088E+04  0.7818609E-02  0.8561205E-01
       -2   -1    0    0    0  501  0.00000000000E+00  0.00000000000E+00  0.63438585217E+03  0.63438585217E+03  0.25500000920E-02 0. -1.
        2   -1    0    0  501    0  0.00000000000E+00  0.00000000000E+00 -0.17380464175E+04  0.17380464175E+04  0.25500000920E-02 0.  1.
    10030    2    1    2    0    0  0.00000000000E+00  0.00000000000E+00 -0.11036605654E+04  0.23724322697E+04  0.21000876722E+04 0.  0.
        3    1    3    3  502    0  0.34227283419E+03 -0.92916098995E+03 -0.15708551734E+03  0.10025800258E+04  0.10100000352E+00 0.  1.
       -3    1    3    3    0  502 -0.34227283419E+03  0.92916098995E+03 -0.94657504804E+03  0.13698522439E+04  0.10100000352E+00 0. -1.
</event>
<event>
 5   0  0.3279789E-05  0.2103095E+04  0.7818609E-02  0.8559881E-01
        2   -1    0    0  501    0  0.00000000000E+00  0.00000000000E+00  0.13808102452E+04  0.13808102452E+04  0.25500000920E-02 0. -1.
       -2   -1    0    0    0  501  0.00000000000E+00  0.00000000000E+00 -0.80079982008E+03  0.80079982008E+03  0.25500000920E-02 0.  1.
    10030    2    1    2    0    0  0.00000000000E+00  0.00000000000E+00  0.58001042515E+03  0.21816100653E+04  0.21030954291E+04 0.  0.
        2    1    3    3  502    0  0.55909269876E+01  0.93011991765E+03 -0.21881505845E+03  0.95552830909E+03  0.25500000920E-02 0.  1.
       -2    1    3    3    0  502 -0.55909269876E+01 -0.93011991765E+03  0.79882548360E+03  0.12260817562E+04  0.25500000920E-02 0. -1.
</event>
<event>
 5   0  0.1129987E-05  0.2111857E+04  0.7818609E-02  0.8556038E-01
        3   -1    0    0  501    0  0.00000000000E+00  0.00000000000E+00  0.97334716935E+03  0.97334717459E+03  0.10100000352E+00 0. -1.
       -3   -1    0    0    0  501  0.00000000000E+00  0.00000000000E+00 -0.11455164742E+04  0.11455164786E+04  0.10100000352E+00 0.  1.
    10030    2    1    2    0    0  0.00000000000E+00  0.00000000000E+00 -0.17216930484E+03  0.21188636532E+04  0.21118572185E+04 0.  0.
        5    1    3    3  502    0 -0.59149945320E+03 -0.53524977317E+03  0.60801919186E+03  0.10030320785E+04  0.46999998093E+01 0. -1.
       -5    1    3    3    0  502  0.59149945320E+03  0.53524977317E+03 -0.78018849670E+03  0.11158315747E+04  0.46999998093E+01 0.  1.
</event>
<event>
 5   0  0.1129987E-05  0.2092992E+04  0.7818609E-02  0.8564337E-01
       -4   -1    0    0    0  501  0.00000000000E+00  0.00000000000E+00  0.13046394727E+04  0.13046400909E+04  0.12699999809E+01 0.  1.
        4   -1    0    0  501    0  0.00000000000E+00  0.00000000000E+00 -0.83942921888E+03  0.83943017959E+03  0.12699999809E+01 0. -1.
    10030    2    1    2    0    0  0.00000000000E+00  0.00000000000E+00  0.46521025387E+03  0.21440702705E+04  0.20929922944E+04 0.  0.
        4    1    3    3  502    0  0.25000788514E+02  0.66239515663E+03 -0.59694743627E+03  0.89204273301E+03  0.12699999809E+01 0. -1.
       -4    1    3    3    0  502 -0.25000788514E+02 -0.66239515663E+03  0.10621576901E+04  0.12520275375E+04  0.12699999809E+01 0.  1.
</event>
<event>
 5   0  0.3257130E-05  0.2097876E+04  0.7818609E-02  0.8562180E-01
        2   -1    0    0  501    0  0.00000000000E+00  0.00000000000E+00  0.14819270434E+04  0.14819270434E+04  0.25500000920E-02 0. -1.
       -2   -1    0    0    0  501  0.00000000000E+00  0.00000000000E+00 -0.74245953950E+03  0.74245953950E+03  0.25500000920E-02 0.  1.
    10030    2    1    2    0    0  0.00000000000E+00  0.00000000000E+00  0.73946750386E+03  0.22243865829E+04  0.20978759450E+04 0.  0.
        3    1    3    3  502    0  0.13618955160E+03 -0.81351118863E+03 -0.31735873162E+03  0.88377860504E+03  0.10100000352E+00 0.  1.
       -3    1    3    3    0  502 -0.13618955160E+03  0.81351118863E+03  0.10568262355E+04  0.13406079778E+04  0.10100000352E+00 0. -1.
</event>
<event>
 5   0  0.1492552E-05  0.2099594E+04  0.7818609E-02  0.8561422E-01
        1   -1    0    0  501    0  0.00000000000E+00  0.00000000000E+00  0.20683655547E+04  0.20683655547E+04  0.50400001928E-02 0.  1.
       -1   -1    0    0    0  501  0.00000000000E+00  0.00000000000E+00 -0.53282327721E+03  0.53282327723E+03  0.50400001928E-02 0. -1.
    10030    2    1    2    0    0  0.00000000000E+00  0.00000000000E+00  0.15355422775E+04  0.26011888319E+04  0.20995935924E+04 0.  0.
        4    1    3    3  502    0  0.71814835832E+01  0.22963192321E+03  0.20368373040E+04  0.20497536949E+04  0.12699999809E+01 0.  1.
       -4    1    3    3    0  502 -0.71814835832E+01 -0.22963192321E+03 -0.50129502651E+03  0.55143513704E+03  0.12699999809E+01 0. -1.
</event>
<event>
 5   0  0.3130517E-05  0.2120925E+04  0.7818609E-02  0.8552081E-01
       -2   -1    0    0    0  501  0.00000000000E+00  0.00000000000E+00  0.87652273947E+03  0.87652273947E+03  0.25500000920E-02 0. -1.
        2   -1    0    0  501    0  0.00000000000E+00  0.00000000000E+00 -0.12830025091E+04  0.12830025091E+04  0.25500000920E-02 0.  1.
    10030    2    1    2    0    0  0.00000000000E+00  0.00000000000E+00 -0.40647976964E+03  0.21595252486E+04  0.21209251510E+04 0.  0.
        1    1    3    3  502    0  0.34498508650E+03  0.77417863790E+03  0.44570852708E+03  0.95761336896E+03  0.50400001928E-02 0. -1.
       -1    1    3    3    0  502 -0.34498508650E+03 -0.77417863790E+03 -0.85218829672E+03  0.12019118796E+04  0.50400001928E-02 0.  1.
</event>
<event>
 5   0  0.3279789E-05  0.2097696E+04  0.7818609E-02  0.8562259E-01
       -2   -1    0    0    0  501  0.00000000000E+00  0.00000000000E+00  0.95989639718E+03  0.95989639718E+03  0.25500000920E-02 0.  1.
        2   -1    0    0  501    0  0.00000000000E+00  0.00000000000E+00 -0.11460428085E+04  0.11460428085E+04  0.25500000920E-02 0. -1.
    10030    2    1    2    0    0  0.00000000000E+00  0.00000000000E+00 -0.18614641133E+03  0.21059392057E+04  0.20976962248E+04 0.  0.
        2    1    3    3  502    0  0.97345524706E+03 -0.30353968920E+03  0.15351547797E+03  0.10311733428E+04  0.25500000920E-02 0.  1.
       -2    1    3    3    0  502 -0.97345524706E+03  0.30353968920E+03 -0.33966188930E+03  0.10747658629E+04  0.25500000920E-02 0. -1.
</event>
<event>
 5   0  0.1435410E-05  0.2103552E+04  0.7818609E-02  0.8559680E-01
       -1   -1    0    0    0  501  0.00000000000E+00  0.00000000000E+00  0.98822905591E+03  0.98822905592E+03  0.50400001928E-02 0. -1.
        1   -1    0    0  501    0  0.00000000000E+00  0.00000000000E+00 -0.11194087923E+04  0.11194087923E+04  0.50400001928E-02 0.  1.
    10030    2    1    2    0    0  0.00000000000E+00  0.00000000000E+00 -0.13117973635E+03  0.21076378482E+04  0.21035515625E+04 0.  0.
        2    1    3    3  502    0  0.10627043992E+03 -0.11463468307E+03  0.97652566492E+03  0.98895747696E+03  0.25500000920E-02 0. -1.
       -2    1    3    3    0  502 -0.10627043992E+03  0.11463468307E+03 -0.11077054013E+04  0.11186803712E+04  0.25500000920E-02 0.  1.
</event>
<event>
 5   0  0.3108326E-05  0.2109947E+04  0.7818609E-02  0.8556874E-01
       -2   -1    0    0    0  501  0.00000000000E+00  0.00000000000E+00  0.60944796255E+03  0.60944796256E+03  0.25500000920E-02 0. -1.
        2   -1    0    0  501    0  0.00000000000E+00  0.00000000000E+00 -0.18261919558E+04  0.18261919558E+04  0.25500000920E-02 0.  1.
    10030    2    1    2    0    0  0.00000000000E+00  0.00000000000E+00 -0.12167439932E+04  0.24356399184E+04  0.21099468872E+04 0.  0.
        5    1    3    3  502    0  0.31921132108E+03 -0.85401283891E+03 -0.12210680264E+04  0.15238973101E+04  0.46999998093E+01 0.  1.
       -5    1    3    3    0  502 -0.31921132108E+03  0.85401283891E+03  0.43240331572E+01  0.91174260830E+03  0.46999998093E+01 0. -1.
</event>
<event>
 5   0  0.1466480E-05  0.2078519E+04  0.7818609E-02  0.8570765E-01
       -1   -1    0    0    0  501  0.00000000000E+00  0.00000000000E+00  0.75679444032E+03  0.75679444033E+03  0.50400001928E-02 0. -1.
        1   -1    0    0  501    0  0.00000000000E+00  0.00000000000E+00 -0.14271512454E+04  0.14271512454E+04  0.50400001928E-02 0.  1.
    10030    2    1    2    0    0  0.00000000000E+00  0.00000000000E+00 -0.67035680508E+03  0.21839456857E+04  0.20785188265E+04 0.  0.
        3    1    3    3  502    0  0.64185665455E+03  0.65429467294E+03 -0.84990209505E+03  0.12499660257E+04  0.10100000352E+00 0.  1.
       -3    1    3    3    0  502 -0.64185665455E+03 -0.65429467294E+03  0.17954528997E+03  0.93397966004E+03  0.10100000352E+00 0. -1.
</event>
<event>
 5   0  0.1466480E-05  0.2107857E+04  0.7818609E-02  0.8557790E-01
        1   -1    0    0  501    0  0.00000000000E+00  0.00000000000E+00  0.14885836441E+04  0.14885836441E+04  0.50400001928E-02 0. -1.
       -1   -1    0    0    0  501  0.00000000000E+00  0.00000000000E+00 -0.74618903094E+03  0.74618903096E+03  0.50400001928E-02 0.  1.
    10030    2    1    2    0    0  0.00000000000E+00  0.00000000000E+00  0.74239461313E+03  0.22347726750E+04  0.21078565292E+04 0.  0.
        3    1    3    3  502    0  0.79997314364E+03 -0.21818733703E+03 -0.31851214480E+03  0.88826389163E+03  0.10100000352E+00 0.  1.
       -3    1    3    3    0  502 -0.79997314364E+03  0.21818733703E+03  0.10609067579E+04  0.13465087834E+04  0.10100000352E+00 0. -1.
</event>
<event>
 5   0  0.1492552E-05  0.2106855E+04  0.7818609E-02  0.8558230E-01
       -1   -1    0    0    0  501  0.00000000000E+00  0.00000000000E+00  0.12645134972E+04  0.12645134972E+04  0.50400001928E-02 0. -1.
        1   -1    0    0  501    0  0.00000000000E+00  0.00000000000E+00 -0.87757805762E+03  0.87757805763E+03  0.50400001928E-02 0.  1.
    10030    2    1    2    0    0  0.00000000000E+00  0.00000000000E+00  0.38693543959E+03  0.21420915549E+04  0.21068548111E+04 0.  0.
        4    1    3    3  502    0  0.86243734639E+03 -0.18163884621E+02  0.80821184505E+03  0.11820897185E+04  0.12699999809E+01 0. -1.
       -4    1    3    3    0  502 -0.86243734639E+03  0.18163884621E+02 -0.42127640546E+03  0.96000183638E+03  0.12699999809E+01 0.  1.
</event>
<event>
 5   0  0.3242231E-05  0.2100854E+04  0.7818609E-02  0.8560867E-01
       -2   -1    0    0    0  501  0.00000000000E+00  0.00000000000E+00  0.12877361780E+04  0.12877361780E+04  0.25500000920E-02 0. -1.
        2   -1    0    0  501    0  0.00000000000E+00  0.00000000000E+00 -0.85684973535E+03  0.85684973535E+03  0.25500000920E-02 0.  1.
    10030    2    1    2    0    0  0.00000000000E+00  0.00000000000E+00  0.43088644260E+03  0.21445859133E+04  0.21008535440E+04 0.  0.
        4    1    3    3  502    0 -0.13701178228E+03 -0.48017706648E+03 -0.72794395263E+03  0.88274925926E+03  0.12699999809E+01 0.  1.
       -4    1    3    3    0  502  0.13701178228E+03  0.48017706648E+03  0.11588303952E+04  0.12618366540E+04  0.12699999809E+01 0. -1.
</event>
<event>
 5   0  0.3279789E-05  0.2126149E+04  0.7818609E-02  0.8549811E-01
       -2   -1    0    0    0  501  0.00000000000E+00  0.00000000000E+00  0.60675040427E+03  0.60675040427E+03  0.25500000920E-02 0.  1.
        2   -1    0    0  501    0  0.00000000000E+00  0.00000000000E+00 -0.18625901041E+04  0.18625901041E+04  0.25500000920E-02 0. -1.
    10030    2    1    2    0    0  0.00000000000E+00  0.00000000000E+00 -0.12558396998E+04  0.24693405083E+04  0.21261489117E+04 0.  0.
        2    1    3    3  502    0 -0.92423382777E+03 -0.26189497274E+03 -0.11567528365E+04  0.15036203876E+04  0.25500000920E-02 0. -1.
       -2    1    3    3    0  502  0.92423382777E+03  0.26189497274E+03 -0.99086863273E+02  0.96572012075E+03  0.25500000920E-02 0.  1.
</event>
<event>
 5   0  0.3242231E-05  0.2095348E+04  0.7818609E-02  0.8563295E-01
        2   -1    0    0  501    0  0.00000000000E+00  0.00000000000E+00  0.80045418136E+03  0.80045418137E+03  0.25500000920E-02 0.  1.
       -2   -1    0    0    0  501  0.00000000000E+00  0.00000000000E+00 -0.13712480154E+04  0.13712480154E+04  0.25500000920E-02 0. -1.
    10030    2    1    2    0    0  0.00000000000E+00  0.00000000000E+00 -0.57079383402E+03  0.21717021968E+04  0.20953483792E+04 0.  0.
        4    1    3    3  502    0 -0.69636584830E+03 -0.75375230821E+03 -0.66632861837E+02  0.10283528033E+04  0.12699999809E+01 0.  1.
       -4    1    3    3    0  502  0.69636584830E+03  0.75375230821E+03 -0.50416097219E+03  0.11433493935E+04  0.12699999809E+01 0. -1.
</event>
<event>
 5   0  0.3130517E-05  0.2096363E+04  0.7818609E-02  0.8562847E-01
        2   -1    0    0  501    0  0.00000000000E+00  0.00000000000E+00  0.21620797573E+04  0.21620797573E+04  0.25500000920E-02 0.  1.
       -2   -1    0    0    0  501  0.00000000000E+00  0.00000000000E+00 -0.50816071641E+03  0.50816071642E+03  0.25500000920E-02 0. -1.
    10030    2    1    2    0    0  0.00000000000E+00  0.00000000000E+00  0.16539190409E+04  0.26702404738E+04  0.20963625626E+04 0.  0.
        1    1    3    3  502    0  0.35658079135E+03  0.44443142923E+03 -0.29366113548E+03  0.64101951497E+03  0.50400001928E-02 0. -1.
       -1    1    3    3    0  502 -0.35658079135E+03 -0.44443142923E+03  0.19475801764E+04  0.20292209588E+04  0.50400001928E-02 0.  1.
</event>
<event>
 5   0  0.3257130E-05  0.2101283E+04  0.7818609E-02  0.8560678E-01
        2   -1    0    0  501    0  0.00000000000E+00  0.00000000000E+00  0.17186109853E+04  0.17186109853E+04  0.25500000920E-02 0. -1.
       -2   -1    0    0    0  501  0.00000000000E+00  0.00000000000E+00 -0.64229044469E+03  0.64229044470E+03  0.25500000920E-02 0.  1.
    10030    2    1    2    0    0  0.00000000000E+00  0.00000000000E+00  0.10763205406E+04  0.23609014300E+04  0.21012828596E+04 0.  0.
        3    1    3    3  502    0 -0.93692275154E+03  0.11872552394E+02  0.41687684488E+01  0.93700725113E+03  0.10100000352E+00 0.  1.
       -3    1    3    3    0  502  0.93692275154E+03 -0.11872552394E+02  0.10721517721E+04  0.14238941788E+04  0.10100000352E+00 0. -1.
</event>
<event>
 5   0  0.1513292E-05  0.2095674E+04  0.7818609E-02  0.8563151E-01
       -1   -1    0    0    0  501  0.00000000000E+00  0.00000000000E+00  0.81285068217E+03  0.81285068218E+03  0.50400001928E-02 0. -1.
        1   -1    0    0  501    0  0.00000000000E+00  0.00000000000E+00 -0.13507553137E+04  0.13507553137E+04  0.50400001928E-02 0.  1.
    10030    2    1    2    0    0  0.00000000000E+00  0.00000000000E+00 -0.53790463154E+03  0.21636059959E+04  0.20956739997E+04 0.  0.
        1    1    3    3  502    0  0.19474534343E+03  0.11135319073E+03 -0.13256722135E+04  0.13445192819E+04  0.50400001928E-02 0.  1.
       -1    1    3    3    0  502 -0.19474534343E+03 -0.11135319073E+03  0.78776758192E+03  0.81908671399E+03  0.50400001928E-02 0. -1.
</event>
<event>
 5   0  0.3279789E-05  0.2090806E+04  0.7818609E-02  0.8565304E-01
       -2   -1    0    0    0  501  0.00000000000E+00  0.00000000000E+00  0.11336689877E+04  0.11336689877E+04  0.25500000920E-02 0.  1.
        2   -1    0    0  501    0  0.00000000000E+00  0.00000000000E+00 -0.96400888012E+03  0.96400888012E+03  0.25500000920E-02 0. -1.
    10030    2    1    2    0    0  0.00000000000E+00  0.00000000000E+00  0.16966010756E+03  0.20976778678E+04  0.20908055589E+04 0.  0.
        2    1    3    3  502    0 -0.44877693616E+03 -0.67476984935E+03  0.74741875526E+03  0.11024290833E+04  0.25500000920E-02 0.  1.
       -2    1    3    3    0  502  0.44877693616E+03  0.67476984935E+03 -0.57775864770E+03  0.99524878449E+03  0.25500000920E-02 0. -1.
</event>
<event>
 5   0  0.1435410E-05  0.2078434E+04  0.7818609E-02  0.8570803E-01
        1   -1    0    0  501    0  0.00000000000E+00  0.00000000000E+00  0.23120032375E+04  0.23120032375E+04  0.50400001928E-02 0.  1.
       -1   -1    0    0    0  501  0.00000000000E+00  0.00000000000E+00 -0.46711547381E+03  0.46711547383E+03  0.50400001928E-02 0. -1.
    10030    2    1    2    0    0  0.00000000000E+00  0.00000000000E+00  0.18448877637E+04  0.27791187113E+04  0.20784344953E+04 0.  0.
        2    1    3    3  502    0  0.15265509578E+03  0.80750492272E+03  0.17729671969E+04  0.19541700181E+04  0.25500000920E-02 0.  1.
       -2    1    3    3    0  502 -0.15265509578E+03 -0.80750492272E+03  0.71920566791E+02  0.82494869320E+03  0.25500000920E-02 0. -1.
</event>
<event>
 5   0  0.3242231E-05  0.2100453E+04  0.7818609E-02  0.8561044E-01
        2   -1    0    0  501    0  0.00000000000E+00  0.00000000000E+00  0.17176025358E+04  0.17176025358E+04  0.25500000920E-02 0.  1.
       -2   -1    0    0    0  501  0.00000000000E+00  0.00000000000E+00 -0.64216016269E+03  0.64216016269E+03  0.25500000920E-02 0. -1.
    10030    2    1    2    0    0  0.00000000000E+00  0.00000000000E+00  0.10754423731E+04  0.23597626985E+04  0.21004532119E+04 0.  0.
        4    1    3    3  502    0 -0.33033529804E+03  0.14966249247E+03 -0.56958174385E+03  0.67523717804E+03  0.12699999809E+01 0. -1.
       -4    1    3    3    0  502  0.33033529804E+03 -0.14966249247E+03  0.16450241170E+04  0.16845255205E+04  0.12699999809E+01 0.  1.
</event>
<event>
 5   0  0.3242231E-05  0.2100033E+04  0.7818609E-02  0.8561229E-01
       -2   -1    0    0    0  501  0.00000000000E+00  0.00000000000E+00  0.56986060387E+03  0.56986060387E+03  0.25500000920E-02 0.  1.
        2   -1    0    0  501    0  0.00000000000E+00  0.00000000000E+00 -0.19347453341E+04  0.19347453341E+04  0.25500000920E-02 0. -1.
    10030    2    1    2    0    0  0.00000000000E+00  0.00000000000E+00 -0.13648847302E+04  0.25046059379E+04  0.21000334706E+04 0.  0.
        4    1    3    3  502    0 -0.21180549752E+03 -0.40099185524E+03  0.44704077480E+03  0.63679125621E+03  0.12699999809E+01 0.  1.
       -4    1    3    3    0  502  0.21180549752E+03  0.40099185524E+03 -0.18119255050E+04  0.18678146817E+04  0.12699999809E+01 0. -1.
</event>
<event>
 5   0  0.1513292E-05  0.2100156E+04  0.7818609E-02  0.8561174E-01
       -1   -1    0    0    0  501  0.00000000000E+00  0.00000000000E+00  0.60184264319E+03  0.60184264322E+03  0.50400001928E-02 0.  1.
        1   -1    0    0  501    0  0.00000000000E+00  0.00000000000E+00 -0.18321470617E+04  0.18321470617E+04  0.50400001928E-02 0. -1.
    10030    2    1    2    0    0  0.00000000000E+00  0.00000000000E+00 -0.12303044185E+04  0.24339897049E+04  0.21001564040E+04 0.  0.
        1    1    3    3  502    0 -0.60525665098E+02  0.10459162594E+04 -0.69759346717E+03  0.12586662875E+04  0.50400001928E-02 0.  1.
       -1    1    3    3    0  502  0.60525665098E+02 -0.10459162594E+04 -0.53271095133E+03  0.11753234174E+04  0.50400001928E-02 0. -1.
</event>
<event>
 5   0  0.1466480E-05  0.2112702E+04  0.7818609E-02  0.8555669E-01
        1   -1    0    0  501    0  0.00000000000E+00  0.00000000000E+00  0.15784528406E+04  0.15784528406E+04  0.50400001928E-02 0. -1.
       -1   -1    0    0    0  501  0.00000000000E+00  0.00000000000E+00 -0.70694384124E+03  0.70694384126E+03  0.50400001928E-02 0.  1.
    10030    2    1    2    0    0  0.00000000000E+00  0.00000000000E+00  0.87150899934E+03  0.22853966818E+04  0.21127020749E+04 0.  0.
        3    1    3    3  502    0  0.99964890974E+03  0.47413056562E+02  0.80152308693E+03  0.12821798664E+04  0.10100000352E+00 0. -1.
       -3    1    3    3    0  502 -0.99964890974E+03 -0.47413056562E+02  0.69985912403E+02  0.10032168155E+04  0.10100000352E+00 0.  1.
</event>
<event>
 5   0  0.3257130E-05  0.2097442E+04  0.7818609E-02  0.8562371E-01
        2   -1    0    0  501    0  0.00000000000E+00  0.00000000000E+00  0.12421645196E+04  0.12421645196E+04  0.25500000920E-02 0. -1.
       -2   -1    0    0    0  501  0.00000000000E+00  0.00000000000E+00 -0.88540227317E+03  0.88540227318E+03  0.25500000920E-02 0.  1.
    10030    2    1    2    0    0  0.00000000000E+00  0.00000000000E+00  0.35676224646E+03  0.21275667928E+04  0.20974415742E+04 0.  0.
        3    1    3    3  502    0  0.25554192023E+02 -0.42193915761E+03  0.11519209045E+04  0.12270319678E+04  0.10100000352E+00 0. -1.
       -3    1    3    3    0  502 -0.25554192023E+02  0.42193915761E+03 -0.79515865805E+03  0.90053482505E+03  0.10100000352E+00 0.  1.
</event>
<event>
 5   0  0.1453430E-05  0.2093789E+04  0.7818609E-02  0.8563984E-01
       -1   -1    0    0    0  501  0.00000000000E+00  0.00000000000E+00  0.69039681225E+03  0.69039681227E+03  0.50400001928E-02 0.  1.
        1   -1    0    0  501    0  0.00000000000E+00  0.00000000000E+00 -0.15874752456E+04  0.15874752456E+04  0.50400001928E-02 0. -1.
    10030    2    1    2    0    0  0.00000000000E+00  0.00000000000E+00 -0.89707843333E+03  0.22778720579E+04  0.20937887659E+04 0.  0.
        5    1    3    3  502    0  0.23550022079E+03  0.43955110903E+03  0.55287816103E+03  0.74455482161E+03  0.46999998093E+01 0.  1.
       -5    1    3    3    0  502 -0.23550022079E+03 -0.43955110903E+03 -0.14499565944E+04  0.15333172362E+04  0.46999998093E+01 0. -1.
</event>
<event>
 5   0  0.1492552E-05  0.2095537E+04  0.7818609E-02  0.8563212E-01
        1   -1    0    0  501    0  0.00000000000E+00  0.00000000000E+00  0.11341224886E+04  0.11341224886E+04  0.50400001928E-02 0.  1.
       -1   -1    0    0    0  501  0.00000000000E+00  0.00000000000E+00 -0.96798995200E+03  0.96798995201E+03  0.50400001928E-02 0. -1.
    10030    2    1    2    0    0  0.00000000000E+00  0.00000000000E+00  0.16613253664E+03  0.21021124407E+04  0.20955373281E+04 0.  0.
        4    1    3    3  502    0 -0.96856030050E+03 -0.26107578847E+03 -0.22045199116E+03  0.10270687983E+04  0.12699999809E+01 0.  1.
       -4    1    3    3    0  502  0.96856030050E+03  0.26107578847E+03  0.38658452780E+03  0.10750436424E+04  0.12699999809E+01 0. -1.
</event>
<event>
 5   0  0.3242231E-05  0.2109710E+04  0.7818609E-02  0.8556978E-01
       -2   -1    0    0    0  501  0.00000000000E+00  0.00000000000E+00  0.73739322022E+03  0.73739322023E+03  0.25500000920E-02 0. -1.
        2   -1    0    0  501    0  0.00000000000E+00  0.00000000000E+00 -0.15089899439E+04  0.15089899439E+04  0.25500000920E-02 0.  1.
    10030    2    1    2    0    0  0.00000000000E+00  0.00000000000E+00 -0.77159672372E+03  0.22463831642E+04  0.21097098891E+04 0.  0.
        4    1    3    3  502    0  0.10241550955E+04 -0.35955740601E+02 -0.65205982835E+03  0.12146481414E+04  0.12699999809E+01 0. -1.
       -4    1    3    3    0  502 -0.10241550955E+04  0.35955740601E+02 -0.11953689537E+03  0.10317350227E+04  0.12699999809E+01 0.  1.
</event>
<event>
 5   0  0.3130517E-05  0.2102222E+04  0.7818609E-02  0.8560265E-01
       -2   -1    0    0    0  501  0.00000000000E+00  0.00000000000E+00  0.14949699199E+04  0.14949699199E+04  0.25500000920E-02 0.  1.
        2   -1    0    0  501    0  0.00000000000E+00  0.00000000000E+00 -0.73903429375E+03  0.73903429375E+03  0.25500000920E-02 0. -1.
    10030    2    1    2    0    0  0.00000000000E+00  0.00000000000E+00  0.75593562617E+03  0.22340042137E+04  0.21022217190E+04 0.  0.
        1    1    3    3  502    0  0.16902876824E+03 -0.21137343779E+03 -0.70137123964E+03  0.75177860472E+03  0.50400001928E-02 0. -1.
       -1    1    3    3    0  502 -0.16902876824E+03  0.21137343779E+03  0.14573068658E+04  0.14822256090E+04  0.50400001928E-02 0.  1.
</event>
<event>
 5   0  0.1435410E-05  0.2094131E+04  0.7818609E-02  0.8563833E-01
        1   -1    0    0  501    0  0.00000000000E+00  0.00000000000E+00  0.14899566679E+04  0.14899566679E+04  0.50400001928E-02 0.  1.
       -1   -1    0    0    0  501  0.00000000000E+00  0.00000000000E+00 -0.73582422741E+03  0.73582422743E+03  0.50400001928E-02 0. -1.
    10030    2    1    2    0    0  0.00000000000E+00  0.00000000000E+00  0.75413244046E+03  0.22257808953E+04  0.20941310504E+04 0.  0.
        2    1    3    3  502    0  0.75575119189E+03  0.87952616478E+02 -0.38749635913E+03  0.85384363623E+03  0.25500000920E-02 0.  1.
       -2    1    3    3    0  502 -0.75575119189E+03 -0.87952616478E+02  0.11416287996E+04  0.13719372591E+04  0.25500000920E-02 0. -1.
</event>
<event>
 5   0  0.3279789E-05  0.2103880E+04  0.7818609E-02  0.8559536E-01
       -2   -1    0    0    0  501  0.00000000000E+00  0.00000000000E+00  0.16460825140E+04  0.16460825140E+04  0.25500000920E-02 0. -1.
        2   -1    0    0  501    0  0.00000000000E+00  0.00000000000E+00 -0.67224926655E+03  0.67224926655E+03  0.25500000920E-02 0.  1.
    10030    2    1    2    0    0  0.00000000000E+00  0.00000000000E+00  0.97383324744E+03  0.23183317805E+04  0.21038799992E+04 0.  0.
        2    1    3    3  502    0 -0.75875345984E+03 -0.72119864716E+03  0.60113256786E+03  0.12071431836E+04  0.25500000920E-02 0. -1.
       -2    1    3    3    0  502  0.75875345984E+03  0.72119864716E+03  0.37270067958E+03  0.11111885970E+04  0.25500000920E-02 0.  1.
</event>
<event>
 5   0  0.3130517E-05  0.2100415E+04  0.7818609E-02  0.8561061E-01
       -2   -1    0    0    0  501  0.00000000000E+00  0.00000000000E+00  0.11978510000E+04  0.11978510000E+04  0.25500000920E-02 0.  1.
        2   -1    0    0  501    0  0.00000000000E+00  0.00000000000E+00 -0.92076181506E+03  0.92076181506E+03  0.25500000920E-02 0. -1.
    10030    2    1    2    0    0  0.00000000000E+00  0.00000000000E+00  0.27708918496E+03  0.21186128151E+04  0.21004146838E+04 0.  0.
        1    1    3    3  502    0  0.36424917144E+03 -0.82839065239E+03  0.67610380404E+03  0.11296127149E+04  0.50400001928E-02 0. -1.
       -1    1    3    3    0  502 -0.36424917144E+03  0.82839065239E+03 -0.39901461908E+03  0.98900010016E+03  0.50400001928E-02 0.  1.
</event>
<event>
 5   0  0.3257130E-05  0.2085870E+04  0.7818609E-02  0.8567493E-01
        2   -1    0    0  501    0  0.00000000000E+00  0.00000000000E+00  0.20314740329E+04  0.20314740329E+04  0.25500000920E-02 0.  1.
       -2   -1    0    0    0  501  0.00000000000E+00  0.00000000000E+00 -0.53543052884E+03  0.53543052884E+03  0.25500000920E-02 0. -1.
    10030    2    1    2    0    0  0.00000000000E+00  0.00000000000E+00  0.14960435041E+04  0.25669045618E+04  0.20858698097E+04 0.  0.
        3    1    3    3  502    0  0.40387203158E+03 -0.72914079564E+03  0.15194464507E+04  0.17330540801E+04  0.10100000352E+00 0.  1.
       -3    1    3    3    0  502 -0.40387203158E+03  0.72914079564E+03 -0.23402946574E+02  0.83385048172E+03  0.10100000352E+00 0. -1.
</event>
<event>
 5   0  0.3279789E-05  0.2098456E+04  0.7818609E-02  0.8561924E-01
        2   -1    0    0  501    0  0.00000000000E+00  0.00000000000E+00  0.15725366797E+04  0.15725366797E+04  0.25500000920E-02 0.  1.
       -2   -1    0    0    0  501  0.00000000000E+00  0.00000000000E+00 -0.70006586278E+03  0.70006586278E+03  0.25500000920E-02 0. -1.
    10030    2    1    2    0    0  0.00000000000E+00  0.00000000000E+00  0.87247081688E+03  0.22726025424E+04  0.20984558584E+04 0.  0.
        2    1    3    3  502    0  0.23760334339E+03 -0.85856967881E+03  0.10365684046E+04  0.13667740485E+04  0.25500000920E-02 0.  1.
       -2    1    3    3    0  502 -0.23760334339E+03  0.85856967881E+03 -0.16409758773E+03  0.90582849396E+03  0.25500000920E-02 0. -1.
</event>
<event>
 5   0  0.1453430E-05  0.2110507E+04  0.7818609E-02  0.8556629E-01
        1   -1    0    0  501    0  0.00000000000E+00  0.00000000000E+00  0.12576597162E+04  0.12576597162E+04  0.50400001928E-02 0.  1.
       -1   -1    0    0    0  501  0.00000000000E+00  0.00000000000E+00 -0.88542197115E+03  0.88542197117E+03  0.50400001928E-02 0. -1.
    10030    2    1    2    0    0  0.00000000000E+00  0.00000000000E+00  0.37223774502E+03  0.21430816873E+04  0.21105066169E+04 0.  0.
        5    1    3    3  502    0 -0.68945245146E+03 -0.71253535271E+03 -0.18068524715E+03  0.10078296286E+04  0.46999998093E+01 0. -1.
       -5    1    3    3    0  502  0.68945245146E+03  0.71253535271E+03  0.55292299216E+03  0.11352520588E+04  0.46999998093E+01 0.  1.
</event>
<event>
 5   0  0.3242231E-05  0.2086264E+04  0.7818609E-02  0.8567318E-01
        2   -1    0    0  501    0  0.00000000000E+00  0.00000000000E+00  0.96537630337E+03  0.96537630337E+03  0.25500000920E-02 0.  1.
       -2   -1    0    0    0  501  0.00000000000E+00  0.00000000000E+00 -0.11271505476E+04  0.11271505476E+04  0.25500000920E-02 0. -1.
    10030    2    1    2    0    0  0.00000000000E+00  0.00000000000E+00 -0.16177424419E+03  0.20925268509E+04  0.20862640571E+04 0.  0.
        4    1    3    3  502    0 -0.26106063580E+03  0.70844442824E+03  0.64104900293E+03  0.99045020093E+03  0.12699999809E+01 0.  1.
       -4    1    3    3    0  502  0.26106063580E+03 -0.70844442824E+03 -0.80282324712E+03  0.11020766500E+04  0.12699999809E+01 0. -1.
</event>
<event>
 5   0  0.1466480E-05  0.2013328E+04  0.7818609E-02  0.8600415E-01
       -1   -1    0    0    0  501  0.00000000000E+00  0.00000000000E+00  0.60156406720E+03  0.60156406722E+03  0.50400001928E-02 0. -1.
        1   -1    0    0  501    0  0.00000000000E+00  0.00000000000E+00 -0.16845620416E+04  0.16845620416E+04  0.50400001928E-02 0.  1.
    10030    2    1    2    0    0  0.00000000000E+00  0.00000000000E+00 -0.10829979744E+04  0.22861261089E+04  0.20133275871E+04 0.  0.
        3    1    3    3  502    0 -0.75462658716E+03 -0.10149061968E+03  0.20621509439E+03  0.78885125802E+03  0.10100000352E+00 0. -1.
       -3    1    3    3    0  502  0.75462658716E+03  0.10149061968E+03 -0.12892130688E+04  0.14972748508E+04  0.10100000352E+00 0.  1.
</event>
<event>
 5   0  0.1513292E-05  0.2095875E+04  0.7818609E-02  0.8563063E-01
       -1   -1    0    0    0  501  0.00000000000E+00  0.00000000000E+00  0.76836557914E+03  0.76836557915E+03  0.50400001928E-02 0.  1.
        1   -1    0    0  501    0  0.00000000000E+00  0.00000000000E+00 -0.14292326991E+04  0.14292326991E+04  0.50400001928E-02 0. -1.
    10030    2    1    2    0    0  0.00000000000E+00  0.00000000000E+00 -0.66086711995E+03  0.21975982782E+04  0.20958751972E+04 0.  0.
        1    1    3    3  502    0  0.33700058555E+03 -0.51400754440E+03  0.55952494576E+03  0.83116864433E+03  0.50400001928E-02 0.  1.
       -1    1    3    3    0  502 -0.33700058555E+03  0.51400754440E+03 -0.12203920657E+04  0.13664296339E+04  0.50400001928E-02 0. -1.
</event>
<event>
 5   0  0.3257130E-05  0.2066872E+04  0.7818609E-02  0.8575979E-01
       -2   -1    0    0    0  501  0.00000000000E+00  0.00000000000E+00  0.92345167333E+03  0.92345167333E+03  0.25500000920E-02 0.  1.
        2   -1    0    0  501    0  0.00000000000E+00  0.00000000000E+00 -0.11565193813E+04  0.11565193813E+04  0.25500000920E-02 0. -1.
    10030    2    1    2    0    0  0.00000000000E+00  0.00000000000E+00 -0.23306770798E+03  0.20799710546E+04  0.20668717986E+04 0.  0.
        3    1    3    3  502    0 -0.28787692955E+03  0.20752166598E+03  0.86021080833E+03  0.93053802361E+03  0.10100000352E+00 0.  1.
       -3    1    3    3    0  502  0.28787692955E+03 -0.20752166598E+03 -0.10932785163E+04  0.11494330310E+04  0.10100000352E+00 0. -1.
</event>
<event>
 5   0  0.1129987E-05  0.2100304E+04  0.7818609E-02  0.8561110E-01
       -3   -1    0    0    0  501  0.00000000000E+00  0.00000000000E+00  0.75104572275E+03  0.75104572954E+03  0.10100000352E+00 0. -1.
        3   -1    0    0  501    0  0.00000000000E+00  0.00000000000E+00 -0.14683781035E+04  0.14683781070E+04  0.10100000352E+00 0.  1.
    10030    2    1    2    0    0  0.00000000000E+00  0.00000000000E+00 -0.71733238074E+03  0.22194238365E+04  0.21003038879E+04 0.  0.
        1    1    3    3  502    0 -0.50486911466E+03 -0.71780863257E+03  0.25082794373E+03  0.91271940557E+03  0.50400001928E-02 0.  1.
       -1    1    3    3    0  502  0.50486911466E+03  0.71780863257E+03 -0.96816032447E+03  0.13067044309E+04  0.50400001928E-02 0. -1.
</event>
<event>
 5   0  0.1466480E-05  0.2085831E+04  0.7818609E-02  0.8567511E-01
       -1   -1    0    0    0  501  0.00000000000E+00  0.00000000000E+00  0.60903062769E+03  0.60903062771E+03  0.50400001928E-02 0. -1.
        1   -1    0    0  501    0  0.00000000000E+00  0.00000000000E+00 -0.17859073484E+04  0.17859073484E+04  0.50400001928E-02 0.  1.
    10030    2    1    2    0    0  0.00000000000E+00  0.00000000000E+00 -0.11768767207E+04  0.23949379761E+04  0.20858305525E+04 0.  0.
        3    1    3    3  502    0  0.90426124650E+03 -0.51923476480E+03 -0.61079485790E+03  0.12084550101E+04  0.10100000352E+00 0. -1.
       -3    1    3    3    0  502 -0.90426124650E+03  0.51923476480E+03 -0.56608186276E+03  0.11864829659E+04  0.10100000352E+00 0.  1.
</event>
<event>
 5   0  0.1492552E-05  0.2096588E+04  0.7818609E-02  0.8562748E-01
        1   -1    0    0  501    0  0.00000000000E+00  0.00000000000E+00  0.12081551047E+04  0.12081551047E+04  0.50400001928E-02 0. -1.
       -1   -1    0    0    0  501  0.00000000000E+00  0.00000000000E+00 -0.90958549942E+03  0.90958549943E+03  0.50400001928E-02 0.  1.
    10030    2    1    2    0    0  0.00000000000E+00  0.00000000000E+00  0.29856960523E+03  0.21177406041E+04  0.20965880514E+04 0.  0.
        4    1    3    3  502    0  0.43226074428E+03  0.71735070399E+03  0.78610357872E+03  0.11486521810E+04  0.12699999809E+01 0. -1.
       -4    1    3    3    0  502 -0.43226074428E+03 -0.71735070399E+03 -0.48753397349E+03  0.96908842309E+03  0.12699999809E+01 0.  1.
</event>
<event>
 5   0  0.1453430E-05  0.2101359E+04  0.7818609E-02  0.8560645E-01
       -1   -1    0    0    0  501  0.00000000000E+00  0.00000000000E+00  0.12498974969E+04  0.12498974969E+04  0.50400001928E-02 0.  1.
        1   -1    0    0  501    0  0.00000000000E+00  0.00000000000E+00 -0.88321438958E+03  0.88321438959E+03  0.50400001928E-02 0. -1.
    10030    2    1    2    0    0  0.00000000000E+00  0.00000000000E+00  0.36668310734E+03  0.21331118865E+04  0.21013590410E+04 0.  0.
        5    1    3    3  502    0  0.27264415503E+03 -0.25014517366E+03 -0.81487816183E+03  0.89496142476E+03  0.46999998093E+01 0. -1.
       -5    1    3    3    0  502 -0.27264415503E+03  0.25014517366E+03  0.11815612692E+04  0.12381504618E+04  0.46999998093E+01 0.  1.
</event>
<event>
 5   0  0.1492552E-05  0.2090328E+04  0.7818609E-02  0.8565516E-01
        1   -1    0    0  501    0  0.00000000000E+00  0.00000000000E+00  0.15284679827E+04  0.15284679827E+04  0.50400001928E-02 0. -1.
       -1   -1    0    0    0  501  0.00000000000E+00  0.00000000000E+00 -0.71468141504E+03  0.71468141506E+03  0.50400001928E-02 0.  1.
    10030    2    1    2    0    0  0.00000000000E+00  0.00000000000E+00  0.81378656765E+03  0.22431493978E+04  0.20903278793E+04 0.  0.
        4    1    3    3  502    0 -0.47940713441E+03  0.86648821428E+03  0.48190655680E+02  0.99144186829E+03  0.12699999809E+01 0.  1.
       -4    1    3    3    0  502  0.47940713441E+03 -0.86648821428E+03  0.76559591197E+03  0.12517075295E+04  0.12699999809E+01 0. -1.
</event>
<event>
 5   0  0.3257130E-05  0.2083814E+04  0.7818609E-02  0.8568407E-01
        2   -1    0    0  501    0  0.00000000000E+00  0.00000000000E+00  0.10251653668E+04  0.10251653668E+04  0.25500000920E-02 0. -1.
       -2   -1    0    0    0  501  0.00000000000E+00  0.00000000000E+00 -0.10589222480E+04  0.10589222480E+04  0.25500000920E-02 0.  1.
    10030    2    1    2    0    0  0.00000000000E+00  0.00000000000E+00 -0.33756881134E+02  0.20840876148E+04  0.20838142094E+04 0.  0.
        3    1    3    3  502    0  0.18494231598E+03 -0.28962385990E+03 -0.10006155280E+04  0.10579778285E+04  0.10100000352E+00 0.  1.
       -3    1    3    3    0  502 -0.18494231598E+03  0.28962385990E+03  0.96685864686E+03  0.10261097864E+04  0.10100000352E+00 0. -1.
</event>
<event>
 5   0  0.1513292E-05  0.2099704E+04  0.7818609E-02  0.8561374E-01
        1   -1    0    0  501    0  0.00000000000E+00  0.00000000000E+00  0.96545117780E+03  0.96545117781E+03  0.50400001928E-02 0. -1.
       -1   -1    0    0    0  501  0.00000000000E+00  0.00000000000E+00 -0.11416317012E+04  0.11416317013E+04  0.50400001928E-02 0.  1.
    10030    2    1    2    0    0  0.00000000000E+00  0.00000000000E+00 -0.17618052344E+03  0.21070828791E+04  0.20997044274E+04 0.  0.
        1    1    3    3  502    0  0.85508478173E+03  0.28679173833E+03 -0.62735202844E+03  0.10986309902E+04  0.50400001928E-02 0.  1.
       -1    1    3    3    0  502 -0.85508478173E+03 -0.28679173833E+03  0.45117150500E+03  0.10084518888E+04  0.50400001928E-02 0. -1.
</event>
<event>
 5   0  0.3257130E-05  0.2105116E+04  0.7818609E-02  0.8558993E-01
        2   -1    0    0  501    0  0.00000000000E+00  0.00000000000E+00  0.21713317980E+04  0.21713317980E+04  0.25500000920E-02 0.  1.
       -2   -1    0    0    0  501  0.00000000000E+00  0.00000000000E+00 -0.51022970875E+03  0.51022970876E+03  0.25500000920E-02 0. -1.
    10030    2    1    2    0    0  0.00000000000E+00  0.00000000000E+00  0.16611020893E+04  0.26815615068E+04  0.21051156652E+04 0.  0.
        3    1    3    3  502    0 -0.31047444369E+03 -0.30676740145E+03  0.20506240245E+04  0.20965589709E+04  0.10100000352E+00 0.  1.
       -3    1    3    3    0  502  0.31047444369E+03  0.30676740145E+03 -0.38952193517E+03  0.58500253585E+03  0.10100000352E+00 0. -1.
</event>
<event>
 5   0  0.3242231E-05  0.2086130E+04  0.7818609E-02  0.8567378E-01
        2   -1    0    0  501    0  0.00000000000E+00  0.00000000000E+00  0.16362701340E+04  0.16362701340E+04  0.25500000920E-02 0. -1.
       -2   -1    0    0    0  501  0.00000000000E+00  0.00000000000E+00 -0.66491726512E+03  0.66491726512E+03  0.25500000920E-02 0.  1.
    10030    2    1    2    0    0  0.00000000000E+00  0.00000000000E+00  0.97135286886E+03  0.23011873991E+04  0.20861296820E+04 0.  0.
        4    1    3    3  502    0 -0.48112172601E+03  0.55669438568E+02  0.15047097678E+04  0.15807372647E+04  0.12699999809E+01 0. -1.
       -4    1    3    3    0  502  0.48112172601E+03 -0.55669438568E+02 -0.53335689897E+03  0.72045013443E+03  0.12699999809E+01 0.  1.
</event>
<event>
 5   0  0.1492552E-05  0.2090407E+04  0.7818609E-02  0.8565481E-01
       -1   -1    0    0    0  501  0.00000000000E+00  0.00000000000E+00  0.71428373854E+03  0.71428373856E+03  0.50400001928E-02 0.  1.
        1   -1    0    0  501    0  0.00000000000E+00  0.00000000000E+00 -0.15294348203E+04  0.15294348203E+04  0.50400001928E-02 0. -1.
    10030    2    1    2    0    0  0.00000000000E+00  0.00000000000E+00 -0.81515108172E+03  0.22437185588E+04  0.20904070621E+04 0.  0.
        4    1    3    3  502    0  0.53992987167E+03 -0.89440974364E+03 -0.44075812859E+03  0.11339146338E+04  0.12699999809E+01 0. -1.
       -4    1    3    3    0  502 -0.53992987167E+03  0.89440974364E+03 -0.37439295313E+03  0.11098039251E+04  0.12699999809E+01 0.  1.
</event>
<event>
 5   0  0.1513292E-05  0.2096707E+04  0.7818609E-02  0.8562696E-01
        1   -1    0    0  501    0  0.00000000000E+00  0.00000000000E+00  0.24466099827E+04  0.24466099828E+04  0.50400001928E-02 0. -1.
       -1   -1    0    0    0  501  0.00000000000E+00  0.00000000000E+00 -0.44921117336E+03  0.44921117339E+03  0.50400001928E-02 0.  1.
    10030    2    1    2    0    0  0.00000000000E+00  0.00000000000E+00  0.19973988094E+04  0.28958211561E+04  0.20967065042E+04 0.  0.
        1    1    3    3  502    0 -0.12959038890E+02  0.65670673602E+03  0.21271861008E+04  0.22262866799E+04  0.50400001928E-02 0. -1.
       -1    1    3    3    0  502  0.12959038890E+02 -0.65670673602E+03 -0.12978729139E+03  0.66953447622E+03  0.50400001928E-02 0.  1.
</event>
<event>
 5   0  0.3279789E-05  0.2104215E+04  0.7818609E-02  0.8559389E-01
       -2   -1    0    0    0  501  0.00000000000E+00  0.00000000000E+00  0.17966517737E+04  0.17966517737E+04  0.25500000920E-02 0. -1.
        2   -1    0    0  501    0  0.00000000000E+00  0.00000000000E+00 -0.61610712612E+03  0.61610712612E+03  0.25500000920E-02 0.  1.
    10030    2    1    2    0    0  0.00000000000E+00  0.00000000000E+00  0.11805446475E+04  0.24127588998E+04  0.21042147808E+04 0.  0.
        2    1    3    3  502    0 -0.10469391749E+04  0.72426384095E+02  0.67609938441E+03  0.12483739803E+04  0.25500000920E-02 0.  1.
       -2    1    3    3    0  502  0.10469391749E+04 -0.72426384095E+02  0.50444526312E+03  0.11643849195E+04  0.25500000920E-02 0. -1.
</event>
<event>
 5   0  0.3257130E-05  0.2101824E+04  0.7818609E-02  0.8560440E-01
        2   -1    0    0  501    0  0.00000000000E+00  0.00000000000E+00  0.13027432908E+04  0.13027432908E+04  0.25500000920E-02 0.  1.
       -2   -1    0    0    0  501  0.00000000000E+00  0.00000000000E+00 -0.84776214913E+03  0.84776214914E+03  0.25500000920E-02 0. -1.
    10030    2    1    2    0    0  0.00000000000E+00  0.00000000000E+00  0.45498114165E+03  0.21505054399E+04  0.21018243999E+04 0.  0.
        3    1    3    3  502    0  0.14220699342E+03  0.84675625190E+03  0.84749380057E+03  0.12064264301E+04  0.10100000352E+00 0.  1.
       -3    1    3    3    0  502 -0.14220699342E+03 -0.84675625190E+03 -0.39251265892E+03  0.94407900979E+03  0.10100000352E+00 0. -1.
</event>
<event>
 5   0  0.1492552E-05  0.2103263E+04  0.7818609E-02  0.8559807E-01
        1   -1    0    0  501    0  0.00000000000E+00  0.00000000000E+00  0.14858222374E+04  0.14858222374E+04  0.50400001928E-02 0. -1.
       -1   -1    0    0    0  501  0.00000000000E+00  0.00000000000E+00 -0.74432099560E+03  0.74432099562E+03  0.50400001928E-02 0.  1.
    10030    2    1    2    0    0  0.00000000000E+00  0.00000000000E+00  0.74150124182E+03  0.22301432331E+04  0.21032628814E+04 0.  0.
        4    1    3    3  502    0  0.10075042037E+04 -0.17063897462E+03  0.10727585903E+03  0.10274687845E+04  0.12699999809E+01 0.  1.
       -4    1    3    3    0  502 -0.10075042037E+04  0.17063897462E+03  0.63422538279E+03  0.12026744486E+04  0.12699999809E+01 0. -1.
</event>
<event>
 5   0  0.1435410E-05  0.2106845E+04  0.7818609E-02  0.8558234E-01
       -1   -1    0    0    0  501  0.00000000000E+00  0.00000000000E+00  0.74645951739E+03  0.74645951741E+03  0.50400001928E-02 0.  1.
        1   -1    0    0  501    0  0.00000000000E+00  0.00000000000E+00 -0.14866159623E+04  0.14866159623E+04  0.50400001928E-02 0. -1.
    10030    2    1    2    0    0  0.00000000000E+00  0.00000000000E+00 -0.74015644489E+03  0.22330754797E+04  0.21068446870E+04 0.  0.
        2    1    3    3  502    0  0.30152774071E+03  0.39983159729E+03  0.61222554696E+03  0.79095158193E+03  0.25500000920E-02 0.  1.
       -2    1    3    3    0  502 -0.30152774071E+03 -0.39983159729E+03 -0.13523819919E+04  0.14421238978E+04  0.25500000920E-02 0. -1.
</event>
<event>
 5   0  0.1513292E-05  0.2091101E+04  0.7818609E-02  0.8565173E-01
        1   -1    0    0  501    0  0.00000000000E+00  0.00000000000E+00  0.19515151252E+04  0.19515151252E+04  0.50400001928E-02 0.  1.
       -1   -1    0    0    0  501  0.00000000000E+00  0.00000000000E+00 -0.56016790900E+03  0.56016790902E+03  0.50400001928E-02 0. -1.
    10030    2    1    2    0    0  0.00000000000E+00  0.00000000000E+00  0.13913472162E+04  0.25116830342E+04  0.20911012860E+04 0.  0.
        1    1    3    3  502    0  0.53851802301E+03  0.86189397873E+03  0.99065603733E+03  0.14192470807E+04  0.50400001928E-02 0.  1.
       -1    1    3    3    0  502 -0.53851802301E+03 -0.86189397873E+03  0.40069117882E+03  0.10924359535E+04  0.50400001928E-02 0. -1.
</event>
<event>
 5   0  0.3279789E-05  0.2099967E+04  0.7818609E-02  0.8561258E-01
        2   -1    0    0  501    0  0.00000000000E+00  0.00000000000E+00  0.11850414231E+04  0.11850414231E+04  0.25500000920E-02 0. -1.
       -2   -1    0    0    0  501  0.00000000000E+00  0.00000000000E+00 -0.93031815715E+03  0.93031815715E+03  0.25500000920E-02 0.  1.
    10030    2    1    2    0    0  0.00000000000E+00  0.00000000000E+00  0.25472326595E+03  0.21153595803E+04  0.20999671930E+04 0.  0.
        2    1    3    3  502    0 -0.22367104912E+03 -0.10141906835E+04 -0.28218076684E+02  0.10389454945E+04  0.25500000920E-02 0.  1.
       -2    1    3    3    0  502  0.22367104912E+03  0.10141906835E+04  0.28294134264E+03  0.10764140858E+04  0.25500000920E-02 0. -1.
</event>
<event>
 5   0  0.1453430E-05  0.2104954E+04  0.7818609E-02  0.8559064E-01
       -1   -1    0    0    0  501  0.00000000000E+00  0.00000000000E+00  0.95164371691E+03  0.95164371693E+03  0.50400001928E-02 0. -1.
        1   -1    0    0  501    0  0.00000000000E+00  0.00000000000E+00 -0.11639940486E+04  0.11639940486E+04  0.50400001928E-02 0.  1.
    10030    2    1    2    0    0  0.00000000000E+00  0.00000000000E+00 -0.21235033170E+03  0.21156377655E+04  0.21049537980E+04 0.  0.
        5    1    3    3  502    0  0.30195323925E+03 -0.32288717953E+03  0.85379236992E+03  0.96146523095E+03  0.46999998093E+01 0. -1.
       -5    1    3    3    0  502 -0.30195323925E+03  0.32288717953E+03 -0.10661427016E+04  0.11541725346E+04  0.46999998093E+01 0.  1.
</event>
<event>
 5   0  0.1466480E-05  0.2110709E+04  0.7818609E-02  0.8556540E-01
       -1   -1    0    0    0  501  0.00000000000E+00  0.00000000000E+00  0.75650065674E+03  0.75650065675E+03  0.50400001928E-02 0. -1.
        1   -1    0    0  501    0  0.00000000000E+00  0.00000000000E+00 -0.14722705388E+04  0.14722705388E+04  0.50400001928E-02 0.  1.
    10030    2    1    2    0    0  0.00000000000E+00  0.00000000000E+00 -0.71576988205E+03  0.22287711955E+04  0.21107094822E+04 0.  0.
        3    1    3    3  502    0 -0.20103237213E+02  0.10494541346E+04 -0.47363145587E+03  0.11515575917E+04  0.10100000352E+00 0. -1.
       -3    1    3    3    0  502  0.20103237213E+02 -0.10494541346E+04 -0.24213842618E+03  0.10772136039E+04  0.10100000352E+00 0.  1.
</event>
<event>
 5   0  0.3257130E-05  0.2104904E+04  0.7818609E-02  0.8559086E-01
       -2   -1    0    0    0  501  0.00000000000E+00  0.00000000000E+00  0.59807827549E+03  0.59807827549E+03  0.25500000920E-02 0. -1.
        2   -1    0    0  501    0  0.00000000000E+00  0.00000000000E+00 -0.18520240610E+04  0.18520240610E+04  0.25500000920E-02 0.  1.
    10030    2    1    2    0    0  0.00000000000E+00  0.00000000000E+00 -0.12539457856E+04  0.24501023365E+04  0.21049041371E+04 0.  0.
        3    1    3    3  502    0  0.39624395682E+03 -0.86460192801E+03 -0.10238639772E+03  0.95657135221E+03  0.10100000352E+00 0. -1.
       -3    1    3    3    0  502 -0.39624395682E+03  0.86460192801E+03 -0.11515593878E+04  0.14935309843E+04  0.10100000352E+00 0.  1.
</event>
<event>
 5   0  0.3257130E-05  0.2091583E+04  0.7818609E-02  0.8564960E-01
        2   -1    0    0  501    0  0.00000000000E+00  0.00000000000E+00  0.59813526701E+03  0.59813526701E+03  0.25500000920E-02 0.  1.
       -2   -1    0    0    0  501  0.00000000000E+00  0.00000000000E+00 -0.18284827456E+04  0.18284827456E+04  0.25500000920E-02 0. -1.
    10030    2    1    2    0    0  0.00000000000E+00  0.00000000000E+00 -0.12303474786E+04  0.24266180126E+04  0.20915831471E+04 0.  0.
        3    1    3    3  502    0  0.60144341622E+03 -0.66928261127E+03  0.31138170081E+01  0.89982392873E+03  0.10100000352E+00 0.  1.
       -3    1    3    3    0  502 -0.60144341622E+03  0.66928261127E+03 -0.12334612956E+04  0.15267940839E+04  0.10100000352E+00 0. -1.
</event>
<event>
 5   0  0.1513292E-05  0.2103035E+04  0.7818609E-02  0.8559908E-01
        1   -1    0    0  501    0  0.00000000000E+00  0.00000000000E+00  0.86725487055E+03  0.86725487056E+03  0.50400001928E-02 0. -1.
       -1   -1    0    0    0  501  0.00000000000E+00  0.00000000000E+00 -0.12749295710E+04  0.12749295710E+04  0.50400001928E-02 0.  1.
    10030    2    1    2    0    0  0.00000000000E+00  0.00000000000E+00 -0.40767470041E+03  0.21421844415E+04  0.21030348357E+04 0.  0.
        1    1    3    3  502    0  0.10680480112E+03 -0.10336656442E+04 -0.36750500706E+03  0.11022394748E+04  0.50400001928E-02 0.  1.
       -1    1    3    3    0  502 -0.10680480112E+03  0.10336656442E+04 -0.40169693349E+02  0.10399449667E+04  0.50400001928E-02 0. -1.
</event>
<event>
 5   0  0.3130517E-05  0.2095677E+04  0.7818609E-02  0.8563150E-01
       -2   -1    0    0    0  501  0.00000000000E+00  0.00000000000E+00  0.78121478399E+03  0.78121478399E+03  0.25500000920E-02 0. -1.
        2   -1    0    0  501    0  0.00000000000E+00  0.00000000000E+00 -0.14054588330E+04  0.14054588330E+04  0.25500000920E-02 0.  1.
    10030    2    1    2    0    0  0.00000000000E+00  0.00000000000E+00 -0.62424404898E+03  0.21866736170E+04  0.20956767104E+04 0.  0.
        1    1    3    3  502    0  0.86919453763E+03  0.58494402978E+03 -0.29385302192E+03  0.10881214366E+04  0.50400001928E-02 0.  1.
       -1    1    3    3    0  502 -0.86919453763E+03 -0.58494402978E+03 -0.33039102706E+03  0.10985521804E+04  0.50400001928E-02 0. -1.
</event>
<event>
 5   0  0.1435410E-05  0.2032966E+04  0.7818609E-02  0.8591361E-01
        1   -1    0    0  501    0  0.00000000000E+00  0.00000000000E+00  0.11709314584E+04  0.11709314584E+04  0.50400001928E-02 0. -1.
       -1   -1    0    0    0  501  0.00000000000E+00  0.00000000000E+00 -0.88240636610E+03  0.88240636611E+03  0.50400001928E-02 0.  1.
    10030    2    1    2    0    0  0.00000000000E+00  0.00000000000E+00  0.28852509230E+03  0.20533378245E+04  0.20329656890E+04 0.  0.
        2    1    3    3  502    0 -0.50461713986E+03 -0.23418391819E+03 -0.71500159721E+03  0.90592927395E+03  0.25500000920E-02 0.  1.
       -2    1    3    3    0  502  0.50461713986E+03  0.23418391819E+03  0.10035266895E+04  0.11474085506E+04  0.25500000920E-02 0. -1.
</event>
<event>
 5   0  0.1513292E-05  0.2106699E+04  0.7818609E-02  0.8558298E-01
        1   -1    0    0  501    0  0.00000000000E+00  0.00000000000E+00  0.18045806279E+04  0.18045806279E+04  0.50400001928E-02 0.  1.
       -1   -1    0    0    0  501  0.00000000000E+00  0.00000000000E+00 -0.61484952581E+03  0.61484952583E+03  0.50400001928E-02 0. -1.
    10030    2    1    2    0    0  0.00000000000E+00  0.00000000000E+00  0.11897311021E+04  0.24194301537E+04  0.21066993553E+04 0.  0.
        1    1    3    3  502    0  0.31666863547E+03 -0.12254113259E+03 -0.55027387665E+03  0.64660396938E+03  0.50400001928E-02 0. -1.
       -1    1    3    3    0  502 -0.31666863547E+03  0.12254113259E+03  0.17400049787E+04  0.17728261843E+04  0.50400001928E-02 0.  1.
</event>
<event>
 5   0  0.1129987E-05  0.2101477E+04  0.7818609E-02  0.8560593E-01
       -4   -1    0    0    0  501  0.00000000000E+00  0.00000000000E+00  0.10580806853E+04  0.10580814474E+04  0.12699999809E+01 0.  1.
        4   -1    0    0  501    0  0.00000000000E+00  0.00000000000E+00 -0.10434458137E+04  0.10434465866E+04  0.12699999809E+01 0. -1.
    10030    2    1    2    0    0  0.00000000000E+00  0.00000000000E+00  0.14634871580E+02  0.21015280340E+04  0.21014770754E+04 0.  0.
        5    1    3    3  502    0  0.98808198926E+02  0.10349863967E+04  0.15920753367E+03  0.10518217674E+04  0.46999998093E+01 0.  1.
       -5    1    3    3    0  502 -0.98808198926E+02 -0.10349863967E+04 -0.14457266209E+03  0.10497062666E+04  0.46999998093E+01 0. -1.
</event>
<event>
 5   0  0.3130517E-05  0.2096833E+04  0.7818609E-02  0.8562640E-01
        2   -1    0    0  501    0  0.00000000000E+00  0.00000000000E+00  0.14463065401E+04  0.14463065401E+04  0.25500000920E-02 0.  1.
       -2   -1    0    0    0  501  0.00000000000E+00  0.00000000000E+00 -0.75998941848E+03  0.75998941848E+03  0.25500000920E-02 0. -1.
    10030    2    1    2    0    0  0.00000000000E+00  0.00000000000E+00  0.68631712161E+03  0.22062959586E+04  0.20968334854E+04 0.  0.
        1    1    3    3  502    0 -0.29671736625E+03 -0.90198796164E+03 -0.12451513775E+03  0.95766773880E+03  0.50400001928E-02 0. -1.
       -1    1    3    3    0  502  0.29671736625E+03  0.90198796164E+03  0.81083225936E+03  0.12486282198E+04  0.50400001928E-02 0.  1.
</event>
<event>
 5   0  0.1435410E-05  0.2100712E+04  0.7818609E-02  0.8560930E-01
       -1   -1    0    0    0  501  0.00000000000E+00  0.00000000000E+00  0.90173590935E+03  0.90173590936E+03  0.50400001928E-02 0. -1.
        1   -1    0    0  501    0  0.00000000000E+00  0.00000000000E+00 -0.12234707366E+04  0.12234707367E+04  0.50400001928E-02 0.  1.
    10030    2    1    2    0    0  0.00000000000E+00  0.00000000000E+00 -0.32173482730E+03  0.21252066460E+04  0.21007117816E+04 0.  0.
        2    1    3    3  502    0  0.83613729579E+03 -0.30640857257E+03 -0.72435011110E+03  0.11479089137E+04  0.25500000920E-02 0.  1.
       -2    1    3    3    0  502 -0.83613729579E+03  0.30640857257E+03  0.40261528380E+03  0.97729773228E+03  0.25500000920E-02 0. -1.
</event>
<event>
 5   0  0.1435410E-05  0.2095953E+04  0.7818609E-02  0.8563028E-01
        1   -1    0    0  501    0  0.00000000000E+00  0.00000000000E+00  0.87365145190E+03  0.87365145192E+03  0.50400001928E-02 0.  1.
       -1   -1    0    0    0  501  0.00000000000E+00  0.00000000000E+00 -0.12570854531E+04  0.12570854531E+04  0.50400001928E-02 0. -1.
    10030    2    1    2    0    0  0.00000000000E+00  0.00000000000E+00 -0.38343400122E+03  0.21307369050E+04  0.20959527965E+04 0.  0.
        2    1    3    3  502    0 -0.55277804729E+03 -0.80923933022E+03  0.18568887500E+03  0.99745286678E+03  0.25500000920E-02 0.  1.
       -2    1    3    3    0  502  0.55277804729E+03  0.80923933022E+03 -0.56912287622E+03  0.11332840383E+04  0.25500000920E-02 0. -1.
</event>
<event>
 5   0  0.3279789E-05  0.2100183E+04  0.7818609E-02  0.8561163E-01
       -2   -1    0    0    0  501  0.00000000000E+00  0.00000000000E+00  0.84250364538E+03  0.84250364539E+03  0.25500000920E-02 0. -1.
        2   -1    0    0  501    0  0.00000000000E+00  0.00000000000E+00 -0.13088281826E+04  0.13088281826E+04  0.25500000920E-02 0.  1.
    10030    2    1    2    0    0  0.00000000000E+00  0.00000000000E+00 -0.46632453726E+03  0.21513318280E+04  0.21001833397E+04 0.  0.
        2    1    3    3  502    0 -0.24261790562E+03  0.10210433836E+04 -0.27008844088E+03  0.10836700629E+04  0.25500000920E-02 0.  1.
       -2    1    3    3    0  502  0.24261790562E+03 -0.10210433836E+04 -0.19623609637E+03  0.10676617652E+04  0.25500000920E-02 0. -1.
</event>
<event>
 5   0  0.1466480E-05  0.2100497E+04  0.7818609E-02  0.8561025E-01
        1   -1    0    0  501    0  0.00000000000E+00  0.00000000000E+00  0.20328120655E+04  0.20328120655E+04  0.50400001928E-02 0.  1.
       -1   -1    0    0    0  501  0.00000000000E+00  0.00000000000E+00 -0.54260869745E+03  0.54260869747E+03  0.50400001928E-02 0. -1.
    10030    2    1    2    0    0  0.00000000000E+00  0.00000000000E+00  0.14902033680E+04  0.25754207629E+04  0.21004966146E+04 0.  0.
        3    1    3    3  502    0 -0.46880799317E+03  0.14507816324E+03  0.18835895992E+04  0.19464681853E+04  0.10100000352E+00 0.  1.
       -3    1    3    3    0  502  0.46880799317E+03 -0.14507816324E+03 -0.39338623116E+03  0.62895257768E+03  0.10100000352E+00 0. -1.
</event>
<event>
 5   0  0.3108326E-05  0.2088888E+04  0.7818609E-02  0.8566154E-01
       -2   -1    0    0    0  501  0.00000000000E+00  0.00000000000E+00  0.75375667581E+03  0.75375667581E+03  0.25500000920E-02 0.  1.
        2   -1    0    0  501    0  0.00000000000E+00  0.00000000000E+00 -0.14472349112E+04  0.14472349112E+04  0.25500000920E-02 0. -1.
    10030    2    1    2    0    0  0.00000000000E+00  0.00000000000E+00 -0.69347823543E+03  0.22009915870E+04  0.20888877192E+04 0.  0.
        5    1    3    3  502    0  0.58205359831E+03  0.52566029582E+03  0.38001278786E+03  0.87151416904E+03  0.46999998093E+01 0.  1.
       -5    1    3    3    0  502 -0.58205359831E+03 -0.52566029582E+03 -0.10734910233E+04  0.13294774180E+04  0.46999998093E+01 0. -1.
</event>
<event>
 5   0  0.1466480E-05  0.2103127E+04  0.7818609E-02  0.8559867E-01
       -1   -1    0    0    0  501  0.00000000000E+00  0.00000000000E+00  0.66419053990E+03  0.66419053992E+03  0.50400001928E-02 0.  1.
        1   -1    0    0  501    0  0.00000000000E+00  0.00000000000E+00 -0.16648622148E+04  0.16648622149E+04  0.50400001928E-02 0. -1.
    10030    2    1    2    0    0  0.00000000000E+00  0.00000000000E+00 -0.10006716749E+04  0.23290527548E+04  0.21031269418E+04 0.  0.
        3    1    3    3  502    0  0.91570538873E+03 -0.37021806777E+03 -0.10072930075E+03  0.99283643108E+03  0.10100000352E+00 0.  1.
       -3    1    3    3    0  502 -0.91570538873E+03  0.37021806777E+03 -0.89994237419E+03  0.13362163237E+04  0.10100000352E+00 0. -1.
</event>
<event>
 5   0  0.3279789E-05  0.2103161E+04  0.7818609E-02  0.8559852E-01
       -2   -1    0    0    0  501  0.00000000000E+00  0.00000000000E+00  0.72401989078E+03  0.72401989078E+03  0.25500000920E-02 0.  1.
        2   -1    0    0  501    0  0.00000000000E+00  0.00000000000E+00 -0.15273354262E+04  0.15273354262E+04  0.25500000920E-02 0. -1.
    10030    2    1    2    0    0  0.00000000000E+00  0.00000000000E+00 -0.80331553544E+03  0.22513553170E+04  0.21031606962E+04 0.  0.
        2    1    3    3  502    0 -0.73228386715E+03  0.61933065677E+03 -0.86333772422E+03  0.12904116206E+04  0.25500000920E-02 0. -1.
       -2    1    3    3    0  502  0.73228386715E+03 -0.61933065677E+03  0.60022188783E+02  0.96094369640E+03  0.25500000920E-02 0.  1.
</event>
<event>
 5   0  0.3279789E-05  0.2076132E+04  0.7818609E-02  0.8571831E-01
       -2   -1    0    0    0  501  0.00000000000E+00  0.00000000000E+00  0.76242161205E+03  0.76242161205E+03  0.25500000920E-02 0.  1.
        2   -1    0    0  501    0  0.00000000000E+00  0.00000000000E+00 -0.14133664479E+04  0.14133664479E+04  0.25500000920E-02 0. -1.
    10030    2    1    2    0    0  0.00000000000E+00  0.00000000000E+00 -0.65094483587E+03  0.21757880600E+04  0.20761321014E+04 0.  0.
        2    1    3    3  502    0 -0.68207348276E+03  0.76771892939E+03 -0.48428702176E+03  0.11354076404E+04  0.25500000920E-02 0.  1.
       -2    1    3    3    0  502  0.68207348276E+03 -0.76771892939E+03 -0.16665781411E+03  0.10403804196E+04  0.25500000920E-02 0. -1.
</event>
<event>
 5   0  0.1513292E-05  0.2095772E+04  0.7818609E-02  0.8563108E-01
       -1   -1    0    0    0  501  0.00000000000E+00  0.00000000000E+00  0.89751008324E+03  0.89751008325E+03  0.50400001928E-02 0. -1.
        1   -1    0    0  501    0  0.00000000000E+00  0.00000000000E+00 -0.12234566805E+04  0.12234566805E+04  0.50400001928E-02 0.  1.
    10030    2    1    2    0    0  0.00000000000E+00  0.00000000000E+00 -0.32594659729E+03  0.21209667638E+04  0.20957716547E+04 0.  0.
        1    1    3    3  502    0 -0.74627774503E+03  0.86098756287E+02 -0.90231830412E+03  0.11741046761E+04  0.50400001928E-02 0.  1.
       -1    1    3    3    0  502  0.74627774503E+03 -0.86098756287E+02  0.57637170683E+03  0.94686208765E+03  0.50400001928E-02 0. -1.
</event>
<event>
 5   0  0.3257130E-05  0.2091111E+04  0.7818609E-02  0.8565169E-01
       -2   -1    0    0    0  501  0.00000000000E+00  0.00000000000E+00  0.11888306496E+04  0.11888306496E+04  0.25500000920E-02 0. -1.
        2   -1    0    0  501    0  0.00000000000E+00  0.00000000000E+00 -0.91954755938E+03  0.91954755938E+03  0.25500000920E-02 0.  1.
    10030    2    1    2    0    0  0.00000000000E+00  0.00000000000E+00  0.26928309019E+03  0.21083782090E+04  0.20911110179E+04 0.  0.
        3    1    3    3  502    0  0.24988064930E+03  0.20509257291E+03 -0.86789442607E+03  0.92614472269E+03  0.10100000352E+00 0.  1.
       -3    1    3    3    0  502 -0.24988064930E+03 -0.20509257291E+03  0.11371775163E+04  0.11822334863E+04  0.10100000352E+00 0. -1.
</event>
<event>
 5   0  0.3279789E-05  0.2101385E+04  0.7818609E-02  0.8560633E-01
       -2   -1    0    0    0  501  0.00000000000E+00  0.00000000000E+00  0.52110492938E+03  0.52110492939E+03  0.25500000920E-02 0.  1.
        2   -1    0    0  501    0  0.00000000000E+00  0.00000000000E+00 -0.21184891225E+04  0.21184891225E+04  0.25500000920E-02 0. -1.
    10030    2    1    2    0    0  0.00000000000E+00  0.00000000000E+00 -0.15973841932E+04  0.26395940519E+04  0.21013853760E+04 0.  0.
        2    1    3    3  502    0 -0.78674193832E+03 -0.42903035007E+03 -0.10962625976E+03  0.90279999758E+03  0.25500000920E-02 0.  1.
       -2    1    3    3    0  502  0.78674193832E+03  0.42903035007E+03 -0.14877579334E+04  0.17367940543E+04  0.25500000920E-02 0. -1.
</event>
<event>
 5   0  0.1466480E-05  0.2108486E+04  0.7818609E-02  0.8557514E-01
       -1   -1    0    0    0  501  0.00000000000E+00  0.00000000000E+00  0.10716587460E+04  0.10716587460E+04  0.50400001928E-02 0. -1.
        1   -1    0    0  501    0  0.00000000000E+00  0.00000000000E+00 -0.10371101612E+04  0.10371101612E+04  0.50400001928E-02 0.  1.
    10030    2    1    2    0    0  0.00000000000E+00  0.00000000000E+00  0.34548584828E+02  0.21087689072E+04  0.21084858783E+04 0.  0.
        3    1    3    3  502    0  0.61309075576E+03 -0.35988560166E+03  0.79585823342E+03  0.10671402246E+04  0.10100000352E+00 0. -1.
       -3    1    3    3    0  502 -0.61309075576E+03  0.35988560166E+03 -0.76130964859E+03  0.10416286826E+04  0.10100000352E+00 0.  1.
</event>
<event>
 5   0  0.1466480E-05  0.2093685E+04  0.7818609E-02  0.8564030E-01
       -1   -1    0    0    0  501  0.00000000000E+00  0.00000000000E+00  0.89808653177E+03  0.89808653178E+03  0.50400001928E-02 0. -1.
        1   -1    0    0  501    0  0.00000000000E+00  0.00000000000E+00 -0.12202379963E+04  0.12202379963E+04  0.50400001928E-02 0.  1.
    10030    2    1    2    0    0  0.00000000000E+00  0.00000000000E+00 -0.32215146451E+03  0.21183245281E+04  0.20936850862E+04 0.  0.
        3    1    3    3  502    0 -0.30513073787E+03 -0.69340815426E+03 -0.89204582267E+03  0.11703270464E+04  0.10100000352E+00 0.  1.
       -3    1    3    3    0  502  0.30513073787E+03  0.69340815426E+03  0.56989435816E+03  0.94799748167E+03  0.10100000352E+00 0. -1.
</event>
<event>
 5   0  0.1492552E-05  0.2098303E+04  0.7818609E-02  0.8561991E-01
        1   -1    0    0  501    0  0.00000000000E+00  0.00000000000E+00  0.22720055994E+04  0.22720055994E+04  0.50400001928E-02 0. -1.
       -1   -1    0    0    0  501  0.00000000000E+00  0.00000000000E+00 -0.48447028242E+03  0.48447028245E+03  0.50400001928E-02 0.  1.
    10030    2    1    2    0    0  0.00000000000E+00  0.00000000000E+00  0.17875353170E+04  0.27564758819E+04  0.20983033093E+04 0.  0.
        4    1    3    3  502    0  0.31556777153E+03 -0.64250258020E+03 -0.11384724436E+03  0.72481403956E+03  0.12699999809E+01 0.  1.
       -4    1    3    3    0  502 -0.31556777153E+03  0.64250258020E+03  0.19013825614E+04  0.20316618423E+04  0.12699999809E+01 0. -1.
</event>
<event>
 5   0  0.3257130E-05  0.2102776E+04  0.7818609E-02  0.8560021E-01
       -2   -1    0    0    0  501  0.00000000000E+00  0.00000000000E+00  0.62842831413E+03  0.62842831414E+03  0.25500000920E-02 0.  1.
        2   -1    0    0  501    0  0.00000000000E+00  0.00000000000E+00 -0.17590183458E+04  0.17590183458E+04  0.25500000920E-02 0. -1.
    10030    2    1    2    0    0  0.00000000000E+00  0.00000000000E+00 -0.11305900317E+04  0.23874466599E+04  0.21027761969E+04 0.  0.
        3    1    3    3  502    0  0.16668682054E+03  0.74095587926E+03 -0.13907836744E+04  0.15846385552E+04  0.10100000352E+00 0. -1.
       -3    1    3    3    0  502 -0.16668682054E+03 -0.74095587926E+03  0.26019364278E+03  0.80280810478E+03  0.10100000352E+00 0.  1.
</event>
<event>
 5   0  0.3279789E-05  0.2095078E+04  0.7818609E-02  0.8563414E-01
        2   -1    0    0  501    0  0.00000000000E+00  0.00000000000E+00  0.12905088414E+04  0.12905088414E+04  0.25500000920E-02 0.  1.
       -2   -1    0    0    0  501  0.00000000000E+00  0.00000000000E+00 -0.85031453217E+03  0.85031453217E+03  0.25500000920E-02 0. -1.
    10030    2    1    2    0    0  0.00000000000E+00  0.00000000000E+00  0.44019430919E+03  0.21408233735E+04  0.20950784441E+04 0.  0.
        2    1    3    3  502    0 -0.46764122028E+03  0.66514002791E+03 -0.45480796286E+03  0.93163826173E+03  0.25500000920E-02 0. -1.
       -2    1    3    3    0  502  0.46764122028E+03 -0.66514002791E+03  0.89500227205E+03  0.12091851118E+04  0.25500000920E-02 0.  1.
</event>
<event>
 5   0  0.3242231E-05  0.2095760E+04  0.7818609E-02  0.8563114E-01
       -2   -1    0    0    0  501  0.00000000000E+00  0.00000000000E+00  0.81948280059E+03  0.81948280059E+03  0.25500000920E-02 0.  1.
        2   -1    0    0  501    0  0.00000000000E+00  0.00000000000E+00 -0.13399330866E+04  0.13399330866E+04  0.25500000920E-02 0. -1.
    10030    2    1    2    0    0  0.00000000000E+00  0.00000000000E+00 -0.52045028597E+03  0.21594158871E+04  0.20957596412E+04 0.  0.
        4    1    3    3  502    0 -0.47092652948E+03  0.35761048761E+03  0.63114854040E+03  0.86487406596E+03  0.12699999809E+01 0.  1.
       -4    1    3    3    0  502  0.47092652948E+03 -0.35761048761E+03 -0.11515988264E+04  0.12945418212E+04  0.12699999809E+01 0. -1.
</event>
<event>
 5   0  0.1435410E-05  0.2094708E+04  0.7818609E-02  0.8563578E-01
        1   -1    0    0  501    0  0.00000000000E+00  0.00000000000E+00  0.24455705271E+04  0.24455705271E+04  0.50400001928E-02 0. -1.
       -1   -1    0    0    0  501  0.00000000000E+00  0.00000000000E+00 -0.44854574022E+03  0.44854574025E+03  0.50400001928E-02 0.  1.
    10030    2    1    2    0    0  0.00000000000E+00  0.00000000000E+00  0.19970247869E+04  0.28941162673E+04  0.20947078482E+04 0.  0.
        2    1    3    3  502    0 -0.91652833744E+03 -0.47374945716E+03  0.12475418189E+04  0.16188957136E+04  0.25500000920E-02 0. -1.
       -2    1    3    3    0  502  0.91652833744E+03  0.47374945716E+03  0.74948296795E+03  0.12752205538E+04  0.25500000920E-02 0.  1.
</event>
<event>
 5   0  0.1129987E-05  0.2089015E+04  0.7818609E-02  0.8566098E-01
        3   -1    0    0  501    0  0.00000000000E+00  0.00000000000E+00  0.72114869287E+03  0.72114869994E+03  0.10100000352E+00 0. -1.
       -3   -1    0    0    0  501  0.00000000000E+00  0.00000000000E+00 -0.15128583245E+04  0.15128583278E+04  0.10100000352E+00 0.  1.
    10030    2    1    2    0    0  0.00000000000E+00  0.00000000000E+00 -0.79170963161E+03  0.22340070278E+04  0.20890149017E+04 0.  0.
        3    1    3    3  502    0  0.67997440182E+03 -0.61810407662E+03 -0.92688613011E+03  0.13051956731E+04  0.10100000352E+00 0. -1.
       -3    1    3    3    0  502 -0.67997440182E+03  0.61810407662E+03  0.13517649850E+03  0.92881135469E+03  0.10100000352E+00 0.  1.
</event>
<event>
 5   0  0.3257130E-05  0.2130441E+04  0.7818609E-02  0.8547951E-01
       -2   -1    0    0    0  501  0.00000000000E+00  0.00000000000E+00  0.52744616181E+03  0.52744616182E+03  0.25500000920E-02 0.  1.
        2   -1    0    0  501    0  0.00000000000E+00  0.00000000000E+00 -0.21512995707E+04  0.21512995707E+04  0.25500000920E-02 0. -1.
    10030    2    1    2    0    0  0.00000000000E+00  0.00000000000E+00 -0.16238534088E+04  0.26787457325E+04  0.21304409886E+04 0.  0.
        3    1    3    3  502    0 -0.34187411956E+03  0.95132761620E+03 -0.38964508374E+03  0.10833861031E+04  0.10100000352E+00 0.  1.
       -3    1    3    3    0  502  0.34187411956E+03 -0.95132761620E+03 -0.12342083251E+04  0.15953596293E+04  0.10100000352E+00 0. -1.
</event>
<event>
 5   0  0.3279789E-05  0.2163821E+04  0.7818609E-02  0.8533639E-01
       -2   -1    0    0    0  501  0.00000000000E+00  0.00000000000E+00  0.54719161305E+03  0.54719161306E+03  0.25500000920E-02 0. -1.
        2   -1    0    0  501    0  0.00000000000E+00  0.00000000000E+00 -0.21391594125E+04  0.21391594125E+04  0.25500000920E-02 0.  1.
    10030    2    1    2    0    0  0.00000000000E+00  0.00000000000E+00 -0.15919677994E+04  0.26863510255E+04  0.21638207777E+04 0.  0.
        2    1    3    3  502    0  0.77062652730E+03 -0.55174801442E+03 -0.14822017448E+03  0.95930200465E+03  0.25500000920E-02 0. -1.
       -2    1    3    3    0  502 -0.77062652730E+03  0.55174801442E+03 -0.14437476249E+04  0.17270490209E+04  0.25500000920E-02 0.  1.
</event>
<event>
 5   0  0.1513292E-05  0.2099800E+04  0.7818609E-02  0.8561331E-01
        1   -1    0    0  501    0  0.00000000000E+00  0.00000000000E+00  0.10832400895E+04  0.10832400895E+04  0.50400001928E-02 0. -1.
       -1   -1    0    0    0  501  0.00000000000E+00  0.00000000000E+00 -0.10175862537E+04  0.10175862538E+04  0.50400001928E-02 0.  1.
    10030    2    1    2    0    0  0.00000000000E+00  0.00000000000E+00  0.65653835780E+02  0.21008263433E+04  0.20998002044E+04 0.  0.
        1    1    3    3  502    0 -0.93034226999E+03  0.48649974993E+03  0.41285550709E+02  0.10506775160E+04  0.50400001928E-02 0.  1.
       -1    1    3    3    0  502  0.93034226999E+03 -0.48649974993E+03  0.24368285071E+02  0.10501488272E+04  0.50400001928E-02 0. -1.
</event>
<event>
 5   0  0.1466480E-05  0.2100713E+04  0.7818609E-02  0.8560929E-01
        1   -1    0    0  501    0  0.00000000000E+00  0.00000000000E+00  0.65040245043E+03  0.65040245045E+03  0.50400001928E-02 0. -1.
       -1   -1    0    0    0  501  0.00000000000E+00  0.00000000000E+00 -0.16962553024E+04  0.16962553024E+04  0.50400001928E-02 0.  1.
    10030    2    1    2    0    0  0.00000000000E+00  0.00000000000E+00 -0.10458528519E+04  0.23466577528E+04  0.21007128364E+04 0.  0.
        3    1    3    3  502    0 -0.33358312820E+03  0.11990751129E+03 -0.16274172826E+04  0.16655757373E+04  0.10100000352E+00 0.  1.
       -3    1    3    3    0  502  0.33358312820E+03 -0.11990751129E+03  0.58156443066E+03  0.68108201554E+03  0.10100000352E+00 0. -1.
</event>
<event>
 5   0  0.1492552E-05  0.2096077E+04  0.7818609E-02  0.8562973E-01
        1   -1    0    0  501    0  0.00000000000E+00  0.00000000000E+00  0.15176671877E+04  0.15176671877E+04  0.50400001928E-02 0.  1.
       -1   -1    0    0    0  501  0.00000000000E+00  0.00000000000E+00 -0.72373255137E+03  0.72373255138E+03  0.50400001928E-02 0. -1.
    10030    2    1    2    0    0  0.00000000000E+00  0.00000000000E+00  0.79393463636E+03  0.22413997391E+04  0.20960774279E+04 0.  0.
        4    1    3    3  502    0 -0.18451082452E+03  0.74753644898E+03  0.11572670512E+04  0.13900084991E+04  0.12699999809E+01 0.  1.
       -4    1    3    3    0  502  0.18451082452E+03 -0.74753644898E+03 -0.36333241487E+03  0.85139123998E+03  0.12699999809E+01 0. -1.
</event>
<event>
 5   0  0.1466480E-05  0.2099268E+04  0.7818609E-02  0.8561566E-01
       -1   -1    0    0    0  501  0.00000000000E+00  0.00000000000E+00  0.78663081822E+03  0.78663081824E+03  0.50400001928E-02 0. -1.
        1   -1    0    0  501    0  0.00000000000E+00  0.00000000000E+00 -0.14005693673E+04  0.14005693673E+04  0.50400001928E-02 0.  1.
    10030    2    1    2    0    0  0.00000000000E+00  0.00000000000E+00 -0.61393854912E+03  0.21872001856E+04  0.20992675174E+04 0.  0.
        3    1    3    3  502    0  0.35522347350E+03  0.33462038220E+03  0.66124427549E+03  0.82182633103E+03  0.10100000352E+00 0. -1.
       -3    1    3    3    0  502 -0.35522347350E+03 -0.33462038220E+03 -0.12751828246E+04  0.13653738546E+04  0.10100000352E+00 0.  1.
</event>
<event>
 5   0  0.3257130E-05  0.2104221E+04  0.7818609E-02  0.8559386E-01
        2   -1    0    0  501    0  0.00000000000E+00  0.00000000000E+00  0.17300819230E+04  0.17300819230E+04  0.25500000920E-02 0. -1.
       -2   -1    0    0    0  501  0.00000000000E+00  0.00000000000E+00 -0.63981727086E+03  0.63981727087E+03  0.25500000920E-02 0.  1.
    10030    2    1    2    0    0  0.00000000000E+00  0.00000000000E+00  0.10902646521E+04  0.23698991939E+04  0.21042208005E+04 0.  0.
        3    1    3    3  502    0 -0.51690940064E+03  0.59157516811E+03 -0.24307231563E+03  0.82233853663E+03  0.10100000352E+00 0.  1.
       -3    1    3    3    0  502  0.51690940064E+03 -0.59157516811E+03  0.13333369678E+04  0.15475606572E+04  0.10100000352E+00 0. -1.
</event>
<event>
 5   0  0.1435410E-05  0.2099935E+04  0.7818609E-02  0.8561272E-01
       -1   -1    0    0    0  501  0.00000000000E+00  0.00000000000E+00  0.75655593905E+03  0.75655593907E+03  0.50400001928E-02 0.  1.
        1   -1    0    0  501    0  0.00000000000E+00  0.00000000000E+00 -0.14571718047E+04  0.14571718047E+04  0.50400001928E-02 0. -1.
    10030    2    1    2    0    0  0.00000000000E+00  0.00000000000E+00 -0.70061586564E+03  0.22137277438E+04  0.20999352210E+04 0.  0.
        2    1    3    3  502    0 -0.96460126379E+03 -0.44485110774E+02 -0.78495777499E+03  0.12444248598E+04  0.25500000920E-02 0. -1.
       -2    1    3    3    0  502  0.96460126379E+03  0.44485110774E+02  0.84341909353E+02  0.96930288396E+03  0.25500000920E-02 0.  1.
</event>
<event>
 5   0  0.3130517E-05  0.2076722E+04  0.7818609E-02  0.8571568E-01
       -2   -1    0    0    0  501  0.00000000000E+00  0.00000000000E+00  0.44184691334E+03  0.44184691335E+03  0.25500000920E-02 0.  1.
        2   -1    0    0  501    0  0.00000000000E+00  0.00000000000E+00 -0.24401965460E+04  0.24401965460E+04  0.25500000920E-02 0. -1.
    10030    2    1    2    0    0  0.00000000000E+00  0.00000000000E+00 -0.19983496326E+04  0.28820434593E+04  0.20767217549E+04 0.  0.
        1    1    3    3  502    0  0.54502216662E+03  0.72387601860E+03 -0.17029168647E+04  0.19289819856E+04  0.50400001928E-02 0. -1.
       -1    1    3    3    0  502 -0.54502216662E+03 -0.72387601860E+03 -0.29543276792E+03  0.95306147377E+03  0.50400001928E-02 0.  1.
</event>
<event>
 5   0  0.1435410E-05  0.2118961E+04  0.7818609E-02  0.8552937E-01
        1   -1    0    0  501    0  0.00000000000E+00  0.00000000000E+00  0.85932871425E+03  0.85932871426E+03  0.50400001928E-02 0.  1.
       -1   -1    0    0    0  501  0.00000000000E+00  0.00000000000E+00 -0.13062510756E+04  0.13062510756E+04  0.50400001928E-02 0. -1.
    10030    2    1    2    0    0  0.00000000000E+00  0.00000000000E+00 -0.44692236137E+03  0.21655797899E+04  0.21189611203E+04 0.  0.
        2    1    3    3  502    0  0.27114995677E+03 -0.39460860142E+03 -0.11893793645E+04  0.12821316313E+04  0.25500000920E-02 0. -1.
       -2    1    3    3    0  502 -0.27114995677E+03  0.39460860142E+03  0.74245700312E+03  0.88344815856E+03  0.25500000920E-02 0.  1.
</event>
<event>
 5   0  0.1466480E-05  0.2103514E+04  0.7818609E-02  0.8559697E-01
       -1   -1    0    0    0  501  0.00000000000E+00  0.00000000000E+00  0.92991015274E+03  0.92991015276E+03  0.50400001928E-02 0.  1.
        1   -1    0    0  501    0  0.00000000000E+00  0.00000000000E+00 -0.11895690180E+04  0.11895690180E+04  0.50400001928E-02 0. -1.
    10030    2    1    2    0    0  0.00000000000E+00  0.00000000000E+00 -0.25965886524E+03  0.21194791708E+04  0.21035135438E+04 0.  0.
        3    1    3    3  502    0  0.13254534000E+03  0.77782851378E+03  0.57086723892E+03  0.97389674949E+03  0.10100000352E+00 0.  1.
       -3    1    3    3    0  502 -0.13254534000E+03 -0.77782851378E+03 -0.83052610416E+03  0.11455824213E+04  0.10100000352E+00 0. -1.
</event>
<event>
 5   0  0.3130517E-05  0.2136267E+04  0.7818609E-02  0.8545434E-01
       -2   -1    0    0    0  501  0.00000000000E+00  0.00000000000E+00  0.51159217754E+03  0.51159217754E+03  0.25500000920E-02 0. -1.
        2   -1    0    0  501    0  0.00000000000E+00  0.00000000000E+00 -0.22301137789E+04  0.22301137789E+04  0.25500000920E-02 0.  1.
    10030    2    1    2    0    0  0.00000000000E+00  0.00000000000E+00 -0.17185216014E+04  0.27417059565E+04  0.21362666166E+04 0.  0.
        1    1    3    3  502    0 -0.52954404870E+03  0.44382943050E+03  0.18615311047E+03  0.71557979531E+03  0.50400001928E-02 0. -1.
       -1    1    3    3    0  502  0.52954404870E+03 -0.44382943050E+03 -0.19046747118E+04  0.20261261611E+04  0.50400001928E-02 0.  1.
</event>
<event>
 5   0  0.1492552E-05  0.2100950E+04  0.7818609E-02  0.8560825E-01
       -1   -1    0    0    0  501  0.00000000000E+00  0.00000000000E+00  0.79777140138E+03  0.79777140140E+03  0.50400001928E-02 0. -1.
        1   -1    0    0  501    0  0.00000000000E+00  0.00000000000E+00 -0.13832254639E+04  0.13832254639E+04  0.50400001928E-02 0.  1.
    10030    2    1    2    0    0  0.00000000000E+00  0.00000000000E+00 -0.58545406252E+03  0.21809968653E+04  0.21009499916E+04 0.  0.
        4    1    3    3  502    0 -0.27604865821E+03 -0.20329833482E+03  0.73806165101E+03  0.81379953811E+03  0.12699999809E+01 0. -1.
       -4    1    3    3    0  502  0.27604865821E+03  0.20329833482E+03 -0.13235157135E+04  0.13671973272E+04  0.12699999809E+01 0.  1.
</event>
<event>
 5   0  0.3279789E-05  0.2132171E+04  0.7818609E-02  0.8547203E-01
        2   -1    0    0  501    0  0.00000000000E+00  0.00000000000E+00  0.14237480324E+04  0.14237480324E+04  0.25500000920E-02 0.  1.
       -2   -1    0    0    0  501  0.00000000000E+00  0.00000000000E+00 -0.79827235623E+03  0.79827235624E+03  0.25500000920E-02 0. -1.
    10030    2    1    2    0    0  0.00000000000E+00  0.00000000000E+00  0.62547567616E+03  0.22220203886E+04  0.21321713782E+04 0.  0.
        2    1    3    3  502    0 -0.10577253199E+04 -0.12608403515E+03  0.26780892321E+03  0.10983631711E+04  0.25500000920E-02 0.  1.
       -2    1    3    3    0  502  0.10577253199E+04  0.12608403515E+03  0.35766675295E+03  0.11236572175E+04  0.25500000920E-02 0. -1.
</event>
<event>
 5   0  0.1453430E-05  0.2142874E+04  0.7818609E-02  0.8542589E-01
       -1   -1    0    0    0  501  0.00000000000E+00  0.00000000000E+00  0.14757168054E+04  0.14757168054E+04  0.50400001928E-02 0.  1.
        1   -1    0    0  501    0  0.00000000000E+00  0.00000000000E+00 -0.77791136255E+03  0.77791136257E+03  0.50400001928E-02 0. -1.
    10030    2    1    2    0    0  0.00000000000E+00  0.00000000000E+00  0.69780544286E+03  0.22536281680E+04  0.21428736508E+04 0.  0.
        5    1    3    3  502    0 -0.14297440957E+03  0.89177709261E+03  0.95510288068E+03  0.13145157539E+04  0.46999998093E+01 0.  1.
       -5    1    3    3    0  502  0.14297440957E+03 -0.89177709261E+03 -0.25729743782E+03  0.93911241404E+03  0.46999998093E+01 0. -1.
</event>
<event>
 5   0  0.3257130E-05  0.2139034E+04  0.7818609E-02  0.8544241E-01
       -2   -1    0    0    0  501  0.00000000000E+00  0.00000000000E+00  0.75247169989E+03  0.75247169990E+03  0.25500000920E-02 0.  1.
        2   -1    0    0  501    0  0.00000000000E+00  0.00000000000E+00 -0.15201456064E+04  0.15201456065E+04  0.25500000920E-02 0. -1.
    10030    2    1    2    0    0  0.00000000000E+00  0.00000000000E+00 -0.76767390656E+03  0.22726173063E+04  0.21390339395E+04 0.  0.
        3    1    3    3  502    0  0.99548648735E+03 -0.30757621612E+03 -0.64030388642E+03  0.12229413528E+04  0.10100000352E+00 0.  1.
       -3    1    3    3    0  502 -0.99548648735E+03  0.30757621612E+03 -0.12737002014E+03  0.10496759535E+04  0.10100000352E+00 0. -1.
</event>
<event>
 5   0  0.1435410E-05  0.2103897E+04  0.7818609E-02  0.8559529E-01
       -1   -1    0    0    0  501  0.00000000000E+00  0.00000000000E+00  0.76716763624E+03  0.76716763625E+03  0.50400001928E-02 0.  1.
        1   -1    0    0  501    0  0.00000000000E+00  0.00000000000E+00 -0.14424425538E+04  0.14424425538E+04  0.50400001928E-02 0. -1.
    10030    2    1    2    0    0  0.00000000000E+00  0.00000000000E+00 -0.67527491752E+03  0.22096101900E+04  0.21038966176E+04 0.  0.
        2    1    3    3  502    0 -0.55654324657E+03  0.69952162404E+03  0.24477549786E+03  0.92681493954E+03  0.25500000920E-02 0.  1.
       -2    1    3    3    0  502  0.55654324657E+03 -0.69952162404E+03 -0.92005041538E+03  0.12827952505E+04  0.25500000920E-02 0. -1.
</event>
<event>
 5   0  0.3279789E-05  0.2039864E+04  0.7818609E-02  0.8588206E-01
       -2   -1    0    0    0  501  0.00000000000E+00  0.00000000000E+00  0.72244644443E+03  0.72244644443E+03  0.25500000920E-02 0. -1.
        2   -1    0    0  501    0  0.00000000000E+00  0.00000000000E+00 -0.14399147573E+04  0.14399147573E+04  0.25500000920E-02 0.  1.
    10030    2    1    2    0    0  0.00000000000E+00  0.00000000000E+00 -0.71746831284E+03  0.21623612017E+04  0.20398640118E+04 0.  0.
        2    1    3    3  502    0 -0.34011499897E+03  0.46614953626E+03 -0.12502418088E+04  0.13769815479E+04  0.25500000920E-02 0.  1.
       -2    1    3    3    0  502  0.34011499897E+03 -0.46614953626E+03  0.53277349595E+03  0.78537965385E+03  0.25500000920E-02 0. -1.
</event>
<event>
 5   0  0.3130517E-05  0.2099644E+04  0.7818609E-02  0.8561400E-01
        2   -1    0    0  501    0  0.00000000000E+00  0.00000000000E+00  0.17045093888E+04  0.17045093889E+04  0.25500000920E-02 0. -1.
       -2   -1    0    0    0  501  0.00000000000E+00  0.00000000000E+00 -0.64659454109E+03  0.64659454110E+03  0.25500000920E-02 0.  1.
    10030    2    1    2    0    0  0.00000000000E+00  0.00000000000E+00  0.10579148478E+04  0.23511039299E+04  0.20996442233E+04 0.  0.
        1    1    3    3  502    0  0.26030321572E+03 -0.17259235901E+03  0.16512820829E+04  0.16805589558E+04  0.50400001928E-02 0. -1.
       -1    1    3    3    0  502 -0.26030321572E+03  0.17259235901E+03 -0.59336723519E+03  0.67054497413E+03  0.50400001928E-02 0.  1.
</event>
<event>
 5   0  0.1466480E-05  0.2107190E+04  0.7818609E-02  0.8558083E-01
        1   -1    0    0  501    0  0.00000000000E+00  0.00000000000E+00  0.12494306376E+04  0.12494306376E+04  0.50400001928E-02 0.  1.
       -1   -1    0    0    0  501  0.00000000000E+00  0.00000000000E+00 -0.88845463741E+03  0.88845463743E+03  0.50400001928E-02 0. -1.
    10030    2    1    2    0    0  0.00000000000E+00  0.00000000000E+00  0.36097600016E+03  0.21378852750E+04  0.21071900191E+04 0.  0.
        3    1    3    3  502    0 -0.25877127413E+03 -0.54214616708E+03  0.10586467399E+04  0.12172173055E+04  0.10100000352E+00 0.  1.
       -3    1    3    3    0  502  0.25877127413E+03  0.54214616708E+03 -0.69767073972E+03  0.92066796950E+03  0.10100000352E+00 0. -1.
</event>
<event>
 5   0  0.1492552E-05  0.2098868E+04  0.7818609E-02  0.8561742E-01
        1   -1    0    0  501    0  0.00000000000E+00  0.00000000000E+00  0.66214830014E+03  0.66214830016E+03  0.50400001928E-02 0. -1.
       -1   -1    0    0    0  501  0.00000000000E+00  0.00000000000E+00 -0.16632402714E+04  0.16632402714E+04  0.50400001928E-02 0.  1.
    10030    2    1    2    0    0  0.00000000000E+00  0.00000000000E+00 -0.10010919713E+04  0.23253885716E+04  0.20988679982E+04 0.  0.
        4    1    3    3  502    0 -0.33235191794E+03 -0.50729297255E+03 -0.14494281579E+04  0.15711930356E+04  0.12699999809E+01 0.  1.
       -4    1    3    3    0  502  0.33235191794E+03  0.50729297255E+03  0.44833618662E+03  0.75419553598E+03  0.12699999809E+01 0. -1.
</event>
<event>
 5   0  0.3279789E-05  0.2240698E+04  0.7818609E-02  0.8501677E-01
       -2   -1    0    0    0  501  0.00000000000E+00  0.00000000000E+00  0.98216152179E+03  0.98216152180E+03  0.25500000920E-02 0. -1.
        2   -1    0    0  501    0  0.00000000000E+00  0.00000000000E+00 -0.12779788232E+04  0.12779788232E+04  0.25500000920E-02 0.  1.
    10030    2    1    2    0    0  0.00000000000E+00  0.00000000000E+00 -0.29581730145E+03  0.22601403450E+04  0.22406977716E+04 0.  0.
        2    1    3    3  502    0  0.63810181557E+03 -0.62707247546E+03  0.53232252619E+03  0.10410384663E+04  0.25500000920E-02 0. -1.
       -2    1    3    3    0  502 -0.63810181557E+03  0.62707247546E+03 -0.82813982764E+03  0.12191018787E+04  0.25500000920E-02 0.  1.
</event>
<event>
 5   0  0.3242231E-05  0.2109204E+04  0.7818609E-02  0.8557200E-01
        2   -1    0    0  501    0  0.00000000000E+00  0.00000000000E+00  0.76168790422E+03  0.76168790422E+03  0.25500000920E-02 0. -1.
       -2   -1    0    0    0  501  0.00000000000E+00  0.00000000000E+00 -0.14601591677E+04  0.14601591677E+04  0.25500000920E-02 0.  1.
    10030    2    1    2    0    0  0.00000000000E+00  0.00000000000E+00 -0.69847126350E+03  0.22218470719E+04  0.21092041876E+04 0.  0.
        4    1    3    3  502    0 -0.91661289104E+03 -0.28771690240E+03 -0.80746547196E+03  0.12549750234E+04  0.12699999809E+01 0.  1.
       -4    1    3    3    0  502  0.91661289104E+03  0.28771690240E+03  0.10899420847E+03  0.96687204858E+03  0.12699999809E+01 0. -1.
</event>
<event>
 5   0  0.3257130E-05  0.2100990E+04  0.7818609E-02  0.8560808E-01
        2   -1    0    0  501    0  0.00000000000E+00  0.00000000000E+00  0.14284598819E+04  0.14284598819E+04  0.25500000920E-02 0. -1.
       -2   -1    0    0    0  501  0.00000000000E+00  0.00000000000E+00 -0.77253792168E+03  0.77253792168E+03  0.25500000920E-02 0.  1.
    10030    2    1    2    0    0  0.00000000000E+00  0.00000000000E+00  0.65592196020E+03  0.22009978036E+04  0.21009896986E+04 0.  0.
        3    1    3    3  502    0 -0.38169218523E+03 -0.44718133887E+03  0.12399628346E+04  0.13722856537E+04  0.10100000352E+00 0. -1.
       -3    1    3    3    0  502  0.38169218523E+03  0.44718133887E+03 -0.58404087439E+03  0.82871214982E+03  0.10100000352E+00 0.  1.
</event>
<event>
 5   0  0.3108326E-05  0.2098369E+04  0.7818609E-02  0.8561962E-01
        2   -1    0    0  501    0  0.00000000000E+00  0.00000000000E+00  0.21282853693E+04  0.21282853693E+04  0.25500000920E-02 0.  1.
       -2   -1    0    0    0  501  0.00000000000E+00  0.00000000000E+00 -0.51721815115E+03  0.51721815116E+03  0.25500000920E-02 0. -1.
    10030    2    1    2    0    0  0.00000000000E+00  0.00000000000E+00  0.16110672182E+04  0.26455035205E+04  0.20983687225E+04 0.  0.
        5    1    3    3  502    0 -0.64746502776E+03 -0.79092361953E+03  0.11038654527E+04  0.15044308431E+04  0.46999998093E+01 0. -1.
       -5    1    3    3    0  502  0.64746502776E+03  0.79092361953E+03  0.50720176548E+03  0.11410726774E+04  0.46999998093E+01 0.  1.
</event>
<event>
 5   0  0.1492552E-05  0.2098241E+04  0.7818609E-02  0.8562018E-01
        1   -1    0    0  501    0  0.00000000000E+00  0.00000000000E+00  0.11250413087E+04  0.11250413087E+04  0.50400001928E-02 0.  1.
       -1   -1    0    0    0  501  0.00000000000E+00  0.00000000000E+00 -0.97832335496E+03  0.97832335497E+03  0.50400001928E-02 0. -1.
    10030    2    1    2    0    0  0.00000000000E+00  0.00000000000E+00  0.14671795377E+03  0.21033646637E+04  0.20982413471E+04 0.  0.
        4    1    3    3  502    0 -0.24032921448E+03 -0.18643747774E+03 -0.93315217005E+03  0.98147422269E+03  0.12699999809E+01 0. -1.
       -4    1    3    3    0  502  0.24032921448E+03  0.18643747774E+03  0.10798701238E+04  0.11218904410E+04  0.12699999809E+01 0.  1.
</event>
<event>
 5   0  0.1453430E-05  0.2101768E+04  0.7818609E-02  0.8560465E-01
        1   -1    0    0  501    0  0.00000000000E+00  0.00000000000E+00  0.10647446843E+04  0.10647446844E+04  0.50400001928E-02 0.  1.
       -1   -1    0    0    0  501  0.00000000000E+00  0.00000000000E+00 -0.10372035602E+04  0.10372035602E+04  0.50400001928E-02 0. -1.
    10030    2    1    2    0    0  0.00000000000E+00  0.00000000000E+00  0.27541124176E+02  0.21019482445E+04  0.21017678057E+04 0.  0.
        5    1    3    3  502    0  0.65012044530E+03 -0.17691005447E+03  0.82030190247E+03  0.10615418324E+04  0.46999998093E+01 0.  1.
       -5    1    3    3    0  502 -0.65012044530E+03  0.17691005447E+03 -0.79276077829E+03  0.10404064121E+04  0.46999998093E+01 0. -1.
</event>
<event>
 5   0  0.1513292E-05  0.2097014E+04  0.7818609E-02  0.8562560E-01
        1   -1    0    0  501    0  0.00000000000E+00  0.00000000000E+00  0.13197139267E+04  0.13197139267E+04  0.50400001928E-02 0. -1.
       -1   -1    0    0    0  501  0.00000000000E+00  0.00000000000E+00 -0.83303435618E+03  0.83303435619E+03  0.50400001928E-02 0.  1.
    10030    2    1    2    0    0  0.00000000000E+00  0.00000000000E+00  0.48667957049E+03  0.21527482829E+04  0.20970141070E+04 0.  0.
        1    1    3    3  502    0  0.67584608748E+03  0.72023175094E+03  0.60463880670E+03  0.11580543146E+04  0.50400001928E-02 0. -1.
       -1    1    3    3    0  502 -0.67584608748E+03 -0.72023175094E+03 -0.11795923621E+03  0.99469396824E+03  0.50400001928E-02 0.  1.
</event>
<event>
 5   0  0.3242231E-05  0.2101863E+04  0.7818609E-02  0.8560423E-01
       -2   -1    0    0    0  501  0.00000000000E+00  0.00000000000E+00  0.79972784915E+03  0.79972784915E+03  0.25500000920E-02 0. -1.
        2   -1    0    0  501    0  0.00000000000E+00  0.00000000000E+00 -0.13810412339E+04  0.13810412339E+04  0.25500000920E-02 0.  1.
    10030    2    1    2    0    0  0.00000000000E+00  0.00000000000E+00 -0.58131338480E+03  0.21807690831E+04  0.21018631122E+04 0.  0.
        4    1    3    3  502    0  0.80925614094E+03  0.26400212262E+03 -0.93012451054E+03  0.12608433053E+04  0.12699999809E+01 0.  1.
       -4    1    3    3    0  502 -0.80925614094E+03 -0.26400212262E+03  0.34881112575E+03  0.91992577784E+03  0.12699999809E+01 0. -1.
</event>
<event>
 5   0  0.3242231E-05  0.2094081E+04  0.7818609E-02  0.8563855E-01
        2   -1    0    0  501    0  0.00000000000E+00  0.00000000000E+00  0.90925122383E+03  0.90925122383E+03  0.25500000920E-02 0. -1.
       -2   -1    0    0    0  501  0.00000000000E+00  0.00000000000E+00 -0.12057108175E+04  0.12057108175E+04  0.25500000920E-02 0.  1.
    10030    2    1    2    0    0  0.00000000000E+00  0.00000000000E+00 -0.29645959362E+03  0.21149620413E+04  0.20940812175E+04 0.  0.
        4    1    3    3  502    0  0.62862246513E+03  0.49512064113E+03  0.53376772412E+03  0.96188369835E+03  0.12699999809E+01 0. -1.
       -4    1    3    3    0  502 -0.62862246513E+03 -0.49512064113E+03 -0.83022731774E+03  0.11530783429E+04  0.12699999809E+01 0.  1.
</event>
<event>
 5   0  0.1129987E-05  0.2052154E+04  0.7818609E-02  0.8582618E-01
       -3   -1    0    0    0  501  0.00000000000E+00  0.00000000000E+00  0.14867773429E+04  0.14867773464E+04  0.10100000352E+00 0.  1.
        3   -1    0    0  501    0  0.00000000000E+00  0.00000000000E+00 -0.70813186090E+03  0.70813186811E+03  0.10100000352E+00 0. -1.
    10030    2    1    2    0    0  0.00000000000E+00  0.00000000000E+00  0.77864548202E+03  0.21949092145E+04  0.20521543980E+04 0.  0.
        2    1    3    3  502    0 -0.94169486979E+03 -0.66839094512E+02  0.81925226983E+03  0.12499723893E+04  0.25500000920E-02 0.  1.
       -2    1    3    3    0  502  0.94169486979E+03  0.66839094512E+02 -0.40606787811E+02  0.94493682517E+03  0.25500000920E-02 0. -1.
</event>
<event>
 5   0  0.3279789E-05  0.2096114E+04  0.7818609E-02  0.8562957E-01
       -2   -1    0    0    0  501  0.00000000000E+00  0.00000000000E+00  0.13199231756E+04  0.13199231756E+04  0.25500000920E-02 0. -1.
        2   -1    0    0  501    0  0.00000000000E+00  0.00000000000E+00 -0.83218741043E+03  0.83218741044E+03  0.25500000920E-02 0.  1.
    10030    2    1    2    0    0  0.00000000000E+00  0.00000000000E+00  0.48773576519E+03  0.21521105861E+04  0.20961139754E+04 0.  0.
        2    1    3    3  502    0 -0.37696861075E+03 -0.66789339937E+02  0.12455631287E+04  0.13030708565E+04  0.25500000920E-02 0. -1.
       -2    1    3    3    0  502  0.37696861075E+03  0.66789339937E+02 -0.75782736354E+03  0.84903972956E+03  0.25500000920E-02 0.  1.
</event>
<event>
 5   0  0.1435410E-05  0.2098985E+04  0.7818609E-02  0.8561691E-01
        1   -1    0    0  501    0  0.00000000000E+00  0.00000000000E+00  0.22552926981E+04  0.22552926981E+04  0.50400001928E-02 0. -1.
       -1   -1    0    0    0  501  0.00000000000E+00  0.00000000000E+00 -0.48837766673E+03  0.48837766676E+03  0.50400001928E-02 0.  1.
    10030    2    1    2    0    0  0.00000000000E+00  0.00000000000E+00  0.17669150314E+04  0.27436703649E+04  0.20989850745E+04 0.  0.
        2    1    3    3  502    0  0.99416636346E+03 -0.33400811199E+03  0.93419091701E+03  0.14045073323E+04  0.25500000920E-02 0.  1.
       -2    1    3    3    0  502 -0.99416636346E+03  0.33400811199E+03  0.83272411434E+03  0.13391630325E+04  0.25500000920E-02 0. -1.
</event>
<event>
 5   0  0.1466480E-05  0.2097796E+04  0.7818609E-02  0.8562215E-01
        1   -1    0    0  501    0  0.00000000000E+00  0.00000000000E+00  0.99158752210E+03  0.99158752211E+03  0.50400001928E-02 0. -1.
       -1   -1    0    0    0  501  0.00000000000E+00  0.00000000000E+00 -0.11095210405E+04  0.11095210405E+04  0.50400001928E-02 0.  1.
    10030    2    1    2    0    0  0.00000000000E+00  0.00000000000E+00 -0.11793351838E+03  0.21011085626E+04  0.20977961953E+04 0.  0.
        3    1    3    3  502    0  0.55838313416E+03 -0.83561998196E+03 -0.35966527259E+03  0.10674322448E+04  0.10100000352E+00 0.  1.
       -3    1    3    3    0  502 -0.55838313416E+03  0.83561998196E+03  0.24173175421E+03  0.10336763178E+04  0.10100000352E+00 0. -1.
</event>
<event>
 5   0  0.3108326E-05  0.2094290E+04  0.7818609E-02  0.8563763E-01
       -2   -1    0    0    0  501  0.00000000000E+00  0.00000000000E+00  0.39712674679E+03  0.39712674680E+03  0.25500000920E-02 0.  1.
        2   -1    0    0  501    0  0.00000000000E+00  0.00000000000E+00 -0.27611139819E+04  0.27611139819E+04  0.25500000920E-02 0. -1.
    10030    2    1    2    0    0  0.00000000000E+00  0.00000000000E+00 -0.23639872351E+04  0.31582407287E+04  0.20942895819E+04 0.  0.
        5    1    3    3  502    0  0.69996298720E+02  0.17939392928E+03  0.37017970843E+03  0.41729698086E+03  0.46999998093E+01 0.  1.
       -5    1    3    3    0  502 -0.69996298720E+02 -0.17939392928E+03 -0.27341669436E+04  0.27409437479E+04  0.46999998093E+01 0. -1.
</event>
<event>
 5   0  0.3130517E-05  0.2096638E+04  0.7818609E-02  0.8562726E-01
        2   -1    0    0  501    0  0.00000000000E+00  0.00000000000E+00  0.17715459228E+04  0.17715459228E+04  0.25500000920E-02 0.  1.
       -2   -1    0    0    0  501  0.00000000000E+00  0.00000000000E+00 -0.62034677468E+03  0.62034677468E+03  0.25500000920E-02 0. -1.
    10030    2    1    2    0    0  0.00000000000E+00  0.00000000000E+00  0.11511991481E+04  0.23918926974E+04  0.20966380702E+04 0.  0.
        1    1    3    3  502    0  0.26574303781E+03 -0.69504890731E+03  0.14180031967E+04  0.16013885886E+04  0.50400001928E-02 0.  1.
       -1    1    3    3    0  502 -0.26574303781E+03  0.69504890731E+03 -0.26680404866E+03  0.79050410885E+03  0.50400001928E-02 0. -1.
</event>
<event>
 5   0  0.1492552E-05  0.2094109E+04  0.7818609E-02  0.8563843E-01
        1   -1    0    0  501    0  0.00000000000E+00  0.00000000000E+00  0.11339368788E+04  0.11339368788E+04  0.50400001928E-02 0. -1.
       -1   -1    0    0    0  501  0.00000000000E+00  0.00000000000E+00 -0.96682876880E+03  0.96682876881E+03  0.50400001928E-02 0.  1.
    10030    2    1    2    0    0  0.00000000000E+00  0.00000000000E+00  0.16710810999E+03  0.21007656476E+04  0.20941086853E+04 0.  0.
        4    1    3    3  502    0 -0.63020494263E+03 -0.73056578562E+03  0.49158595451E+03  0.10828402469E+04  0.12699999809E+01 0. -1.
       -4    1    3    3    0  502  0.63020494263E+03  0.73056578562E+03 -0.32447784451E+03  0.10179254007E+04  0.12699999809E+01 0.  1.
</event>
<event>
 5   0  0.1492552E-05  0.2097547E+04  0.7818609E-02  0.8562325E-01
       -1   -1    0    0    0  501  0.00000000000E+00  0.00000000000E+00  0.14495978854E+04  0.14495978854E+04  0.50400001928E-02 0.  1.
        1   -1    0    0  501    0  0.00000000000E+00  0.00000000000E+00 -0.75877992741E+03  0.75877992743E+03  0.50400001928E-02 0. -1.
    10030    2    1    2    0    0  0.00000000000E+00  0.00000000000E+00  0.69081795798E+03  0.22083778128E+04  0.20975469275E+04 0.  0.
        4    1    3    3  502    0 -0.10162325359E+04  0.15784181497E+03  0.56189865440E+03  0.11719105411E+04  0.12699999809E+01 0. -1.
       -4    1    3    3    0  502  0.10162325359E+04 -0.15784181497E+03  0.12891930357E+03  0.10364672717E+04  0.12699999809E+01 0.  1.
</event>
<event>
 5   0  0.1453430E-05  0.2113315E+04  0.7818609E-02  0.8555401E-01
        1   -1    0    0  501    0  0.00000000000E+00  0.00000000000E+00  0.75331295218E+03  0.75331295220E+03  0.50400001928E-02 0.  1.
       -1   -1    0    0    0  501  0.00000000000E+00  0.00000000000E+00 -0.14821528788E+04  0.14821528788E+04  0.50400001928E-02 0. -1.
    10030    2    1    2    0    0  0.00000000000E+00  0.00000000000E+00 -0.72883992660E+03  0.22354658310E+04  0.21133148944E+04 0.  0.
        5    1    3    3  502    0  0.41499934767E+03  0.48850871233E+03  0.52415627345E+03  0.82802603195E+03  0.46999998093E+01 0.  1.
       -5    1    3    3    0  502 -0.41499934767E+03 -0.48850871233E+03 -0.12529962000E+04  0.14074397990E+04  0.46999998093E+01 0. -1.
</event>
<event>
 5   0  0.3242231E-05  0.2096119E+04  0.7818609E-02  0.8562955E-01
       -2   -1    0    0    0  501  0.00000000000E+00  0.00000000000E+00  0.62698727747E+03  0.62698727748E+03  0.25500000920E-02 0. -1.
        2   -1    0    0  501    0  0.00000000000E+00  0.00000000000E+00 -0.17519146499E+04  0.17519146499E+04  0.25500000920E-02 0.  1.
    10030    2    1    2    0    0  0.00000000000E+00  0.00000000000E+00 -0.11249273725E+04  0.23789019274E+04  0.20961185050E+04 0.  0.
        4    1    3    3  502    0 -0.47714211075E+03 -0.52972847557E+03 -0.14343137694E+04  0.16017285830E+04  0.12699999809E+01 0.  1.
       -4    1    3    3    0  502  0.47714211075E+03  0.52972847557E+03  0.30938639695E+03  0.77717334437E+03  0.12699999809E+01 0. -1.
</event>
<event>
 5   0  0.1453430E-05  0.2068666E+04  0.7818609E-02  0.8575173E-01
       -1   -1    0    0    0  501  0.00000000000E+00  0.00000000000E+00  0.10220544569E+04  0.10220544569E+04  0.50400001928E-02 0. -1.
        1   -1    0    0  501    0  0.00000000000E+00  0.00000000000E+00 -0.10467586851E+04  0.10467586851E+04  0.50400001928E-02 0.  1.
    10030    2    1    2    0    0  0.00000000000E+00  0.00000000000E+00 -0.24704228192E+02  0.20688131419E+04  0.20686656369E+04 0.  0.
        5    1    3    3  502    0 -0.12149733571E+03  0.73657351944E+03 -0.72830827877E+03  0.10429559871E+04  0.46999998093E+01 0. -1.
       -5    1    3    3    0  502  0.12149733571E+03 -0.73657351944E+03  0.70360405058E+03  0.10258571548E+04  0.46999998093E+01 0.  1.
</event>
<event>
 5   0  0.3257130E-05  0.2101814E+04  0.7818609E-02  0.8560445E-01
        2   -1    0    0  501    0  0.00000000000E+00  0.00000000000E+00  0.23095154501E+04  0.23095154501E+04  0.25500000920E-02 0. -1.
       -2   -1    0    0    0  501  0.00000000000E+00  0.00000000000E+00 -0.47819802078E+03  0.47819802079E+03  0.25500000920E-02 0.  1.
    10030    2    1    2    0    0  0.00000000000E+00  0.00000000000E+00  0.18313174293E+04  0.27877134709E+04  0.21018141851E+04 0.  0.
        3    1    3    3  502    0 -0.66666012606E+02 -0.10484449806E+04  0.87995899764E+03  0.13704047148E+04  0.10100000352E+00 0.  1.
       -3    1    3    3    0  502  0.66666012606E+02  0.10484449806E+04  0.95135843170E+03  0.14173087561E+04  0.10100000352E+00 0. -1.
</event>
<event>
 5   0  0.3257130E-05  0.2107554E+04  0.7818609E-02  0.8557923E-01
       -2   -1    0    0    0  501  0.00000000000E+00  0.00000000000E+00  0.67287997670E+03  0.67287997670E+03  0.25500000920E-02 0.  1.
        2   -1    0    0  501    0  0.00000000000E+00  0.00000000000E+00 -0.16502890351E+04  0.16502890351E+04  0.25500000920E-02 0. -1.
    10030    2    1    2    0    0  0.00000000000E+00  0.00000000000E+00 -0.97740905838E+03  0.23231690118E+04  0.21075544572E+04 0.  0.
        3    1    3    3  502    0  0.94003799464E+03  0.54918375578E+02 -0.10101299925E+04  0.13809598370E+04  0.10100000352E+00 0. -1.
       -3    1    3    3    0  502 -0.94003799464E+03 -0.54918375578E+02  0.32720934159E+02  0.94220917480E+03  0.10100000352E+00 0.  1.
</event>
<event>
 5   0  0.1129987E-05  0.2101743E+04  0.7818609E-02  0.8560476E-01
       -3   -1    0    0    0  501  0.00000000000E+00  0.00000000000E+00  0.57228173057E+03  0.57228173948E+03  0.10100000352E+00 0. -1.
        3   -1    0    0  501    0  0.00000000000E+00  0.00000000000E+00 -0.19296982704E+04  0.19296982730E+04  0.10100000352E+00 0.  1.
    10030    2    1    2    0    0  0.00000000000E+00  0.00000000000E+00 -0.13574165398E+04  0.25019800125E+04  0.21017431623E+04 0.  0.
        1    1    3    3  502    0  0.86633328961E+02  0.47438048554E+03 -0.17902092772E+04  0.18540203437E+04  0.50400001928E-02 0.  1.
       -1    1    3    3    0  502 -0.86633328961E+02 -0.47438048554E+03  0.43279273742E+03  0.64795966876E+03  0.50400001928E-02 0. -1.
</event>
<event>
 5   0  0.1453430E-05  0.2108441E+04  0.7818609E-02  0.8557534E-01
       -1   -1    0    0    0  501  0.00000000000E+00  0.00000000000E+00  0.12069473989E+04  0.12069473989E+04  0.50400001928E-02 0. -1.
        1   -1    0    0  501    0  0.00000000000E+00  0.00000000000E+00 -0.92081948925E+03  0.92081948927E+03  0.50400001928E-02 0.  1.
    10030    2    1    2    0    0  0.00000000000E+00  0.00000000000E+00  0.28612790961E+03  0.21277668881E+04  0.21084408338E+04 0.  0.
        5    1    3    3  502    0 -0.87929219611E+03  0.26886102014E+03 -0.37733468783E+03  0.99390370305E+03  0.46999998093E+01 0.  1.
       -5    1    3    3    0  502  0.87929219611E+03 -0.26886102014E+03  0.66346259744E+03  0.11338631851E+04  0.46999998093E+01 0. -1.
</event>
<event>
 5   0  0.3257130E-05  0.2084497E+04  0.7818609E-02  0.8568103E-01
       -2   -1    0    0    0  501  0.00000000000E+00  0.00000000000E+00  0.66610460885E+03  0.66610460885E+03  0.25500000920E-02 0.  1.
        2   -1    0    0  501    0  0.00000000000E+00  0.00000000000E+00 -0.16307981597E+04  0.16307981597E+04  0.25500000920E-02 0. -1.
    10030    2    1    2    0    0  0.00000000000E+00  0.00000000000E+00 -0.96469355087E+03  0.22969027686E+04  0.20844972250E+04 0.  0.
        3    1    3    3  502    0 -0.81130196462E+03  0.17949817069E+03  0.21093141972E+03  0.85727623618E+03  0.10100000352E+00 0.  1.
       -3    1    3    3    0  502  0.81130196462E+03 -0.17949817069E+03 -0.11756249706E+04  0.14396265324E+04  0.10100000352E+00 0. -1.
</event>
<event>
 5   0  0.1129987E-05  0.2100124E+04  0.7818609E-02  0.8561189E-01
        3   -1    0    0  501    0  0.00000000000E+00  0.00000000000E+00  0.21583719925E+04  0.21583719949E+04  0.10100000352E+00 0. -1.
       -3   -1    0    0    0  501  0.00000000000E+00  0.00000000000E+00 -0.51086219909E+03  0.51086220908E+03  0.10100000352E+00 0.  1.
    10030    2    1    2    0    0  0.00000000000E+00  0.00000000000E+00  0.16475097935E+04  0.26692342040E+04  0.21001244525E+04 0.  0.
        5    1    3    3  502    0  0.61783728768E+03  0.82928842609E+03  0.10552227558E+04  0.14774841326E+04  0.46999998093E+01 0. -1.
       -5    1    3    3    0  502 -0.61783728768E+03 -0.82928842609E+03  0.59228703764E+03  0.11917500714E+04  0.46999998093E+01 0.  1.
</event>
<event>
 5   0  0.3279789E-05  0.2107682E+04  0.7818609E-02  0.8557867E-01
       -2   -1    0    0    0  501  0.00000000000E+00  0.00000000000E+00  0.15137965857E+04  0.15137965857E+04  0.25500000920E-02 0. -1.
        2   -1    0    0  501    0  0.00000000000E+00  0.00000000000E+00 -0.73363921827E+03  0.73363921827E+03  0.25500000920E-02 0.  1.
    10030    2    1    2    0    0  0.00000000000E+00  0.00000000000E+00  0.78015736746E+03  0.22474358040E+04  0.21076817063E+04 0.  0.
        2    1    3    3  502    0 -0.80755735788E+03 -0.59218090005E+03  0.40054670943E+02  0.10022132913E+04  0.25500000920E-02 0.  1.
       -2    1    3    3    0  502  0.80755735788E+03  0.59218090005E+03  0.74010269651E+03  0.12452225127E+04  0.25500000920E-02 0. -1.
</event>
<event>
 5   0  0.3130517E-05  0.2094333E+04  0.7818609E-02  0.8563744E-01
       -2   -1    0    0    0  501  0.00000000000E+00  0.00000000000E+00  0.73467002916E+03  0.73467002917E+03  0.25500000920E-02 0.  1.
        2   -1    0    0  501    0  0.00000000000E+00  0.00000000000E+00 -0.14925857891E+04  0.14925857891E+04  0.25500000920E-02 0. -1.
    10030    2    1    2    0    0  0.00000000000E+00  0.00000000000E+00 -0.75791575995E+03  0.22272558183E+04  0.20943333500E+04 0.  0.
        1    1    3    3  502    0  0.79378942092E+03 -0.61529784627E+02  0.34441161774E+03  0.86747156819E+03  0.50400001928E-02 0.  1.
       -1    1    3    3    0  502 -0.79378942092E+03  0.61529784627E+02 -0.11023273777E+04  0.13597842501E+04  0.50400001928E-02 0. -1.
</event>
<event>
 5   0  0.1513292E-05  0.2108317E+04  0.7818609E-02  0.8557589E-01
       -1   -1    0    0    0  501  0.00000000000E+00  0.00000000000E+00  0.93647685048E+03  0.93647685049E+03  0.50400001928E-02 0. -1.
        1   -1    0    0  501    0  0.00000000000E+00  0.00000000000E+00 -0.11866281504E+04  0.11866281504E+04  0.50400001928E-02 0.  1.
    10030    2    1    2    0    0  0.00000000000E+00  0.00000000000E+00 -0.25015129990E+03  0.21231050009E+04  0.21083166678E+04 0.  0.
        1    1    3    3  502    0  0.48950749479E+03 -0.57082048408E+02 -0.10634778089E+04  0.11721181671E+04  0.50400001928E-02 0.  1.
       -1    1    3    3    0  502 -0.48950749479E+03  0.57082048408E+02  0.81332650898E+03  0.95098683374E+03  0.50400001928E-02 0. -1.
</event>
<event>
 5   0  0.3242231E-05  0.2099486E+04  0.7818609E-02  0.8561470E-01
       -2   -1    0    0    0  501  0.00000000000E+00  0.00000000000E+00  0.45282854007E+03  0.45282854008E+03  0.25500000920E-02 0. -1.
        2   -1    0    0  501    0  0.00000000000E+00  0.00000000000E+00 -0.24335054253E+04  0.24335054253E+04  0.25500000920E-02 0.  1.
    10030    2    1    2    0    0  0.00000000000E+00  0.00000000000E+00 -0.19806768852E+04  0.28863339654E+04  0.20994863267E+04 0.  0.
        4    1    3    3  502    0 -0.87668901802E+02  0.39090450792E+03  0.34360084341E+03  0.52778340552E+03  0.12699999809E+01 0. -1.
       -4    1    3    3    0  502  0.87668901802E+02 -0.39090450792E+03 -0.23242777286E+04  0.23585505599E+04  0.12699999809E+01 0.  1.
</event>
<event>
 5   0  0.3242231E-05  0.2080467E+04  0.7818609E-02  0.8569897E-01
        2   -1    0    0  501    0  0.00000000000E+00  0.00000000000E+00  0.21418074830E+04  0.21418074830E+04  0.25500000920E-02 0.  1.
       -2   -1    0    0    0  501  0.00000000000E+00  0.00000000000E+00 -0.50522068904E+03  0.50522068905E+03  0.25500000920E-02 0. -1.
    10030    2    1    2    0    0  0.00000000000E+00  0.00000000000E+00  0.16365867940E+04  0.26470281721E+04  0.20804667288E+04 0.  0.
        4    1    3    3  502    0 -0.26603046699E+03  0.32141370739E+03  0.20306820829E+04  0.20731016173E+04  0.12699999809E+01 0.  1.
       -4    1    3    3    0  502  0.26603046699E+03 -0.32141370739E+03 -0.39409528894E+03  0.57392655482E+03  0.12699999809E+01 0. -1.
</event>
<event>
 5   0  0.3108326E-05  0.2072890E+04  0.7818609E-02  0.8573281E-01
       -2   -1    0    0    0  501  0.00000000000E+00  0.00000000000E+00  0.62735092639E+03  0.62735092640E+03  0.25500000920E-02 0.  1.
        2   -1    0    0  501    0  0.00000000000E+00  0.00000000000E+00 -0.17123078493E+04  0.17123078493E+04  0.25500000920E-02 0. -1.
    10030    2    1    2    0    0  0.00000000000E+00  0.00000000000E+00 -0.10849569229E+04  0.23396587757E+04  0.20728896889E+04 0.  0.
        5    1    3    3  502    0  0.91341386595E+01 -0.10205951444E+04 -0.33900663836E+03  0.10754745335E+04  0.46999998093E+01 0.  1.
       -5    1    3    3    0  502 -0.91341386595E+01  0.10205951444E+04 -0.74595028457E+03  0.12641842422E+04  0.46999998093E+01 0. -1.
</event>
<event>
 5   0  0.1492552E-05  0.2107625E+04  0.7818609E-02  0.8557892E-01
       -1   -1    0    0    0  501  0.00000000000E+00  0.00000000000E+00  0.86263638354E+03  0.86263638355E+03  0.50400001928E-02 0. -1.
        1   -1    0    0  501    0  0.00000000000E+00  0.00000000000E+00 -0.12873562400E+04  0.12873562400E+04  0.50400001928E-02 0.  1.
    10030    2    1    2    0    0  0.00000000000E+00  0.00000000000E+00 -0.42471985647E+03  0.21499926236E+04  0.21076245693E+04 0.  0.
        4    1    3    3  502    0  0.91487497531E+03 -0.52219133463E+03 -0.18281730262E+03  0.10691603198E+04  0.12699999809E+01 0. -1.
       -4    1    3    3    0  502 -0.91487497531E+03  0.52219133463E+03 -0.24190255385E+03  0.10808323038E+04  0.12699999809E+01 0.  1.
</event>
<event>
 5   0  0.1435410E-05  0.2109559E+04  0.7818609E-02  0.8557044E-01
       -1   -1    0    0    0  501  0.00000000000E+00  0.00000000000E+00  0.99932214416E+03  0.99932214417E+03  0.50400001928E-02 0.  1.
        1   -1    0    0  501    0  0.00000000000E+00  0.00000000000E+00 -0.11133149741E+04  0.11133149741E+04  0.50400001928E-02 0. -1.
    10030    2    1    2    0    0  0.00000000000E+00  0.00000000000E+00 -0.11399282997E+03  0.21126371183E+04  0.21095594868E+04 0.  0.
        2    1    3    3  502    0 -0.95088873219E+03 -0.10396702973E+03 -0.50212409123E+03  0.10803365806E+04  0.25500000920E-02 0. -1.
       -2    1    3    3    0  502  0.95088873219E+03  0.10396702973E+03  0.38813126126E+03  0.10323005378E+04  0.25500000920E-02 0.  1.
</event>
<event>
 5   0  0.3257130E-05  0.2101968E+04  0.7818609E-02  0.8560377E-01
       -2   -1    0    0    0  501  0.00000000000E+00  0.00000000000E+00  0.86202111843E+03  0.86202111844E+03  0.25500000920E-02 0.  1.
        2   -1    0    0  501    0  0.00000000000E+00  0.00000000000E+00 -0.12813693828E+04  0.12813693828E+04  0.25500000920E-02 0. -1.
    10030    2    1    2    0    0  0.00000000000E+00  0.00000000000E+00 -0.41934826433E+03  0.21433905012E+04  0.21019680953E+04 0.  0.
        3    1    3    3  502    0  0.92044519637E+03  0.29031018117E+03  0.21453859269E+03  0.98869923575E+03  0.10100000352E+00 0.  1.
       -3    1    3    3    0  502 -0.92044519637E+03 -0.29031018117E+03 -0.63388685701E+03  0.11546912654E+04  0.10100000352E+00 0. -1.
</event>
<event>
 5   0  0.3130517E-05  0.2093465E+04  0.7818609E-02  0.8564128E-01
       -2   -1    0    0    0  501  0.00000000000E+00  0.00000000000E+00  0.86630532461E+03  0.86630532461E+03  0.25500000920E-02 0.  1.
        2   -1    0    0  501    0  0.00000000000E+00  0.00000000000E+00 -0.12647376729E+04  0.12647376729E+04  0.25500000920E-02 0. -1.
    10030    2    1    2    0    0  0.00000000000E+00  0.00000000000E+00 -0.39843234824E+03  0.21310429975E+04  0.20934650513E+04 0.  0.
        1    1    3    3  502    0 -0.51341667342E+02  0.33737330528E+03 -0.12065200029E+04  0.12538529544E+04  0.50400001928E-02 0. -1.
       -1    1    3    3    0  502  0.51341667342E+02 -0.33737330528E+03  0.80808765467E+03  0.87719004302E+03  0.50400001928E-02 0.  1.
</event>
<event>
 5   0  0.3242231E-05  0.2009400E+04  0.7818609E-02  0.8602239E-01
       -2   -1    0    0    0  501  0.00000000000E+00  0.00000000000E+00  0.14213575138E+04  0.14213575138E+04  0.25500000920E-02 0.  1.
        2   -1    0    0  501    0  0.00000000000E+00  0.00000000000E+00 -0.71018151461E+03  0.71018151461E+03  0.25500000920E-02 0. -1.
    10030    2    1    2    0    0  0.00000000000E+00  0.00000000000E+00  0.71117599923E+03  0.21315390285E+04  0.20093997432E+04 0.  0.
        4    1    3    3  502    0 -0.26077161538E+03 -0.23108565122E+03 -0.64403855279E+03  0.73224974153E+03  0.12699999809E+01 0. -1.
       -4    1    3    3    0  502  0.26077161538E+03  0.23108565122E+03  0.13552145520E+04  0.13992892869E+04  0.12699999809E+01 0.  1.
</event>
<event>
 5   0  0.1466480E-05  0.2103481E+04  0.7818609E-02  0.8559712E-01
        1   -1    0    0  501    0  0.00000000000E+00  0.00000000000E+00  0.13436083219E+04  0.13436083220E+04  0.50400001928E-02 0. -1.
       -1   -1    0    0    0  501  0.00000000000E+00  0.00000000000E+00 -0.82327418266E+03  0.82327418268E+03  0.50400001928E-02 0.  1.
    10030    2    1    2    0    0  0.00000000000E+00  0.00000000000E+00  0.52033413929E+03  0.21668825046E+04  0.21034809655E+04 0.  0.
        3    1    3    3  502    0 -0.85649992629E+03 -0.60981501018E+03  0.28725728767E+03  0.10899464344E+04  0.10100000352E+00 0.  1.
       -3    1    3    3    0  502  0.85649992629E+03  0.60981501018E+03  0.23307685162E+03  0.10769360702E+04  0.10100000352E+00 0. -1.
</event>
<event>
 5   0  0.1513292E-05  0.2106976E+04  0.7818609E-02  0.8558177E-01
       -1   -1    0    0    0  501  0.00000000000E+00  0.00000000000E+00  0.67332963211E+03  0.67332963213E+03  0.50400001928E-02 0. -1.
        1   -1    0    0  501    0  0.00000000000E+00  0.00000000000E+00 -0.16482820174E+04  0.16482820174E+04  0.50400001928E-02 0.  1.
    10030    2    1    2    0    0  0.00000000000E+00  0.00000000000E+00 -0.97495238528E+03  0.23216116495E+04  0.21069761502E+04 0.  0.
        1    1    3    3  502    0 -0.11457563812E+03 -0.10419413701E+04 -0.60339641590E+03  0.12094861018E+04  0.50400001928E-02 0.  1.
       -1    1    3    3    0  502  0.11457563812E+03  0.10419413701E+04 -0.37155596939E+03  0.11121255478E+04  0.50400001928E-02 0. -1.
</event>
<event>
 5   0  0.1435410E-05  0.2102961E+04  0.7818609E-02  0.8559940E-01
       -1   -1    0    0    0  501  0.00000000000E+00  0.00000000000E+00  0.63088637926E+03  0.63088637928E+03  0.50400001928E-02 0. -1.
        1   -1    0    0  501    0  0.00000000000E+00  0.00000000000E+00 -0.17524721701E+04  0.17524721701E+04  0.50400001928E-02 0.  1.
    10030    2    1    2    0    0  0.00000000000E+00  0.00000000000E+00 -0.11215857908E+04  0.23833585494E+04  0.21029606008E+04 0.  0.
        2    1    3    3  502    0 -0.97980225120E+03  0.37341568880E+03 -0.64973689699E+03  0.12335354731E+04  0.25500000920E-02 0.  1.
       -2    1    3    3    0  502  0.97980225120E+03 -0.37341568880E+03 -0.47184889385E+03  0.11498230763E+04  0.25500000920E-02 0. -1.
</event>
<event>
 5   0  0.3130517E-05  0.2121091E+04  0.7818609E-02  0.8552009E-01
       -2   -1    0    0    0  501  0.00000000000E+00  0.00000000000E+00  0.63660422528E+03  0.63660422529E+03  0.25500000920E-02 0.  1.
        2   -1    0    0  501    0  0.00000000000E+00  0.00000000000E+00 -0.17668074572E+04  0.17668074572E+04  0.25500000920E-02 0. -1.
    10030    2    1    2    0    0  0.00000000000E+00  0.00000000000E+00 -0.11302032319E+04  0.24034116824E+04  0.21210913158E+04 0.  0.
        1    1    3    3  502    0  0.73811079764E+03  0.44539816673E+03 -0.12650337331E+04  0.15308485955E+04  0.50400001928E-02 0. -1.
       -1    1    3    3    0  502 -0.73811079764E+03 -0.44539816673E+03  0.13483050125E+03  0.87256308690E+03  0.50400001928E-02 0.  1.
</event>
<event>
 5   0  0.3242231E-05  0.2106054E+04  0.7818609E-02  0.8558581E-01
       -2   -1    0    0    0  501  0.00000000000E+00  0.00000000000E+00  0.92249833157E+03  0.92249833157E+03  0.25500000920E-02 0.  1.
        2   -1    0    0  501    0  0.00000000000E+00  0.00000000000E+00 -0.12020249329E+04  0.12020249329E+04  0.25500000920E-02 0. -1.
    10030    2    1    2    0    0  0.00000000000E+00  0.00000000000E+00 -0.27952660129E+03  0.21245232644E+04  0.21060541257E+04 0.  0.
        4    1    3    3  502    0  0.34975304782E+03 -0.63115465142E+03 -0.91341851352E+03  0.11640525685E+04  0.12699999809E+01 0. -1.
       -4    1    3    3    0  502 -0.34975304782E+03  0.63115465142E+03  0.63389191223E+03  0.96047069594E+03  0.12699999809E+01 0.  1.
</event>
<event>
 5   0  0.1453430E-05  0.2051548E+04  0.7818609E-02  0.8582892E-01
        1   -1    0    0  501    0  0.00000000000E+00  0.00000000000E+00  0.12845941185E+04  0.12845941185E+04  0.50400001928E-02 0. -1.
       -1   -1    0    0    0  501  0.00000000000E+00  0.00000000000E+00 -0.81910094885E+03  0.81910094887E+03  0.50400001928E-02 0.  1.
    10030    2    1    2    0    0  0.00000000000E+00  0.00000000000E+00  0.46549316968E+03  0.21036950674E+04  0.20515479633E+04 0.  0.
        5    1    3    3  502    0  0.62866179363E+03 -0.39090332293E+02  0.10629217306E+04  0.12355437671E+04  0.46999998093E+01 0. -1.
       -5    1    3    3    0  502 -0.62866179363E+03  0.39090332293E+02 -0.59742856096E+03  0.86815130035E+03  0.46999998093E+01 0.  1.
</event>
<event>
 5   0  0.3130517E-05  0.2100292E+04  0.7818609E-02  0.8561115E-01
       -2   -1    0    0    0  501  0.00000000000E+00  0.00000000000E+00  0.15653675437E+04  0.15653675437E+04  0.25500000920E-02 0. -1.
        2   -1    0    0  501    0  0.00000000000E+00  0.00000000000E+00 -0.70450362840E+03  0.70450362840E+03  0.25500000920E-02 0.  1.
    10030    2    1    2    0    0  0.00000000000E+00  0.00000000000E+00  0.86086391531E+03  0.22698711721E+04  0.21002924695E+04 0.  0.
        1    1    3    3  502    0  0.96390557965E+03 -0.13017624762E+03  0.85831143619E+03  0.12972117574E+04  0.50400001928E-02 0. -1.
       -1    1    3    3    0  502 -0.96390557965E+03  0.13017624762E+03  0.25524791191E+01  0.97265941475E+03  0.50400001928E-02 0.  1.
</event>
<event>
 5   0  0.1466480E-05  0.2092860E+04  0.7818609E-02  0.8564395E-01
        1   -1    0    0  501    0  0.00000000000E+00  0.00000000000E+00  0.77130284255E+03  0.77130284256E+03  0.50400001928E-02 0.  1.
       -1   -1    0    0    0  501  0.00000000000E+00  0.00000000000E+00 -0.14196964774E+04  0.14196964774E+04  0.50400001928E-02 0. -1.
    10030    2    1    2    0    0  0.00000000000E+00  0.00000000000E+00 -0.64839363486E+03  0.21909993200E+04  0.20928601756E+04 0.  0.
        3    1    3    3  502    0 -0.41318583741E+03  0.35461280963E+03  0.61131918272E+03  0.81864762527E+03  0.10100000352E+00 0.  1.
       -3    1    3    3    0  502  0.41318583741E+03 -0.35461280963E+03 -0.12597128176E+04  0.13723516947E+04  0.10100000352E+00 0. -1.
</event>
<event>
 5   0  0.1453430E-05  0.2099096E+04  0.7818609E-02  0.8561642E-01
       -1   -1    0    0    0  501  0.00000000000E+00  0.00000000000E+00  0.14715255963E+04  0.14715255963E+04  0.50400001928E-02 0.  1.
        1   -1    0    0  501    0  0.00000000000E+00  0.00000000000E+00 -0.74857724786E+03  0.74857724788E+03  0.50400001928E-02 0. -1.
    10030    2    1    2    0    0  0.00000000000E+00  0.00000000000E+00  0.72294834847E+03  0.22201028442E+04  0.20990955968E+04 0.  0.
        5    1    3    3  502    0 -0.98055615115E+03 -0.17937920582E+03  0.14119176478E+02  0.99693967028E+03  0.46999998093E+01 0. -1.
       -5    1    3    3    0  502  0.98055615115E+03  0.17937920582E+03  0.70882917200E+03  0.12231631739E+04  0.46999998093E+01 0.  1.
</event>
<event>
 5   0  0.1453430E-05  0.2090069E+04  0.7818609E-02  0.8565631E-01
       -1   -1    0    0    0  501  0.00000000000E+00  0.00000000000E+00  0.55147405109E+03  0.55147405111E+03  0.50400001928E-02 0. -1.
        1   -1    0    0  501    0  0.00000000000E+00  0.00000000000E+00 -0.19803232328E+04  0.19803232328E+04  0.50400001928E-02 0.  1.
    10030    2    1    2    0    0  0.00000000000E+00  0.00000000000E+00 -0.14288491817E+04  0.25317972839E+04  0.20900687794E+04 0.  0.
        5    1    3    3  502    0  0.17470780278E+02 -0.69603526405E+03 -0.16584237121E+04  0.17986555023E+04  0.46999998093E+01 0.  1.
       -5    1    3    3    0  502 -0.17470780278E+02  0.69603526405E+03  0.22957453041E+03  0.73314178164E+03  0.46999998093E+01 0. -1.
</event>
<event>
 5   0  0.1129987E-05  0.2064339E+04  0.7818609E-02  0.8577117E-01
       -4   -1    0    0    0  501  0.00000000000E+00  0.00000000000E+00  0.10529894899E+04  0.10529902558E+04  0.12699999809E+01 0.  1.
        4   -1    0    0  501    0  0.00000000000E+00  0.00000000000E+00 -0.10117596439E+04  0.10117604409E+04  0.12699999809E+01 0. -1.
    10030    2    1    2    0    0  0.00000000000E+00  0.00000000000E+00  0.41229846032E+02  0.20647506967E+04  0.20643390078E+04 0.  0.
        4    1    3    3  502    0 -0.17927102241E+03 -0.25855832497E+03 -0.96262830853E+03  0.10127415170E+04  0.12699999809E+01 0. -1.
       -4    1    3    3    0  502  0.17927102241E+03  0.25855832497E+03  0.10038581546E+04  0.10520091797E+04  0.12699999809E+01 0.  1.
</event>
<event>
 5   0  0.3108326E-05  0.2077932E+04  0.7818609E-02  0.8571027E-01
       -2   -1    0    0    0  501  0.00000000000E+00  0.00000000000E+00  0.15157503610E+04  0.15157503610E+04  0.25500000920E-02 0.  1.
        2   -1    0    0  501    0  0.00000000000E+00  0.00000000000E+00 -0.71215589685E+03  0.71215589685E+03  0.25500000920E-02 0. -1.
    10030    2    1    2    0    0  0.00000000000E+00  0.00000000000E+00  0.80359446412E+03  0.22279062578E+04  0.20779322007E+04 0.  0.
        5    1    3    3  502    0 -0.14073436252E+03 -0.62124512316E+03 -0.47822032575E+03  0.79653526840E+03  0.46999998093E+01 0. -1.
       -5    1    3    3    0  502  0.14073436252E+03  0.62124512316E+03  0.12818147899E+04  0.14313709894E+04  0.46999998093E+01 0.  1.
</event>
<event>
 5   0  0.3242231E-05  0.2097740E+04  0.7818609E-02  0.8562239E-01
       -2   -1    0    0    0  501  0.00000000000E+00  0.00000000000E+00  0.88213848607E+03  0.88213848607E+03  0.25500000920E-02 0. -1.
        2   -1    0    0  501    0  0.00000000000E+00  0.00000000000E+00 -0.12471153563E+04  0.12471153563E+04  0.25500000920E-02 0.  1.
    10030    2    1    2    0    0  0.00000000000E+00  0.00000000000E+00 -0.36497687024E+03  0.21292538424E+04  0.20977401673E+04 0.  0.
        4    1    3    3  502    0 -0.63050308140E+03  0.73647660442E+03 -0.58874473493E+03  0.11342635938E+04  0.12699999809E+01 0.  1.
       -4    1    3    3    0  502  0.63050308140E+03 -0.73647660442E+03  0.22376786469E+03  0.99499024853E+03  0.12699999809E+01 0. -1.
</event>
<event>
 5   0  0.1513292E-05  0.2093584E+04  0.7818609E-02  0.8564075E-01
       -1   -1    0    0    0  501  0.00000000000E+00  0.00000000000E+00  0.10227837609E+04  0.10227837609E+04  0.50400001928E-02 0.  1.
        1   -1    0    0  501    0  0.00000000000E+00  0.00000000000E+00 -0.10713635135E+04  0.10713635135E+04  0.50400001928E-02 0. -1.
    10030    2    1    2    0    0  0.00000000000E+00  0.00000000000E+00 -0.48579752597E+02  0.20941472744E+04  0.20935837253E+04 0.  0.
        1    1    3    3  502    0 -0.35260145149E+03  0.73032872742E+03  0.63775335330E+03  0.10317156456E+04  0.50400001928E-02 0.  1.
       -1    1    3    3    0  502  0.35260145149E+03 -0.73032872742E+03 -0.68633310590E+03  0.10624316288E+04  0.50400001928E-02 0. -1.
</event>
<event>
 5   0  0.3108326E-05  0.2102190E+04  0.7818609E-02  0.8560279E-01
        2   -1    0    0  501    0  0.00000000000E+00  0.00000000000E+00  0.16129706602E+04  0.16129706602E+04  0.25500000920E-02 0.  1.
       -2   -1    0    0    0  501  0.00000000000E+00  0.00000000000E+00 -0.68494795643E+03  0.68494795644E+03  0.25500000920E-02 0. -1.
    10030    2    1    2    0    0  0.00000000000E+00  0.00000000000E+00  0.92802270380E+03  0.22979186167E+04  0.21021902459E+04 0.  0.
        5    1    3    3  502    0 -0.14779173744E+03 -0.70546898783E+03 -0.37223325442E+03  0.81123891434E+03  0.46999998093E+01 0. -1.
       -5    1    3    3    0  502  0.14779173744E+03  0.70546898783E+03  0.13002559582E+04  0.14866797023E+04  0.46999998093E+01 0.  1.
</event>
<event>
 5   0  0.1453430E-05  0.2061371E+04  0.7818609E-02  0.8578453E-01
       -1   -1    0    0    0  501  0.00000000000E+00  0.00000000000E+00  0.73928328473E+03  0.73928328474E+03  0.50400001928E-02 0. -1.
        1   -1    0    0  501    0  0.00000000000E+00  0.00000000000E+00 -0.14369491148E+04  0.14369491149E+04  0.50400001928E-02 0.  1.
    10030    2    1    2    0    0  0.00000000000E+00  0.00000000000E+00 -0.69766583012E+03  0.21762323996E+04  0.20613708658E+04 0.  0.
        5    1    3    3  502    0 -0.35935011065E+03  0.50454229122E+03 -0.12185028339E+04  0.13669186779E+04  0.46999998093E+01 0.  1.
       -5    1    3    3    0  502  0.35935011065E+03 -0.50454229122E+03  0.52083700379E+03  0.80931372173E+03  0.46999998093E+01 0. -1.
</event>
<event>
 5   0  0.3257130E-05  0.2098960E+04  0.7818609E-02  0.8561702E-01
        2   -1    0    0  501    0  0.00000000000E+00  0.00000000000E+00  0.14506491838E+04  0.14506491838E+04  0.25500000920E-02 0.  1.
       -2   -1    0    0    0  501  0.00000000000E+00  0.00000000000E+00 -0.75925167796E+03  0.75925167796E+03  0.25500000920E-02 0. -1.
    10030    2    1    2    0    0  0.00000000000E+00  0.00000000000E+00  0.69139750580E+03  0.22099008617E+04  0.20989595774E+04 0.  0.
        3    1    3    3  502    0 -0.80169115398E+03  0.62331657788E+03  0.62460718325E+03  0.11922107222E+04  0.10100000352E+00 0. -1.
       -3    1    3    3    0  502  0.80169115398E+03 -0.62331657788E+03  0.66790322559E+02  0.10176901395E+04  0.10100000352E+00 0.  1.
</event>
<event>
 5   0  0.3108326E-05  0.2108319E+04  0.7818609E-02  0.8557588E-01
       -2   -1    0    0    0  501  0.00000000000E+00  0.00000000000E+00  0.39065057571E+03  0.39065057572E+03  0.25500000920E-02 0.  1.
        2   -1    0    0  501    0  0.00000000000E+00  0.00000000000E+00 -0.28446183230E+04  0.28446183230E+04  0.25500000920E-02 0. -1.
    10030    2    1    2    0    0  0.00000000000E+00  0.00000000000E+00 -0.24539677473E+04  0.32352688987E+04  0.21083185581E+04 0.  0.
        5    1    3    3  502    0 -0.63720162300E+03 -0.48664475638E+03 -0.17677996042E+03  0.82104949404E+03  0.46999998093E+01 0.  1.
       -5    1    3    3    0  502  0.63720162300E+03  0.48664475638E+03 -0.22771877869E+04  0.24142194047E+04  0.46999998093E+01 0. -1.
</event>
<event>
 5   0  0.1492552E-05  0.2077658E+04  0.7818609E-02  0.8571149E-01
       -1   -1    0    0    0  501  0.00000000000E+00  0.00000000000E+00  0.12233845229E+04  0.12233845229E+04  0.50400001928E-02 0.  1.
        1   -1    0    0  501    0  0.00000000000E+00  0.00000000000E+00 -0.88211513021E+03  0.88211513023E+03  0.50400001928E-02 0. -1.
    10030    2    1    2    0    0  0.00000000000E+00  0.00000000000E+00  0.34126939271E+03  0.21054996532E+04  0.20776582951E+04 0.  0.
        4    1    3    3  502    0 -0.74086968615E+03  0.71630883209E+03  0.37812931012E+02  0.10312214435E+04  0.12699999809E+01 0. -1.
       -4    1    3    3    0  502  0.74086968615E+03 -0.71630883209E+03  0.30345646170E+03  0.10742782097E+04  0.12699999809E+01 0.  1.
</event>
<event>
 5   0  0.3257130E-05  0.2101230E+04  0.7818609E-02  0.8560702E-01
       -2   -1    0    0    0  501  0.00000000000E+00  0.00000000000E+00  0.68245655798E+03  0.68245655799E+03  0.25500000920E-02 0. -1.
        2   -1    0    0  501    0  0.00000000000E+00  0.00000000000E+00 -0.16173803089E+04  0.16173803089E+04  0.25500000920E-02 0.  1.
    10030    2    1    2    0    0  0.00000000000E+00  0.00000000000E+00 -0.93492375090E+03  0.22998368669E+04  0.21012299242E+04 0.  0.
        3    1    3    3  502    0  0.12934683054E+02  0.36396131667E+03  0.61115720088E+03  0.71144098873E+03  0.10100000352E+00 0. -1.
       -3    1    3    3    0  502 -0.12934683054E+02 -0.36396131667E+03 -0.15460809518E+04  0.15883958781E+04  0.10100000352E+00 0.  1.
</event>
<event>
 5   0  0.3279789E-05  0.2101944E+04  0.7818609E-02  0.8560388E-01
       -2   -1    0    0    0  501  0.00000000000E+00  0.00000000000E+00  0.80788786655E+03  0.80788786655E+03  0.25500000920E-02 0. -1.
        2   -1    0    0  501    0  0.00000000000E+00  0.00000000000E+00 -0.13671973605E+04  0.13671973605E+04  0.25500000920E-02 0.  1.
    10030    2    1    2    0    0  0.00000000000E+00  0.00000000000E+00 -0.55930949399E+03  0.21750852271E+04  0.21019440133E+04 0.  0.
        2    1    3    3  502    0  0.10143865266E+02 -0.76803553789E+03 -0.10219444398E+04  0.12784177422E+04  0.25500000920E-02 0. -1.
       -2    1    3    3    0  502 -0.10143865266E+02  0.76803553789E+03  0.46263494579E+03  0.89666748493E+03  0.25500000920E-02 0.  1.
</event>
<event>
 5   0  0.3242231E-05  0.2136165E+04  0.7818609E-02  0.8545477E-01
       -2   -1    0    0    0  501  0.00000000000E+00  0.00000000000E+00  0.67860562918E+03  0.67860562918E+03  0.25500000920E-02 0.  1.
        2   -1    0    0  501    0  0.00000000000E+00  0.00000000000E+00 -0.16810953141E+04  0.16810953141E+04  0.25500000920E-02 0. -1.
    10030    2    1    2    0    0  0.00000000000E+00  0.00000000000E+00 -0.10024896849E+04  0.23597009433E+04  0.21361654836E+04 0.  0.
        4    1    3    3  502    0  0.89126937911E+03 -0.35468757537E+03 -0.10201154004E+04  0.14002861941E+04  0.12699999809E+01 0. -1.
       -4    1    3    3    0  502 -0.89126937911E+03  0.35468757537E+03  0.17625715490E+02  0.95941474921E+03  0.12699999809E+01 0.  1.
</event>
<event>
 5   0  0.3108326E-05  0.2093942E+04  0.7818609E-02  0.8563917E-01
        2   -1    0    0  501    0  0.00000000000E+00  0.00000000000E+00  0.23261379541E+04  0.23261379541E+04  0.25500000920E-02 0. -1.
       -2   -1    0    0    0  501  0.00000000000E+00  0.00000000000E+00 -0.47123107845E+03  0.47123107845E+03  0.25500000920E-02 0.  1.
    10030    2    1    2    0    0  0.00000000000E+00  0.00000000000E+00  0.18549068756E+04  0.27973690325E+04  0.20939422119E+04 0.  0.
        5    1    3    3  502    0  0.16725116126E+03 -0.44017993685E+03  0.21766734223E+04  0.22270295474E+04  0.46999998093E+01 0. -1.
       -5    1    3    3    0  502 -0.16725116126E+03  0.44017993685E+03 -0.32176654666E+03  0.57033948512E+03  0.46999998093E+01 0.  1.
</event>
<event>
 5   0  0.3130517E-05  0.2107548E+04  0.7818609E-02  0.8557926E-01
       -2   -1    0    0    0  501  0.00000000000E+00  0.00000000000E+00  0.63066105755E+03  0.63066105756E+03  0.25500000920E-02 0. -1.
        2   -1    0    0  501    0  0.00000000000E+00  0.00000000000E+00 -0.17607550987E+04  0.17607550987E+04  0.25500000920E-02 0.  1.
    10030    2    1    2    0    0  0.00000000000E+00  0.00000000000E+00 -0.11300940411E+04  0.23914161562E+04  0.21075480280E+04 0.  0.
        1    1    3    3  502    0  0.67896407609E+03 -0.78666871122E+03 -0.36655779585E+03  0.11019094770E+04  0.50400001928E-02 0. -1.
       -1    1    3    3    0  502 -0.67896407609E+03  0.78666871122E+03 -0.76353624526E+03  0.12895066792E+04  0.50400001928E-02 0.  1.
</event>
<event>
 5   0  0.3130517E-05  0.2089905E+04  0.7818609E-02  0.8565703E-01
        2   -1    0    0  501    0  0.00000000000E+00  0.00000000000E+00  0.78957052956E+03  0.78957052957E+03  0.25500000920E-02 0. -1.
       -2   -1    0    0    0  501  0.00000000000E+00  0.00000000000E+00 -0.13829363723E+04  0.13829363723E+04  0.25500000920E-02 0.  1.
    10030    2    1    2    0    0  0.00000000000E+00  0.00000000000E+00 -0.59336584276E+03  0.21725069019E+04  0.20899050733E+04 0.  0.
        1    1    3    3  502    0  0.15974182185E+03  0.10285635195E+04 -0.39232728581E+03  0.11123763134E+04  0.50400001928E-02 0.  1.
       -1    1    3    3    0  502 -0.15974182185E+03 -0.10285635195E+04 -0.20103855695E+03  0.10601305885E+04  0.50400001928E-02 0. -1.
</event>
<event>
 5   0  0.1513292E-05  0.2099789E+04  0.7818609E-02  0.8561336E-01
       -1   -1    0    0    0  501  0.00000000000E+00  0.00000000000E+00  0.58671262545E+03  0.58671262547E+03  0.50400001928E-02 0. -1.
        1   -1    0    0  501    0  0.00000000000E+00  0.00000000000E+00 -0.18787358943E+04  0.18787358943E+04  0.50400001928E-02 0.  1.
    10030    2    1    2    0    0  0.00000000000E+00  0.00000000000E+00 -0.12920232689E+04  0.24654485198E+04  0.20997886266E+04 0.  0.
        1    1    3    3  502    0 -0.69684938912E+03  0.70163153113E+03 -0.23190048751E+03  0.10157084782E+04  0.50400001928E-02 0. -1.
       -1    1    3    3    0  502  0.69684938912E+03 -0.70163153113E+03 -0.10601227814E+04  0.14497400416E+04  0.50400001928E-02 0.  1.
</event>
<event>
 5   0  0.1435410E-05  0.2098717E+04  0.7818609E-02  0.8561809E-01
        1   -1    0    0  501    0  0.00000000000E+00  0.00000000000E+00  0.12933098801E+04  0.12933098801E+04  0.50400001928E-02 0. -1.
       -1   -1    0    0    0  501  0.00000000000E+00  0.00000000000E+00 -0.85142222788E+03  0.85142222790E+03  0.50400001928E-02 0.  1.
    10030    2    1    2    0    0  0.00000000000E+00  0.00000000000E+00  0.44188765218E+03  0.21447321080E+04  0.20987165406E+04 0.  0.
        2    1    3    3  502    0 -0.54251659878E+02  0.95197765335E+03 -0.22678098232E+03  0.98011953813E+03  0.25500000920E-02 0.  1.
       -2    1    3    3    0  502  0.54251659878E+02 -0.95197765335E+03  0.66866863450E+03  0.11646125698E+04  0.25500000920E-02 0. -1.
</event>
<event>
 5   0  0.3130517E-05  0.2075693E+04  0.7818609E-02  0.8572027E-01
        2   -1    0    0  501    0  0.00000000000E+00  0.00000000000E+00  0.13654156144E+04  0.13654156144E+04  0.25500000920E-02 0. -1.
       -2   -1    0    0    0  501  0.00000000000E+00  0.00000000000E+00 -0.78886265642E+03  0.78886265643E+03  0.25500000920E-02 0.  1.
    10030    2    1    2    0    0  0.00000000000E+00  0.00000000000E+00  0.57655295795E+03  0.21542782708E+04  0.20756930300E+04 0.  0.
        1    1    3    3  502    0  0.42928723310E+03  0.90046822622E+03 -0.89119654161E+01  0.99760211412E+03  0.50400001928E-02 0.  1.
       -1    1    3    3    0  502 -0.42928723310E+03 -0.90046822622E+03  0.58546492336E+03  0.11566761567E+04  0.50400001928E-02 0. -1.
</event>
<event>
 5   0  0.1453430E-05  0.2104839E+04  0.7818609E-02  0.8559115E-01
       -1   -1    0    0    0  501  0.00000000000E+00  0.00000000000E+00  0.10584981520E+04  0.10584981520E+04  0.50400001928E-02 0. -1.
        1   -1    0    0  501    0  0.00000000000E+00  0.00000000000E+00 -0.10463758641E+04  0.10463758641E+04  0.50400001928E-02 0.  1.
    10030    2    1    2    0    0  0.00000000000E+00  0.00000000000E+00  0.12122287911E+02  0.21048740162E+04  0.21048391088E+04 0.  0.
        5    1    3    3  502    0 -0.48544645792E+03  0.25413188017E+02 -0.92736782157E+03  0.10470612495E+04  0.46999998093E+01 0.  1.
       -5    1    3    3    0  502  0.48544645792E+03 -0.25413188017E+02  0.93949010948E+03  0.10578127667E+04  0.46999998093E+01 0. -1.
</event>
<event>
 5   0  0.3108326E-05  0.2096685E+04  0.7818609E-02  0.8562705E-01
        2   -1    0    0  501    0  0.00000000000E+00  0.00000000000E+00  0.13415296464E+04  0.13415296464E+04  0.25500000920E-02 0. -1.
       -2   -1    0    0    0  501  0.00000000000E+00  0.00000000000E+00 -0.81923060614E+03  0.81923060614E+03  0.25500000920E-02 0.  1.
    10030    2    1    2    0    0  0.00000000000E+00  0.00000000000E+00  0.52229904022E+03  0.21607602525E+04  0.20966851412E+04 0.  0.
        5    1    3    3  502    0  0.72451452438E+03 -0.23356363153E+03 -0.48165978984E+03  0.90082823511E+03  0.46999998093E+01 0.  1.
       -5    1    3    3    0  502 -0.72451452438E+03  0.23356363153E+03  0.10039588301E+04  0.12599320174E+04  0.46999998093E+01 0. -1.
</event>
<event>
 5   0  0.1466480E-05  0.2101271E+04  0.7818609E-02  0.8560683E-01
       -1   -1    0    0    0  501  0.00000000000E+00  0.00000000000E+00  0.80624093000E+03  0.80624093001E+03  0.50400001928E-02 0. -1.
        1   -1    0    0  501    0  0.00000000000E+00  0.00000000000E+00 -0.13691136403E+04  0.13691136403E+04  0.50400001928E-02 0.  1.
    10030    2    1    2    0    0  0.00000000000E+00  0.00000000000E+00 -0.56287271027E+03  0.21753545703E+04  0.21012714766E+04 0.  0.
        3    1    3    3  502    0  0.10399623115E+03 -0.49826222874E+03  0.67007345347E+03  0.84147424674E+03  0.10100000352E+00 0. -1.
       -3    1    3    3    0  502 -0.10399623115E+03  0.49826222874E+03 -0.12329461637E+04  0.13338803236E+04  0.10100000352E+00 0.  1.
</event>
<event>
 5   0  0.3279789E-05  0.2110910E+04  0.7818609E-02  0.8556453E-01
       -2   -1    0    0    0  501  0.00000000000E+00  0.00000000000E+00  0.89788359319E+03  0.89788359320E+03  0.25500000920E-02 0.  1.
        2   -1    0    0  501    0  0.00000000000E+00  0.00000000000E+00 -0.12406791783E+04  0.12406791783E+04  0.25500000920E-02 0. -1.
    10030    2    1    2    0    0  0.00000000000E+00  0.00000000000E+00 -0.34279558508E+03  0.21385627715E+04  0.21109102099E+04 0.  0.
        2    1    3    3  502    0  0.58470618553E+03 -0.85306284726E+03 -0.38484216392E+03  0.11034949188E+04  0.25500000920E-02 0. -1.
       -2    1    3    3    0  502 -0.58470618553E+03  0.85306284726E+03  0.42046578840E+02  0.10350678526E+04  0.25500000920E-02 0.  1.
</event>
<event>
 5   0  0.1492552E-05  0.2079053E+04  0.7818609E-02  0.8570527E-01
       -1   -1    0    0    0  501  0.00000000000E+00  0.00000000000E+00  0.13290239476E+04  0.13290239476E+04  0.50400001928E-02 0. -1.
        1   -1    0    0  501    0  0.00000000000E+00  0.00000000000E+00 -0.81308951452E+03  0.81308951453E+03  0.50400001928E-02 0.  1.
    10030    2    1    2    0    0  0.00000000000E+00  0.00000000000E+00  0.51593443308E+03  0.21421134621E+04  0.20790530886E+04 0.  0.
        4    1    3    3  502    0 -0.57255080099E+03  0.37965133562E+03  0.10618001482E+04  0.12646622964E+04  0.12699999809E+01 0. -1.
       -4    1    3    3    0  502  0.57255080099E+03 -0.37965133562E+03 -0.54586571513E+03  0.87745116571E+03  0.12699999809E+01 0.  1.
</event>
<event>
 5   0  0.1453430E-05  0.2097542E+04  0.7818609E-02  0.8562327E-01
        1   -1    0    0  501    0  0.00000000000E+00  0.00000000000E+00  0.20051717113E+04  0.20051717113E+04  0.50400001928E-02 0.  1.
       -1   -1    0    0    0  501  0.00000000000E+00  0.00000000000E+00 -0.54854195044E+03  0.54854195046E+03  0.50400001928E-02 0. -1.
    10030    2    1    2    0    0  0.00000000000E+00  0.00000000000E+00  0.14566297609E+04  0.25537136618E+04  0.20975421822E+04 0.  0.
        5    1    3    3  502    0  0.17350936730E+03 -0.10079444843E+04  0.44581480382E+03  0.11157197288E+04  0.46999998093E+01 0. -1.
       -5    1    3    3    0  502 -0.17350936730E+03  0.10079444843E+04  0.10108149571E+04  0.14379939330E+04  0.46999998093E+01 0.  1.
</event>
<event>
 5   0  0.1513292E-05  0.2098860E+04  0.7818609E-02  0.8561746E-01
        1   -1    0    0  501    0  0.00000000000E+00  0.00000000000E+00  0.12307302737E+04  0.12307302737E+04  0.50400001928E-02 0. -1.
       -1   -1    0    0    0  501  0.00000000000E+00  0.00000000000E+00 -0.89483704455E+03  0.89483704456E+03  0.50400001928E-02 0.  1.
    10030    2    1    2    0    0  0.00000000000E+00  0.00000000000E+00  0.33589322916E+03  0.21255673183E+04  0.20988597293E+04 0.  0.
        1    1    3    3  502    0 -0.81541628170E+03 -0.28348839163E+03 -0.43633165736E+03  0.96729245624E+03  0.50400001928E-02 0.  1.
       -1    1    3    3    0  502  0.81541628170E+03  0.28348839163E+03  0.77222488653E+03  0.11582748620E+04  0.50400001928E-02 0. -1.
</event>
<event>
 5   0  0.1435410E-05  0.2097618E+04  0.7818609E-02  0.8562293E-01
       -1   -1    0    0    0  501  0.00000000000E+00  0.00000000000E+00  0.76999510415E+03  0.76999510416E+03  0.50400001928E-02 0. -1.
        1   -1    0    0  501    0  0.00000000000E+00  0.00000000000E+00 -0.14285806194E+04  0.14285806194E+04  0.50400001928E-02 0.  1.
    10030    2    1    2    0    0  0.00000000000E+00  0.00000000000E+00 -0.65858551526E+03  0.21985757236E+04  0.20976177753E+04 0.  0.
        2    1    3    3  502    0  0.64997229199E+03 -0.18943822429E+03 -0.11688763119E+04  0.13507859393E+04  0.25500000920E-02 0. -1.
       -2    1    3    3    0  502 -0.64997229199E+03  0.18943822429E+03  0.51029079667E+03  0.84778978429E+03  0.25500000920E-02 0.  1.
</event>
<event>
 5   0  0.3257130E-05  0.2097468E+04  0.7818609E-02  0.8562360E-01
        2   -1    0    0  501    0  0.00000000000E+00  0.00000000000E+00  0.10740357547E+04  0.10740357547E+04  0.25500000920E-02 0. -1.
       -2   -1    0    0    0  501  0.00000000000E+00  0.00000000000E+00 -0.10240279602E+04  0.10240279602E+04  0.25500000920E-02 0.  1.
    10030    2    1    2    0    0  0.00000000000E+00  0.00000000000E+00  0.50007794549E+02  0.20980637149E+04  0.20974676571E+04 0.  0.
        3    1    3    3  502    0  0.11220774700E+02 -0.75962996199E+03  0.74817480363E+03  0.10662687897E+04  0.10100000352E+00 0. -1.
       -3    1    3    3    0  502 -0.11220774700E+02  0.75962996199E+03 -0.69816700908E+03  0.10317949252E+04  0.10100000352E+00 0.  1.
</event>
<event>
 5   0  0.3130517E-05  0.2099096E+04  0.7818609E-02  0.8561642E-01
        2   -1    0    0  501    0  0.00000000000E+00  0.00000000000E+00  0.11550561210E+04  0.11550561210E+04  0.25500000920E-02 0.  1.
       -2   -1    0    0    0  501  0.00000000000E+00  0.00000000000E+00 -0.95367777362E+03  0.95367777362E+03  0.25500000920E-02 0. -1.
    10030    2    1    2    0    0  0.00000000000E+00  0.00000000000E+00  0.20137834736E+03  0.21087338946E+04  0.20990963292E+04 0.  0.
        1    1    3    3  502    0  0.10033322321E+04  0.16632238579E+03 -0.15975515525E+03  0.10294952228E+04  0.50400001928E-02 0. -1.
       -1    1    3    3    0  502 -0.10033322321E+04 -0.16632238579E+03  0.36113350261E+03  0.10792386718E+04  0.50400001928E-02 0.  1.
</event>
<event>
 5   0  0.1435410E-05  0.2106145E+04  0.7818609E-02  0.8558541E-01
       -1   -1    0    0    0  501  0.00000000000E+00  0.00000000000E+00  0.16290026028E+04  0.16290026029E+04  0.50400001928E-02 0.  1.
        1   -1    0    0  501    0  0.00000000000E+00  0.00000000000E+00 -0.68076116944E+03  0.68076116946E+03  0.50400001928E-02 0. -1.
    10030    2    1    2    0    0  0.00000000000E+00  0.00000000000E+00  0.94824143341E+03  0.23097637723E+04  0.21061450254E+04 0.  0.
        2    1    3    3  502    0  0.21243705828E+01  0.44094622025E+03  0.15228822737E+04  0.15854363758E+04  0.25500000920E-02 0.  1.
       -2    1    3    3    0  502 -0.21243705828E+01 -0.44094622025E+03 -0.57464084026E+03  0.72432739656E+03  0.25500000920E-02 0. -1.
</event>
<event>
 5   0  0.1492552E-05  0.2149322E+04  0.7818609E-02  0.8539822E-01
       -1   -1    0    0    0  501  0.00000000000E+00  0.00000000000E+00  0.12562810500E+04  0.12562810500E+04  0.50400001928E-02 0.  1.
        1   -1    0    0  501    0  0.00000000000E+00  0.00000000000E+00 -0.91929806618E+03  0.91929806619E+03  0.50400001928E-02 0. -1.
    10030    2    1    2    0    0  0.00000000000E+00  0.00000000000E+00  0.33698298383E+03  0.21755791162E+04  0.21493224420E+04 0.  0.
        4    1    3    3  502    0 -0.49100527123E+02  0.10729069509E+04  0.20575067459E+03  0.10935607619E+04  0.12699999809E+01 0.  1.
       -4    1    3    3    0  502  0.49100527123E+02 -0.10729069509E+04  0.13123230924E+03  0.10820183543E+04  0.12699999809E+01 0. -1.
</event>
<event>
 5   0  0.1466480E-05  0.2077149E+04  0.7818609E-02  0.8571377E-01
       -1   -1    0    0    0  501  0.00000000000E+00  0.00000000000E+00  0.79428215290E+03  0.79428215292E+03  0.50400001928E-02 0. -1.
        1   -1    0    0  501    0  0.00000000000E+00  0.00000000000E+00 -0.13580023670E+04  0.13580023670E+04  0.50400001928E-02 0.  1.
    10030    2    1    2    0    0  0.00000000000E+00  0.00000000000E+00 -0.56372021410E+03  0.21522845199E+04  0.20771490498E+04 0.  0.
        3    1    3    3  502    0 -0.85227567251E+03  0.59145204179E+03 -0.33312388015E+03  0.10895691210E+04  0.10100000352E+00 0. -1.
       -3    1    3    3    0  502  0.85227567251E+03 -0.59145204179E+03 -0.23059633395E+03  0.10627153989E+04  0.10100000352E+00 0.  1.
</event>
<event>
 5   0  0.1492552E-05  0.2104029E+04  0.7818609E-02  0.8559471E-01
        1   -1    0    0  501    0  0.00000000000E+00  0.00000000000E+00  0.13277897407E+04  0.13277897408E+04  0.50400001928E-02 0.  1.
       -1   -1    0    0    0  501  0.00000000000E+00  0.00000000000E+00 -0.83351656742E+03  0.83351656743E+03  0.50400001928E-02 0. -1.
    10030    2    1    2    0    0  0.00000000000E+00  0.00000000000E+00  0.49427317333E+03  0.21613063082E+04  0.21040292270E+04 0.  0.
        4    1    3    3  502    0 -0.15326781977E+03 -0.54763496367E+03 -0.66202099700E+03  0.87273620950E+03  0.12699999809E+01 0. -1.
       -4    1    3    3    0  502  0.15326781977E+03  0.54763496367E+03  0.11562941703E+04  0.12885700987E+04  0.12699999809E+01 0.  1.
</event>
<event>
 5   0  0.3279789E-05  0.2103044E+04  0.7818609E-02  0.8559904E-01
        2   -1    0    0  501    0  0.00000000000E+00  0.00000000000E+00  0.94739377851E+03  0.94739377851E+03  0.25500000920E-02 0. -1.
       -2   -1    0    0    0  501  0.00000000000E+00  0.00000000000E+00 -0.11670952625E+04  0.11670952625E+04  0.25500000920E-02 0.  1.
    10030    2    1    2    0    0  0.00000000000E+00  0.00000000000E+00 -0.21970148395E+03  0.21144890410E+04  0.21030442607E+04 0.  0.
        2    1    3    3  502    0 -0.45324562948E+03 -0.66359802542E+03  0.57200267421E+03  0.98639799234E+03  0.25500000920E-02 0. -1.
       -2    1    3    3    0  502  0.45324562948E+03  0.66359802542E+03 -0.79170415815E+03  0.11280910486E+04  0.25500000920E-02 0.  1.
</event>
<event>
 5   0  0.3130517E-05  0.2125995E+04  0.7818609E-02  0.8549878E-01
        2   -1    0    0  501    0  0.00000000000E+00  0.00000000000E+00  0.15236275132E+04  0.15236275132E+04  0.25500000920E-02 0. -1.
       -2   -1    0    0    0  501  0.00000000000E+00  0.00000000000E+00 -0.74162725397E+03  0.74162725398E+03  0.25500000920E-02 0.  1.
    10030    2    1    2    0    0  0.00000000000E+00  0.00000000000E+00  0.78200025927E+03  0.22652547672E+04  0.21259950035E+04 0.  0.
        1    1    3    3  502    0  0.96350745288E+03 -0.23272337586E+03 -0.18154409872E+02  0.99138103878E+03  0.50400001928E-02 0.  1.
       -1    1    3    3    0  502 -0.96350745288E+03  0.23272337586E+03  0.80015466914E+03  0.12738737284E+04  0.50400001928E-02 0. -1.
</event>
<event>
 5   0  0.1513292E-05  0.2102362E+04  0.7818609E-02  0.8560204E-01
        1   -1    0    0  501    0  0.00000000000E+00  0.00000000000E+00  0.12950193059E+04  0.12950193059E+04  0.50400001928E-02 0.  1.
       -1   -1    0    0    0  501  0.00000000000E+00  0.00000000000E+00 -0.85325472935E+03  0.85325472937E+03  0.50400001928E-02 0. -1.
    10030    2    1    2    0    0  0.00000000000E+00  0.00000000000E+00  0.44176457654E+03  0.21482740353E+04  0.21023618598E+04 0.  0.
        1    1    3    3  502    0 -0.79533762726E+03 -0.75194687214E+02 -0.47723987982E+03  0.93057728601E+03  0.50400001928E-02 0.  1.
       -1    1    3    3    0  502  0.79533762726E+03  0.75194687214E+02  0.91900445636E+03  0.12176967493E+04  0.50400001928E-02 0. -1.
</event>
<event>
 5   0  0.3279789E-05  0.2108987E+04  0.7818609E-02  0.8557295E-01
        2   -1    0    0  501    0  0.00000000000E+00  0.00000000000E+00  0.17720711768E+04  0.17720711768E+04  0.25500000920E-02 0.  1.
       -2   -1    0    0    0  501  0.00000000000E+00  0.00000000000E+00 -0.62748958381E+03  0.62748958381E+03  0.25500000920E-02 0. -1.
    10030    2    1    2    0    0  0.00000000000E+00  0.00000000000E+00  0.11445815930E+04  0.23995607606E+04  0.21089866810E+04 0.  0.
        2    1    3    3  502    0 -0.40924737449E+03 -0.28235763220E+03  0.16303316475E+04  0.17044619464E+04  0.25500000920E-02 0.  1.
       -2    1    3    3    0  502  0.40924737449E+03  0.28235763220E+03 -0.48575005452E+03  0.69509881417E+03  0.25500000920E-02 0. -1.
</event>
<event>
 5   0  0.1466480E-05  0.2096835E+04  0.7818609E-02  0.8562639E-01
        1   -1    0    0  501    0  0.00000000000E+00  0.00000000000E+00  0.24020770097E+04  0.24020770097E+04  0.50400001928E-02 0.  1.
       -1   -1    0    0    0  501  0.00000000000E+00  0.00000000000E+00 -0.45759545996E+03  0.45759545999E+03  0.50400001928E-02 0. -1.
    10030    2    1    2    0    0  0.00000000000E+00  0.00000000000E+00  0.19444815497E+04  0.28596724697E+04  0.20968352669E+04 0.  0.
        3    1    3    3  502    0  0.54056390819E+03 -0.43397043544E+03 -0.10044106094E+03  0.70044849532E+03  0.10100000352E+00 0. -1.
       -3    1    3    3    0  502 -0.54056390819E+03  0.43397043544E+03  0.20449226106E+04  0.21592239744E+04  0.10100000352E+00 0.  1.
</event>
<event>
 5   0  0.3130517E-05  0.2116093E+04  0.7818609E-02  0.8554187E-01
       -2   -1    0    0    0  501  0.00000000000E+00  0.00000000000E+00  0.51962698322E+03  0.51962698323E+03  0.25500000920E-02 0.  1.
        2   -1    0    0  501    0  0.00000000000E+00  0.00000000000E+00 -0.21543579398E+04  0.21543579398E+04  0.25500000920E-02 0. -1.
    10030    2    1    2    0    0  0.00000000000E+00  0.00000000000E+00 -0.16347309566E+04  0.26739849230E+04  0.21160931143E+04 0.  0.
        1    1    3    3  502    0 -0.11364395259E+03  0.40281277896E+03 -0.20453043436E+04  0.20876884204E+04  0.50400001928E-02 0. -1.
       -1    1    3    3    0  502  0.11364395259E+03 -0.40281277896E+03  0.41057338699E+03  0.58629650262E+03  0.50400001928E-02 0.  1.
</event>
<event>
 5   0  0.1466480E-05  0.2090789E+04  0.7818609E-02  0.8565312E-01
        1   -1    0    0  501    0  0.00000000000E+00  0.00000000000E+00  0.95771643036E+03  0.95771643037E+03  0.50400001928E-02 0.  1.
       -1   -1    0    0    0  501  0.00000000000E+00  0.00000000000E+00 -0.11410993471E+04  0.11410993471E+04  0.50400001928E-02 0. -1.
    10030    2    1    2    0    0  0.00000000000E+00  0.00000000000E+00 -0.18338291674E+03  0.20988157775E+04  0.20907889357E+04 0.  0.
        3    1    3    3  502    0  0.69130451400E+03  0.49481584526E+03  0.51900663345E+03  0.99604846648E+03  0.10100000352E+00 0. -1.
       -3    1    3    3    0  502 -0.69130451400E+03 -0.49481584526E+03 -0.70238955019E+03  0.11027673110E+04  0.10100000352E+00 0.  1.
</event>
<event>
 5   0  0.3108326E-05  0.2125764E+04  0.7818609E-02  0.8549978E-01
       -2   -1    0    0    0  501  0.00000000000E+00  0.00000000000E+00  0.11968275771E+04  0.11968275771E+04  0.25500000920E-02 0. -1.
        2   -1    0    0  501    0  0.00000000000E+00  0.00000000000E+00 -0.94392682564E+03  0.94392682565E+03  0.25500000920E-02 0.  1.
    10030    2    1    2    0    0  0.00000000000E+00  0.00000000000E+00  0.25290075149E+03  0.21407544028E+04  0.21257635388E+04 0.  0.
        5    1    3    3  502    0  0.54292530170E+03  0.19214197896E+03 -0.77316283749E+03  0.96410024716E+03  0.46999998093E+01 0.  1.
       -5    1    3    3    0  502 -0.54292530170E+03 -0.19214197896E+03  0.10260635890E+04  0.11766541556E+04  0.46999998093E+01 0. -1.
</event>
<event>
 5   0  0.3130517E-05  0.2106837E+04  0.7818609E-02  0.8558238E-01
       -2   -1    0    0    0  501  0.00000000000E+00  0.00000000000E+00  0.61470153601E+03  0.61470153601E+03  0.25500000920E-02 0. -1.
        2   -1    0    0  501    0  0.00000000000E+00  0.00000000000E+00 -0.18052508270E+04  0.18052508270E+04  0.25500000920E-02 0.  1.
    10030    2    1    2    0    0  0.00000000000E+00  0.00000000000E+00 -0.11905492910E+04  0.24199523630E+04  0.21068369242E+04 0.  0.
        1    1    3    3  502    0 -0.27732820886E+03 -0.68044091233E+02  0.56939842770E+03  0.63698940593E+03  0.50400001928E-02 0. -1.
       -1    1    3    3    0  502  0.27732820886E+03  0.68044091233E+02 -0.17599477187E+04  0.17829629571E+04  0.50400001928E-02 0.  1.
</event>
<event>
 5   0  0.1435410E-05  0.2102508E+04  0.7818609E-02  0.8560139E-01
        1   -1    0    0  501    0  0.00000000000E+00  0.00000000000E+00  0.16943987096E+04  0.16943987096E+04  0.50400001928E-02 0. -1.
       -1   -1    0    0    0  501  0.00000000000E+00  0.00000000000E+00 -0.65222853441E+03  0.65222853443E+03  0.50400001928E-02 0.  1.
    10030    2    1    2    0    0  0.00000000000E+00  0.00000000000E+00  0.10421701752E+04  0.23466272441E+04  0.21025082041E+04 0.  0.
        2    1    3    3  502    0 -0.76151574862E+03  0.69333156763E+03  0.75658209734E+03  0.12779011574E+04  0.25500000920E-02 0. -1.
       -2    1    3    3    0  502  0.76151574862E+03 -0.69333156763E+03  0.28558807786E+03  0.10687260867E+04  0.25500000920E-02 0.  1.
</event>
<event>
 5   0  0.3279789E-05  0.2100499E+04  0.7818609E-02  0.8561024E-01
       -2   -1    0    0    0  501  0.00000000000E+00  0.00000000000E+00  0.79587681489E+03  0.79587681489E+03  0.25500000920E-02 0.  1.
        2   -1    0    0  501    0  0.00000000000E+00  0.00000000000E+00 -0.13859232750E+04  0.13859232750E+04  0.25500000920E-02 0. -1.
    10030    2    1    2    0    0  0.00000000000E+00  0.00000000000E+00 -0.59004646011E+03  0.21818000899E+04  0.21004991805E+04 0.  0.
        2    1    3    3  502    0 -0.13890462352E+03 -0.89863612578E+03 -0.84089516875E+03  0.12385257631E+04  0.25500000920E-02 0. -1.
       -2    1    3    3    0  502  0.13890462352E+03  0.89863612578E+03  0.25084870864E+03  0.94327432681E+03  0.25500000920E-02 0.  1.
</event>
<event>
 5   0  0.3130517E-05  0.2019657E+04  0.7818609E-02  0.8597485E-01
        2   -1    0    0  501    0  0.00000000000E+00  0.00000000000E+00  0.12396582333E+04  0.12396582333E+04  0.25500000920E-02 0. -1.
       -2   -1    0    0    0  501  0.00000000000E+00  0.00000000000E+00 -0.82260832988E+03  0.82260832988E+03  0.25500000920E-02 0.  1.
    10030    2    1    2    0    0  0.00000000000E+00  0.00000000000E+00  0.41704990345E+03  0.20622665632E+04  0.20196565935E+04 0.  0.
        1    1    3    3  502    0  0.63063104344E+03  0.72811005746E+03  0.51809342985E+03  0.10937369751E+04  0.50400001928E-02 0.  1.
       -1    1    3    3    0  502 -0.63063104344E+03 -0.72811005746E+03 -0.10104352640E+03  0.96852958807E+03  0.50400001928E-02 0. -1.
</event>
<event>
 5   0  0.1435410E-05  0.2111096E+04  0.7818609E-02  0.8556371E-01
       -1   -1    0    0    0  501  0.00000000000E+00  0.00000000000E+00  0.10210822718E+04  0.10210822718E+04  0.50400001928E-02 0.  1.
        1   -1    0    0  501    0  0.00000000000E+00  0.00000000000E+00 -0.10911766617E+04  0.10911766617E+04  0.50400001928E-02 0. -1.
    10030    2    1    2    0    0  0.00000000000E+00  0.00000000000E+00 -0.70094389897E+02  0.21122589335E+04  0.21110955873E+04 0.  0.
        2    1    3    3  502    0 -0.13049142534E+03 -0.66166969325E+02  0.10108876845E+04  0.10214205747E+04  0.25500000920E-02 0.  1.
       -2    1    3    3    0  502  0.13049142534E+03  0.66166969325E+02 -0.10809820743E+04  0.10908383588E+04  0.25500000920E-02 0. -1.
</event>
<event>
 5   0  0.1492552E-05  0.2096903E+04  0.7818609E-02  0.8562609E-01
       -1   -1    0    0    0  501  0.00000000000E+00  0.00000000000E+00  0.55408393115E+03  0.55408393117E+03  0.50400001928E-02 0.  1.
        1   -1    0    0  501    0  0.00000000000E+00  0.00000000000E+00 -0.19839063810E+04  0.19839063810E+04  0.50400001928E-02 0. -1.
    10030    2    1    2    0    0  0.00000000000E+00  0.00000000000E+00 -0.14298224498E+04  0.25379903121E+04  0.20969030942E+04 0.  0.
        4    1    3    3  502    0 -0.98924248429E+03  0.25220698624E+03 -0.42584239089E+03  0.11061430339E+04  0.12699999809E+01 0.  1.
       -4    1    3    3    0  502  0.98924248429E+03 -0.25220698624E+03 -0.10039800589E+04  0.14318472782E+04  0.12699999809E+01 0. -1.
</event>
<event>
 5   0  0.3108326E-05  0.2103786E+04  0.7818609E-02  0.8559577E-01
       -2   -1    0    0    0  501  0.00000000000E+00  0.00000000000E+00  0.14414168365E+04  0.14414168365E+04  0.25500000920E-02 0. -1.
        2   -1    0    0  501    0  0.00000000000E+00  0.00000000000E+00 -0.76763282134E+03  0.76763282135E+03  0.25500000920E-02 0.  1.
    10030    2    1    2    0    0  0.00000000000E+00  0.00000000000E+00  0.67378401512E+03  0.22090496578E+04  0.21037859900E+04 0.  0.
        5    1    3    3  502    0 -0.16899943220E+02  0.70092017582E+03 -0.48648709200E+03  0.85338530667E+03  0.46999998093E+01 0.  1.
       -5    1    3    3    0  502  0.16899943220E+02 -0.70092017582E+03  0.11602711071E+04  0.13556643511E+04  0.46999998093E+01 0. -1.
</event>
<event>
 5   0  0.1466480E-05  0.2090699E+04  0.7818609E-02  0.8565351E-01
        1   -1    0    0  501    0  0.00000000000E+00  0.00000000000E+00  0.10535522539E+04  0.10535522539E+04  0.50400001928E-02 0. -1.
       -1   -1    0    0    0  501  0.00000000000E+00  0.00000000000E+00 -0.10372109294E+04  0.10372109294E+04  0.50400001928E-02 0.  1.
    10030    2    1    2    0    0  0.00000000000E+00  0.00000000000E+00  0.16341324548E+02  0.20907631833E+04  0.20906993207E+04 0.  0.
        3    1    3    3  502    0  0.85727054901E+02  0.20309634647E+02  0.10498330733E+04  0.10535231849E+04  0.10100000352E+00 0. -1.
       -3    1    3    3    0  502 -0.85727054901E+02 -0.20309634647E+02 -0.10334917488E+04  0.10372399983E+04  0.10100000352E+00 0.  1.
</event>
<event>
 5   0  0.1466480E-05  0.2110218E+04  0.7818609E-02  0.8556755E-01
       -1   -1    0    0    0  501  0.00000000000E+00  0.00000000000E+00  0.11600280773E+04  0.11600280773E+04  0.50400001928E-02 0.  1.
        1   -1    0    0  501    0  0.00000000000E+00  0.00000000000E+00 -0.95967967252E+03  0.95967967254E+03  0.50400001928E-02 0. -1.
    10030    2    1    2    0    0  0.00000000000E+00  0.00000000000E+00  0.20034840479E+03  0.21197077499E+04  0.21102183445E+04 0.  0.
        3    1    3    3  502    0 -0.81332056006E+02  0.10496411557E+04  0.17044517489E+03  0.10664956760E+04  0.10100000352E+00 0.  1.
       -3    1    3    3    0  502  0.81332056006E+02 -0.10496411557E+04  0.29903229897E+02  0.10532120738E+04  0.10100000352E+00 0. -1.
</event>
<event>
 5   0  0.3257130E-05  0.2104669E+04  0.7818609E-02  0.8559189E-01
        2   -1    0    0  501    0  0.00000000000E+00  0.00000000000E+00  0.18894415976E+04  0.18894415976E+04  0.25500000920E-02 0.  1.
       -2   -1    0    0    0  501  0.00000000000E+00  0.00000000000E+00 -0.58610334752E+03  0.58610334752E+03  0.25500000920E-02 0. -1.
    10030    2    1    2    0    0  0.00000000000E+00  0.00000000000E+00  0.13033382501E+04  0.24755449451E+04  0.21046691382E+04 0.  0.
        3    1    3    3  502    0  0.35711403907E+02 -0.60560436176E+03  0.16630615190E+04  0.17702557932E+04  0.10100000352E+00 0.  1.
       -3    1    3    3    0  502 -0.35711403907E+02  0.60560436176E+03 -0.35972326891E+03  0.70528915188E+03  0.10100000352E+00 0. -1.
</event>
<event>
 5   0  0.3108326E-05  0.2113753E+04  0.7818609E-02  0.8555209E-01
       -2   -1    0    0    0  501  0.00000000000E+00  0.00000000000E+00  0.77352896197E+03  0.77352896197E+03  0.25500000920E-02 0.  1.
        2   -1    0    0  501    0  0.00000000000E+00  0.00000000000E+00 -0.14440152057E+04  0.14440152057E+04  0.25500000920E-02 0. -1.
    10030    2    1    2    0    0  0.00000000000E+00  0.00000000000E+00 -0.67048624375E+03  0.22175441677E+04  0.21137526659E+04 0.  0.
        5    1    3    3  502    0  0.10335126048E+03  0.82808379432E+03 -0.10155936596E+04  0.13144796784E+04  0.46999998093E+01 0. -1.
       -5    1    3    3    0  502 -0.10335126048E+03 -0.82808379432E+03  0.34510741581E+03  0.90306448934E+03  0.46999998093E+01 0.  1.
</event>
<event>
 5   0  0.1453430E-05  0.2100456E+04  0.7818609E-02  0.8561043E-01
       -1   -1    0    0    0  501  0.00000000000E+00  0.00000000000E+00  0.45914486151E+03  0.45914486154E+03  0.50400001928E-02 0.  1.
        1   -1    0    0  501    0  0.00000000000E+00  0.00000000000E+00 -0.24022456003E+04  0.24022456003E+04  0.50400001928E-02 0. -1.
    10030    2    1    2    0    0  0.00000000000E+00  0.00000000000E+00 -0.19431007388E+04  0.28613904619E+04  0.21004558777E+04 0.  0.
        5    1    3    3  502    0 -0.64875277037E+03 -0.20517227220E+03  0.11825022294E+03  0.69063812780E+03  0.46999998093E+01 0.  1.
       -5    1    3    3    0  502  0.64875277037E+03  0.20517227220E+03 -0.20613509617E+04  0.21707523341E+04  0.46999998093E+01 0. -1.
</event>
<event>
 5   0  0.1435410E-05  0.2095206E+04  0.7818609E-02  0.8563358E-01
        1   -1    0    0  501    0  0.00000000000E+00  0.00000000000E+00  0.96906953820E+03  0.96906953821E+03  0.50400001928E-02 0. -1.
       -1   -1    0    0    0  501  0.00000000000E+00  0.00000000000E+00 -0.11325007769E+04  0.11325007769E+04  0.50400001928E-02 0.  1.
    10030    2    1    2    0    0  0.00000000000E+00  0.00000000000E+00 -0.16343123867E+03  0.21015703151E+04  0.20952059611E+04 0.  0.
        2    1    3    3  502    0 -0.24866395128E+02 -0.81498707361E+03  0.57804353731E+03  0.99947816324E+03  0.25500000920E-02 0. -1.
       -2    1    3    3    0  502  0.24866395128E+02  0.81498707361E+03 -0.74147477598E+03  0.11020921519E+04  0.25500000920E-02 0.  1.
</event>
<event>
 5   0  0.3242231E-05  0.2099452E+04  0.7818609E-02  0.8561485E-01
        2   -1    0    0  501    0  0.00000000000E+00  0.00000000000E+00  0.76936429461E+03  0.76936429461E+03  0.25500000920E-02 0.  1.
       -2   -1    0    0    0  501  0.00000000000E+00  0.00000000000E+00 -0.14322532586E+04  0.14322532586E+04  0.25500000920E-02 0. -1.
    10030    2    1    2    0    0  0.00000000000E+00  0.00000000000E+00 -0.66288896396E+03  0.22016175532E+04  0.20994518503E+04 0.  0.
        4    1    3    3  502    0 -0.56552665729E+03 -0.63130764936E+03  0.31801003414E+03  0.90526335558E+03  0.12699999809E+01 0.  1.
       -4    1    3    3    0  502  0.56552665729E+03  0.63130764936E+03 -0.98089899810E+03  0.12963541976E+04  0.12699999809E+01 0. -1.
</event>
<event>
 5   0  0.3108326E-05  0.2079278E+04  0.7818609E-02  0.8570427E-01
       -2   -1    0    0    0  501  0.00000000000E+00  0.00000000000E+00  0.88273004934E+03  0.88273004934E+03  0.25500000920E-02 0.  1.
        2   -1    0    0  501    0  0.00000000000E+00  0.00000000000E+00 -0.12244386662E+04  0.12244386662E+04  0.25500000920E-02 0. -1.
    10030    2    1    2    0    0  0.00000000000E+00  0.00000000000E+00 -0.34170861684E+03  0.21071687155E+04  0.20792775709E+04 0.  0.
        5    1    3    3  502    0  0.39477762742E+03 -0.83150187708E+03  0.31893183816E+03  0.97415827979E+03  0.46999998093E+01 0.  1.
       -5    1    3    3    0  502 -0.39477762742E+03  0.83150187708E+03 -0.66064045500E+03  0.11330104357E+04  0.46999998093E+01 0. -1.
</event>
<event>
 5   0  0.1513292E-05  0.2101320E+04  0.7818609E-02  0.8560662E-01
       -1   -1    0    0    0  501  0.00000000000E+00  0.00000000000E+00  0.10937189091E+04  0.10937189091E+04  0.50400001928E-02 0.  1.
        1   -1    0    0  501    0  0.00000000000E+00  0.00000000000E+00 -0.10092967224E+04  0.10092967224E+04  0.50400001928E-02 0. -1.
    10030    2    1    2    0    0  0.00000000000E+00  0.00000000000E+00  0.84422186718E+02  0.21030156315E+04  0.21013204517E+04 0.  0.
        1    1    3    3  502    0  0.66285330379E+03  0.12643327718E+03 -0.76375033084E+03  0.10191537881E+04  0.50400001928E-02 0. -1.
       -1    1    3    3    0  502 -0.66285330379E+03 -0.12643327718E+03  0.84817251756E+03  0.10838618434E+04  0.50400001928E-02 0.  1.
</event>
<event>
 5   0  0.3279789E-05  0.2104348E+04  0.7818609E-02  0.8559331E-01
        2   -1    0    0  501    0  0.00000000000E+00  0.00000000000E+00  0.22134312752E+04  0.22134312752E+04  0.25500000920E-02 0. -1.
       -2   -1    0    0    0  501  0.00000000000E+00  0.00000000000E+00 -0.50015993829E+03  0.50015993830E+03  0.25500000920E-02 0.  1.
    10030    2    1    2    0    0  0.00000000000E+00  0.00000000000E+00  0.17132713370E+04  0.27135912135E+04  0.21043475474E+04 0.  0.
        2    1    3    3  502    0  0.10264235727E+04  0.20137316101E+03  0.70976006418E+03  0.12640632300E+04  0.25500000920E-02 0.  1.
       -2    1    3    3    0  502 -0.10264235727E+04 -0.20137316101E+03  0.10035112728E+04  0.14495279836E+04  0.25500000920E-02 0. -1.
</event>
<event>
 5   0  0.1435410E-05  0.2107363E+04  0.7818609E-02  0.8558007E-01
       -1   -1    0    0    0  501  0.00000000000E+00  0.00000000000E+00  0.10168768354E+04  0.10168768354E+04  0.50400001928E-02 0. -1.
        1   -1    0    0  501    0  0.00000000000E+00  0.00000000000E+00 -0.10918187611E+04  0.10918187611E+04  0.50400001928E-02 0.  1.
    10030    2    1    2    0    0  0.00000000000E+00  0.00000000000E+00 -0.74941925687E+02  0.21086955966E+04  0.21073634776E+04 0.  0.
        2    1    3    3  502    0  0.47260749048E+02  0.42945001568E+02 -0.10898807077E+04  0.10917498837E+04  0.25500000920E-02 0.  1.
       -2    1    3    3    0  502 -0.47260749048E+02 -0.42945001568E+02  0.10149387820E+04  0.10169457128E+04  0.25500000920E-02 0. -1.
</event>
<event>
 5   0  0.3130517E-05  0.2104012E+04  0.7818609E-02  0.8559478E-01
       -2   -1    0    0    0  501  0.00000000000E+00  0.00000000000E+00  0.60401427996E+03  0.60401427997E+03  0.25500000920E-02 0.  1.
        2   -1    0    0  501    0  0.00000000000E+00  0.00000000000E+00 -0.18322694077E+04  0.18322694077E+04  0.25500000920E-02 0. -1.
    10030    2    1    2    0    0  0.00000000000E+00  0.00000000000E+00 -0.12282551277E+04  0.24362836876E+04  0.21040122499E+04 0.  0.
        1    1    3    3  502    0 -0.46824344612E+03 -0.93184004706E+03 -0.77431934202E+03  0.12989027067E+04  0.50400001928E-02 0. -1.
       -1    1    3    3    0  502  0.46824344612E+03  0.93184004706E+03 -0.45393578568E+03  0.11373809809E+04  0.50400001928E-02 0.  1.
</event>
<event>
 5   0  0.1466480E-05  0.2100800E+04  0.7818609E-02  0.8560891E-01
       -1   -1    0    0    0  501  0.00000000000E+00  0.00000000000E+00  0.63994803608E+03  0.63994803610E+03  0.50400001928E-02 0.  1.
        1   -1    0    0  501    0  0.00000000000E+00  0.00000000000E+00 -0.17241091057E+04  0.17241091057E+04  0.50400001928E-02 0. -1.
    10030    2    1    2    0    0  0.00000000000E+00  0.00000000000E+00 -0.10841610696E+04  0.23640571418E+04  0.21008000725E+04 0.  0.
        3    1    3    3  502    0 -0.98475457744E+03 -0.29071650952E+03 -0.79138889707E+03  0.12963618566E+04  0.10100000352E+00 0.  1.
       -3    1    3    3    0  502  0.98475457744E+03  0.29071650952E+03 -0.29277217251E+03  0.10676952851E+04  0.10100000352E+00 0. -1.
</event>
<event>
 5   0  0.1466480E-05  0.2091648E+04  0.7818609E-02  0.8564931E-01
       -1   -1    0    0    0  501  0.00000000000E+00  0.00000000000E+00  0.54829658709E+03  0.54829658711E+03  0.50400001928E-02 0.  1.
        1   -1    0    0  501    0  0.00000000000E+00  0.00000000000E+00 -0.19948106386E+04  0.19948106386E+04  0.50400001928E-02 0. -1.
    10030    2    1    2    0    0  0.00000000000E+00  0.00000000000E+00 -0.14465140515E+04  0.25431072257E+04  0.20916480250E+04 0.  0.
        3    1    3    3  502    0 -0.26725240307E+03 -0.84048398645E+03 -0.14066306597E+04  0.16602551013E+04  0.10100000352E+00 0. -1.
       -3    1    3    3    0  502  0.26725240307E+03  0.84048398645E+03 -0.39883391818E+02  0.88285212441E+03  0.10100000352E+00 0.  1.
</event>
<event>
 5   0  0.3242231E-05  0.2104003E+04  0.7818609E-02  0.8559482E-01
        2   -1    0    0  501    0  0.00000000000E+00  0.00000000000E+00  0.18466385087E+04  0.18466385087E+04  0.25500000920E-02 0.  1.
       -2   -1    0    0    0  501  0.00000000000E+00  0.00000000000E+00 -0.59930908608E+03  0.59930908609E+03  0.25500000920E-02 0. -1.
    10030    2    1    2    0    0  0.00000000000E+00  0.00000000000E+00  0.12473294226E+04  0.24459475948E+04  0.21040030770E+04 0.  0.
        4    1    3    3  502    0 -0.56648031433E+03  0.38753716014E+03  0.15504940407E+04  0.16956174038E+04  0.12699999809E+01 0.  1.
       -4    1    3    3    0  502  0.56648031433E+03 -0.38753716014E+03 -0.30316461803E+03  0.75033019101E+03  0.12699999809E+01 0. -1.
</event>
<event>
 5   0  0.3130517E-05  0.2087382E+04  0.7818609E-02  0.8566822E-01
        2   -1    0    0  501    0  0.00000000000E+00  0.00000000000E+00  0.12258087259E+04  0.12258087259E+04  0.25500000920E-02 0.  1.
       -2   -1    0    0    0  501  0.00000000000E+00  0.00000000000E+00 -0.88863057779E+03  0.88863057779E+03  0.25500000920E-02 0. -1.
    10030    2    1    2    0    0  0.00000000000E+00  0.00000000000E+00  0.33717814808E+03  0.21144393037E+04  0.20873822039E+04 0.  0.
        1    1    3    3  502    0  0.72455464532E+03  0.23903073768E+03  0.88998317833E+03  0.11722564503E+04  0.50400001928E-02 0.  1.
       -1    1    3    3    0  502 -0.72455464532E+03 -0.23903073768E+03 -0.55280503025E+03  0.94218285333E+03  0.50400001928E-02 0. -1.
</event>
<event>
 5   0  0.1129987E-05  0.2097065E+04  0.7818609E-02  0.8562537E-01
       -4   -1    0    0    0  501  0.00000000000E+00  0.00000000000E+00  0.86179640509E+03  0.86179734087E+03  0.12699999809E+01 0. -1.
        4   -1    0    0  501    0  0.00000000000E+00  0.00000000000E+00 -0.12757287791E+04  0.12757294112E+04  0.12699999809E+01 0.  1.
    10030    2    1    2    0    0  0.00000000000E+00  0.00000000000E+00 -0.41393237397E+03  0.21375267521E+04  0.20970647595E+04 0.  0.
        5    1    3    3  502    0  0.13099367393E+03 -0.82974361525E+03  0.43264766348E+03  0.94490205861E+03  0.46999998093E+01 0. -1.
       -5    1    3    3    0  502 -0.13099367393E+03  0.82974361525E+03 -0.84658003745E+03  0.11926246935E+04  0.46999998093E+01 0.  1.
</event>
<event>
 5   0  0.1492552E-05  0.2172203E+04  0.7818609E-02  0.8530088E-01
       -1   -1    0    0    0  501  0.00000000000E+00  0.00000000000E+00  0.17028869654E+04  0.17028869654E+04  0.50400001928E-02 0. -1.
        1   -1    0    0  501    0  0.00000000000E+00  0.00000000000E+00 -0.69271571176E+03  0.69271571178E+03  0.50400001928E-02 0.  1.
    10030    2    1    2    0    0  0.00000000000E+00  0.00000000000E+00  0.10101712537E+04  0.23956026772E+04  0.21722030811E+04 0.  0.
        4    1    3    3  502    0  0.44375150021E+03  0.88078380917E+03  0.10067520128E+04  0.14093426626E+04  0.12699999809E+01 0. -1.
       -4    1    3    3    0  502 -0.44375150021E+03 -0.88078380917E+03  0.34192409204E+01  0.98626001467E+03  0.12699999809E+01 0.  1.
</event>
<event>
 5   0  0.1453430E-05  0.2166804E+04  0.7818609E-02  0.8532373E-01
       -1   -1    0    0    0  501  0.00000000000E+00  0.00000000000E+00  0.77359825161E+03  0.77359825163E+03  0.50400001928E-02 0.  1.
        1   -1    0    0  501    0  0.00000000000E+00  0.00000000000E+00 -0.15172737320E+04  0.15172737320E+04  0.50400001928E-02 0. -1.
    10030    2    1    2    0    0  0.00000000000E+00  0.00000000000E+00 -0.74367548036E+03  0.22908719836E+04  0.21668043809E+04 0.  0.
        5    1    3    3  502    0  0.37157764361E+03 -0.81487696606E+02 -0.14443313610E+04  0.14935947778E+04  0.46999998093E+01 0. -1.
       -5    1    3    3    0  502 -0.37157764361E+03  0.81487696606E+02  0.70065588060E+03  0.79727720584E+03  0.46999998093E+01 0.  1.
</event>
<event>
 5   0  0.3279789E-05  0.2115670E+04  0.7818609E-02  0.8554372E-01
        2   -1    0    0  501    0  0.00000000000E+00  0.00000000000E+00  0.11665181159E+04  0.11665181159E+04  0.25500000920E-02 0.  1.
       -2   -1    0    0    0  501  0.00000000000E+00  0.00000000000E+00 -0.95927821203E+03  0.95927821203E+03  0.25500000920E-02 0. -1.
    10030    2    1    2    0    0  0.00000000000E+00  0.00000000000E+00  0.20723990386E+03  0.21257963279E+04  0.21156704966E+04 0.  0.
        2    1    3    3  502    0  0.49095520621E+03 -0.66517351270E+03  0.76671986176E+03  0.11275425326E+04  0.25500000920E-02 0.  1.
       -2    1    3    3    0  502 -0.49095520621E+03  0.66517351270E+03 -0.55947995789E+03  0.99825379528E+03  0.25500000920E-02 0. -1.
</event>
<event>
 5   0  0.1492552E-05  0.2111230E+04  0.7818609E-02  0.8556313E-01
       -1   -1    0    0    0  501  0.00000000000E+00  0.00000000000E+00  0.11132893430E+04  0.11132893430E+04  0.50400001928E-02 0. -1.
        1   -1    0    0  501    0  0.00000000000E+00  0.00000000000E+00 -0.10009284669E+04  0.10009284669E+04  0.50400001928E-02 0.  1.
    10030    2    1    2    0    0  0.00000000000E+00  0.00000000000E+00  0.11236087612E+03  0.21142178100E+04  0.21112299689E+04 0.  0.
        4    1    3    3  502    0  0.64579483028E+03  0.80189953043E+03 -0.17701724311E+03  0.10447155292E+04  0.12699999809E+01 0.  1.
       -4    1    3    3    0  502 -0.64579483028E+03 -0.80189953043E+03  0.28937811923E+03  0.10695022807E+04  0.12699999809E+01 0. -1.
</event>
<event>
 5   0  0.3108326E-05  0.2102406E+04  0.7818609E-02  0.8560184E-01
        2   -1    0    0  501    0  0.00000000000E+00  0.00000000000E+00  0.79005491527E+03  0.79005491528E+03  0.25500000920E-02 0.  1.
       -2   -1    0    0    0  501  0.00000000000E+00  0.00000000000E+00 -0.13986715757E+04  0.13986715757E+04  0.25500000920E-02 0. -1.
    10030    2    1    2    0    0  0.00000000000E+00  0.00000000000E+00 -0.60861666040E+03  0.21887264910E+04  0.21024056252E+04 0.  0.
        5    1    3    3  502    0 -0.97984721331E+03  0.19607887010E+03  0.35366748069E+02  0.99991018676E+03  0.46999998093E+01 0. -1.
       -5    1    3    3    0  502  0.97984721331E+03 -0.19607887010E+03 -0.64398340847E+03  0.11888163042E+04  0.46999998093E+01 0.  1.
</event>
<event>
 5   0  0.1453430E-05  0.2102069E+04  0.7818609E-02  0.8560332E-01
        1   -1    0    0  501    0  0.00000000000E+00  0.00000000000E+00  0.11162855653E+04  0.11162855653E+04  0.50400001928E-02 0.  1.
       -1   -1    0    0    0  501  0.00000000000E+00  0.00000000000E+00 -0.98959791065E+03  0.98959791067E+03  0.50400001928E-02 0. -1.
    10030    2    1    2    0    0  0.00000000000E+00  0.00000000000E+00  0.12668765469E+03  0.21058834760E+04  0.21020693263E+04 0.  0.
        5    1    3    3  502    0  0.75253090685E+03  0.69833301303E+03  0.28887451765E+03  0.10665094185E+04  0.46999998093E+01 0.  1.
       -5    1    3    3    0  502 -0.75253090685E+03 -0.69833301303E+03 -0.16218686296E+03  0.10393740575E+04  0.46999998093E+01 0. -1.
</event>
<event>
 5   0  0.1513292E-05  0.2122614E+04  0.7818609E-02  0.8551347E-01
        1   -1    0    0  501    0  0.00000000000E+00  0.00000000000E+00  0.76966423467E+03  0.76966423469E+03  0.50400001928E-02 0. -1.
       -1   -1    0    0    0  501  0.00000000000E+00  0.00000000000E+00 -0.14634600957E+04  0.14634600957E+04  0.50400001928E-02 0.  1.
    10030    2    1    2    0    0  0.00000000000E+00  0.00000000000E+00 -0.69379586101E+03  0.22331243304E+04  0.21226143263E+04 0.  0.
        1    1    3    3  502    0 -0.49450767151E+03 -0.46645521868E+03  0.51055263880E+03  0.85016604568E+03  0.50400001928E-02 0. -1.
       -1    1    3    3    0  502  0.49450767151E+03  0.46645521868E+03 -0.12043484998E+04  0.13829582847E+04  0.50400001928E-02 0.  1.
</event>
<event>
 5   0  0.3279789E-05  0.2096989E+04  0.7818609E-02  0.8562571E-01
       -2   -1    0    0    0  501  0.00000000000E+00  0.00000000000E+00  0.66832250264E+03  0.66832250264E+03  0.25500000920E-02 0. -1.
        2   -1    0    0  501    0  0.00000000000E+00  0.00000000000E+00 -0.16449258858E+04  0.16449258858E+04  0.25500000920E-02 0.  1.
    10030    2    1    2    0    0  0.00000000000E+00  0.00000000000E+00 -0.97660338314E+03  0.23132483884E+04  0.20969892557E+04 0.  0.
        2    1    3    3  502    0 -0.99303784333E+03 -0.30997553812E+03 -0.63268932427E+03  0.12175815265E+04  0.25500000920E-02 0.  1.
       -2    1    3    3    0  502  0.99303784333E+03  0.30997553812E+03 -0.34391405887E+03  0.10956668620E+04  0.25500000920E-02 0. -1.
</event>
<event>
 5   0  0.1453430E-05  0.2119933E+04  0.7818609E-02  0.8552513E-01
       -1   -1    0    0    0  501  0.00000000000E+00  0.00000000000E+00  0.49845966019E+03  0.49845966021E+03  0.50400001928E-02 0. -1.
        1   -1    0    0  501    0  0.00000000000E+00  0.00000000000E+00 -0.22540020488E+04  0.22540020488E+04  0.50400001928E-02 0.  1.
    10030    2    1    2    0    0  0.00000000000E+00  0.00000000000E+00 -0.17555423886E+04  0.27524617090E+04  0.21199331078E+04 0.  0.
        5    1    3    3  502    0  0.69641973202E+03  0.60467930634E+03 -0.19954177351E+03  0.94365063241E+03  0.46999998093E+01 0. -1.
       -5    1    3    3    0  502 -0.69641973202E+03 -0.60467930634E+03 -0.15560006151E+04  0.18088110766E+04  0.46999998093E+01 0.  1.
</event>
<event>
 5   0  0.3130517E-05  0.2099945E+04  0.7818609E-02  0.8561267E-01
       -2   -1    0    0    0  501  0.00000000000E+00  0.00000000000E+00  0.91387297142E+03  0.91387297142E+03  0.25500000920E-02 0. -1.
        2   -1    0    0  501    0  0.00000000000E+00  0.00000000000E+00 -0.12063412081E+04  0.12063412081E+04  0.25500000920E-02 0.  1.
    10030    2    1    2    0    0  0.00000000000E+00  0.00000000000E+00 -0.29246823670E+03  0.21202141795E+04  0.20999453559E+04 0.  0.
        1    1    3    3  502    0  0.99054010560E+03 -0.13545500575E+03 -0.47014974029E+03  0.11047889109E+04  0.50400001928E-02 0.  1.
       -1    1    3    3    0  502 -0.99054010560E+03  0.13545500575E+03  0.17768150359E+03  0.10154252686E+04  0.50400001928E-02 0. -1.
</event>
<event>
 5   0  0.1513292E-05  0.2100069E+04  0.7818609E-02  0.8561213E-01
       -1   -1    0    0    0  501  0.00000000000E+00  0.00000000000E+00  0.70467978870E+03  0.70467978872E+03  0.50400001928E-02 0. -1.
        1   -1    0    0  501    0  0.00000000000E+00  0.00000000000E+00 -0.15646438124E+04  0.15646438124E+04  0.50400001928E-02 0.  1.
    10030    2    1    2    0    0  0.00000000000E+00  0.00000000000E+00 -0.85996402374E+03  0.22693236012E+04  0.21000694000E+04 0.  0.
        1    1    3    3  502    0 -0.44924412791E+03  0.94636137410E+03 -0.35241417917E+03  0.11052673390E+04  0.50400001928E-02 0.  1.
       -1    1    3    3    0  502  0.44924412791E+03 -0.94636137410E+03 -0.50754984458E+03  0.11640562622E+04  0.50400001928E-02 0. -1.
</event>
<event>
 5   0  0.1435410E-05  0.2096710E+04  0.7818609E-02  0.8562694E-01
        1   -1    0    0  501    0  0.00000000000E+00  0.00000000000E+00  0.18608013087E+04  0.18608013087E+04  0.50400001928E-02 0. -1.
       -1   -1    0    0    0  501  0.00000000000E+00  0.00000000000E+00 -0.59063160071E+03  0.59063160074E+03  0.50400001928E-02 0.  1.
    10030    2    1    2    0    0  0.00000000000E+00  0.00000000000E+00  0.12701697080E+04  0.24514329095E+04  0.20967098565E+04 0.  0.
        2    1    3    3  502    0 -0.32140155592E+03  0.59839118463E+03 -0.29856080192E+03  0.74196328915E+03  0.25500000920E-02 0.  1.
       -2    1    3    3    0  502  0.32140155592E+03 -0.59839118463E+03  0.15687305099E+04  0.17094696203E+04  0.25500000920E-02 0. -1.
</event>
<event>
 5   0  0.3242231E-05  0.2121238E+04  0.7818609E-02  0.8551945E-01
        2   -1    0    0  501    0  0.00000000000E+00  0.00000000000E+00  0.19523254556E+04  0.19523254556E+04  0.25500000920E-02 0.  1.
       -2   -1    0    0    0  501  0.00000000000E+00  0.00000000000E+00 -0.57619104852E+03  0.57619104853E+03  0.25500000920E-02 0. -1.
    10030    2    1    2    0    0  0.00000000000E+00  0.00000000000E+00  0.13761344071E+04  0.25285165042E+04  0.21212378003E+04 0.  0.
        4    1    3    3  502    0 -0.22719365681E+03 -0.67626269420E+03  0.16235883833E+04  0.17734116952E+04  0.12699999809E+01 0.  1.
       -4    1    3    3    0  502  0.22719365681E+03  0.67626269420E+03 -0.24745397623E+03  0.75510480896E+03  0.12699999809E+01 0. -1.
</event>
<event>
 5   0  0.3279789E-05  0.2101340E+04  0.7818609E-02  0.8560653E-01
       -2   -1    0    0    0  501  0.00000000000E+00  0.00000000000E+00  0.89369635263E+03  0.89369635264E+03  0.25500000920E-02 0. -1.
        2   -1    0    0  501    0  0.00000000000E+00  0.00000000000E+00 -0.12352154209E+04  0.12352154209E+04  0.25500000920E-02 0.  1.
    10030    2    1    2    0    0  0.00000000000E+00  0.00000000000E+00 -0.34151906830E+03  0.21289117736E+04  0.21013400643E+04 0.  0.
        2    1    3    3  502    0 -0.58562947948E+03 -0.67992640684E+03  0.38289576818E+03  0.97563875244E+03  0.25500000920E-02 0. -1.
       -2    1    3    3    0  502  0.58562947948E+03  0.67992640684E+03 -0.72441483647E+03  0.11532730211E+04  0.25500000920E-02 0.  1.
</event>
<event>
 5   0  0.3242231E-05  0.2229659E+04  0.7818609E-02  0.8506184E-01
       -2   -1    0    0    0  501  0.00000000000E+00  0.00000000000E+00  0.92666997593E+03  0.92666997594E+03  0.25500000920E-02 0. -1.
        2   -1    0    0  501    0  0.00000000000E+00  0.00000000000E+00 -0.13411949199E+04  0.13411949199E+04  0.25500000920E-02 0.  1.
    10030    2    1    2    0    0  0.00000000000E+00  0.00000000000E+00 -0.41452494394E+03  0.22678648958E+04  0.22296592243E+04 0.  0.
        4    1    3    3  502    0  0.30888208207E+03  0.69516277646E+02  0.87997979794E+03  0.93520410134E+03  0.12699999809E+01 0. -1.
       -4    1    3    3    0  502 -0.30888208207E+03 -0.69516277646E+02 -0.12945047419E+04  0.13326607945E+04  0.12699999809E+01 0.  1.
</event>
<event>
 5   0  0.1435410E-05  0.2104986E+04  0.7818609E-02  0.8559050E-01
       -1   -1    0    0    0  501  0.00000000000E+00  0.00000000000E+00  0.42679764123E+03  0.42679764126E+03  0.50400001928E-02 0.  1.
        1   -1    0    0  501    0  0.00000000000E+00  0.00000000000E+00 -0.25954724887E+04  0.25954724887E+04  0.50400001928E-02 0. -1.
    10030    2    1    2    0    0  0.00000000000E+00  0.00000000000E+00 -0.21686748474E+04  0.30222701299E+04  0.21049860200E+04 0.  0.
        2    1    3    3  502    0 -0.14511071129E+02  0.91053929279E+03 -0.18419671740E+04  0.20547835518E+04  0.25500000920E-02 0. -1.
       -2    1    3    3    0  502  0.14511071129E+02 -0.91053929279E+03 -0.32670767348E+03  0.96748657811E+03  0.25500000920E-02 0.  1.
</event>
<event>
 5   0  0.3130517E-05  0.2100217E+04  0.7818609E-02  0.8561148E-01
       -2   -1    0    0    0  501  0.00000000000E+00  0.00000000000E+00  0.58037926465E+03  0.58037926465E+03  0.25500000920E-02 0.  1.
        2   -1    0    0  501    0  0.00000000000E+00  0.00000000000E+00 -0.19000122149E+04  0.19000122149E+04  0.25500000920E-02 0. -1.
    10030    2    1    2    0    0  0.00000000000E+00  0.00000000000E+00 -0.13196329502E+04  0.24803914795E+04  0.21002168384E+04 0.  0.
        1    1    3    3  502    0 -0.58936808187E+03 -0.40259512311E+03  0.24986563492E+03  0.75622113473E+03  0.50400001928E-02 0.  1.
       -1    1    3    3    0  502  0.58936808187E+03  0.40259512311E+03 -0.15694985851E+04  0.17241703448E+04  0.50400001928E-02 0. -1.
</event>
<event>
 5   0  0.1492552E-05  0.2103881E+04  0.7818609E-02  0.8559536E-01
       -1   -1    0    0    0  501  0.00000000000E+00  0.00000000000E+00  0.76187307117E+03  0.76187307118E+03  0.50400001928E-02 0. -1.
        1   -1    0    0  501    0  0.00000000000E+00  0.00000000000E+00 -0.14524447816E+04  0.14524447816E+04  0.50400001928E-02 0.  1.
    10030    2    1    2    0    0  0.00000000000E+00  0.00000000000E+00 -0.69057171044E+03  0.22143178528E+04  0.21038807633E+04 0.  0.
        4    1    3    3  502    0  0.74414785485E+02 -0.41352645866E+03  0.66971999681E+03  0.79061253427E+03  0.12699999809E+01 0. -1.
       -4    1    3    3    0  502 -0.74414785485E+02  0.41352645866E+03 -0.13602917073E+04  0.14237053185E+04  0.12699999809E+01 0.  1.
</event>
<event>
 5   0  0.1435410E-05  0.2101410E+04  0.7818609E-02  0.8560623E-01
        1   -1    0    0  501    0  0.00000000000E+00  0.00000000000E+00  0.10060747126E+04  0.10060747126E+04  0.50400001928E-02 0. -1.
       -1   -1    0    0    0  501  0.00000000000E+00  0.00000000000E+00 -0.10973151073E+04  0.10973151073E+04  0.50400001928E-02 0.  1.
    10030    2    1    2    0    0  0.00000000000E+00  0.00000000000E+00 -0.91240394732E+02  0.21033898199E+04  0.21014099849E+04 0.  0.
        2    1    3    3  502    0 -0.21440069491E+03 -0.44902765759E+03 -0.97190413340E+03  0.10918750569E+04  0.25500000920E-02 0.  1.
       -2    1    3    3    0  502  0.21440069491E+03  0.44902765759E+03  0.88066373866E+03  0.10115147630E+04  0.25500000920E-02 0. -1.
</event>
<event>
 5   0  0.1513292E-05  0.2094126E+04  0.7818609E-02  0.8563835E-01
        1   -1    0    0  501    0  0.00000000000E+00  0.00000000000E+00  0.68784628065E+03  0.68784628067E+03  0.50400001928E-02 0.  1.
       -1   -1    0    0    0  501  0.00000000000E+00  0.00000000000E+00 -0.15938752814E+04  0.15938752814E+04  0.50400001928E-02 0. -1.
    10030    2    1    2    0    0  0.00000000000E+00  0.00000000000E+00 -0.90602900079E+03  0.22817215621E+04  0.20941262466E+04 0.  0.
        1    1    3    3  502    0 -0.41083573829E+03 -0.31519966437E+03 -0.14445962859E+04  0.15345993814E+04  0.50400001928E-02 0. -1.
       -1    1    3    3    0  502  0.41083573829E+03  0.31519966437E+03  0.53856728509E+03  0.74712218069E+03  0.50400001928E-02 0.  1.
</event>
<event>
 5   0  0.3130517E-05  0.2100768E+04  0.7818609E-02  0.8560905E-01
        2   -1    0    0  501    0  0.00000000000E+00  0.00000000000E+00  0.14592143212E+04  0.14592143212E+04  0.25500000920E-02 0.  1.
       -2   -1    0    0    0  501  0.00000000000E+00  0.00000000000E+00 -0.75609611807E+03  0.75609611807E+03  0.25500000920E-02 0. -1.
    10030    2    1    2    0    0  0.00000000000E+00  0.00000000000E+00  0.70311820314E+03  0.22153104393E+04  0.21007677489E+04 0.  0.
        1    1    3    3  502    0 -0.37151924280E+03 -0.90575127705E+03 -0.49845450358E+02  0.98025327982E+03  0.50400001928E-02 0. -1.
       -1    1    3    3    0  502  0.37151924280E+03  0.90575127705E+03  0.75296365350E+03  0.12350571595E+04  0.50400001928E-02 0.  1.
</event>
<event>
 5   0  0.1466480E-05  0.1971583E+04  0.7818609E-02  0.8620023E-01
        1   -1    0    0  501    0  0.00000000000E+00  0.00000000000E+00  0.13966297740E+04  0.13966297740E+04  0.50400001928E-02 0.  1.
       -1   -1    0    0    0  501  0.00000000000E+00  0.00000000000E+00 -0.69580674363E+03  0.69580674365E+03  0.50400001928E-02 0. -1.
    10030    2    1    2    0    0  0.00000000000E+00  0.00000000000E+00  0.70082303040E+03  0.20924365177E+04  0.19715825270E+04 0.  0.
        3    1    3    3  502    0  0.90983056583E+03  0.89487895217E+02  0.74177679557E+03  0.11772988434E+04  0.10100000352E+00 0.  1.
       -3    1    3    3    0  502 -0.90983056583E+03 -0.89487895217E+02 -0.40953765170E+02  0.91513767434E+03  0.10100000352E+00 0. -1.
</event>
<event>
 5   0  0.1453430E-05  0.2096089E+04  0.7818609E-02  0.8562968E-01
       -1   -1    0    0    0  501  0.00000000000E+00  0.00000000000E+00  0.50812792154E+03  0.50812792156E+03  0.50400001928E-02 0.  1.
        1   -1    0    0  501    0  0.00000000000E+00  0.00000000000E+00 -0.21616548511E+04  0.21616548511E+04  0.50400001928E-02 0. -1.
    10030    2    1    2    0    0  0.00000000000E+00  0.00000000000E+00 -0.16535269295E+04  0.26697827726E+04  0.20960889166E+04 0.  0.
        5    1    3    3  502    0 -0.41573864859E+03 -0.73842863021E+03 -0.41335543774E+02  0.84843749506E+03  0.46999998093E+01 0.  1.
       -5    1    3    3    0  502  0.41573864859E+03  0.73842863021E+03 -0.16121913858E+04  0.18213452776E+04  0.46999998093E+01 0. -1.
</event>
<event>
 5   0  0.1466480E-05  0.2093648E+04  0.7818609E-02  0.8564047E-01
        1   -1    0    0  501    0  0.00000000000E+00  0.00000000000E+00  0.14355379800E+04  0.14355379800E+04  0.50400001928E-02 0. -1.
       -1   -1    0    0    0  501  0.00000000000E+00  0.00000000000E+00 -0.76336558515E+03  0.76336558517E+03  0.50400001928E-02 0.  1.
    10030    2    1    2    0    0  0.00000000000E+00  0.00000000000E+00  0.67217239483E+03  0.21989035652E+04  0.20936478120E+04 0.  0.
        3    1    3    3  502    0  0.11308226529E+03 -0.85512202444E+03  0.95904912629E+03  0.12898823637E+04  0.10100000352E+00 0. -1.
       -3    1    3    3    0  502 -0.11308226529E+03  0.85512202444E+03 -0.28687673146E+03  0.90902120144E+03  0.10100000352E+00 0.  1.
</event>
<event>
 5   0  0.3279789E-05  0.2074808E+04  0.7818609E-02  0.8572423E-01
        2   -1    0    0  501    0  0.00000000000E+00  0.00000000000E+00  0.74607575679E+03  0.74607575680E+03  0.25500000920E-02 0. -1.
       -2   -1    0    0    0  501  0.00000000000E+00  0.00000000000E+00 -0.14424900159E+04  0.14424900159E+04  0.25500000920E-02 0.  1.
    10030    2    1    2    0    0  0.00000000000E+00  0.00000000000E+00 -0.69641425912E+03  0.21885657727E+04  0.20748077793E+04 0.  0.
        2    1    3    3  502    0 -0.11345996210E+03 -0.40516980206E+03  0.65202984588E+03  0.77600170839E+03  0.25500000920E-02 0. -1.
       -2    1    3    3    0  502  0.11345996210E+03  0.40516980206E+03 -0.13484441050E+04  0.14125640643E+04  0.25500000920E-02 0.  1.
</event>
<event>
 5   0  0.3279789E-05  0.2089929E+04  0.7818609E-02  0.8565693E-01
        2   -1    0    0  501    0  0.00000000000E+00  0.00000000000E+00  0.12051905513E+04  0.12051905513E+04  0.25500000920E-02 0.  1.
       -2   -1    0    0    0  501  0.00000000000E+00  0.00000000000E+00 -0.90603953330E+03  0.90603953330E+03  0.25500000920E-02 0. -1.
    10030    2    1    2    0    0  0.00000000000E+00  0.00000000000E+00  0.29915101797E+03  0.21112300846E+04  0.20899285008E+04 0.  0.
        2    1    3    3  502    0 -0.68999876288E+03 -0.72158478987E+03 -0.16206090651E+03  0.10114576804E+04  0.25500000920E-02 0. -1.
       -2    1    3    3    0  502  0.68999876288E+03  0.72158478987E+03  0.46121192448E+03  0.10997724042E+04  0.25500000920E-02 0.  1.
</event>
<event>
 5   0  0.3242231E-05  0.2100328E+04  0.7818609E-02  0.8561099E-01
       -2   -1    0    0    0  501  0.00000000000E+00  0.00000000000E+00  0.68329355532E+03  0.68329355532E+03  0.25500000920E-02 0. -1.
        2   -1    0    0  501    0  0.00000000000E+00  0.00000000000E+00 -0.16140126534E+04  0.16140126534E+04  0.25500000920E-02 0.  1.
    10030    2    1    2    0    0  0.00000000000E+00  0.00000000000E+00 -0.93071909806E+03  0.22973062087E+04  0.21003280165E+04 0.  0.
        4    1    3    3  502    0  0.37861542463E+03  0.27787240688E+03  0.56202967650E+03  0.73242179408E+03  0.12699999809E+01 0. -1.
       -4    1    3    3    0  502 -0.37861542463E+03 -0.27787240688E+03 -0.14927487746E+04  0.15648844146E+04  0.12699999809E+01 0.  1.
</event>
<event>
 5   0  0.1129987E-05  0.2102691E+04  0.7818609E-02  0.8560059E-01
        3   -1    0    0  501    0  0.00000000000E+00  0.00000000000E+00  0.53253341523E+03  0.53253342481E+03  0.10100000352E+00 0. -1.
       -3   -1    0    0    0  501  0.00000000000E+00  0.00000000000E+00 -0.20756023825E+04  0.20756023850E+04  0.10100000352E+00 0.  1.
    10030    2    1    2    0    0  0.00000000000E+00  0.00000000000E+00 -0.15430689673E+04  0.26081358098E+04  0.21026912670E+04 0.  0.
        1    1    3    3  502    0  0.28894967951E+03  0.73122904960E+03  0.94193584483E+02  0.79187137317E+03  0.50400001928E-02 0. -1.
       -1    1    3    3    0  502 -0.28894967951E+03 -0.73122904960E+03 -0.16372625517E+04  0.18162644366E+04  0.50400001928E-02 0.  1.
</event>
<event>
 5   0  0.1466480E-05  0.2073476E+04  0.7818609E-02  0.8573018E-01
        1   -1    0    0  501    0  0.00000000000E+00  0.00000000000E+00  0.78078273757E+03  0.78078273758E+03  0.50400001928E-02 0. -1.
       -1   -1    0    0    0  501  0.00000000000E+00  0.00000000000E+00 -0.13766003892E+04  0.13766003892E+04  0.50400001928E-02 0.  1.
    10030    2    1    2    0    0  0.00000000000E+00  0.00000000000E+00 -0.59581765166E+03  0.21573831268E+04  0.20734761349E+04 0.  0.
        3    1    3    3  502    0 -0.38738392889E+02 -0.99176643108E+03 -0.60957074737E+03  0.11647651365E+04  0.10100000352E+00 0.  1.
       -3    1    3    3    0  502  0.38738392889E+02  0.99176643108E+03  0.13753095704E+02  0.99261799034E+03  0.10100000352E+00 0. -1.
</event>
<event>
 5   0  0.1492552E-05  0.2108242E+04  0.7818609E-02  0.8557621E-01
       -1   -1    0    0    0  501  0.00000000000E+00  0.00000000000E+00  0.12694850027E+04  0.12694850027E+04  0.50400001928E-02 0. -1.
        1   -1    0    0  501    0  0.00000000000E+00  0.00000000000E+00 -0.87529298074E+03  0.87529298075E+03  0.50400001928E-02 0.  1.
    10030    2    1    2    0    0  0.00000000000E+00  0.00000000000E+00  0.39419202197E+03  0.21447779835E+04  0.21082422176E+04 0.  0.
        4    1    3    3  502    0  0.11659928004E+03  0.77249410641E+03  0.91705171118E+03  0.12047107497E+04  0.12699999809E+01 0. -1.
       -4    1    3    3    0  502 -0.11659928004E+03 -0.77249410641E+03 -0.52285968921E+03  0.94006723378E+03  0.12699999809E+01 0.  1.
</event>
<event>
 5   0  0.3108326E-05  0.2105178E+04  0.7818609E-02  0.8558966E-01
       -2   -1    0    0    0  501  0.00000000000E+00  0.00000000000E+00  0.12152062902E+04  0.12152062902E+04  0.25500000920E-02 0.  1.
        2   -1    0    0  501    0  0.00000000000E+00  0.00000000000E+00 -0.91173252518E+03  0.91173252519E+03  0.25500000920E-02 0. -1.
    10030    2    1    2    0    0  0.00000000000E+00  0.00000000000E+00  0.30347376501E+03  0.21269388154E+04  0.21051775218E+04 0.  0.
        5    1    3    3  502    0  0.11559845164E+03  0.98992263871E+03  0.49377913590E+03  0.11122723397E+04  0.46999998093E+01 0.  1.
       -5    1    3    3    0  502 -0.11559845164E+03 -0.98992263871E+03 -0.19030537089E+03  0.10146664757E+04  0.46999998093E+01 0. -1.
</event>
<event>
 5   0  0.1453430E-05  0.2111563E+04  0.7818609E-02  0.8556167E-01
        1   -1    0    0  501    0  0.00000000000E+00  0.00000000000E+00  0.14993288762E+04  0.14993288762E+04  0.50400001928E-02 0. -1.
       -1   -1    0    0    0  501  0.00000000000E+00  0.00000000000E+00 -0.74344909896E+03  0.74344909898E+03  0.50400001928E-02 0.  1.
    10030    2    1    2    0    0  0.00000000000E+00  0.00000000000E+00  0.75587977722E+03  0.22427779752E+04  0.21115631196E+04 0.  0.
        5    1    3    3  502    0  0.40269971944E+03 -0.91353397733E+03  0.13173324047E+02  0.99845231145E+03  0.46999998093E+01 0.  1.
       -5    1    3    3    0  502 -0.40269971944E+03  0.91353397733E+03  0.74270645317E+03  0.12443256637E+04  0.46999998093E+01 0. -1.
</event>
<event>
 5   0  0.1435410E-05  0.2095748E+04  0.7818609E-02  0.8563119E-01
       -1   -1    0    0    0  501  0.00000000000E+00  0.00000000000E+00  0.89069656009E+03  0.89069656011E+03  0.50400001928E-02 0.  1.
        1   -1    0    0  501    0  0.00000000000E+00  0.00000000000E+00 -0.12327877934E+04  0.12327877934E+04  0.50400001928E-02 0. -1.
    10030    2    1    2    0    0  0.00000000000E+00  0.00000000000E+00 -0.34209123330E+03  0.21234843535E+04  0.20957479304E+04 0.  0.
        2    1    3    3  502    0  0.75820382082E+03 -0.66040573202E+03 -0.46996027389E+03  0.11098970330E+04  0.25500000920E-02 0. -1.
       -2    1    3    3    0  502 -0.75820382082E+03  0.66040573202E+03  0.12786904059E+03  0.10135873205E+04  0.25500000920E-02 0.  1.
</event>
<event>
 5   0  0.3257130E-05  0.2095540E+04  0.7818609E-02  0.8563210E-01
        2   -1    0    0  501    0  0.00000000000E+00  0.00000000000E+00  0.12084126934E+04  0.12084126934E+04  0.25500000920E-02 0.  1.
       -2   -1    0    0    0  501  0.00000000000E+00  0.00000000000E+00 -0.90848302472E+03  0.90848302472E+03  0.25500000920E-02 0. -1.
    10030    2    1    2    0    0  0.00000000000E+00  0.00000000000E+00  0.29992966871E+03  0.21168957181E+04  0.20955404256E+04 0.  0.
        3    1    3    3  502    0  0.41430781873E+03 -0.37951105627E+03  0.10433658596E+04  0.11850282434E+04  0.10100000352E+00 0.  1.
       -3    1    3    3    0  502 -0.41430781873E+03  0.37951105627E+03 -0.74343619085E+03  0.93186747478E+03  0.10100000352E+00 0. -1.
</event>
<event>
 5   0  0.1466480E-05  0.2093986E+04  0.7818609E-02  0.8563897E-01
       -1   -1    0    0    0  501  0.00000000000E+00  0.00000000000E+00  0.17848580421E+04  0.17848580421E+04  0.50400001928E-02 0.  1.
        1   -1    0    0  501    0  0.00000000000E+00  0.00000000000E+00 -0.61416302842E+03  0.61416302844E+03  0.50400001928E-02 0. -1.
    10030    2    1    2    0    0  0.00000000000E+00  0.00000000000E+00  0.11706950137E+04  0.23990210706E+04  0.20939855019E+04 0.  0.
        3    1    3    3  502    0  0.37169576605E+03  0.17189245278E+01  0.17067219449E+04  0.17467285148E+04  0.10100000352E+00 0.  1.
       -3    1    3    3    0  502 -0.37169576605E+03 -0.17189245278E+01 -0.53602693114E+03  0.65229255577E+03  0.10100000352E+00 0. -1.
</event>
<event>
 5   0  0.1466480E-05  0.2098867E+04  0.7818609E-02  0.8561742E-01
       -1   -1    0    0    0  501  0.00000000000E+00  0.00000000000E+00  0.92889954077E+03  0.92889954078E+03  0.50400001928E-02 0.  1.
        1   -1    0    0  501    0  0.00000000000E+00  0.00000000000E+00 -0.11856082869E+04  0.11856082869E+04  0.50400001928E-02 0. -1.
    10030    2    1    2    0    0  0.00000000000E+00  0.00000000000E+00 -0.25670874613E+03  0.21145078277E+04  0.20988673072E+04 0.  0.
        3    1    3    3  502    0 -0.40587709583E+03 -0.38429407812E+03 -0.10231695018E+04  0.11658876426E+04  0.10100000352E+00 0. -1.
       -3    1    3    3    0  502  0.40587709583E+03  0.38429407812E+03  0.76646075570E+03  0.94862018513E+03  0.10100000352E+00 0.  1.
</event>
<event>
 5   0  0.1466480E-05  0.2174825E+04  0.7818609E-02  0.8528980E-01
        1   -1    0    0  501    0  0.00000000000E+00  0.00000000000E+00  0.25815126029E+04  0.25815126029E+04  0.50400001928E-02 0. -1.
       -1   -1    0    0    0  501  0.00000000000E+00  0.00000000000E+00 -0.45805172106E+03  0.45805172109E+03  0.50400001928E-02 0.  1.
    10030    2    1    2    0    0  0.00000000000E+00  0.00000000000E+00  0.21234608819E+04  0.30395643240E+04  0.21748253178E+04 0.  0.
        3    1    3    3  502    0  0.57001680849E+03  0.35457654514E+03 -0.13388045607E+03  0.68452003261E+03  0.10100000352E+00 0.  1.
       -3    1    3    3    0  502 -0.57001680849E+03 -0.35457654514E+03  0.22573413379E+04  0.23550442914E+04  0.10100000352E+00 0. -1.
</event>
<event>
 5   0  0.1129987E-05  0.2096749E+04  0.7818609E-02  0.8562677E-01
       -4   -1    0    0    0  501  0.00000000000E+00  0.00000000000E+00  0.52493661281E+03  0.52493814908E+03  0.12699999809E+01 0. -1.
        4   -1    0    0  501    0  0.00000000000E+00  0.00000000000E+00 -0.20937500906E+04  0.20937504757E+04  0.12699999809E+01 0.  1.
    10030    2    1    2    0    0  0.00000000000E+00  0.00000000000E+00 -0.15688134778E+04  0.26186886248E+04  0.20967485271E+04 0.  0.
        5    1    3    3  502    0 -0.10274499427E+04 -0.10615047142E+03 -0.56048535182E+03  0.11751966758E+04  0.46999998093E+01 0. -1.
       -5    1    3    3    0  502  0.10274499427E+04  0.10615047142E+03 -0.10083281259E+04  0.14434919490E+04  0.46999998093E+01 0.  1.
</event>
<event>
 5   0  0.1492552E-05  0.1992423E+04  0.7818609E-02  0.8610172E-01
       -1   -1    0    0    0  501  0.00000000000E+00  0.00000000000E+00  0.64354806428E+03  0.64354806430E+03  0.50400001928E-02 0.  1.
        1   -1    0    0  501    0  0.00000000000E+00  0.00000000000E+00 -0.15421333517E+04  0.15421333517E+04  0.50400001928E-02 0. -1.
    10030    2    1    2    0    0  0.00000000000E+00  0.00000000000E+00 -0.89858528743E+03  0.21856814160E+04  0.19924225791E+04 0.  0.
        4    1    3    3  502    0 -0.20865080505E+03 -0.74576358342E+03 -0.11367665606E+04  0.13754774833E+04  0.12699999809E+01 0. -1.
       -4    1    3    3    0  502  0.20865080505E+03  0.74576358342E+03  0.23818127318E+03  0.81020393273E+03  0.12699999809E+01 0.  1.
</event>
<event>
 5   0  0.1492552E-05  0.2105150E+04  0.7818609E-02  0.8558978E-01
       -1   -1    0    0    0  501  0.00000000000E+00  0.00000000000E+00  0.10520447063E+04  0.10520447063E+04  0.50400001928E-02 0. -1.
        1   -1    0    0  501    0  0.00000000000E+00  0.00000000000E+00 -0.10531053378E+04  0.10531053378E+04  0.50400001928E-02 0.  1.
    10030    2    1    2    0    0  0.00000000000E+00  0.00000000000E+00 -0.10606314758E+01  0.21051500441E+04  0.21051497769E+04 0.  0.
        4    1    3    3  502    0 -0.41053077827E+03 -0.45072788244E+03  0.85750309028E+03  0.10521427216E+04  0.12699999809E+01 0. -1.
       -4    1    3    3    0  502  0.41053077827E+03  0.45072788244E+03 -0.85856372176E+03  0.10530073224E+04  0.12699999809E+01 0.  1.
</event>
<event>
 5   0  0.3257130E-05  0.2093193E+04  0.7818609E-02  0.8564248E-01
       -2   -1    0    0    0  501  0.00000000000E+00  0.00000000000E+00  0.53778045107E+03  0.53778045107E+03  0.25500000920E-02 0.  1.
        2   -1    0    0  501    0  0.00000000000E+00  0.00000000000E+00 -0.20368235352E+04  0.20368235352E+04  0.25500000920E-02 0. -1.
    10030    2    1    2    0    0  0.00000000000E+00  0.00000000000E+00 -0.14990430841E+04  0.25746039862E+04  0.20931926615E+04 0.  0.
        3    1    3    3  502    0 -0.48504718105E+03  0.13871331540E+03 -0.18773964675E+04  0.19439983689E+04  0.10100000352E+00 0. -1.
       -3    1    3    3    0  502  0.48504718105E+03 -0.13871331540E+03  0.37835338342E+03  0.63060561737E+03  0.10100000352E+00 0.  1.
</event>
<event>
 5   0  0.3242231E-05  0.2097996E+04  0.7818609E-02  0.8562127E-01
        2   -1    0    0  501    0  0.00000000000E+00  0.00000000000E+00  0.57587777251E+03  0.57587777252E+03  0.25500000920E-02 0.  1.
       -2   -1    0    0    0  501  0.00000000000E+00  0.00000000000E+00 -0.19108158918E+04  0.19108158918E+04  0.25500000920E-02 0. -1.
    10030    2    1    2    0    0  0.00000000000E+00  0.00000000000E+00 -0.13349381193E+04  0.24866936644E+04  0.20979956144E+04 0.  0.
        4    1    3    3  502    0  0.87584202847E+03  0.57090301024E+03 -0.56574765189E+03  0.11887394687E+04  0.12699999809E+01 0. -1.
       -4    1    3    3    0  502 -0.87584202847E+03 -0.57090301024E+03 -0.76919046743E+03  0.12979541957E+04  0.12699999809E+01 0.  1.
</event>
<event>
 5   0  0.3242231E-05  0.2144798E+04  0.7818609E-02  0.8541762E-01
        2   -1    0    0  501    0  0.00000000000E+00  0.00000000000E+00  0.10631909305E+04  0.10631909305E+04  0.25500000920E-02 0. -1.
       -2   -1    0    0    0  501  0.00000000000E+00  0.00000000000E+00 -0.10816871773E+04  0.10816871773E+04  0.25500000920E-02 0.  1.
    10030    2    1    2    0    0  0.00000000000E+00  0.00000000000E+00 -0.18496246761E+02  0.21448781079E+04  0.21447983557E+04 0.  0.
        4    1    3    3  502    0  0.21003420799E+03  0.51987460692E+03  0.90492721832E+03  0.10645557096E+04  0.12699999809E+01 0. -1.
       -4    1    3    3    0  502 -0.21003420799E+03 -0.51987460692E+03 -0.92342346508E+03  0.10803223983E+04  0.12699999809E+01 0.  1.
</event>
<event>
 5   0  0.1453430E-05  0.2098759E+04  0.7818609E-02  0.8561790E-01
        1   -1    0    0  501    0  0.00000000000E+00  0.00000000000E+00  0.16405472679E+04  0.16405472679E+04  0.50400001928E-02 0. -1.
       -1   -1    0    0    0  501  0.00000000000E+00  0.00000000000E+00 -0.67123763757E+03  0.67123763759E+03  0.50400001928E-02 0.  1.
    10030    2    1    2    0    0  0.00000000000E+00  0.00000000000E+00  0.96930963032E+03  0.23117849055E+04  0.20987587498E+04 0.  0.
        5    1    3    3  502    0 -0.60643112080E+03  0.38724821998E+03 -0.35671828335E+03  0.80311263956E+03  0.46999998093E+01 0.  1.
       -5    1    3    3    0  502  0.60643112080E+03 -0.38724821998E+03  0.13260279137E+04  0.15086722659E+04  0.46999998093E+01 0. -1.
</event>
<event>
 5   0  0.1466480E-05  0.2097436E+04  0.7818609E-02  0.8562373E-01
       -1   -1    0    0    0  501  0.00000000000E+00  0.00000000000E+00  0.80957281487E+03  0.80957281488E+03  0.50400001928E-02 0.  1.
        1   -1    0    0  501    0  0.00000000000E+00  0.00000000000E+00 -0.13585065168E+04  0.13585065168E+04  0.50400001928E-02 0. -1.
    10030    2    1    2    0    0  0.00000000000E+00  0.00000000000E+00 -0.54893370196E+03  0.21680793317E+04  0.20974364781E+04 0.  0.
        3    1    3    3  502    0 -0.56243883510E+02 -0.64758475597E+02  0.80594095525E+03  0.81049236156E+03  0.10100000352E+00 0.  1.
       -3    1    3    3    0  502  0.56243883510E+02  0.64758475597E+02 -0.13548746572E+04  0.13575869702E+04  0.10100000352E+00 0. -1.
</event>
<event>
 5   0  0.3242231E-05  0.2102205E+04  0.7818609E-02  0.8560273E-01
       -2   -1    0    0    0  501  0.00000000000E+00  0.00000000000E+00  0.13407092018E+04  0.13407092018E+04  0.25500000920E-02 0. -1.
        2   -1    0    0  501    0  0.00000000000E+00  0.00000000000E+00 -0.82405346205E+03  0.82405346205E+03  0.25500000920E-02 0.  1.
    10030    2    1    2    0    0  0.00000000000E+00  0.00000000000E+00  0.51665573979E+03  0.21647626639E+04  0.21022046136E+04 0.  0.
        4    1    3    3  502    0  0.29327807684E+02 -0.94774191795E+03 -0.20875531392E+03  0.97090435025E+03  0.12699999809E+01 0. -1.
       -4    1    3    3    0  502 -0.29327807684E+02  0.94774191795E+03  0.72541105371E+03  0.11938583137E+04  0.12699999809E+01 0.  1.
</event>
<event>
 5   0  0.3108326E-05  0.2152536E+04  0.7818609E-02  0.8538448E-01
       -2   -1    0    0    0  501  0.00000000000E+00  0.00000000000E+00  0.86934915383E+03  0.86934915384E+03  0.25500000920E-02 0. -1.
        2   -1    0    0  501    0  0.00000000000E+00  0.00000000000E+00 -0.13324364929E+04  0.13324364929E+04  0.25500000920E-02 0.  1.
    10030    2    1    2    0    0  0.00000000000E+00  0.00000000000E+00 -0.46308733909E+03  0.22017856468E+04  0.21525357490E+04 0.  0.
        5    1    3    3  502    0 -0.50028881632E+03  0.59474462627E+03 -0.99310535335E+03  0.12610671683E+04  0.46999998093E+01 0.  1.
       -5    1    3    3    0  502  0.50028881632E+03 -0.59474462627E+03  0.53001801427E+03  0.94071847842E+03  0.46999998093E+01 0. -1.
</event>
<event>
 5   0  0.1453430E-05  0.2099080E+04  0.7818609E-02  0.8561649E-01
        1   -1    0    0  501    0  0.00000000000E+00  0.00000000000E+00  0.10156926955E+04  0.10156926955E+04  0.50400001928E-02 0. -1.
       -1   -1    0    0    0  501  0.00000000000E+00  0.00000000000E+00 -0.10845151738E+04  0.10845151738E+04  0.50400001928E-02 0.  1.
    10030    2    1    2    0    0  0.00000000000E+00  0.00000000000E+00 -0.68822478320E+02  0.21002078693E+04  0.20990799320E+04 0.  0.
        5    1    3    3  502    0 -0.37993211055E+03  0.74750823139E+03 -0.66593586624E+03  0.10707985957E+04  0.46999998093E+01 0. -1.
       -5    1    3    3    0  502  0.37993211055E+03 -0.74750823139E+03  0.59711338792E+03  0.10294092736E+04  0.46999998093E+01 0.  1.
</event>
<event>
 5   0  0.1466480E-05  0.2068614E+04  0.7818609E-02  0.8575197E-01
        1   -1    0    0  501    0  0.00000000000E+00  0.00000000000E+00  0.12179481185E+04  0.12179481185E+04  0.50400001928E-02 0. -1.
       -1   -1    0    0    0  501  0.00000000000E+00  0.00000000000E+00 -0.87835505215E+03  0.87835505217E+03  0.50400001928E-02 0.  1.
    10030    2    1    2    0    0  0.00000000000E+00  0.00000000000E+00  0.33959306634E+03  0.20963031707E+04  0.20686139158E+04 0.  0.
        3    1    3    3  502    0 -0.30563679817E+03  0.36635511670E+03  0.10997735143E+04  0.11988042863E+04  0.10100000352E+00 0. -1.
       -3    1    3    3    0  502  0.30563679817E+03 -0.36635511670E+03 -0.76018044791E+03  0.89749888441E+03  0.10100000352E+00 0.  1.
</event>
<event>
 5   0  0.3279789E-05  0.2102436E+04  0.7818609E-02  0.8560171E-01
        2   -1    0    0  501    0  0.00000000000E+00  0.00000000000E+00  0.10699325546E+04  0.10699325546E+04  0.25500000920E-02 0.  1.
       -2   -1    0    0    0  501  0.00000000000E+00  0.00000000000E+00 -0.10328309666E+04  0.10328309666E+04  0.25500000920E-02 0. -1.
    10030    2    1    2    0    0  0.00000000000E+00  0.00000000000E+00  0.37101588006E+02  0.21027635212E+04  0.21024361818E+04 0.  0.
        2    1    3    3  502    0  0.34737252785E+03  0.22273578721E+03 -0.94844024792E+03  0.10343199736E+04  0.25500000920E-02 0. -1.
       -2    1    3    3    0  502 -0.34737252785E+03 -0.22273578721E+03  0.98554183592E+03  0.10684435476E+04  0.25500000920E-02 0.  1.
</event>
<event>
 5   0  0.3108326E-05  0.2094552E+04  0.7818609E-02  0.8563647E-01
        2   -1    0    0  501    0  0.00000000000E+00  0.00000000000E+00  0.14197566796E+04  0.14197566796E+04  0.25500000920E-02 0.  1.
       -2   -1    0    0    0  501  0.00000000000E+00  0.00000000000E+00 -0.77251752143E+03  0.77251752143E+03  0.25500000920E-02 0. -1.
    10030    2    1    2    0    0  0.00000000000E+00  0.00000000000E+00  0.64723915814E+03  0.21922742010E+04  0.20945518959E+04 0.  0.
        5    1    3    3  502    0  0.12104788707E+02 -0.21461973286E+03  0.13964065471E+04  0.14128628704E+04  0.46999998093E+01 0.  1.
       -5    1    3    3    0  502 -0.12104788707E+02  0.21461973286E+03 -0.74916738897E+03  0.77941133064E+03  0.46999998093E+01 0. -1.
</event>
<event>
 5   0  0.3130517E-05  0.2102150E+04  0.7818609E-02  0.8560297E-01
        2   -1    0    0  501    0  0.00000000000E+00  0.00000000000E+00  0.13756952646E+04  0.13756952646E+04  0.25500000920E-02 0. -1.
       -2   -1    0    0    0  501  0.00000000000E+00  0.00000000000E+00 -0.80305477634E+03  0.80305477635E+03  0.25500000920E-02 0.  1.
    10030    2    1    2    0    0  0.00000000000E+00  0.00000000000E+00  0.57264048826E+03  0.21787500410E+04  0.21021499975E+04 0.  0.
        1    1    3    3  502    0  0.58411919866E+03 -0.76099430844E+01  0.11919481423E+04  0.13274010409E+04  0.50400001928E-02 0. -1.
       -1    1    3    3    0  502 -0.58411919866E+03  0.76099430844E+01 -0.61930765404E+03  0.85134900003E+03  0.50400001928E-02 0.  1.
</event>
<event>
 5   0  0.3242231E-05  0.2096763E+04  0.7818609E-02  0.8562671E-01
       -2   -1    0    0    0  501  0.00000000000E+00  0.00000000000E+00  0.10380139066E+04  0.10380139066E+04  0.25500000920E-02 0.  1.
        2   -1    0    0  501    0  0.00000000000E+00  0.00000000000E+00 -0.10588526707E+04  0.10588526707E+04  0.25500000920E-02 0. -1.
    10030    2    1    2    0    0  0.00000000000E+00  0.00000000000E+00 -0.20838764123E+02  0.20968665772E+04  0.20967630263E+04 0.  0.
        4    1    3    3  502    0 -0.12299374465E+03  0.10246586493E+04 -0.19495322379E+03  0.10502671951E+04  0.12699999809E+01 0. -1.
       -4    1    3    3    0  502  0.12299374465E+03 -0.10246586493E+04  0.17411445967E+03  0.10465993821E+04  0.12699999809E+01 0.  1.
</event>
<event>
 5   0  0.3108326E-05  0.2093691E+04  0.7818609E-02  0.8564028E-01
       -2   -1    0    0    0  501  0.00000000000E+00  0.00000000000E+00  0.63975403934E+03  0.63975403935E+03  0.25500000920E-02 0. -1.
        2   -1    0    0  501    0  0.00000000000E+00  0.00000000000E+00 -0.17129787185E+04  0.17129787185E+04  0.25500000920E-02 0.  1.
    10030    2    1    2    0    0  0.00000000000E+00  0.00000000000E+00 -0.10732246791E+04  0.23527327578E+04  0.20936905736E+04 0.  0.
        5    1    3    3  502    0  0.40408906241E+03  0.82146424485E+03  0.33916419794E+02  0.91611346975E+03  0.46999998093E+01 0. -1.
       -5    1    3    3    0  502 -0.40408906241E+03 -0.82146424485E+03 -0.11071410989E+04  0.14366192881E+04  0.46999998093E+01 0.  1.
</event>
<event>
 5   0  0.3257130E-05  0.2098286E+04  0.7818609E-02  0.8561999E-01
       -2   -1    0    0    0  501  0.00000000000E+00  0.00000000000E+00  0.82102742747E+03  0.82102742747E+03  0.25500000920E-02 0. -1.
        2   -1    0    0  501    0  0.00000000000E+00  0.00000000000E+00 -0.13406381296E+04  0.13406381296E+04  0.25500000920E-02 0.  1.
    10030    2    1    2    0    0  0.00000000000E+00  0.00000000000E+00 -0.51961070213E+03  0.21616655571E+04  0.20982856571E+04 0.  0.
        3    1    3    3  502    0 -0.90947520646E+03  0.21459508731E+03 -0.75118690573E+03  0.11989486979E+04  0.10100000352E+00 0.  1.
       -3    1    3    3    0  502  0.90947520646E+03 -0.21459508731E+03  0.23157620360E+03  0.96271685917E+03  0.10100000352E+00 0. -1.
</event>
<event>
 5   0  0.1492552E-05  0.2093669E+04  0.7818609E-02  0.8564037E-01
       -1   -1    0    0    0  501  0.00000000000E+00  0.00000000000E+00  0.64587407321E+03  0.64587407323E+03  0.50400001928E-02 0. -1.
        1   -1    0    0  501    0  0.00000000000E+00  0.00000000000E+00 -0.16967130880E+04  0.16967130880E+04  0.50400001928E-02 0.  1.
    10030    2    1    2    0    0  0.00000000000E+00  0.00000000000E+00 -0.10508390148E+04  0.23425871612E+04  0.20936694995E+04 0.  0.
        4    1    3    3  502    0  0.47817128673E+03  0.72381162121E+03  0.13016860965E+03  0.87720950878E+03  0.12699999809E+01 0.  1.
       -4    1    3    3    0  502 -0.47817128673E+03 -0.72381162121E+03 -0.11810076244E+04  0.14653776525E+04  0.12699999809E+01 0. -1.
</event>
<event>
 5   0  0.3108326E-05  0.2105278E+04  0.7818609E-02  0.8558922E-01
       -2   -1    0    0    0  501  0.00000000000E+00  0.00000000000E+00  0.11137545226E+04  0.11137545226E+04  0.25500000920E-02 0.  1.
        2   -1    0    0  501    0  0.00000000000E+00  0.00000000000E+00 -0.99487686685E+03  0.99487686686E+03  0.25500000920E-02 0. -1.
    10030    2    1    2    0    0  0.00000000000E+00  0.00000000000E+00  0.11887765579E+03  0.21086313895E+04  0.21052777583E+04 0.  0.
        5    1    3    3  502    0 -0.52948758953E+03 -0.22566025887E+03 -0.82329753720E+03  0.10045499413E+04  0.46999998093E+01 0. -1.
       -5    1    3    3    0  502  0.52948758953E+03  0.22566025887E+03  0.94217519298E+03  0.11040814482E+04  0.46999998093E+01 0.  1.
</event>
<event>
 5   0  0.1453430E-05  0.2097493E+04  0.7818609E-02  0.8562349E-01
       -1   -1    0    0    0  501  0.00000000000E+00  0.00000000000E+00  0.60814819112E+03  0.60814819114E+03  0.50400001928E-02 0. -1.
        1   -1    0    0  501    0  0.00000000000E+00  0.00000000000E+00 -0.18085541309E+04  0.18085541309E+04  0.50400001928E-02 0.  1.
    10030    2    1    2    0    0  0.00000000000E+00  0.00000000000E+00 -0.12004059398E+04  0.24167023220E+04  0.20974927159E+04 0.  0.
        5    1    3    3  502    0 -0.41800041812E+03  0.73921045331E+02  0.50472995025E+03  0.65951731074E+03  0.46999998093E+01 0. -1.
       -5    1    3    3    0  502  0.41800041812E+03 -0.73921045331E+02 -0.17051358900E+04  0.17571850113E+04  0.46999998093E+01 0.  1.
</event>
<event>
 5   0  0.1453430E-05  0.2103994E+04  0.7818609E-02  0.8559486E-01
        1   -1    0    0  501    0  0.00000000000E+00  0.00000000000E+00  0.12008837249E+04  0.12008837249E+04  0.50400001928E-02 0.  1.
       -1   -1    0    0    0  501  0.00000000000E+00  0.00000000000E+00 -0.92156971678E+03  0.92156971679E+03  0.50400001928E-02 0. -1.
    10030    2    1    2    0    0  0.00000000000E+00  0.00000000000E+00  0.27931400814E+03  0.21224534417E+04  0.21039943672E+04 0.  0.
        5    1    3    3  502    0  0.37504686376E+03 -0.92251714646E+03 -0.20240188249E+03  0.10162119108E+04  0.46999998093E+01 0. -1.
       -5    1    3    3    0  502 -0.37504686376E+03  0.92251714646E+03  0.48171589063E+03  0.11062415310E+04  0.46999998093E+01 0.  1.
</event>
<event>
 5   0  0.1453430E-05  0.2095684E+04  0.7818609E-02  0.8563147E-01
        1   -1    0    0  501    0  0.00000000000E+00  0.00000000000E+00  0.11895342605E+04  0.11895342605E+04  0.50400001928E-02 0. -1.
       -1   -1    0    0    0  501  0.00000000000E+00  0.00000000000E+00 -0.92302765776E+03  0.92302765778E+03  0.50400001928E-02 0.  1.
    10030    2    1    2    0    0  0.00000000000E+00  0.00000000000E+00  0.26650660277E+03  0.21125619183E+04  0.20956841578E+04 0.  0.
        5    1    3    3  502    0  0.63898401714E+03 -0.59868672588E+03 -0.44690282665E+03  0.98309236411E+03  0.46999998093E+01 0.  1.
       -5    1    3    3    0  502 -0.63898401714E+03  0.59868672588E+03  0.71340942942E+03  0.11294695542E+04  0.46999998093E+01 0. -1.
</event>
<event>
 5   0  0.1513292E-05  0.2104799E+04  0.7818609E-02  0.8559132E-01
        1   -1    0    0  501    0  0.00000000000E+00  0.00000000000E+00  0.25708798067E+04  0.25708798067E+04  0.50400001928E-02 0.  1.
       -1   -1    0    0    0  501  0.00000000000E+00  0.00000000000E+00 -0.43080384063E+03  0.43080384066E+03  0.50400001928E-02 0. -1.
    10030    2    1    2    0    0  0.00000000000E+00  0.00000000000E+00  0.21400759660E+04  0.30016836473E+04  0.21047991776E+04 0.  0.
        1    1    3    3  502    0  0.36209780227E+03 -0.68825810221E+03  0.20812029785E+04  0.22217605342E+04  0.50400001928E-02 0.  1.
       -1    1    3    3    0  502 -0.36209780227E+03  0.68825810221E+03  0.58872987535E+02  0.77992311311E+03  0.50400001928E-02 0. -1.
</event>
<event>
 5   0  0.3257130E-05  0.2096278E+04  0.7818609E-02  0.8562885E-01
        2   -1    0    0  501    0  0.00000000000E+00  0.00000000000E+00  0.18247849213E+04  0.18247849213E+04  0.25500000920E-02 0.  1.
       -2   -1    0    0    0  501  0.00000000000E+00  0.00000000000E+00 -0.60204081701E+03  0.60204081701E+03  0.25500000920E-02 0. -1.
    10030    2    1    2    0    0  0.00000000000E+00  0.00000000000E+00  0.12227441043E+04  0.24268257383E+04  0.20962776580E+04 0.  0.
        3    1    3    3  502    0 -0.80672935084E+03  0.65342163286E+03  0.77842747970E+03  0.12975829173E+04  0.10100000352E+00 0.  1.
       -3    1    3    3    0  502  0.80672935084E+03 -0.65342163286E+03  0.44431662456E+03  0.11292428210E+04  0.10100000352E+00 0. -1.
</event>
<event>
 5   0  0.1129987E-05  0.2096971E+04  0.7818609E-02  0.8562579E-01
       -4   -1    0    0    0  501  0.00000000000E+00  0.00000000000E+00  0.98032212467E+03  0.98032294731E+03  0.12699999809E+01 0. -1.
        4   -1    0    0  501    0  0.00000000000E+00  0.00000000000E+00 -0.11213864236E+04  0.11213871428E+04  0.12699999809E+01 0.  1.
    10030    2    1    2    0    0  0.00000000000E+00  0.00000000000E+00 -0.14106429895E+03  0.21017100901E+04  0.20969707118E+04 0.  0.
        1    1    3    3  502    0  0.38136126167E+03 -0.83878055005E+03  0.43093086302E+03  0.10171974399E+04  0.50400001928E-02 0. -1.
       -1    1    3    3    0  502 -0.38136126167E+03  0.83878055005E+03 -0.57199516198E+03  0.10845126502E+04  0.50400001928E-02 0.  1.
</event>
<event>
 5   0  0.1492552E-05  0.2097119E+04  0.7818609E-02  0.8562514E-01
       -1   -1    0    0    0  501  0.00000000000E+00  0.00000000000E+00  0.10256460610E+04  0.10256460610E+04  0.50400001928E-02 0.  1.
        1   -1    0    0  501    0  0.00000000000E+00  0.00000000000E+00 -0.10719845866E+04  0.10719845866E+04  0.50400001928E-02 0. -1.
    10030    2    1    2    0    0  0.00000000000E+00  0.00000000000E+00 -0.46338525537E+02  0.20976306476E+04  0.20971187556E+04 0.  0.
        4    1    3    3  502    0 -0.53027648479E+03  0.15223394186E+03 -0.91507454916E+03  0.10685183044E+04  0.12699999809E+01 0. -1.
       -4    1    3    3    0  502  0.53027648479E+03 -0.15223394186E+03  0.86873602363E+03  0.10291123432E+04  0.12699999809E+01 0.  1.
</event>
<event>
 5   0  0.3242231E-05  0.2101958E+04  0.7818609E-02  0.8560381E-01
       -2   -1    0    0    0  501  0.00000000000E+00  0.00000000000E+00  0.16203062730E+04  0.16203062730E+04  0.25500000920E-02 0. -1.
        2   -1    0    0  501    0  0.00000000000E+00  0.00000000000E+00 -0.68169631945E+03  0.68169631945E+03  0.25500000920E-02 0.  1.
    10030    2    1    2    0    0  0.00000000000E+00  0.00000000000E+00  0.93860995356E+03  0.23020025925E+04  0.21019579660E+04 0.  0.
        4    1    3    3  502    0  0.40667050169E+03  0.21070348054E+02  0.15303949527E+04  0.15836461665E+04  0.12699999809E+01 0. -1.
       -4    1    3    3    0  502 -0.40667050169E+03 -0.21070348054E+02 -0.59178499918E+03  0.71835642593E+03  0.12699999809E+01 0.  1.
</event>
<event>
 5   0  0.3279789E-05  0.2101437E+04  0.7818609E-02  0.8560611E-01
       -2   -1    0    0    0  501  0.00000000000E+00  0.00000000000E+00  0.58059415162E+03  0.58059415163E+03  0.25500000920E-02 0.  1.
        2   -1    0    0  501    0  0.00000000000E+00  0.00000000000E+00 -0.19015167914E+04  0.19015167914E+04  0.25500000920E-02 0. -1.
    10030    2    1    2    0    0  0.00000000000E+00  0.00000000000E+00 -0.13209226398E+04  0.24821109431E+04  0.21014371543E+04 0.  0.
        2    1    3    3  502    0  0.50559022631E+03  0.51392949693E+03 -0.15632987195E+04  0.17215248738E+04  0.25500000920E-02 0. -1.
       -2    1    3    3    0  502 -0.50559022631E+03 -0.51392949693E+03  0.24237607967E+03  0.76058606927E+03  0.25500000920E-02 0.  1.
</event>
<event>
 5   0  0.1513292E-05  0.2101142E+04  0.7818609E-02  0.8560741E-01
        1   -1    0    0  501    0  0.00000000000E+00  0.00000000000E+00  0.13215460651E+04  0.13215460651E+04  0.50400001928E-02 0. -1.
       -1   -1    0    0    0  501  0.00000000000E+00  0.00000000000E+00 -0.83515756485E+03  0.83515756487E+03  0.50400001928E-02 0.  1.
    10030    2    1    2    0    0  0.00000000000E+00  0.00000000000E+00  0.48638850023E+03  0.21567036300E+04  0.21011417787E+04 0.  0.
        1    1    3    3  502    0  0.34950006656E+03  0.77097373234E+02  0.12570404921E+04  0.13069985081E+04  0.50400001928E-02 0. -1.
       -1    1    3    3    0  502 -0.34950006656E+03 -0.77097373234E+02 -0.77065199186E+03  0.84970512183E+03  0.50400001928E-02 0.  1.
</event>
<event>
 5   0  0.3108326E-05  0.2107094E+04  0.7818609E-02  0.8558125E-01
        2   -1    0    0  501    0  0.00000000000E+00  0.00000000000E+00  0.19979515314E+04  0.19979515314E+04  0.25500000920E-02 0. -1.
       -2   -1    0    0    0  501  0.00000000000E+00  0.00000000000E+00 -0.55554987628E+03  0.55554987628E+03  0.25500000920E-02 0.  1.
    10030    2    1    2    0    0  0.00000000000E+00  0.00000000000E+00  0.14424016551E+04  0.25535014076E+04  0.21070944222E+04 0.  0.
        5    1    3    3  502    0 -0.42949806040E+03 -0.10239788802E+03 -0.43800155034E+03  0.62194964383E+03  0.46999998093E+01 0.  1.
       -5    1    3    3    0  502  0.42949806040E+03  0.10239788802E+03  0.18804032054E+04  0.19315517638E+04  0.46999998093E+01 0. -1.
</event>
<event>
 5   0  0.1466480E-05  0.2098259E+04  0.7818609E-02  0.8562011E-01
        1   -1    0    0  501    0  0.00000000000E+00  0.00000000000E+00  0.12984918563E+04  0.12984918563E+04  0.50400001928E-02 0.  1.
       -1   -1    0    0    0  501  0.00000000000E+00  0.00000000000E+00 -0.84765474025E+03  0.84765474026E+03  0.50400001928E-02 0. -1.
    10030    2    1    2    0    0  0.00000000000E+00  0.00000000000E+00  0.45083711602E+03  0.21461465965E+04  0.20982590661E+04 0.  0.
        3    1    3    3  502    0 -0.11363680999E+03  0.26058008064E+03 -0.80750935829E+03  0.85608800771E+03  0.10100000352E+00 0. -1.
       -3    1    3    3    0  502  0.11363680999E+03 -0.26058008064E+03  0.12583464743E+04  0.12900585888E+04  0.10100000352E+00 0.  1.
</event>
<event>
 5   0  0.3242231E-05  0.2056967E+04  0.7818609E-02  0.8580440E-01
        2   -1    0    0  501    0  0.00000000000E+00  0.00000000000E+00  0.16031126186E+04  0.16031126186E+04  0.25500000920E-02 0.  1.
       -2   -1    0    0    0  501  0.00000000000E+00  0.00000000000E+00 -0.65982758085E+03  0.65982758085E+03  0.25500000920E-02 0. -1.
    10030    2    1    2    0    0  0.00000000000E+00  0.00000000000E+00  0.94328503774E+03  0.22629401994E+04  0.20569666220E+04 0.  0.
        4    1    3    3  502    0  0.44172255467E+03 -0.82082821511E+03  0.94978807814E+03  0.13307805154E+04  0.12699999809E+01 0.  1.
       -4    1    3    3    0  502 -0.44172255467E+03  0.82082821511E+03 -0.65030404028E+01  0.93215968399E+03  0.12699999809E+01 0. -1.
</event>
<event>
 5   0  0.1129987E-05  0.2103419E+04  0.7818609E-02  0.8559739E-01
       -4   -1    0    0    0  501  0.00000000000E+00  0.00000000000E+00  0.84188300373E+03  0.84188396164E+03  0.12699999809E+01 0.  1.
        4   -1    0    0  501    0  0.00000000000E+00  0.00000000000E+00 -0.13138299075E+04  0.13138305213E+04  0.12699999809E+01 0. -1.
    10030    2    1    2    0    0  0.00000000000E+00  0.00000000000E+00 -0.47194690375E+03  0.21557144829E+04  0.21034188960E+04 0.  0.
        1    1    3    3  502    0  0.85058672082E+03  0.33216059247E+03 -0.77073582917E+03  0.11949318588E+04  0.50400001928E-02 0. -1.
       -1    1    3    3    0  502 -0.85058672082E+03 -0.33216059247E+03  0.29878892542E+03  0.96078262412E+03  0.50400001928E-02 0.  1.
</event>
<event>
 5   0  0.1513292E-05  0.2105345E+04  0.7818609E-02  0.8558893E-01
       -1   -1    0    0    0  501  0.00000000000E+00  0.00000000000E+00  0.64609483348E+03  0.64609483350E+03  0.50400001928E-02 0. -1.
        1   -1    0    0  501    0  0.00000000000E+00  0.00000000000E+00 -0.17151033506E+04  0.17151033506E+04  0.50400001928E-02 0.  1.
    10030    2    1    2    0    0  0.00000000000E+00  0.00000000000E+00 -0.10690085171E+04  0.23611981841E+04  0.21053450204E+04 0.  0.
        1    1    3    3  502    0 -0.89926928260E+03 -0.70615891251E+02 -0.11430779138E+04  0.14561246388E+04  0.50400001928E-02 0.  1.
       -1    1    3    3    0  502  0.89926928260E+03  0.70615891251E+02  0.74069396742E+02  0.90507354523E+03  0.50400001928E-02 0. -1.
</event>
<event>
 5   0  0.1513292E-05  0.2102691E+04  0.7818609E-02  0.8560059E-01
       -1   -1    0    0    0  501  0.00000000000E+00  0.00000000000E+00  0.89887674022E+03  0.89887674024E+03  0.50400001928E-02 0. -1.
        1   -1    0    0  501    0  0.00000000000E+00  0.00000000000E+00 -0.12296761923E+04  0.12296761923E+04  0.50400001928E-02 0.  1.
    10030    2    1    2    0    0  0.00000000000E+00  0.00000000000E+00 -0.33079945209E+03  0.21285529326E+04  0.21026909685E+04 0.  0.
        1    1    3    3  502    0 -0.32423494674E+03 -0.99543405875E+03 -0.67724308851E+02  0.10490966819E+04  0.50400001928E-02 0.  1.
       -1    1    3    3    0  502  0.32423494674E+03  0.99543405875E+03 -0.26307514324E+03  0.10794562506E+04  0.50400001928E-02 0. -1.
</event>
<event>
 5   0  0.1466480E-05  0.2103122E+04  0.7818609E-02  0.8559869E-01
       -1   -1    0    0    0  501  0.00000000000E+00  0.00000000000E+00  0.13937442862E+04  0.13937442862E+04  0.50400001928E-02 0. -1.
        1   -1    0    0  501    0  0.00000000000E+00  0.00000000000E+00 -0.79338875472E+03  0.79338875474E+03  0.50400001928E-02 0.  1.
    10030    2    1    2    0    0  0.00000000000E+00  0.00000000000E+00  0.60035553145E+03  0.21871330409E+04  0.21031224821E+04 0.  0.
        3    1    3    3  502    0 -0.57384450150E+03 -0.12491510222E+03 -0.60695038668E+03  0.84456502222E+03  0.10100000352E+00 0.  1.
       -3    1    3    3    0  502  0.57384450150E+03  0.12491510222E+03  0.12073059181E+04  0.13425680187E+04  0.10100000352E+00 0. -1.
</event>
<event>
 5   0  0.3242231E-05  0.2101871E+04  0.7818609E-02  0.8560420E-01
       -2   -1    0    0    0  501  0.00000000000E+00  0.00000000000E+00  0.13114356603E+04  0.13114356603E+04  0.25500000920E-02 0. -1.
        2   -1    0    0  501    0  0.00000000000E+00  0.00000000000E+00 -0.84218043536E+03  0.84218043536E+03  0.25500000920E-02 0.  1.
    10030    2    1    2    0    0  0.00000000000E+00  0.00000000000E+00  0.46925522492E+03  0.21536160956E+04  0.21018710287E+04 0.  0.
        4    1    3    3  502    0  0.71931150842E+03  0.23087321708E+03 -0.51394188386E+03  0.91370091463E+03  0.12699999809E+01 0.  1.
       -4    1    3    3    0  502 -0.71931150842E+03 -0.23087321708E+03  0.98319710877E+03  0.12399151810E+04  0.12699999809E+01 0. -1.
</event>
<event>
 5   0  0.3130517E-05  0.2097060E+04  0.7818609E-02  0.8562540E-01
       -2   -1    0    0    0  501  0.00000000000E+00  0.00000000000E+00  0.93446089797E+03  0.93446089797E+03  0.25500000920E-02 0. -1.
        2   -1    0    0  501    0  0.00000000000E+00  0.00000000000E+00 -0.11765236052E+04  0.11765236052E+04  0.25500000920E-02 0.  1.
    10030    2    1    2    0    0  0.00000000000E+00  0.00000000000E+00 -0.24206270720E+03  0.21109845031E+04  0.20970601370E+04 0.  0.
        1    1    3    3  502    0 -0.72368198108E+03 -0.56125468866E+02 -0.88272569313E+03  0.11428343394E+04  0.50400001928E-02 0.  1.
       -1    1    3    3    0  502  0.72368198108E+03  0.56125468866E+02  0.64066298592E+03  0.96815016374E+03  0.50400001928E-02 0. -1.
</event>
<event>
 5   0  0.1129987E-05  0.2110364E+04  0.7818609E-02  0.8556692E-01
       -4   -1    0    0    0  501  0.00000000000E+00  0.00000000000E+00  0.11799260413E+04  0.11799267248E+04  0.12699999809E+01 0.  1.
        4   -1    0    0  501    0  0.00000000000E+00  0.00000000000E+00 -0.94362475814E+03  0.94362561277E+03  0.12699999809E+01 0. -1.
    10030    2    1    2    0    0  0.00000000000E+00  0.00000000000E+00  0.23630128316E+03  0.21235523375E+04  0.21103640051E+04 0.  0.
        3    1    3    3  502    0 -0.67741822460E+03  0.70389334503E+02 -0.69283820260E+03  0.97153224065E+03  0.10100000352E+00 0. -1.
       -3    1    3    3    0  502  0.67741822460E+03 -0.70389334503E+02  0.92913948577E+03  0.11520200969E+04  0.10100000352E+00 0.  1.
</event>
<event>
 5   0  0.1435410E-05  0.2086408E+04  0.7818609E-02  0.8567255E-01
       -1   -1    0    0    0  501  0.00000000000E+00  0.00000000000E+00  0.10580268990E+04  0.10580268990E+04  0.50400001928E-02 0. -1.
        1   -1    0    0  501    0  0.00000000000E+00  0.00000000000E+00 -0.10285884058E+04  0.10285884058E+04  0.50400001928E-02 0.  1.
    10030    2    1    2    0    0  0.00000000000E+00  0.00000000000E+00  0.29438493211E+02  0.20866153049E+04  0.20864076317E+04 0.  0.
        2    1    3    3  502    0  0.63708344319E+03 -0.43436171159E+03 -0.68800906791E+03  0.10333933847E+04  0.25500000920E-02 0.  1.
       -2    1    3    3    0  502 -0.63708344319E+03  0.43436171159E+03  0.71744756112E+03  0.10532219201E+04  0.25500000920E-02 0. -1.
</event>
<event>
 5   0  0.1453430E-05  0.2101169E+04  0.7818609E-02  0.8560728E-01
       -1   -1    0    0    0  501  0.00000000000E+00  0.00000000000E+00  0.97392709758E+03  0.97392709759E+03  0.50400001928E-02 0.  1.
        1   -1    0    0  501    0  0.00000000000E+00  0.00000000000E+00 -0.11332760189E+04  0.11332760190E+04  0.50400001928E-02 0. -1.
    10030    2    1    2    0    0  0.00000000000E+00  0.00000000000E+00 -0.15934892137E+03  0.21072031165E+04  0.21011694115E+04 0.  0.
        5    1    3    3  502    0 -0.91066955977E+03  0.38468018871E+03 -0.43623478916E+03  0.10805650262E+04  0.46999998093E+01 0. -1.
       -5    1    3    3    0  502  0.91066955977E+03 -0.38468018871E+03  0.27688586779E+03  0.10266380903E+04  0.46999998093E+01 0.  1.
</event>
<event>
 5   0  0.3242231E-05  0.2106755E+04  0.7818609E-02  0.8558274E-01
        2   -1    0    0  501    0  0.00000000000E+00  0.00000000000E+00  0.87308528733E+03  0.87308528734E+03  0.25500000920E-02 0. -1.
       -2   -1    0    0    0  501  0.00000000000E+00  0.00000000000E+00 -0.12709002615E+04  0.12709002615E+04  0.25500000920E-02 0.  1.
    10030    2    1    2    0    0  0.00000000000E+00  0.00000000000E+00 -0.39781497413E+03  0.21439855488E+04  0.21067551542E+04 0.  0.
        4    1    3    3  502    0  0.55163343731E+03 -0.72090496933E+03 -0.74276651875E+03  0.11729054260E+04  0.12699999809E+01 0.  1.
       -4    1    3    3    0  502 -0.55163343731E+03  0.72090496933E+03  0.34495154462E+03  0.97108012285E+03  0.12699999809E+01 0. -1.
</event>
<event>
 5   0  0.1466480E-05  0.2111642E+04  0.7818609E-02  0.8556132E-01
       -1   -1    0    0    0  501  0.00000000000E+00  0.00000000000E+00  0.13149362097E+04  0.13149362097E+04  0.50400001928E-02 0.  1.
        1   -1    0    0  501    0  0.00000000000E+00  0.00000000000E+00 -0.84776571617E+03  0.84776571619E+03  0.50400001928E-02 0. -1.
    10030    2    1    2    0    0  0.00000000000E+00  0.00000000000E+00  0.46717049353E+03  0.21627019259E+04  0.21116418613E+04 0.  0.
        3    1    3    3  502    0  0.71574517605E+03 -0.12284924876E+03  0.10185208606E+04  0.12509068105E+04  0.10100000352E+00 0.  1.
       -3    1    3    3    0  502 -0.71574517605E+03  0.12284924876E+03 -0.55135036706E+03  0.91179511538E+03  0.10100000352E+00 0. -1.
</event>
<event>
 5   0  0.3242231E-05  0.2102400E+04  0.7818609E-02  0.8560187E-01
        2   -1    0    0  501    0  0.00000000000E+00  0.00000000000E+00  0.27308210683E+04  0.27308210683E+04  0.25500000920E-02 0. -1.
       -2   -1    0    0    0  501  0.00000000000E+00  0.00000000000E+00 -0.40464796242E+03  0.40464796242E+03  0.25500000920E-02 0.  1.
    10030    2    1    2    0    0  0.00000000000E+00  0.00000000000E+00  0.23261731059E+04  0.31354690308E+04  0.21023997536E+04 0.  0.
        4    1    3    3  502    0  0.76274760317E+03  0.20835530657E+03  0.21961525782E+04  0.23341558645E+04  0.12699999809E+01 0. -1.
       -4    1    3    3    0  502 -0.76274760317E+03 -0.20835530657E+03  0.13002052768E+03  0.80131316627E+03  0.12699999809E+01 0.  1.
</event>
<event>
 5   0  0.1466480E-05  0.2109484E+04  0.7818609E-02  0.8557077E-01
       -1   -1    0    0    0  501  0.00000000000E+00  0.00000000000E+00  0.14365961141E+04  0.14365961141E+04  0.50400001928E-02 0.  1.
        1   -1    0    0  501    0  0.00000000000E+00  0.00000000000E+00 -0.77438625886E+03  0.77438625887E+03  0.50400001928E-02 0. -1.
    10030    2    1    2    0    0  0.00000000000E+00  0.00000000000E+00  0.66220985522E+03  0.22109823730E+04  0.21094836243E+04 0.  0.
        3    1    3    3  502    0 -0.78208711918E+03 -0.41206536748E+03  0.93413316665E+03  0.12861037720E+04  0.10100000352E+00 0.  1.
       -3    1    3    3    0  502  0.78208711918E+03  0.41206536748E+03 -0.27192331143E+03  0.92487860098E+03  0.10100000352E+00 0. -1.
</event>
<event>
 5   0  0.1466480E-05  0.2115011E+04  0.7818609E-02  0.8554660E-01
        1   -1    0    0  501    0  0.00000000000E+00  0.00000000000E+00  0.13231965283E+04  0.13231965283E+04  0.50400001928E-02 0. -1.
       -1   -1    0    0    0  501  0.00000000000E+00  0.00000000000E+00 -0.84516369684E+03  0.84516369686E+03  0.50400001928E-02 0.  1.
    10030    2    1    2    0    0  0.00000000000E+00  0.00000000000E+00  0.47803283146E+03  0.21683602252E+04  0.21150107986E+04 0.  0.
        3    1    3    3  502    0  0.66596742587E+01  0.71925350190E+03 -0.55574575046E+03  0.90896826161E+03  0.10100000352E+00 0.  1.
       -3    1    3    3    0  502 -0.66596742587E+01 -0.71925350190E+03  0.10337785819E+04  0.12593919636E+04  0.10100000352E+00 0. -1.
</event>
<event>
 5   0  0.3130517E-05  0.2118498E+04  0.7818609E-02  0.8553138E-01
       -2   -1    0    0    0  501  0.00000000000E+00  0.00000000000E+00  0.15989391921E+04  0.15989391921E+04  0.25500000920E-02 0.  1.
        2   -1    0    0  501    0  0.00000000000E+00  0.00000000000E+00 -0.70172030953E+03  0.70172030953E+03  0.25500000920E-02 0. -1.
    10030    2    1    2    0    0  0.00000000000E+00  0.00000000000E+00  0.89721888256E+03  0.23006595016E+04  0.21184976798E+04 0.  0.
        1    1    3    3  502    0  0.31778100037E+03 -0.83182064480E+03  0.10716076747E+04  0.13932886843E+04  0.50400001928E-02 0.  1.
       -1    1    3    3    0  502 -0.31778100037E+03  0.83182064480E+03 -0.17438879212E+03  0.90737081733E+03  0.50400001928E-02 0. -1.
</event>
<event>
 5   0  0.3130517E-05  0.2093152E+04  0.7818609E-02  0.8564266E-01
        2   -1    0    0  501    0  0.00000000000E+00  0.00000000000E+00  0.10607532756E+04  0.10607532756E+04  0.25500000920E-02 0.  1.
       -2   -1    0    0    0  501  0.00000000000E+00  0.00000000000E+00 -0.10325883571E+04  0.10325883571E+04  0.25500000920E-02 0. -1.
    10030    2    1    2    0    0  0.00000000000E+00  0.00000000000E+00  0.28164918438E+02  0.20933416327E+04  0.20931521513E+04 0.  0.
        1    1    3    3  502    0  0.12425520667E+03 -0.42849850588E+03  0.96088414509E+03  0.10594095838E+04  0.50400001928E-02 0.  1.
       -1    1    3    3    0  502 -0.12425520667E+03  0.42849850588E+03 -0.93271922665E+03  0.10339320489E+04  0.50400001928E-02 0. -1.
</event>
<event>
 5   0  0.3242231E-05  0.2237819E+04  0.7818609E-02  0.8502850E-01
       -2   -1    0    0    0  501  0.00000000000E+00  0.00000000000E+00  0.87587249736E+03  0.87587249737E+03  0.25500000920E-02 0. -1.
        2   -1    0    0  501    0  0.00000000000E+00  0.00000000000E+00 -0.14293844135E+04  0.14293844135E+04  0.25500000920E-02 0.  1.
    10030    2    1    2    0    0  0.00000000000E+00  0.00000000000E+00 -0.55351191612E+03  0.23052569108E+04  0.22378190239E+04 0.  0.
        4    1    3    3  502    0 -0.98575393424E+03  0.12448274350E+03 -0.80680059713E+03  0.12798967102E+04  0.12699999809E+01 0.  1.
       -4    1    3    3    0  502  0.98575393424E+03 -0.12448274350E+03  0.25328868101E+03  0.10253602007E+04  0.12699999809E+01 0. -1.
</event>
<event>
 5   0  0.3242231E-05  0.2104560E+04  0.7818609E-02  0.8559237E-01
       -2   -1    0    0    0  501  0.00000000000E+00  0.00000000000E+00  0.50984328003E+03  0.50984328004E+03  0.25500000920E-02 0.  1.
        2   -1    0    0  501    0  0.00000000000E+00  0.00000000000E+00 -0.21718300651E+04  0.21718300651E+04  0.25500000920E-02 0. -1.
    10030    2    1    2    0    0  0.00000000000E+00  0.00000000000E+00 -0.16619867850E+04  0.26816733451E+04  0.21045597773E+04 0.  0.
        4    1    3    3  502    0  0.13038354341E+03  0.15108865200E+03  0.48550752937E+03  0.52492554055E+03  0.12699999809E+01 0.  1.
       -4    1    3    3    0  502 -0.13038354341E+03 -0.15108865200E+03 -0.21474943144E+04  0.21567478046E+04  0.12699999809E+01 0. -1.
</event>
<event>
 5   0  0.1513292E-05  0.2108228E+04  0.7818609E-02  0.8557628E-01
        1   -1    0    0  501    0  0.00000000000E+00  0.00000000000E+00  0.12014950545E+04  0.12014950545E+04  0.50400001928E-02 0. -1.
       -1   -1    0    0    0  501  0.00000000000E+00  0.00000000000E+00 -0.92481129884E+03  0.92481129886E+03  0.50400001928E-02 0.  1.
    10030    2    1    2    0    0  0.00000000000E+00  0.00000000000E+00  0.27668375565E+03  0.21263063534E+04  0.21082278832E+04 0.  0.
        1    1    3    3  502    0  0.84379037260E+03 -0.52923598917E+03  0.48638549383E+03  0.11084420480E+04  0.50400001928E-02 0. -1.
       -1    1    3    3    0  502 -0.84379037260E+03  0.52923598917E+03 -0.20970173819E+03  0.10178643054E+04  0.50400001928E-02 0.  1.
</event>
<event>
 5   0  0.1466480E-05  0.2099648E+04  0.7818609E-02  0.8561399E-01
        1   -1    0    0  501    0  0.00000000000E+00  0.00000000000E+00  0.14186253599E+04  0.14186253599E+04  0.50400001928E-02 0.  1.
       -1   -1    0    0    0  501  0.00000000000E+00  0.00000000000E+00 -0.77690008072E+03  0.77690008074E+03  0.50400001928E-02 0. -1.
    10030    2    1    2    0    0  0.00000000000E+00  0.00000000000E+00  0.64172527921E+03  0.21955254407E+04  0.20996477387E+04 0.  0.
        3    1    3    3  502    0  0.45019697937E+03  0.16850064798E+02 -0.67068292079E+03  0.80794605968E+03  0.10100000352E+00 0. -1.
       -3    1    3    3    0  502 -0.45019697937E+03 -0.16850064798E+02  0.13124082000E+04  0.13875793810E+04  0.10100000352E+00 0.  1.
</event>
<event>
 5   0  0.3279789E-05  0.2100758E+04  0.7818609E-02  0.8560910E-01
       -2   -1    0    0    0  501  0.00000000000E+00  0.00000000000E+00  0.94557358999E+03  0.94557358999E+03  0.25500000920E-02 0. -1.
        2   -1    0    0  501    0  0.00000000000E+00  0.00000000000E+00 -0.11668003100E+04  0.11668003100E+04  0.25500000920E-02 0.  1.
    10030    2    1    2    0    0  0.00000000000E+00  0.00000000000E+00 -0.22122671997E+03  0.21123739000E+04  0.21007575376E+04 0.  0.
        2    1    3    3  502    0  0.74089236721E+03  0.46119691197E+03 -0.69837226559E+03  0.11177423284E+04  0.25500000920E-02 0.  1.
       -2    1    3    3    0  502 -0.74089236721E+03 -0.46119691197E+03  0.47714554562E+03  0.99463157154E+03  0.25500000920E-02 0. -1.
</event>
<event>
 5   0  0.1435410E-05  0.2105406E+04  0.7818609E-02  0.8558866E-01
       -1   -1    0    0    0  501  0.00000000000E+00  0.00000000000E+00  0.74513668447E+03  0.74513668449E+03  0.50400001928E-02 0. -1.
        1   -1    0    0  501    0  0.00000000000E+00  0.00000000000E+00 -0.14872213543E+04  0.14872213543E+04  0.50400001928E-02 0.  1.
    10030    2    1    2    0    0  0.00000000000E+00  0.00000000000E+00 -0.74208466986E+03  0.22323580388E+04  0.21054056037E+04 0.  0.
        2    1    3    3  502    0 -0.90303616498E+03  0.47305266045E+03 -0.64941871695E+03  0.12087174214E+04  0.25500000920E-02 0.  1.
       -2    1    3    3    0  502  0.90303616498E+03 -0.47305266045E+03 -0.92665952907E+02  0.10236406174E+04  0.25500000920E-02 0. -1.
</event>
<event>
 5   0  0.1492552E-05  0.2080187E+04  0.7818609E-02  0.8570022E-01
        1   -1    0    0  501    0  0.00000000000E+00  0.00000000000E+00  0.20745259312E+04  0.20745259312E+04  0.50400001928E-02 0.  1.
       -1   -1    0    0    0  501  0.00000000000E+00  0.00000000000E+00 -0.52146581563E+03  0.52146581565E+03  0.50400001928E-02 0. -1.
    10030    2    1    2    0    0  0.00000000000E+00  0.00000000000E+00  0.15530601155E+04  0.25959917468E+04  0.20801868731E+04 0.  0.
        4    1    3    3  502    0  0.27614172213E+03  0.59492660169E+03  0.17839064546E+04  0.19006619278E+04  0.12699999809E+01 0.  1.
       -4    1    3    3    0  502 -0.27614172213E+03 -0.59492660169E+03 -0.23084633904E+03  0.69532981904E+03  0.12699999809E+01 0. -1.
</event>
<event>
 5   0  0.1492552E-05  0.2102364E+04  0.7818609E-02  0.8560203E-01
       -1   -1    0    0    0  501  0.00000000000E+00  0.00000000000E+00  0.16627921905E+04  0.16627921905E+04  0.50400001928E-02 0.  1.
        1   -1    0    0  501    0  0.00000000000E+00  0.00000000000E+00 -0.66453516830E+03  0.66453516832E+03  0.50400001928E-02 0. -1.
    10030    2    1    2    0    0  0.00000000000E+00  0.00000000000E+00  0.99825702218E+03  0.23273273588E+04  0.21023642769E+04 0.  0.
        4    1    3    3  502    0  0.31345398743E+03 -0.40629247438E+03 -0.51645732950E+03  0.72804997292E+03  0.12699999809E+01 0. -1.
       -4    1    3    3    0  502 -0.31345398743E+03  0.40629247438E+03  0.15147143517E+04  0.15992773859E+04  0.12699999809E+01 0.  1.
</event>
<event>
 5   0  0.3279789E-05  0.2094108E+04  0.7818609E-02  0.8563843E-01
       -2   -1    0    0    0  501  0.00000000000E+00  0.00000000000E+00  0.20482858461E+04  0.20482858461E+04  0.25500000920E-02 0. -1.
        2   -1    0    0  501    0  0.00000000000E+00  0.00000000000E+00 -0.53523905230E+03  0.53523905230E+03  0.25500000920E-02 0.  1.
    10030    2    1    2    0    0  0.00000000000E+00  0.00000000000E+00  0.15130467938E+04  0.25835248984E+04  0.20941084739E+04 0.  0.
        2    1    3    3  502    0  0.10205129900E+04 -0.23698266209E+02  0.46900198729E+03  0.11233749306E+04  0.25500000920E-02 0. -1.
       -2    1    3    3    0  502 -0.10205129900E+04  0.23698266209E+02  0.10440448065E+04  0.14601499678E+04  0.25500000920E-02 0.  1.
</event>
<event>
 5   0  0.1513292E-05  0.2100258E+04  0.7818609E-02  0.8561130E-01
        1   -1    0    0  501    0  0.00000000000E+00  0.00000000000E+00  0.12628875116E+04  0.12628875116E+04  0.50400001928E-02 0. -1.
       -1   -1    0    0    0  501  0.00000000000E+00  0.00000000000E+00 -0.87321358124E+03  0.87321358125E+03  0.50400001928E-02 0.  1.
    10030    2    1    2    0    0  0.00000000000E+00  0.00000000000E+00  0.38967393036E+03  0.21361010929E+04  0.21002576287E+04 0.  0.
        1    1    3    3  502    0 -0.96817529568E+03  0.14720504076E+02 -0.21853562257E+03  0.99264188646E+03  0.50400001928E-02 0.  1.
       -1    1    3    3    0  502  0.96817529568E+03 -0.14720504076E+02  0.60820955293E+03  0.11434592064E+04  0.50400001928E-02 0. -1.
</event>
<event>
 5   0  0.3279789E-05  0.2088772E+04  0.7818609E-02  0.8566205E-01
       -2   -1    0    0    0  501  0.00000000000E+00  0.00000000000E+00  0.79218059097E+03  0.79218059097E+03  0.25500000920E-02 0.  1.
        2   -1    0    0  501    0  0.00000000000E+00  0.00000000000E+00 -0.13768862108E+04  0.13768862108E+04  0.25500000920E-02 0. -1.
    10030    2    1    2    0    0  0.00000000000E+00  0.00000000000E+00 -0.58470561981E+03  0.21690668018E+04  0.20887723975E+04 0.  0.
        2    1    3    3  502    0  0.92230979148E+03 -0.48325894096E+03 -0.37638300456E+03  0.11071850440E+04  0.25500000920E-02 0. -1.
       -2    1    3    3    0  502 -0.92230979148E+03  0.48325894096E+03 -0.20832261525E+03  0.10618817578E+04  0.25500000920E-02 0.  1.
</event>
<event>
 5   0  0.3279789E-05  0.2102553E+04  0.7818609E-02  0.8560119E-01
        2   -1    0    0  501    0  0.00000000000E+00  0.00000000000E+00  0.15431793583E+04  0.15431793583E+04  0.25500000920E-02 0. -1.
       -2   -1    0    0    0  501  0.00000000000E+00  0.00000000000E+00 -0.71617245088E+03  0.71617245089E+03  0.25500000920E-02 0.  1.
    10030    2    1    2    0    0  0.00000000000E+00  0.00000000000E+00  0.82700690742E+03  0.22593518092E+04  0.21025532509E+04 0.  0.
        2    1    3    3  502    0 -0.49668039923E+03 -0.22021475259E+02  0.14088677649E+04  0.14940163129E+04  0.25500000920E-02 0. -1.
       -2    1    3    3    0  502  0.49668039923E+03  0.22021475259E+02 -0.58186085748E+03  0.76533549625E+03  0.25500000920E-02 0.  1.
</event>
<event>
 5   0  0.3279789E-05  0.2099048E+04  0.7818609E-02  0.8561663E-01
       -2   -1    0    0    0  501  0.00000000000E+00  0.00000000000E+00  0.54181787471E+03  0.54181787472E+03  0.25500000920E-02 0. -1.
        2   -1    0    0  501    0  0.00000000000E+00  0.00000000000E+00 -0.20329727649E+04  0.20329727649E+04  0.25500000920E-02 0.  1.
    10030    2    1    2    0    0  0.00000000000E+00  0.00000000000E+00 -0.14911548902E+04  0.25747906396E+04  0.20990483395E+04 0.  0.
        2    1    3    3  502    0  0.52258794603E+03 -0.86143308061E+03 -0.38515227332E+03  0.10786599962E+04  0.25500000920E-02 0. -1.
       -2    1    3    3    0  502 -0.52258794603E+03  0.86143308061E+03 -0.11060026169E+04  0.14961306434E+04  0.25500000920E-02 0.  1.
</event>
<event>
 5   0  0.3130517E-05  0.2094506E+04  0.7818609E-02  0.8563668E-01
        2   -1    0    0  501    0  0.00000000000E+00  0.00000000000E+00  0.15416805942E+04  0.15416805942E+04  0.25500000920E-02 0.  1.
       -2   -1    0    0    0  501  0.00000000000E+00  0.00000000000E+00 -0.71139151252E+03  0.71139151252E+03  0.25500000920E-02 0. -1.
    10030    2    1    2    0    0  0.00000000000E+00  0.00000000000E+00  0.83028908170E+03  0.22530721067E+04  0.20945056598E+04 0.  0.
        1    1    3    3  502    0  0.35582627277E+03 -0.96906339579E+03  0.60467124768E+03  0.11963793375E+04  0.50400001928E-02 0. -1.
       -1    1    3    3    0  502 -0.35582627277E+03  0.96906339579E+03  0.22561783402E+03  0.10566927692E+04  0.50400001928E-02 0.  1.
</event>
<event>
 5   0  0.1435410E-05  0.2103347E+04  0.7818609E-02  0.8559770E-01
        1   -1    0    0  501    0  0.00000000000E+00  0.00000000000E+00  0.16771141115E+04  0.16771141115E+04  0.50400001928E-02 0.  1.
       -1   -1    0    0    0  501  0.00000000000E+00  0.00000000000E+00 -0.65947643386E+03  0.65947643388E+03  0.50400001928E-02 0. -1.
    10030    2    1    2    0    0  0.00000000000E+00  0.00000000000E+00  0.10176376776E+04  0.23365905454E+04  0.21033470788E+04 0.  0.
        2    1    3    3  502    0 -0.65392500898E+03 -0.44086018050E+03  0.12817005383E+04  0.15049026168E+04  0.25500000920E-02 0.  1.
       -2    1    3    3    0  502  0.65392500898E+03  0.44086018050E+03 -0.26406286070E+03  0.83168792857E+03  0.25500000920E-02 0. -1.
</event>
<event>
 5   0  0.3242231E-05  0.2100259E+04  0.7818609E-02  0.8561129E-01
        2   -1    0    0  501    0  0.00000000000E+00  0.00000000000E+00  0.17501088698E+04  0.17501088698E+04  0.25500000920E-02 0.  1.
       -2   -1    0    0    0  501  0.00000000000E+00  0.00000000000E+00 -0.63011609526E+03  0.63011609527E+03  0.25500000920E-02 0. -1.
    10030    2    1    2    0    0  0.00000000000E+00  0.00000000000E+00  0.11199927745E+04  0.23802249651E+04  0.21002588101E+04 0.  0.
        4    1    3    3  502    0 -0.63955162309E+03  0.79735942042E+03  0.28715123804E+03  0.10617277289E+04  0.12699999809E+01 0.  1.
       -4    1    3    3    0  502  0.63955162309E+03 -0.79735942042E+03  0.83284153648E+03  0.13184972361E+04  0.12699999809E+01 0. -1.
</event>
<event>
 5   0  0.3108326E-05  0.2092782E+04  0.7818609E-02  0.8564430E-01
        2   -1    0    0  501    0  0.00000000000E+00  0.00000000000E+00  0.14955590015E+04  0.14955590015E+04  0.25500000920E-02 0.  1.
       -2   -1    0    0    0  501  0.00000000000E+00  0.00000000000E+00 -0.73212343998E+03  0.73212343999E+03  0.25500000920E-02 0. -1.
    10030    2    1    2    0    0  0.00000000000E+00  0.00000000000E+00  0.76343556149E+03  0.22276824415E+04  0.20927816903E+04 0.  0.
        5    1    3    3  502    0  0.14254591072E+03 -0.57778814625E+02 -0.72001324447E+03  0.73627365177E+03  0.46999998093E+01 0. -1.
       -5    1    3    3    0  502 -0.14254591072E+03  0.57778814625E+02  0.14834488060E+04  0.14914087897E+04  0.46999998093E+01 0.  1.
</event>
<event>
 5   0  0.1466480E-05  0.2088408E+04  0.7818609E-02  0.8566367E-01
       -1   -1    0    0    0  501  0.00000000000E+00  0.00000000000E+00  0.13815206086E+04  0.13815206086E+04  0.50400001928E-02 0. -1.
        1   -1    0    0  501    0  0.00000000000E+00  0.00000000000E+00 -0.78924754777E+03  0.78924754779E+03  0.50400001928E-02 0.  1.
    10030    2    1    2    0    0  0.00000000000E+00  0.00000000000E+00  0.59227306083E+03  0.21707681564E+04  0.20884077692E+04 0.  0.
        3    1    3    3  502    0  0.21275294724E+03  0.20899094479E+03  0.13363115662E+04  0.13691857594E+04  0.10100000352E+00 0. -1.
       -3    1    3    3    0  502 -0.21275294724E+03 -0.20899094479E+03 -0.74403850535E+03  0.80158239702E+03  0.10100000352E+00 0.  1.
</event>
<event>
 5   0  0.3108326E-05  0.2109765E+04  0.7818609E-02  0.8556954E-01
       -2   -1    0    0    0  501  0.00000000000E+00  0.00000000000E+00  0.43714247135E+03  0.43714247135E+03  0.25500000920E-02 0.  1.
        2   -1    0    0  501    0  0.00000000000E+00  0.00000000000E+00 -0.25455713107E+04  0.25455713107E+04  0.25500000920E-02 0. -1.
    10030    2    1    2    0    0  0.00000000000E+00  0.00000000000E+00 -0.21084288394E+04  0.29827137821E+04  0.21097652322E+04 0.  0.
        5    1    3    3  502    0  0.48558783965E+03  0.42509181880E+03  0.12545989790E+03  0.65746549750E+03  0.46999998093E+01 0.  1.
       -5    1    3    3    0  502 -0.48558783965E+03 -0.42509181880E+03 -0.22338887373E+04  0.23252482846E+04  0.46999998093E+01 0. -1.
</event>
<event>
 5   0  0.1453430E-05  0.2053464E+04  0.7818609E-02  0.8582025E-01
        1   -1    0    0  501    0  0.00000000000E+00  0.00000000000E+00  0.97871522733E+03  0.97871522735E+03  0.50400001928E-02 0.  1.
       -1   -1    0    0    0  501  0.00000000000E+00  0.00000000000E+00 -0.10771040411E+04  0.10771040411E+04  0.50400001928E-02 0. -1.
    10030    2    1    2    0    0  0.00000000000E+00  0.00000000000E+00 -0.98388813791E+02  0.20558192685E+04  0.20534635390E+04 0.  0.
        5    1    3    3  502    0 -0.94902568066E+03 -0.19255551349E+03  0.29241348953E+03  0.10115607284E+04  0.46999998093E+01 0.  1.
       -5    1    3    3    0  502  0.94902568066E+03  0.19255551349E+03 -0.39080230333E+03  0.10442585401E+04  0.46999998093E+01 0. -1.
</event>
<event>
 5   0  0.3108326E-05  0.2093321E+04  0.7818609E-02  0.8564191E-01
        2   -1    0    0  501    0  0.00000000000E+00  0.00000000000E+00  0.12257617483E+04  0.12257617483E+04  0.25500000920E-02 0. -1.
       -2   -1    0    0    0  501  0.00000000000E+00  0.00000000000E+00 -0.89372869798E+03  0.89372869799E+03  0.25500000920E-02 0.  1.
    10030    2    1    2    0    0  0.00000000000E+00  0.00000000000E+00  0.33203305029E+03  0.21194904463E+04  0.20933212380E+04 0.  0.
        5    1    3    3  502    0 -0.56464829756E+03 -0.80484063316E+03 -0.19747033195E+03  0.10028024565E+04  0.46999998093E+01 0.  1.
       -5    1    3    3    0  502  0.56464829756E+03  0.80484063316E+03  0.52950338224E+03  0.11166879898E+04  0.46999998093E+01 0. -1.
</event>
<event>
 5   0  0.3279789E-05  0.2098956E+04  0.7818609E-02  0.8561704E-01
       -2   -1    0    0    0  501  0.00000000000E+00  0.00000000000E+00  0.52320945747E+03  0.52320945748E+03  0.25500000920E-02 0. -1.
        2   -1    0    0  501    0  0.00000000000E+00  0.00000000000E+00 -0.21050912127E+04  0.21050912127E+04  0.25500000920E-02 0.  1.
    10030    2    1    2    0    0  0.00000000000E+00  0.00000000000E+00 -0.15818817552E+04  0.26283006702E+04  0.20989555796E+04 0.  0.
        2    1    3    3  502    0  0.17432410683E+03 -0.52836028121E+03 -0.19052182204E+04  0.19847946867E+04  0.25500000920E-02 0.  1.
       -2    1    3    3    0  502 -0.17432410683E+03  0.52836028121E+03  0.32333646522E+03  0.64350598344E+03  0.25500000920E-02 0. -1.
</event>
<event>
 5   0  0.1513292E-05  0.2098440E+04  0.7818609E-02  0.8561931E-01
        1   -1    0    0  501    0  0.00000000000E+00  0.00000000000E+00  0.17644355212E+04  0.17644355212E+04  0.50400001928E-02 0. -1.
       -1   -1    0    0    0  501  0.00000000000E+00  0.00000000000E+00 -0.62391778346E+03  0.62391778348E+03  0.50400001928E-02 0.  1.
    10030    2    1    2    0    0  0.00000000000E+00  0.00000000000E+00  0.11405177377E+04  0.23883533047E+04  0.20984400868E+04 0.  0.
        1    1    3    3  502    0  0.69535416383E+03  0.67019763193E+03  0.10370146594E+04  0.14170679881E+04  0.50400001928E-02 0. -1.
       -1    1    3    3    0  502 -0.69535416383E+03 -0.67019763193E+03  0.10350307835E+03  0.97128531661E+03  0.50400001928E-02 0.  1.
</event>
<event>
 5   0  0.1466480E-05  0.2099652E+04  0.7818609E-02  0.8561397E-01
        1   -1    0    0  501    0  0.00000000000E+00  0.00000000000E+00  0.13184290164E+04  0.13184290165E+04  0.50400001928E-02 0.  1.
       -1   -1    0    0    0  501  0.00000000000E+00  0.00000000000E+00 -0.83594546895E+03  0.83594546896E+03  0.50400001928E-02 0. -1.
    10030    2    1    2    0    0  0.00000000000E+00  0.00000000000E+00  0.48248354750E+03  0.21543744854E+04  0.20996521259E+04 0.  0.
        3    1    3    3  502    0 -0.53924793190E+03 -0.29923665725E+03 -0.63049114447E+03  0.88195805034E+03  0.10100000352E+00 0. -1.
       -3    1    3    3    0  502  0.53924793190E+03  0.29923665725E+03  0.11129746920E+04  0.12724164351E+04  0.10100000352E+00 0.  1.
</event>
<event>
 5   0  0.3242231E-05  0.2101169E+04  0.7818609E-02  0.8560729E-01
        2   -1    0    0  501    0  0.00000000000E+00  0.00000000000E+00  0.80926325999E+03  0.80926326000E+03  0.25500000920E-02 0. -1.
       -2   -1    0    0    0  501  0.00000000000E+00  0.00000000000E+00 -0.13638675631E+04  0.13638675631E+04  0.25500000920E-02 0.  1.
    10030    2    1    2    0    0  0.00000000000E+00  0.00000000000E+00 -0.55460430311E+03  0.21731308231E+04  0.21011691130E+04 0.  0.
        4    1    3    3  502    0  0.70699046247E+03  0.65824893560E+03 -0.70448446145E+03  0.11955865274E+04  0.12699999809E+01 0.  1.
       -4    1    3    3    0  502 -0.70699046247E+03 -0.65824893560E+03  0.14988015834E+03  0.97754429567E+03  0.12699999809E+01 0. -1.
</event>
<event>
 5   0  0.3242231E-05  0.2091087E+04  0.7818609E-02  0.8565180E-01
        2   -1    0    0  501    0  0.00000000000E+00  0.00000000000E+00  0.15613301141E+04  0.15613301141E+04  0.25500000920E-02 0.  1.
       -2   -1    0    0    0  501  0.00000000000E+00  0.00000000000E+00 -0.70014743066E+03  0.70014743066E+03  0.25500000920E-02 0. -1.
    10030    2    1    2    0    0  0.00000000000E+00  0.00000000000E+00  0.86118268348E+03  0.22614775448E+04  0.20910870549E+04 0.  0.
        4    1    3    3  502    0  0.30968948921E+03  0.86422969600E+03 -0.11053897247E+03  0.92467346913E+03  0.12699999809E+01 0. -1.
       -4    1    3    3    0  502 -0.30968948921E+03 -0.86422969600E+03  0.97172165596E+03  0.13368040757E+04  0.12699999809E+01 0.  1.
</event>
<event>
 5   0  0.3130517E-05  0.2095314E+04  0.7818609E-02  0.8563311E-01
       -2   -1    0    0    0  501  0.00000000000E+00  0.00000000000E+00  0.14884596910E+04  0.14884596910E+04  0.25500000920E-02 0. -1.
        2   -1    0    0  501    0  0.00000000000E+00  0.00000000000E+00 -0.73739644886E+03  0.73739644887E+03  0.25500000920E-02 0.  1.
    10030    2    1    2    0    0  0.00000000000E+00  0.00000000000E+00  0.75106324214E+03  0.22258561399E+04  0.20953137144E+04 0.  0.
        1    1    3    3  502    0 -0.95755448512E+02  0.63802528041E+03  0.12523907512E+04  0.14088037329E+04  0.50400001928E-02 0. -1.
       -1    1    3    3    0  502  0.95755448512E+02 -0.63802528041E+03 -0.50132750901E+03  0.81705240693E+03  0.50400001928E-02 0.  1.
</event>
<event>
 5   0  0.3108326E-05  0.2111647E+04  0.7818609E-02  0.8556130E-01
       -2   -1    0    0    0  501  0.00000000000E+00  0.00000000000E+00  0.90917001696E+03  0.90917001696E+03  0.25500000920E-02 0. -1.
        2   -1    0    0  501    0  0.00000000000E+00  0.00000000000E+00 -0.12261329689E+04  0.12261329689E+04  0.25500000920E-02 0.  1.
    10030    2    1    2    0    0  0.00000000000E+00  0.00000000000E+00 -0.31696295194E+03  0.21353029859E+04  0.21116470653E+04 0.  0.
        5    1    3    3  502    0 -0.10371257969E+04 -0.36342648480E+01  0.41466074295E+02  0.10379714118E+04  0.46999998093E+01 0.  1.
       -5    1    3    3    0  502  0.10371257969E+04  0.36342648480E+01 -0.35842902624E+03  0.10973315740E+04  0.46999998093E+01 0. -1.
</event>
<event>
 5   0  0.1466480E-05  0.2100906E+04  0.7818609E-02  0.8560844E-01
        1   -1    0    0  501    0  0.00000000000E+00  0.00000000000E+00  0.96696174641E+03  0.96696174643E+03  0.50400001928E-02 0.  1.
       -1   -1    0    0    0  501  0.00000000000E+00  0.00000000000E+00 -0.11411530637E+04  0.11411530638E+04  0.50400001928E-02 0. -1.
    10030    2    1    2    0    0  0.00000000000E+00  0.00000000000E+00 -0.17419131733E+03  0.21081148102E+04  0.21009058613E+04 0.  0.
        3    1    3    3  502    0 -0.92349926406E+03  0.37737271287E+03 -0.41714723960E+03  0.10813292213E+04  0.10100000352E+00 0. -1.
       -3    1    3    3    0  502  0.92349926406E+03 -0.37737271287E+03  0.24295592227E+03  0.10267855889E+04  0.10100000352E+00 0.  1.
</event>
<event>
 5   0  0.1513292E-05  0.2099716E+04  0.7818609E-02  0.8561368E-01
        1   -1    0    0  501    0  0.00000000000E+00  0.00000000000E+00  0.11456732454E+04  0.11456732454E+04  0.50400001928E-02 0. -1.
       -1   -1    0    0    0  501  0.00000000000E+00  0.00000000000E+00 -0.96205638328E+03  0.96205638330E+03  0.50400001928E-02 0.  1.
    10030    2    1    2    0    0  0.00000000000E+00  0.00000000000E+00  0.18361686207E+03  0.21077296287E+04  0.20997164179E+04 0.  0.
        1    1    3    3  502    0  0.10990585090E+03 -0.44199127223E+03 -0.85772258985E+03  0.97114552049E+03  0.50400001928E-02 0.  1.
       -1    1    3    3    0  502 -0.10990585090E+03  0.44199127223E+03  0.10413394519E+04  0.11365841082E+04  0.50400001928E-02 0. -1.
</event>
<event>
 5   0  0.3279789E-05  0.2098854E+04  0.7818609E-02  0.8561748E-01
       -2   -1    0    0    0  501  0.00000000000E+00  0.00000000000E+00  0.57224424202E+03  0.57224424203E+03  0.25500000920E-02 0. -1.
        2   -1    0    0  501    0  0.00000000000E+00  0.00000000000E+00 -0.19245232573E+04  0.19245232573E+04  0.25500000920E-02 0.  1.
    10030    2    1    2    0    0  0.00000000000E+00  0.00000000000E+00 -0.13522790153E+04  0.24967674993E+04  0.20988543090E+04 0.  0.
        2    1    3    3  502    0  0.51654045377E+03 -0.68693907955E+03 -0.13924618864E+04  0.16363524817E+04  0.25500000920E-02 0.  1.
       -2    1    3    3    0  502 -0.51654045377E+03  0.68693907955E+03  0.40182871104E+02  0.86041501761E+03  0.25500000920E-02 0. -1.
</event>
<event>
 5   0  0.1453430E-05  0.2095453E+04  0.7818609E-02  0.8563249E-01
        1   -1    0    0  501    0  0.00000000000E+00  0.00000000000E+00  0.89734311438E+03  0.89734311439E+03  0.50400001928E-02 0.  1.
       -1   -1    0    0    0  501  0.00000000000E+00  0.00000000000E+00 -0.12233116808E+04  0.12233116808E+04  0.50400001928E-02 0. -1.
    10030    2    1    2    0    0  0.00000000000E+00  0.00000000000E+00 -0.32596856646E+03  0.21206547952E+04  0.20954525178E+04 0.  0.
        5    1    3    3  502    0 -0.10291562349E+03  0.70697889241E+02 -0.12157446985E+04  0.12221485503E+04  0.46999998093E+01 0. -1.
       -5    1    3    3    0  502  0.10291562349E+03 -0.70697889241E+02  0.88977613202E+03  0.89850624495E+03  0.46999998093E+01 0.  1.
</event>
<event>
 5   0  0.1466480E-05  0.2128538E+04  0.7818609E-02  0.8548775E-01
       -1   -1    0    0    0  501  0.00000000000E+00  0.00000000000E+00  0.15055414306E+04  0.15055414306E+04  0.50400001928E-02 0.  1.
        1   -1    0    0  501    0  0.00000000000E+00  0.00000000000E+00 -0.75233290192E+03  0.75233290194E+03  0.50400001928E-02 0. -1.
    10030    2    1    2    0    0  0.00000000000E+00  0.00000000000E+00  0.75320852872E+03  0.22578743326E+04  0.21285378582E+04 0.  0.
        3    1    3    3  502    0 -0.98585424354E+02  0.22206397591E+03 -0.72252074988E+03  0.76227799359E+03  0.10100000352E+00 0. -1.
       -3    1    3    3    0  502  0.98585424354E+02 -0.22206397591E+03  0.14757292786E+04  0.14955963390E+04  0.10100000352E+00 0.  1.
</event>
<event>
 5   0  0.1435410E-05  0.2091232E+04  0.7818609E-02  0.8565116E-01
        1   -1    0    0  501    0  0.00000000000E+00  0.00000000000E+00  0.17774810510E+04  0.17774810510E+04  0.50400001928E-02 0. -1.
       -1   -1    0    0    0  501  0.00000000000E+00  0.00000000000E+00 -0.61509091793E+03  0.61509091795E+03  0.50400001928E-02 0.  1.
    10030    2    1    2    0    0  0.00000000000E+00  0.00000000000E+00  0.11623901330E+04  0.23925719689E+04  0.20912316479E+04 0.  0.
        2    1    3    3  502    0  0.19626509628E+03 -0.89251118157E+03  0.11625677952E+04  0.14787359722E+04  0.25500000920E-02 0. -1.
       -2    1    3    3    0  502 -0.19626509628E+03  0.89251118157E+03 -0.17766213766E+00  0.91383599667E+03  0.25500000920E-02 0.  1.
</event>
<event>
 5   0  0.3279789E-05  0.2095690E+04  0.7818609E-02  0.8563144E-01
       -2   -1    0    0    0  501  0.00000000000E+00  0.00000000000E+00  0.65793230138E+03  0.65793230138E+03  0.25500000920E-02 0.  1.
        2   -1    0    0  501    0  0.00000000000E+00  0.00000000000E+00 -0.16688337898E+04  0.16688337898E+04  0.25500000920E-02 0. -1.
    10030    2    1    2    0    0  0.00000000000E+00  0.00000000000E+00 -0.10109014884E+04  0.23267660912E+04  0.20956904886E+04 0.  0.
        2    1    3    3  502    0 -0.50067685216E+03 -0.88786231034E+03 -0.77513905833E+03  0.12805535335E+04  0.25500000920E-02 0. -1.
       -2    1    3    3    0  502  0.50067685216E+03  0.88786231034E+03 -0.23576243010E+03  0.10462125577E+04  0.25500000920E-02 0.  1.
</event>
<event>
 5   0  0.3257130E-05  0.2113086E+04  0.7818609E-02  0.8555501E-01
       -2   -1    0    0    0  501  0.00000000000E+00  0.00000000000E+00  0.62024626027E+03  0.62024626027E+03  0.25500000920E-02 0. -1.
        2   -1    0    0  501    0  0.00000000000E+00  0.00000000000E+00 -0.17997415977E+04  0.17997415977E+04  0.25500000920E-02 0.  1.
    10030    2    1    2    0    0  0.00000000000E+00  0.00000000000E+00 -0.11794953374E+04  0.24199878580E+04  0.21130858907E+04 0.  0.
        3    1    3    3  502    0  0.54340986305E+03 -0.41294605319E+03 -0.15133983551E+04  0.16601786993E+04  0.10100000352E+00 0.  1.
       -3    1    3    3    0  502 -0.54340986305E+03  0.41294605319E+03  0.33390301773E+03  0.75980915864E+03  0.10100000352E+00 0. -1.
</event>
<event>
 5   0  0.1453430E-05  0.2063352E+04  0.7818609E-02  0.8577561E-01
        1   -1    0    0  501    0  0.00000000000E+00  0.00000000000E+00  0.17101670985E+04  0.17101670985E+04  0.50400001928E-02 0.  1.
       -1   -1    0    0    0  501  0.00000000000E+00  0.00000000000E+00 -0.62236897657E+03  0.62236897659E+03  0.50400001928E-02 0. -1.
    10030    2    1    2    0    0  0.00000000000E+00  0.00000000000E+00  0.10877981220E+04  0.23325360751E+04  0.20633515909E+04 0.  0.
        5    1    3    3  502    0 -0.23725415326E+03  0.95319760074E+03  0.90041113725E+03  0.13325304895E+04  0.46999998093E+01 0.  1.
       -5    1    3    3    0  502  0.23725415326E+03 -0.95319760074E+03  0.18738698472E+03  0.10000055857E+04  0.46999998093E+01 0. -1.
</event>
<event>
 5   0  0.1513292E-05  0.2118377E+04  0.7818609E-02  0.8553191E-01
        1   -1    0    0  501    0  0.00000000000E+00  0.00000000000E+00  0.12018631845E+04  0.12018631846E+04  0.50400001928E-02 0.  1.
       -1   -1    0    0    0  501  0.00000000000E+00  0.00000000000E+00 -0.93345125613E+03  0.93345125614E+03  0.50400001928E-02 0. -1.
    10030    2    1    2    0    0  0.00000000000E+00  0.00000000000E+00  0.26841192842E+03  0.21353144407E+04  0.21183773973E+04 0.  0.
        1    1    3    3  502    0 -0.64258916711E+03  0.84104525378E+03  0.17456031918E+03  0.10727298176E+04  0.50400001928E-02 0. -1.
       -1    1    3    3    0  502  0.64258916711E+03 -0.84104525378E+03  0.93851609237E+02  0.10625846231E+04  0.50400001928E-02 0.  1.
</event>
<event>
 5   0  0.1466480E-05  0.2107012E+04  0.7818609E-02  0.8558161E-01
       -1   -1    0    0    0  501  0.00000000000E+00  0.00000000000E+00  0.15421999848E+04  0.15421999848E+04  0.50400001928E-02 0. -1.
        1   -1    0    0  501    0  0.00000000000E+00  0.00000000000E+00 -0.71966971105E+03  0.71966971107E+03  0.50400001928E-02 0.  1.
    10030    2    1    2    0    0  0.00000000000E+00  0.00000000000E+00  0.82253027373E+03  0.22618696959E+04  0.21070117394E+04 0.  0.
        3    1    3    3  502    0 -0.77861996837E+03  0.44341258653E+03  0.10060740596E+04  0.13472374700E+04  0.10100000352E+00 0. -1.
       -3    1    3    3    0  502  0.77861996837E+03 -0.44341258653E+03 -0.18354378584E+03  0.91463222585E+03  0.10100000352E+00 0.  1.
</event>
<event>
 5   0  0.3108326E-05  0.2103953E+04  0.7818609E-02  0.8559504E-01
        2   -1    0    0  501    0  0.00000000000E+00  0.00000000000E+00  0.64197955021E+03  0.64197955021E+03  0.25500000920E-02 0.  1.
       -2   -1    0    0    0  501  0.00000000000E+00  0.00000000000E+00 -0.17238151121E+04  0.17238151121E+04  0.25500000920E-02 0. -1.
    10030    2    1    2    0    0  0.00000000000E+00  0.00000000000E+00 -0.10818355618E+04  0.23657946623E+04  0.21039525188E+04 0.  0.
        5    1    3    3  502    0 -0.11532428786E+03 -0.10435149525E+04 -0.61558018068E+03  0.12170391104E+04  0.46999998093E+01 0.  1.
       -5    1    3    3    0  502  0.11532428786E+03  0.10435149525E+04 -0.46625538117E+03  0.11487555519E+04  0.46999998093E+01 0. -1.
</event>
<event>
 5   0  0.1129987E-05  0.2098482E+04  0.7818609E-02  0.8561912E-01
       -3   -1    0    0    0  501  0.00000000000E+00  0.00000000000E+00  0.12811991031E+04  0.12811991070E+04  0.10100000352E+00 0. -1.
        3   -1    0    0  501    0  0.00000000000E+00  0.00000000000E+00 -0.85927826109E+03  0.85927826702E+03  0.10100000352E+00 0.  1.
    10030    2    1    2    0    0  0.00000000000E+00  0.00000000000E+00  0.42192084197E+03  0.21404773741E+04  0.20984818779E+04 0.  0.
        1    1    3    3  502    0  0.21740405993E+03  0.46125062061E+03 -0.72439137246E+03  0.88586653668E+03  0.50400001928E-02 0.  1.
       -1    1    3    3    0  502 -0.21740405993E+03 -0.46125062061E+03  0.11463122144E+04  0.12546108374E+04  0.50400001928E-02 0. -1.
</event>
<event>
 5   0  0.3279789E-05  0.2106921E+04  0.7818609E-02  0.8558201E-01
        2   -1    0    0  501    0  0.00000000000E+00  0.00000000000E+00  0.19201997613E+04  0.19201997613E+04  0.25500000920E-02 0.  1.
       -2   -1    0    0    0  501  0.00000000000E+00  0.00000000000E+00 -0.57794956736E+03  0.57794956736E+03  0.25500000920E-02 0. -1.
    10030    2    1    2    0    0  0.00000000000E+00  0.00000000000E+00  0.13422501939E+04  0.24981493286E+04  0.21069206167E+04 0.  0.
        2    1    3    3  502    0  0.55490286713E+03 -0.58015442945E+03 -0.13765130810E+03  0.81452086320E+03  0.25500000920E-02 0. -1.
       -2    1    3    3    0  502 -0.55490286713E+03  0.58015442945E+03  0.14799015020E+04  0.16836284654E+04  0.25500000920E-02 0.  1.
</event>
<event>
 5   0  0.3279789E-05  0.2100506E+04  0.7818609E-02  0.8561021E-01
        2   -1    0    0  501    0  0.00000000000E+00  0.00000000000E+00  0.20775434719E+04  0.20775434719E+04  0.25500000920E-02 0.  1.
       -2   -1    0    0    0  501  0.00000000000E+00  0.00000000000E+00 -0.53093039206E+03  0.53093039206E+03  0.25500000920E-02 0. -1.
    10030    2    1    2    0    0  0.00000000000E+00  0.00000000000E+00  0.15466130799E+04  0.26084738640E+04  0.21005056249E+04 0.  0.
        2    1    3    3  502    0 -0.42351540010E+03 -0.88211989571E+03  0.29956752529E+03  0.10233481845E+04  0.25500000920E-02 0. -1.
       -2    1    3    3    0  502  0.42351540010E+03  0.88211989571E+03  0.12470455546E+04  0.15851256795E+04  0.25500000920E-02 0.  1.
</event>
<event>
 5   0  0.3108326E-05  0.2119180E+04  0.7818609E-02  0.8552841E-01
        2   -1    0    0  501    0  0.00000000000E+00  0.00000000000E+00  0.13988038792E+04  0.13988038792E+04  0.25500000920E-02 0.  1.
       -2   -1    0    0    0  501  0.00000000000E+00  0.00000000000E+00 -0.80263654077E+03  0.80263654078E+03  0.25500000920E-02 0. -1.
    10030    2    1    2    0    0  0.00000000000E+00  0.00000000000E+00  0.59616733847E+03  0.22014404200E+04  0.21191801310E+04 0.  0.
        5    1    3    3  502    0 -0.38802615731E+03  0.32303862743E+03  0.12657966671E+04  0.13627844826E+04  0.46999998093E+01 0.  1.
       -5    1    3    3    0  502  0.38802615731E+03 -0.32303862743E+03 -0.66962932865E+03  0.83865593741E+03  0.46999998093E+01 0. -1.
</event>
<event>
 5   0  0.3130517E-05  0.2097636E+04  0.7818609E-02  0.8562285E-01
       -2   -1    0    0    0  501  0.00000000000E+00  0.00000000000E+00  0.14248953743E+04  0.14248953743E+04  0.25500000920E-02 0.  1.
        2   -1    0    0  501    0  0.00000000000E+00  0.00000000000E+00 -0.77200022186E+03  0.77200022186E+03  0.25500000920E-02 0. -1.
    10030    2    1    2    0    0  0.00000000000E+00  0.00000000000E+00  0.65289515247E+03  0.21968955962E+04  0.20976363318E+04 0.  0.
        1    1    3    3  502    0 -0.41884967044E+03 -0.65884279308E+03 -0.40705805512E+03  0.88045734291E+03  0.50400001928E-02 0. -1.
       -1    1    3    3    0  502  0.41884967044E+03  0.65884279308E+03  0.10599532076E+04  0.13164382533E+04  0.50400001928E-02 0.  1.
</event>
<event>
 5   0  0.3279789E-05  0.2095684E+04  0.7818609E-02  0.8563147E-01
        2   -1    0    0  501    0  0.00000000000E+00  0.00000000000E+00  0.20221312718E+04  0.20221312718E+04  0.25500000920E-02 0. -1.
       -2   -1    0    0    0  501  0.00000000000E+00  0.00000000000E+00 -0.54297797638E+03  0.54297797638E+03  0.25500000920E-02 0.  1.
    10030    2    1    2    0    0  0.00000000000E+00  0.00000000000E+00  0.14791532954E+04  0.25651092481E+04  0.20956838940E+04 0.  0.
        2    1    3    3  502    0 -0.33196119159E+03 -0.80656754264E+03  0.28790614028E+02  0.87268455528E+03  0.25500000920E-02 0.  1.
       -2    1    3    3    0  502  0.33196119159E+03  0.80656754264E+03  0.14503626814E+04  0.16924246929E+04  0.25500000920E-02 0. -1.
</event>
<event>
 5   0  0.3130517E-05  0.2098541E+04  0.7818609E-02  0.8561886E-01
        2   -1    0    0  501    0  0.00000000000E+00  0.00000000000E+00  0.13133040893E+04  0.13133040893E+04  0.25500000920E-02 0.  1.
       -2   -1    0    0    0  501  0.00000000000E+00  0.00000000000E+00 -0.83831952779E+03  0.83831952780E+03  0.25500000920E-02 0. -1.
    10030    2    1    2    0    0  0.00000000000E+00  0.00000000000E+00  0.47498456148E+03  0.21516236171E+04  0.20985408874E+04 0.  0.
        1    1    3    3  502    0 -0.83633752293E+02 -0.62566015973E+03 -0.62187578298E+03  0.88610085739E+03  0.50400001928E-02 0. -1.
       -1    1    3    3    0  502  0.83633752293E+02  0.62566015973E+03  0.10968603445E+04  0.12655227597E+04  0.50400001928E-02 0.  1.
</event>
<event>
 5   0  0.1492552E-05  0.2112103E+04  0.7818609E-02  0.8555931E-01
        1   -1    0    0  501    0  0.00000000000E+00  0.00000000000E+00  0.11488561769E+04  0.11488561769E+04  0.50400001928E-02 0.  1.
       -1   -1    0    0    0  501  0.00000000000E+00  0.00000000000E+00 -0.97074360275E+03  0.97074360277E+03  0.50400001928E-02 0. -1.
    10030    2    1    2    0    0  0.00000000000E+00  0.00000000000E+00  0.17811257416E+03  0.21195997797E+04  0.21121030129E+04 0.  0.
        4    1    3    3  502    0 -0.99856061268E+03 -0.95727603516E+01 -0.25571550683E+03  0.10308282923E+04  0.12699999809E+01 0. -1.
       -4    1    3    3    0  502  0.99856061268E+03  0.95727603516E+01  0.43382808099E+03  0.10887714874E+04  0.12699999809E+01 0.  1.
</event>
<event>
 5   0  0.1492552E-05  0.2087468E+04  0.7818609E-02  0.8566784E-01
        1   -1    0    0  501    0  0.00000000000E+00  0.00000000000E+00  0.18031153784E+04  0.18031153785E+04  0.50400001928E-02 0.  1.
       -1   -1    0    0    0  501  0.00000000000E+00  0.00000000000E+00 -0.60416592729E+03  0.60416592731E+03  0.50400001928E-02 0. -1.
    10030    2    1    2    0    0  0.00000000000E+00  0.00000000000E+00  0.11989494512E+04  0.24072813058E+04  0.20874682030E+04 0.  0.
        4    1    3    3  502    0  0.97859578538E+02 -0.52948304032E+03  0.16305794024E+04  0.17171836208E+04  0.12699999809E+01 0.  1.
       -4    1    3    3    0  502 -0.97859578538E+02  0.52948304032E+03 -0.43162995124E+03  0.69009768498E+03  0.12699999809E+01 0. -1.
</event>
<event>
 5   0  0.1492552E-05  0.2100597E+04  0.7818609E-02  0.8560981E-01
        1   -1    0    0  501    0  0.00000000000E+00  0.00000000000E+00  0.13381098636E+04  0.13381098636E+04  0.50400001928E-02 0.  1.
       -1   -1    0    0    0  501  0.00000000000E+00  0.00000000000E+00 -0.82439177776E+03  0.82439177777E+03  0.50400001928E-02 0. -1.
    10030    2    1    2    0    0  0.00000000000E+00  0.00000000000E+00  0.51371808586E+03  0.21625016414E+04  0.21005968384E+04 0.  0.
        4    1    3    3  502    0  0.10175098541E+04  0.16614775338E+03  0.50466905338E+02  0.10322208584E+04  0.12699999809E+01 0.  1.
       -4    1    3    3    0  502 -0.10175098541E+04 -0.16614775338E+03  0.46325118052E+03  0.11302807830E+04  0.12699999809E+01 0. -1.
</event>
<event>
 5   0  0.3242231E-05  0.2136354E+04  0.7818609E-02  0.8545396E-01
        2   -1    0    0  501    0  0.00000000000E+00  0.00000000000E+00  0.91893328646E+03  0.91893328647E+03  0.25500000920E-02 0.  1.
       -2   -1    0    0    0  501  0.00000000000E+00  0.00000000000E+00 -0.12416590664E+04  0.12416590664E+04  0.25500000920E-02 0. -1.
    10030    2    1    2    0    0  0.00000000000E+00  0.00000000000E+00 -0.32272577991E+03  0.21605923528E+04  0.21363537596E+04 0.  0.
        4    1    3    3  502    0 -0.98894319121E+02 -0.14009753725E+02 -0.12369251412E+04  0.12409519641E+04  0.12699999809E+01 0. -1.
       -4    1    3    3    0  502  0.98894319121E+02  0.14009753725E+02  0.91419936125E+03  0.91964038871E+03  0.12699999809E+01 0.  1.
</event>
<event>
 5   0  0.1453430E-05  0.2097990E+04  0.7818609E-02  0.8562129E-01
        1   -1    0    0  501    0  0.00000000000E+00  0.00000000000E+00  0.11224798243E+04  0.11224798243E+04  0.50400001928E-02 0.  1.
       -1   -1    0    0    0  501  0.00000000000E+00  0.00000000000E+00 -0.98032107228E+03  0.98032107229E+03  0.50400001928E-02 0. -1.
    10030    2    1    2    0    0  0.00000000000E+00  0.00000000000E+00  0.14215875200E+03  0.21028008966E+04  0.20979901096E+04 0.  0.
        5    1    3    3  502    0 -0.21238034872E+03 -0.70584372893E+03 -0.67698837065E+03  0.10008277205E+04  0.46999998093E+01 0. -1.
       -5    1    3    3    0  502  0.21238034872E+03  0.70584372893E+03  0.81914712265E+03  0.11019731760E+04  0.46999998093E+01 0.  1.
</event>
<event>
 5   0  0.1435410E-05  0.2095733E+04  0.7818609E-02  0.8563126E-01
        1   -1    0    0  501    0  0.00000000000E+00  0.00000000000E+00  0.18761800994E+04  0.18761800994E+04  0.50400001928E-02 0. -1.
       -1   -1    0    0    0  501  0.00000000000E+00  0.00000000000E+00 -0.58524428950E+03  0.58524428953E+03  0.50400001928E-02 0.  1.
    10030    2    1    2    0    0  0.00000000000E+00  0.00000000000E+00  0.12909358099E+04  0.24614243889E+04  0.20957325109E+04 0.  0.
        2    1    3    3  502    0  0.72983488951E+03  0.52426030659E+03  0.12785143406E+04  0.15627241453E+04  0.25500000920E-02 0. -1.
       -2    1    3    3    0  502 -0.72983488951E+03 -0.52426030659E+03  0.12421469246E+02  0.89870024364E+03  0.25500000920E-02 0.  1.
</event>
<event>
 5   0  0.1492552E-05  0.2101534E+04  0.7818609E-02  0.8560568E-01
        1   -1    0    0  501    0  0.00000000000E+00  0.00000000000E+00  0.12623680396E+04  0.12623680396E+04  0.50400001928E-02 0. -1.
       -1   -1    0    0    0  501  0.00000000000E+00  0.00000000000E+00 -0.87463489345E+03  0.87463489346E+03  0.50400001928E-02 0.  1.
    10030    2    1    2    0    0  0.00000000000E+00  0.00000000000E+00  0.38773314613E+03  0.21370029330E+04  0.21015338549E+04 0.  0.
        4    1    3    3  502    0 -0.53896718947E+03  0.88340268650E+03  0.37921631029E+03  0.11021309181E+04  0.12699999809E+01 0. -1.
       -4    1    3    3    0  502  0.53896718947E+03 -0.88340268650E+03  0.85168358445E+01  0.10348720149E+04  0.12699999809E+01 0.  1.
</event>
<event>
 5   0  0.1492552E-05  0.2103707E+04  0.7818609E-02  0.8559612E-01
        1   -1    0    0  501    0  0.00000000000E+00  0.00000000000E+00  0.12731595643E+04  0.12731595643E+04  0.50400001928E-02 0.  1.
       -1   -1    0    0    0  501  0.00000000000E+00  0.00000000000E+00 -0.86901552615E+03  0.86901552617E+03  0.50400001928E-02 0. -1.
    10030    2    1    2    0    0  0.00000000000E+00  0.00000000000E+00  0.40414403812E+03  0.21421750904E+04  0.21037066608E+04 0.  0.
        4    1    3    3  502    0  0.54148740443E+03  0.24448595756E+03  0.10859371449E+04  0.12378380703E+04  0.12699999809E+01 0.  1.
       -4    1    3    3    0  502 -0.54148740443E+03 -0.24448595756E+03 -0.68179310683E+03  0.90433702015E+03  0.12699999809E+01 0. -1.
</event>
<event>
 5   0  0.3257130E-05  0.2102788E+04  0.7818609E-02  0.8560016E-01
        2   -1    0    0  501    0  0.00000000000E+00  0.00000000000E+00  0.17135636639E+04  0.17135636639E+04  0.25500000920E-02 0. -1.
       -2   -1    0    0    0  501  0.00000000000E+00  0.00000000000E+00 -0.64510521087E+03  0.64510521088E+03  0.25500000920E-02 0.  1.
    10030    2    1    2    0    0  0.00000000000E+00  0.00000000000E+00  0.10684584530E+04  0.23586688747E+04  0.21027875297E+04 0.  0.
        3    1    3    3  502    0 -0.27713399026E+03 -0.99159429017E+03  0.77314153261E+03  0.12875598334E+04  0.10100000352E+00 0. -1.
       -3    1    3    3    0  502  0.27713399026E+03  0.99159429017E+03  0.29531692037E+03  0.10711090414E+04  0.10100000352E+00 0.  1.
</event>
<event>
 5   0  0.1435410E-05  0.2092576E+04  0.7818609E-02  0.8564521E-01
       -1   -1    0    0    0  501  0.00000000000E+00  0.00000000000E+00  0.11382649270E+04  0.11382649270E+04  0.50400001928E-02 0.  1.
        1   -1    0    0  501    0  0.00000000000E+00  0.00000000000E+00 -0.96174312797E+03  0.96174312799E+03  0.50400001928E-02 0. -1.
    10030    2    1    2    0    0  0.00000000000E+00  0.00000000000E+00  0.17652179902E+03  0.21000080550E+04  0.20925758972E+04 0.  0.
        2    1    3    3  502    0 -0.97447879113E+03 -0.37569932785E+03  0.15140951995E+03  0.10553121538E+04  0.25500000920E-02 0. -1.
       -2    1    3    3    0  502  0.97447879113E+03  0.37569932785E+03  0.25112279068E+02  0.10446959011E+04  0.25500000920E-02 0.  1.
</event>
<event>
 5   0  0.3257130E-05  0.2096720E+04  0.7818609E-02  0.8562690E-01
       -2   -1    0    0    0  501  0.00000000000E+00  0.00000000000E+00  0.46790701421E+03  0.46790701421E+03  0.25500000920E-02 0. -1.
        2   -1    0    0  501    0  0.00000000000E+00  0.00000000000E+00 -0.23488831467E+04  0.23488831467E+04  0.25500000920E-02 0.  1.
    10030    2    1    2    0    0  0.00000000000E+00  0.00000000000E+00 -0.18809761325E+04  0.28167901609E+04  0.20967202006E+04 0.  0.
        3    1    3    3  502    0  0.65748410568E+03  0.70726618396E+03 -0.39223150461E+03  0.10422842067E+04  0.10100000352E+00 0. -1.
       -3    1    3    3    0  502 -0.65748410568E+03 -0.70726618396E+03 -0.14887446279E+04  0.17745059542E+04  0.10100000352E+00 0.  1.
</event>
<event>
 5   0  0.1453430E-05  0.2102973E+04  0.7818609E-02  0.8559935E-01
       -1   -1    0    0    0  501  0.00000000000E+00  0.00000000000E+00  0.99519926804E+03  0.99519926805E+03  0.50400001928E-02 0.  1.
        1   -1    0    0  501    0  0.00000000000E+00  0.00000000000E+00 -0.11109570597E+04  0.11109570597E+04  0.50400001928E-02 0. -1.
    10030    2    1    2    0    0  0.00000000000E+00  0.00000000000E+00 -0.11575779167E+03  0.21061563278E+04  0.21029728031E+04 0.  0.
        5    1    3    3  502    0  0.33155175796E+03  0.62569639239E+03 -0.83634510673E+03  0.10958639383E+04  0.46999998093E+01 0. -1.
       -5    1    3    3    0  502 -0.33155175796E+03 -0.62569639239E+03  0.72058731506E+03  0.10102923895E+04  0.46999998093E+01 0.  1.
</event>
<event>
 5   0  0.3257130E-05  0.2081125E+04  0.7818609E-02  0.8569604E-01
       -2   -1    0    0    0  501  0.00000000000E+00  0.00000000000E+00  0.69702469133E+03  0.69702469133E+03  0.25500000920E-02 0. -1.
        2   -1    0    0  501    0  0.00000000000E+00  0.00000000000E+00 -0.15534173673E+04  0.15534173673E+04  0.25500000920E-02 0.  1.
    10030    2    1    2    0    0  0.00000000000E+00  0.00000000000E+00 -0.85639267598E+03  0.22504420586E+04  0.20811249467E+04 0.  0.
        3    1    3    3  502    0 -0.46475637207E+02 -0.83138878966E+03 -0.11029873622E+04  0.13820088407E+04  0.10100000352E+00 0.  1.
       -3    1    3    3    0  502  0.46475637207E+02  0.83138878966E+03  0.24659468627E+03  0.86843321789E+03  0.10100000352E+00 0. -1.
</event>
<event>
 5   0  0.1466480E-05  0.2098218E+04  0.7818609E-02  0.8562029E-01
       -1   -1    0    0    0  501  0.00000000000E+00  0.00000000000E+00  0.95133960785E+03  0.95133960787E+03  0.50400001928E-02 0.  1.
        1   -1    0    0  501    0  0.00000000000E+00  0.00000000000E+00 -0.11569257015E+04  0.11569257016E+04  0.50400001928E-02 0. -1.
    10030    2    1    2    0    0  0.00000000000E+00  0.00000000000E+00 -0.20558609369E+03  0.21082653094E+04  0.20982175705E+04 0.  0.
        3    1    3    3  502    0 -0.61942427629E+03  0.38303678954E+03  0.65595590659E+03  0.98014375363E+03  0.10100000352E+00 0.  1.
       -3    1    3    3    0  502  0.61942427629E+03 -0.38303678954E+03 -0.86154200028E+03  0.11281215558E+04  0.10100000352E+00 0. -1.
</event>
<event>
 5   0  0.1453430E-05  0.2102532E+04  0.7818609E-02  0.8560129E-01
       -1   -1    0    0    0  501  0.00000000000E+00  0.00000000000E+00  0.79101696503E+03  0.79101696504E+03  0.50400001928E-02 0.  1.
        1   -1    0    0  501    0  0.00000000000E+00  0.00000000000E+00 -0.13971388844E+04  0.13971388844E+04  0.50400001928E-02 0. -1.
    10030    2    1    2    0    0  0.00000000000E+00  0.00000000000E+00 -0.60612191934E+03  0.21881558494E+04  0.21025323399E+04 0.  0.
        5    1    3    3  502    0 -0.48536561479E+01 -0.61954911025E+03  0.58080345380E+03  0.84924637175E+03  0.46999998093E+01 0.  1.
       -5    1    3    3    0  502  0.48536561479E+01  0.61954911025E+03 -0.11869253731E+04  0.13389094777E+04  0.46999998093E+01 0. -1.
</event>
<event>
 5   0  0.3108326E-05  0.2077424E+04  0.7818609E-02  0.8571254E-01
       -2   -1    0    0    0  501  0.00000000000E+00  0.00000000000E+00  0.11720597224E+04  0.11720597224E+04  0.25500000920E-02 0.  1.
        2   -1    0    0  501    0  0.00000000000E+00  0.00000000000E+00 -0.92053592057E+03  0.92053592057E+03  0.25500000920E-02 0. -1.
    10030    2    1    2    0    0  0.00000000000E+00  0.00000000000E+00  0.25152380184E+03  0.20925956430E+04  0.20774244396E+04 0.  0.
        5    1    3    3  502    0  0.96818474605E+03  0.33526058479E+03  0.29765282914E+03  0.10669586022E+04  0.46999998093E+01 0.  1.
       -5    1    3    3    0  502 -0.96818474605E+03 -0.33526058479E+03 -0.46129027300E+02  0.10256370407E+04  0.46999998093E+01 0. -1.
</event>
<event>
 5   0  0.1466480E-05  0.2098389E+04  0.7818609E-02  0.8561954E-01
       -1   -1    0    0    0  501  0.00000000000E+00  0.00000000000E+00  0.84081914578E+03  0.84081914580E+03  0.50400001928E-02 0. -1.
        1   -1    0    0  501    0  0.00000000000E+00  0.00000000000E+00 -0.13092097517E+04  0.13092097517E+04  0.50400001928E-02 0.  1.
    10030    2    1    2    0    0  0.00000000000E+00  0.00000000000E+00 -0.46839060589E+03  0.21500288975E+04  0.20983885485E+04 0.  0.
        3    1    3    3  502    0 -0.78818900560E+03 -0.54141304505E+03  0.20821611873E+03  0.97863371912E+03  0.10100000352E+00 0. -1.
       -3    1    3    3    0  502  0.78818900560E+03  0.54141304505E+03 -0.67660672462E+03  0.11713951784E+04  0.10100000352E+00 0.  1.
</event>
<event>
 5   0  0.1435410E-05  0.2104434E+04  0.7818609E-02  0.8559293E-01
       -1   -1    0    0    0  501  0.00000000000E+00  0.00000000000E+00  0.10688726217E+04  0.10688726217E+04  0.50400001928E-02 0. -1.
        1   -1    0    0  501    0  0.00000000000E+00  0.00000000000E+00 -0.10358208083E+04  0.10358208083E+04  0.50400001928E-02 0.  1.
    10030    2    1    2    0    0  0.00000000000E+00  0.00000000000E+00  0.33051813344E+02  0.21046934300E+04  0.21044338935E+04 0.  0.
        2    1    3    3  502    0 -0.76728209588E+03 -0.44509683271E+03 -0.54951871500E+03  0.10434576289E+04  0.25500000920E-02 0.  1.
       -2    1    3    3    0  502  0.76728209588E+03  0.44509683271E+03  0.58257052835E+03  0.10612358012E+04  0.25500000920E-02 0. -1.
</event>
<event>
 5   0  0.3279789E-05  0.2108206E+04  0.7818609E-02  0.8557637E-01
        2   -1    0    0  501    0  0.00000000000E+00  0.00000000000E+00  0.11656307961E+04  0.11656307961E+04  0.25500000920E-02 0. -1.
       -2   -1    0    0    0  501  0.00000000000E+00  0.00000000000E+00 -0.95324643938E+03  0.95324643938E+03  0.25500000920E-02 0.  1.
    10030    2    1    2    0    0  0.00000000000E+00  0.00000000000E+00  0.21238435668E+03  0.21188772354E+04  0.21082062574E+04 0.  0.
        2    1    3    3  502    0  0.76486397234E+03 -0.42113072858E+03  0.69974504341E+03  0.11189330241E+04  0.25500000920E-02 0. -1.
       -2    1    3    3    0  502 -0.76486397234E+03  0.42113072858E+03 -0.48736068673E+03  0.99994421130E+03  0.25500000920E-02 0.  1.
</event>
<event>
 5   0  0.3279789E-05  0.2052067E+04  0.7818609E-02  0.8582657E-01
       -2   -1    0    0    0  501  0.00000000000E+00  0.00000000000E+00  0.11856486690E+04  0.11856486690E+04  0.25500000920E-02 0. -1.
        2   -1    0    0  501    0  0.00000000000E+00  0.00000000000E+00 -0.88790599771E+03  0.88790599772E+03  0.25500000920E-02 0.  1.
    10030    2    1    2    0    0  0.00000000000E+00  0.00000000000E+00  0.29774267133E+03  0.20735546668E+04  0.20520668258E+04 0.  0.
        2    1    3    3  502    0 -0.71272271565E+03  0.71792229210E+03 -0.24266009968E+02  0.10119164620E+04  0.25500000920E-02 0.  1.
       -2    1    3    3    0  502  0.71272271565E+03 -0.71792229210E+03  0.32200868130E+03  0.10616382047E+04  0.25500000920E-02 0. -1.
</event>
<event>
 5   0  0.3242231E-05  0.2091110E+04  0.7818609E-02  0.8565170E-01
       -2   -1    0    0    0  501  0.00000000000E+00  0.00000000000E+00  0.93060531183E+03  0.93060531183E+03  0.25500000920E-02 0. -1.
        2   -1    0    0  501    0  0.00000000000E+00  0.00000000000E+00 -0.11747033433E+04  0.11747033433E+04  0.25500000920E-02 0.  1.
    10030    2    1    2    0    0  0.00000000000E+00  0.00000000000E+00 -0.24409803147E+03  0.21053086551E+04  0.20911099169E+04 0.  0.
        4    1    3    3  502    0 -0.51164145142E+03  0.78410227782E+03 -0.59060157758E+03  0.11069802136E+04  0.12699999809E+01 0.  1.
       -4    1    3    3    0  502  0.51164145142E+03 -0.78410227782E+03  0.34650354611E+03  0.99832844157E+03  0.12699999809E+01 0. -1.
</event>
<event>
 5   0  0.3130517E-05  0.2106697E+04  0.7818609E-02  0.8558299E-01
        2   -1    0    0  501    0  0.00000000000E+00  0.00000000000E+00  0.12325585857E+04  0.12325585857E+04  0.25500000920E-02 0.  1.
       -2   -1    0    0    0  501  0.00000000000E+00  0.00000000000E+00 -0.90019486167E+03  0.90019486167E+03  0.25500000920E-02 0. -1.
    10030    2    1    2    0    0  0.00000000000E+00  0.00000000000E+00  0.33236372407E+03  0.21327534474E+04  0.21066968511E+04 0.  0.
        1    1    3    3  502    0 -0.89689045956E+03 -0.26865662810E+03  0.65480464860E+03  0.11425226510E+04  0.50400001928E-02 0.  1.
       -1    1    3    3    0  502  0.89689045956E+03  0.26865662810E+03 -0.32244092453E+03  0.99023079638E+03  0.50400001928E-02 0. -1.
</event>
<event>
 5   0  0.1129987E-05  0.2059798E+04  0.7818609E-02  0.8579162E-01
       -4   -1    0    0    0  501  0.00000000000E+00  0.00000000000E+00  0.10724446822E+04  0.10724454342E+04  0.12699999809E+01 0.  1.
        4   -1    0    0  501    0  0.00000000000E+00  0.00000000000E+00 -0.98904004686E+03  0.98904086225E+03  0.12699999809E+01 0. -1.
    10030    2    1    2    0    0  0.00000000000E+00  0.00000000000E+00  0.83404635318E+02  0.20614862964E+04  0.20597983923E+04 0.  0.
        3    1    3    3  502    0 -0.64959419721E+03 -0.64833082417E+03  0.50940406751E+03  0.10496656576E+04  0.10100000352E+00 0.  1.
       -3    1    3    3    0  502  0.64959419721E+03  0.64833082417E+03 -0.42599943219E+03  0.10118206388E+04  0.10100000352E+00 0. -1.
</event>
<event>
 5   0  0.3242231E-05  0.2154374E+04  0.7818609E-02  0.8537662E-01
        2   -1    0    0  501    0  0.00000000000E+00  0.00000000000E+00  0.15687071616E+04  0.15687071616E+04  0.25500000920E-02 0.  1.
       -2   -1    0    0    0  501  0.00000000000E+00  0.00000000000E+00 -0.73967376260E+03  0.73967376261E+03  0.25500000920E-02 0. -1.
    10030    2    1    2    0    0  0.00000000000E+00  0.00000000000E+00  0.82903339904E+03  0.23083809243E+04  0.21543737175E+04 0.  0.
        4    1    3    3  502    0  0.87561721370E+03  0.11565043646E+03  0.10752416333E+04  0.13914836367E+04  0.12699999809E+01 0.  1.
       -4    1    3    3    0  502 -0.87561721370E+03 -0.11565043646E+03 -0.24620823425E+03  0.91689728754E+03  0.12699999809E+01 0. -1.
</event>
<event>
 5   0  0.3257130E-05  0.2101596E+04  0.7818609E-02  0.8560541E-01
       -2   -1    0    0    0  501  0.00000000000E+00  0.00000000000E+00  0.60160112759E+03  0.60160112759E+03  0.25500000920E-02 0.  1.
        2   -1    0    0  501    0  0.00000000000E+00  0.00000000000E+00 -0.18353966255E+04  0.18353966255E+04  0.25500000920E-02 0. -1.
    10030    2    1    2    0    0  0.00000000000E+00  0.00000000000E+00 -0.12337954980E+04  0.24369977531E+04  0.21015962310E+04 0.  0.
        3    1    3    3  502    0  0.10394981093E+04  0.14205539516E+03 -0.68491575222E+03  0.12529348157E+04  0.10100000352E+00 0. -1.
       -3    1    3    3    0  502 -0.10394981093E+04 -0.14205539516E+03 -0.54887974574E+03  0.11840629375E+04  0.10100000352E+00 0.  1.
</event>
<event>
 5   0  0.1129987E-05  0.2102036E+04  0.7818609E-02  0.8560347E-01
        3   -1    0    0  501    0  0.00000000000E+00  0.00000000000E+00  0.90002481874E+03  0.90002482440E+03  0.10100000352E+00 0. -1.
       -3   -1    0    0    0  501  0.00000000000E+00  0.00000000000E+00 -0.12273423856E+04  0.12273423898E+04  0.10100000352E+00 0.  1.
    10030    2    1    2    0    0  0.00000000000E+00  0.00000000000E+00 -0.32731756689E+03  0.21273672142E+04  0.21020357928E+04 0.  0.
        3    1    3    3  502    0  0.95213993108E+03  0.43667659977E+03 -0.76706545509E+02  0.10503051011E+04  0.10100000352E+00 0. -1.
       -3    1    3    3    0  502 -0.95213993108E+03 -0.43667659977E+03 -0.25061102138E+03  0.10770621131E+04  0.10100000352E+00 0.  1.
</event>
<event>
 5   0  0.1129987E-05  0.2095508E+04  0.7818609E-02  0.8563225E-01
       -3   -1    0    0    0  501  0.00000000000E+00  0.00000000000E+00  0.11174858698E+04  0.11174858743E+04  0.10100000352E+00 0. -1.
        3   -1    0    0  501    0  0.00000000000E+00  0.00000000000E+00 -0.98237350692E+03  0.98237351212E+03  0.10100000352E+00 0.  1.
    10030    2    1    2    0    0  0.00000000000E+00  0.00000000000E+00  0.13511236285E+03  0.20998593864E+04  0.20955080750E+04 0.  0.
        3    1    3    3  502    0  0.26224616777E+02  0.96387849233E+03  0.47833303480E+03  0.10763605255E+04  0.10100000352E+00 0. -1.
       -3    1    3    3    0  502 -0.26224616777E+02 -0.96387849233E+03 -0.34322067195E+03  0.10234988609E+04  0.10100000352E+00 0.  1.
</event>
<event>
 5   0  0.1466480E-05  0.2076395E+04  0.7818609E-02  0.8571713E-01
        1   -1    0    0  501    0  0.00000000000E+00  0.00000000000E+00  0.55156259553E+03  0.55156259555E+03  0.50400001928E-02 0.  1.
       -1   -1    0    0    0  501  0.00000000000E+00  0.00000000000E+00 -0.19541829832E+04  0.19541829832E+04  0.50400001928E-02 0. -1.
    10030    2    1    2    0    0  0.00000000000E+00  0.00000000000E+00 -0.14026203877E+04  0.25057455788E+04  0.20763951824E+04 0.  0.
        3    1    3    3  502    0 -0.32875739168E+03  0.95426830941E+03 -0.40782564532E+03  0.10885913816E+04  0.10100000352E+00 0.  1.
       -3    1    3    3    0  502  0.32875739168E+03 -0.95426830941E+03 -0.99479474235E+03  0.14171541972E+04  0.10100000352E+00 0. -1.
</event>
<event>
 5   0  0.3108326E-05  0.2108071E+04  0.7818609E-02  0.8557697E-01
        2   -1    0    0  501    0  0.00000000000E+00  0.00000000000E+00  0.58998539064E+03  0.58998539065E+03  0.25500000920E-02 0. -1.
       -2   -1    0    0    0  501  0.00000000000E+00  0.00000000000E+00 -0.18830811528E+04  0.18830811528E+04  0.25500000920E-02 0.  1.
    10030    2    1    2    0    0  0.00000000000E+00  0.00000000000E+00 -0.12930957622E+04  0.24730665434E+04  0.21080705582E+04 0.  0.
        5    1    3    3  502    0  0.61585414380E+03 -0.76038263412E+03 -0.11061894328E+04  0.14768666927E+04  0.46999998093E+01 0. -1.
       -5    1    3    3    0  502 -0.61585414380E+03  0.76038263412E+03 -0.18690632936E+03  0.99619985076E+03  0.46999998093E+01 0.  1.
</event>
<event>
 5   0  0.1492552E-05  0.2098254E+04  0.7818609E-02  0.8562013E-01
       -1   -1    0    0    0  501  0.00000000000E+00  0.00000000000E+00  0.88614217527E+03  0.88614217528E+03  0.50400001928E-02 0.  1.
        1   -1    0    0  501    0  0.00000000000E+00  0.00000000000E+00 -0.12420892098E+04  0.12420892098E+04  0.50400001928E-02 0. -1.
    10030    2    1    2    0    0  0.00000000000E+00  0.00000000000E+00 -0.35594703451E+03  0.21282313851E+04  0.20982541641E+04 0.  0.
        4    1    3    3  502    0  0.72390746144E+02  0.88668057307E+02  0.87978876528E+03  0.88720478410E+03  0.12699999809E+01 0.  1.
       -4    1    3    3    0  502 -0.72390746144E+02 -0.88668057307E+02 -0.12357357998E+04  0.12410266010E+04  0.12699999809E+01 0. -1.
</event>
<event>
 5   0  0.3130517E-05  0.2078978E+04  0.7818609E-02  0.8570561E-01
        2   -1    0    0  501    0  0.00000000000E+00  0.00000000000E+00  0.56547045929E+03  0.56547045929E+03  0.25500000920E-02 0. -1.
       -2   -1    0    0    0  501  0.00000000000E+00  0.00000000000E+00 -0.19108637709E+04  0.19108637709E+04  0.25500000920E-02 0.  1.
    10030    2    1    2    0    0  0.00000000000E+00  0.00000000000E+00 -0.13453933116E+04  0.24763342302E+04  0.20789776470E+04 0.  0.
        1    1    3    3  502    0 -0.77519508693E+03  0.67933599010E+03 -0.83300092571E+03  0.13252604848E+04  0.50400001928E-02 0.  1.
       -1    1    3    3    0  502  0.77519508693E+03 -0.67933599010E+03 -0.51239238591E+03  0.11510737454E+04  0.50400001928E-02 0. -1.
</event>
<event>
 5   0  0.3279789E-05  0.2085140E+04  0.7818609E-02  0.8567818E-01
       -2   -1    0    0    0  501  0.00000000000E+00  0.00000000000E+00  0.35128691635E+03  0.35128691636E+03  0.25500000920E-02 0.  1.
        2   -1    0    0  501    0  0.00000000000E+00  0.00000000000E+00 -0.30942004854E+04  0.30942004854E+04  0.25500000920E-02 0. -1.
    10030    2    1    2    0    0  0.00000000000E+00  0.00000000000E+00 -0.27429135691E+04  0.34454874018E+04  0.20851399446E+04 0.  0.
        2    1    3    3  502    0  0.46362903280E+03 -0.33434395932E+03 -0.28121897703E+04  0.28696949433E+04  0.25500000920E-02 0. -1.
       -2    1    3    3    0  502 -0.46362903280E+03  0.33434395932E+03  0.69276201253E+02  0.57579245849E+03  0.25500000920E-02 0.  1.
</event>
<event>
 5   0  0.1453430E-05  0.2107515E+04  0.7818609E-02  0.8557940E-01
        1   -1    0    0  501    0  0.00000000000E+00  0.00000000000E+00  0.16564142562E+04  0.16564142562E+04  0.50400001928E-02 0.  1.
       -1   -1    0    0    0  501  0.00000000000E+00  0.00000000000E+00 -0.67036695699E+03  0.67036695701E+03  0.50400001928E-02 0. -1.
    10030    2    1    2    0    0  0.00000000000E+00  0.00000000000E+00  0.98604729925E+03  0.23267812133E+04  0.21075154894E+04 0.  0.
        5    1    3    3  502    0  0.94876040266E+03  0.73967027912E+02 -0.65661477028E+01  0.95167359276E+03  0.46999998093E+01 0. -1.
       -5    1    3    3    0  502 -0.94876040266E+03 -0.73967027912E+02  0.99261344695E+03  0.13751076205E+04  0.46999998093E+01 0.  1.
</event>
<event>
 5   0  0.3242231E-05  0.2042560E+04  0.7818609E-02  0.8586977E-01
       -2   -1    0    0    0  501  0.00000000000E+00  0.00000000000E+00  0.62138366679E+03  0.62138366680E+03  0.25500000920E-02 0.  1.
        2   -1    0    0  501    0  0.00000000000E+00  0.00000000000E+00 -0.16785330768E+04  0.16785330768E+04  0.25500000920E-02 0. -1.
    10030    2    1    2    0    0  0.00000000000E+00  0.00000000000E+00 -0.10571494100E+04  0.22999167436E+04  0.20425601955E+04 0.  0.
        4    1    3    3  502    0 -0.83525941972E+03  0.57067226318E+03 -0.37058847162E+03  0.10773405025E+04  0.12699999809E+01 0.  1.
       -4    1    3    3    0  502  0.83525941972E+03 -0.57067226318E+03 -0.68656093835E+03  0.12225762410E+04  0.12699999809E+01 0. -1.
</event>
<event>
 5   0  0.3108326E-05  0.2094894E+04  0.7818609E-02  0.8563496E-01
        2   -1    0    0  501    0  0.00000000000E+00  0.00000000000E+00  0.67056199073E+03  0.67056199074E+03  0.25500000920E-02 0. -1.
       -2   -1    0    0    0  501  0.00000000000E+00  0.00000000000E+00 -0.16361571708E+04  0.16361571708E+04  0.25500000920E-02 0.  1.
    10030    2    1    2    0    0  0.00000000000E+00  0.00000000000E+00 -0.96559518006E+03  0.23067191615E+04  0.20948936103E+04 0.  0.
        5    1    3    3  502    0 -0.71152307240E+03 -0.63280745303E+03 -0.23120480373E+01  0.95222780401E+03  0.46999998093E+01 0. -1.
       -5    1    3    3    0  502  0.71152307240E+03  0.63280745303E+03 -0.96328313202E+03  0.13544913575E+04  0.46999998093E+01 0.  1.
</event>
<event>
 5   0  0.1492552E-05  0.2098200E+04  0.7818609E-02  0.8562036E-01
       -1   -1    0    0    0  501  0.00000000000E+00  0.00000000000E+00  0.83649065063E+03  0.83649065064E+03  0.50400001928E-02 0. -1.
        1   -1    0    0  501    0  0.00000000000E+00  0.00000000000E+00 -0.13157485114E+04  0.13157485115E+04  0.50400001928E-02 0.  1.
    10030    2    1    2    0    0  0.00000000000E+00  0.00000000000E+00 -0.47925786082E+03  0.21522391621E+04  0.20982004942E+04 0.  0.
        4    1    3    3  502    0  0.13988884883E+03 -0.77688887737E+03 -0.94842807151E+03  0.12339540662E+04  0.12699999809E+01 0.  1.
       -4    1    3    3    0  502 -0.13988884883E+03  0.77688887737E+03  0.46917021069E+03  0.91828509588E+03  0.12699999809E+01 0. -1.
</event>
<event>
 5   0  0.3257130E-05  0.2098463E+04  0.7818609E-02  0.8561921E-01
       -2   -1    0    0    0  501  0.00000000000E+00  0.00000000000E+00  0.10263175290E+04  0.10263175290E+04  0.25500000920E-02 0. -1.
        2   -1    0    0  501    0  0.00000000000E+00  0.00000000000E+00 -0.10726565956E+04  0.10726565956E+04  0.25500000920E-02 0.  1.
    10030    2    1    2    0    0  0.00000000000E+00  0.00000000000E+00 -0.46339066673E+02  0.20989741246E+04  0.20984625483E+04 0.  0.
        3    1    3    3  502    0  0.59217935359E+03 -0.68710485634E+03  0.50430785471E+03  0.10378419403E+04  0.10100000352E+00 0. -1.
       -3    1    3    3    0  502 -0.59217935359E+03  0.68710485634E+03 -0.55064692138E+03  0.10611321843E+04  0.10100000352E+00 0.  1.
</event>
<event>
 5   0  0.1453430E-05  0.2090991E+04  0.7818609E-02  0.8565222E-01
       -1   -1    0    0    0  501  0.00000000000E+00  0.00000000000E+00  0.77131883166E+03  0.77131883167E+03  0.50400001928E-02 0.  1.
        1   -1    0    0  501    0  0.00000000000E+00  0.00000000000E+00 -0.14171322970E+04  0.14171322970E+04  0.50400001928E-02 0. -1.
    10030    2    1    2    0    0  0.00000000000E+00  0.00000000000E+00 -0.64581346535E+03  0.21884511287E+04  0.20909909877E+04 0.  0.
        5    1    3    3  502    0  0.71282434397E+03  0.54582778114E+01  0.47752065110E+03  0.85801888113E+03  0.46999998093E+01 0.  1.
       -5    1    3    3    0  502 -0.71282434397E+03 -0.54582778114E+01 -0.11233341165E+04  0.13304322476E+04  0.46999998093E+01 0. -1.
</event>
<event>
 5   0  0.1466480E-05  0.2096972E+04  0.7818609E-02  0.8562578E-01
       -1   -1    0    0    0  501  0.00000000000E+00  0.00000000000E+00  0.81249520867E+03  0.81249520868E+03  0.50400001928E-02 0. -1.
        1   -1    0    0  501    0  0.00000000000E+00  0.00000000000E+00 -0.13530213441E+04  0.13530213441E+04  0.50400001928E-02 0.  1.
    10030    2    1    2    0    0  0.00000000000E+00  0.00000000000E+00 -0.54052613540E+03  0.21655165528E+04  0.20969724455E+04 0.  0.
        3    1    3    3  502    0  0.75119601367E+03 -0.57514128306E+02  0.48276348703E+03  0.89479825688E+03  0.10100000352E+00 0. -1.
       -3    1    3    3    0  502 -0.75119601367E+03  0.57514128306E+02 -0.10232896224E+04  0.12707182959E+04  0.10100000352E+00 0.  1.
</event>
<event>
 5   0  0.1466480E-05  0.2072029E+04  0.7818609E-02  0.8573666E-01
       -1   -1    0    0    0  501  0.00000000000E+00  0.00000000000E+00  0.86595018080E+03  0.86595018082E+03  0.50400001928E-02 0.  1.
        1   -1    0    0  501    0  0.00000000000E+00  0.00000000000E+00 -0.12394772574E+04  0.12394772574E+04  0.50400001928E-02 0. -1.
    10030    2    1    2    0    0  0.00000000000E+00  0.00000000000E+00 -0.37352707660E+03  0.21054274382E+04  0.20720285280E+04 0.  0.
        3    1    3    3  502    0 -0.20855281832E+03 -0.10145864990E+04 -0.20821070195E+03  0.10565186930E+04  0.10100000352E+00 0. -1.
       -3    1    3    3    0  502  0.20855281832E+03  0.10145864990E+04 -0.16531637465E+03  0.10489087453E+04  0.10100000352E+00 0.  1.
</event>
<event>
 5   0  0.1513292E-05  0.2089671E+04  0.7818609E-02  0.8565807E-01
       -1   -1    0    0    0  501  0.00000000000E+00  0.00000000000E+00  0.88889773754E+03  0.88889773756E+03  0.50400001928E-02 0.  1.
        1   -1    0    0  501    0  0.00000000000E+00  0.00000000000E+00 -0.12281295838E+04  0.12281295838E+04  0.50400001928E-02 0. -1.
    10030    2    1    2    0    0  0.00000000000E+00  0.00000000000E+00 -0.33923184628E+03  0.21170273214E+04  0.20896713698E+04 0.  0.
        1    1    3    3  502    0 -0.22234578757E+03 -0.57176494439E+03  0.68722722442E+03  0.92121336231E+03  0.50400001928E-02 0.  1.
       -1    1    3    3    0  502  0.22234578757E+03  0.57176494439E+03 -0.10264590707E+04  0.11958139591E+04  0.50400001928E-02 0. -1.
</event>
<event>
 5   0  0.3257130E-05  0.2100191E+04  0.7818609E-02  0.8561159E-01
        2   -1    0    0  501    0  0.00000000000E+00  0.00000000000E+00  0.14248901064E+04  0.14248901064E+04  0.25500000920E-02 0.  1.
       -2   -1    0    0    0  501  0.00000000000E+00  0.00000000000E+00 -0.77388490940E+03  0.77388490940E+03  0.25500000920E-02 0. -1.
    10030    2    1    2    0    0  0.00000000000E+00  0.00000000000E+00  0.65100519699E+03  0.21987750158E+04  0.21001913731E+04 0.  0.
        3    1    3    3  502    0  0.81779357191E+03 -0.60170466022E+03  0.44840342827E+02  0.10162900624E+04  0.10100000352E+00 0. -1.
       -3    1    3    3    0  502 -0.81779357191E+03  0.60170466022E+03  0.60616485417E+03  0.11824849534E+04  0.10100000352E+00 0.  1.
</event>
<event>
 5   0  0.1129987E-05  0.2086207E+04  0.7818609E-02  0.8567344E-01
       -3   -1    0    0    0  501  0.00000000000E+00  0.00000000000E+00  0.14161020748E+04  0.14161020784E+04  0.10100000352E+00 0.  1.
        3   -1    0    0  501    0  0.00000000000E+00  0.00000000000E+00 -0.76835201911E+03  0.76835202575E+03  0.10100000352E+00 0. -1.
    10030    2    1    2    0    0  0.00000000000E+00  0.00000000000E+00  0.64775005568E+03  0.21844541042E+04  0.20862069884E+04 0.  0.
        4    1    3    3  502    0 -0.10202468327E+03  0.88646371662E+03  0.88953468520E+03  0.12599605256E+04  0.12699999809E+01 0.  1.
       -4    1    3    3    0  502  0.10202468327E+03 -0.88646371662E+03 -0.24178462952E+03  0.92449357859E+03  0.12699999809E+01 0. -1.
</event>
<event>
 5   0  0.3257130E-05  0.2086436E+04  0.7818609E-02  0.8567242E-01
       -2   -1    0    0    0  501  0.00000000000E+00  0.00000000000E+00  0.72172702577E+03  0.72172702578E+03  0.25500000920E-02 0. -1.
        2   -1    0    0  501    0  0.00000000000E+00  0.00000000000E+00 -0.15079159464E+04  0.15079159464E+04  0.25500000920E-02 0.  1.
    10030    2    1    2    0    0  0.00000000000E+00  0.00000000000E+00 -0.78618892067E+03  0.22296429722E+04  0.20864358999E+04 0.  0.
        3    1    3    3  502    0 -0.95089932626E+03  0.28309131677E+03 -0.48546446354E+02  0.99333125893E+03  0.10100000352E+00 0.  1.
       -3    1    3    3    0  502  0.95089932626E+03 -0.28309131677E+03 -0.73764247432E+03  0.12363117133E+04  0.10100000352E+00 0. -1.
</event>
<event>
 5   0  0.3108326E-05  0.2105508E+04  0.7818609E-02  0.8558821E-01
       -2   -1    0    0    0  501  0.00000000000E+00  0.00000000000E+00  0.59362847742E+03  0.59362847742E+03  0.25500000920E-02 0.  1.
        2   -1    0    0  501    0  0.00000000000E+00  0.00000000000E+00 -0.18669769141E+04  0.18669769141E+04  0.25500000920E-02 0. -1.
    10030    2    1    2    0    0  0.00000000000E+00  0.00000000000E+00 -0.12733484367E+04  0.24606053915E+04  0.21055076945E+04 0.  0.
        5    1    3    3  502    0  0.47894704727E+03 -0.63852364821E+03 -0.14388546079E+04  0.16454262050E+04  0.46999998093E+01 0. -1.
       -5    1    3    3    0  502 -0.47894704727E+03  0.63852364821E+03  0.16550617123E+03  0.81517918652E+03  0.46999998093E+01 0.  1.
</event>
<event>
 5   0  0.1435410E-05  0.2100433E+04  0.7818609E-02  0.8561053E-01
       -1   -1    0    0    0  501  0.00000000000E+00  0.00000000000E+00  0.12372459703E+04  0.12372459703E+04  0.50400001928E-02 0.  1.
        1   -1    0    0  501    0  0.00000000000E+00  0.00000000000E+00 -0.89145926673E+03  0.89145926674E+03  0.50400001928E-02 0. -1.
    10030    2    1    2    0    0  0.00000000000E+00  0.00000000000E+00  0.34578670358E+03  0.21287052371E+04  0.21004327035E+04 0.  0.
        2    1    3    3  502    0  0.17347251118E+03 -0.96405009860E+03  0.55676489164E+03  0.11267086799E+04  0.25500000920E-02 0.  1.
       -2    1    3    3    0  502 -0.17347251118E+03  0.96405009860E+03 -0.21097818806E+03  0.10019965572E+04  0.25500000920E-02 0. -1.
</event>
<event>
 5   0  0.1492552E-05  0.2076412E+04  0.7818609E-02  0.8571706E-01
       -1   -1    0    0    0  501  0.00000000000E+00  0.00000000000E+00  0.82520990134E+03  0.82520990136E+03  0.50400001928E-02 0. -1.
        1   -1    0    0  501    0  0.00000000000E+00  0.00000000000E+00 -0.13061794024E+04  0.13061794024E+04  0.50400001928E-02 0.  1.
    10030    2    1    2    0    0  0.00000000000E+00  0.00000000000E+00 -0.48096950105E+03  0.21313893038E+04  0.20764124598E+04 0.  0.
        4    1    3    3  502    0  0.67478130573E+03 -0.26699481369E+03  0.52163854749E+03  0.89371384024E+03  0.12699999809E+01 0. -1.
       -4    1    3    3    0  502 -0.67478130573E+03  0.26699481369E+03 -0.10026080485E+04  0.12376754635E+04  0.12699999809E+01 0.  1.
</event>
<event>
 5   0  0.3279789E-05  0.2097737E+04  0.7818609E-02  0.8562241E-01
       -2   -1    0    0    0  501  0.00000000000E+00  0.00000000000E+00  0.11571359258E+04  0.11571359258E+04  0.25500000920E-02 0.  1.
        2   -1    0    0  501    0  0.00000000000E+00  0.00000000000E+00 -0.95073139954E+03  0.95073139954E+03  0.25500000920E-02 0. -1.
    10030    2    1    2    0    0  0.00000000000E+00  0.00000000000E+00  0.20640452625E+03  0.21078673253E+04  0.20977373126E+04 0.  0.
        2    1    3    3  502    0  0.10162543424E+04  0.14898260585E+03  0.31672961856E+03  0.10748424799E+04  0.25500000920E-02 0.  1.
       -2    1    3    3    0  502 -0.10162543424E+04 -0.14898260585E+03 -0.11032509231E+03  0.10330248454E+04  0.25500000920E-02 0. -1.
</event>
<event>
 5   0  0.3257130E-05  0.2093938E+04  0.7818609E-02  0.8563919E-01
       -2   -1    0    0    0  501  0.00000000000E+00  0.00000000000E+00  0.13914003589E+04  0.13914003589E+04  0.25500000920E-02 0.  1.
        2   -1    0    0  501    0  0.00000000000E+00  0.00000000000E+00 -0.78779884553E+03  0.78779884554E+03  0.25500000920E-02 0. -1.
    10030    2    1    2    0    0  0.00000000000E+00  0.00000000000E+00  0.60360151337E+03  0.21791992044E+04  0.20939375315E+04 0.  0.
        3    1    3    3  502    0 -0.23648197302E+03  0.36884803005E+03  0.12913980429E+04  0.13637014000E+04  0.10100000352E+00 0.  1.
       -3    1    3    3    0  502  0.23648197302E+03 -0.36884803005E+03 -0.68779652955E+03  0.81549780447E+03  0.10100000352E+00 0. -1.
</event>
<event>
 5   0  0.1513292E-05  0.1997992E+04  0.7818609E-02  0.8607560E-01
        1   -1    0    0  501    0  0.00000000000E+00  0.00000000000E+00  0.15844434722E+04  0.15844434722E+04  0.50400001928E-02 0.  1.
       -1   -1    0    0    0  501  0.00000000000E+00  0.00000000000E+00 -0.62986967263E+03  0.62986967265E+03  0.50400001928E-02 0. -1.
    10030    2    1    2    0    0  0.00000000000E+00  0.00000000000E+00  0.95457379953E+03  0.22143131448E+04  0.19979918830E+04 0.  0.
        1    1    3    3  502    0 -0.64002529788E+03 -0.22033394676E+03 -0.33698073642E+03  0.75613189773E+03  0.50400001928E-02 0. -1.
       -1    1    3    3    0  502  0.64002529788E+03  0.22033394676E+03  0.12915545359E+04  0.14581812471E+04  0.50400001928E-02 0.  1.
</event>
<event>
 5   0  0.3108326E-05  0.2098892E+04  0.7818609E-02  0.8561732E-01
       -2   -1    0    0    0  501  0.00000000000E+00  0.00000000000E+00  0.99534561923E+03  0.99534561923E+03  0.25500000920E-02 0.  1.
        2   -1    0    0  501    0  0.00000000000E+00  0.00000000000E+00 -0.11064867914E+04  0.11064867914E+04  0.25500000920E-02 0. -1.
    10030    2    1    2    0    0  0.00000000000E+00  0.00000000000E+00 -0.11114117214E+03  0.21018324106E+04  0.20988918796E+04 0.  0.
        5    1    3    3  502    0 -0.13082233647E+03 -0.97867246588E+03  0.30045586154E+03  0.10320901578E+04  0.46999998093E+01 0. -1.
       -5    1    3    3    0  502  0.13082233647E+03  0.97867246588E+03 -0.41159703369E+03  0.10697422528E+04  0.46999998093E+01 0.  1.
</event>
<event>
 5   0  0.1492552E-05  0.2103952E+04  0.7818609E-02  0.8559504E-01
       -1   -1    0    0    0  501  0.00000000000E+00  0.00000000000E+00  0.13252191869E+04  0.13252191869E+04  0.50400001928E-02 0.  1.
        1   -1    0    0  501    0  0.00000000000E+00  0.00000000000E+00 -0.83507204931E+03  0.83507204932E+03  0.50400001928E-02 0. -1.
    10030    2    1    2    0    0  0.00000000000E+00  0.00000000000E+00  0.49014713755E+03  0.21602912362E+04  0.21039519977E+04 0.  0.
        4    1    3    3  502    0 -0.84094748021E+03  0.60416988508E+03  0.54529568502E+02  0.10369132082E+04  0.12699999809E+01 0. -1.
       -4    1    3    3    0  502  0.84094748021E+03 -0.60416988508E+03  0.43561756905E+03  0.11233780280E+04  0.12699999809E+01 0.  1.
</event>
<event>
 5   0  0.1453430E-05  0.2109011E+04  0.7818609E-02  0.8557284E-01
       -1   -1    0    0    0  501  0.00000000000E+00  0.00000000000E+00  0.14520547902E+04  0.14520547902E+04  0.50400001928E-02 0.  1.
        1   -1    0    0  501    0  0.00000000000E+00  0.00000000000E+00 -0.76579865989E+03  0.76579865990E+03  0.50400001928E-02 0. -1.
    10030    2    1    2    0    0  0.00000000000E+00  0.00000000000E+00  0.68625613033E+03  0.22178534501E+04  0.21090107752E+04 0.  0.
        5    1    3    3  502    0 -0.68364365001E+03  0.33654143694E+03 -0.42341493097E+03  0.87174025532E+03  0.46999998093E+01 0. -1.
       -5    1    3    3    0  502  0.68364365001E+03 -0.33654143694E+03  0.11096710613E+04  0.13461131948E+04  0.46999998093E+01 0.  1.
</event>
<event>
 5   0  0.3279789E-05  0.2101566E+04  0.7818609E-02  0.8560554E-01
       -2   -1    0    0    0  501  0.00000000000E+00  0.00000000000E+00  0.93119881023E+03  0.93119881024E+03  0.25500000920E-02 0.  1.
        2   -1    0    0  501    0  0.00000000000E+00  0.00000000000E+00 -0.11857242979E+04  0.11857242979E+04  0.25500000920E-02 0. -1.
    10030    2    1    2    0    0  0.00000000000E+00  0.00000000000E+00 -0.25452548767E+03  0.21169231081E+04  0.21015661355E+04 0.  0.
        2    1    3    3  502    0  0.26958226745E+03 -0.10138482176E+04 -0.66973496117E+02  0.10512127550E+04  0.25500000920E-02 0.  1.
       -2    1    3    3    0  502 -0.26958226745E+03  0.10138482176E+04 -0.18755199155E+03  0.10657103531E+04  0.25500000920E-02 0. -1.
</event>
<event>
 5   0  0.1513292E-05  0.2099589E+04  0.7818609E-02  0.8561424E-01
       -1   -1    0    0    0  501  0.00000000000E+00  0.00000000000E+00  0.13313767345E+04  0.13313767345E+04  0.50400001928E-02 0. -1.
        1   -1    0    0  501    0  0.00000000000E+00  0.00000000000E+00 -0.82776632612E+03  0.82776632614E+03  0.50400001928E-02 0.  1.
    10030    2    1    2    0    0  0.00000000000E+00  0.00000000000E+00  0.50361040838E+03  0.21591430606E+04  0.20995893201E+04 0.  0.
        1    1    3    3  502    0  0.18205970009E+03 -0.29534616296E+03  0.12707134435E+04  0.13172272947E+04  0.50400001928E-02 0. -1.
       -1    1    3    3    0  502 -0.18205970009E+03  0.29534616296E+03 -0.76710303514E+03  0.84191576593E+03  0.50400001928E-02 0.  1.
</event>
<event>
 5   0  0.1435410E-05  0.2106282E+04  0.7818609E-02  0.8558481E-01
       -1   -1    0    0    0  501  0.00000000000E+00  0.00000000000E+00  0.66150724471E+03  0.66150724473E+03  0.50400001928E-02 0. -1.
        1   -1    0    0  501    0  0.00000000000E+00  0.00000000000E+00 -0.16766348528E+04  0.16766348528E+04  0.50400001928E-02 0.  1.
    10030    2    1    2    0    0  0.00000000000E+00  0.00000000000E+00 -0.10151276081E+04  0.23381420975E+04  0.21062821292E+04 0.  0.
        2    1    3    3  502    0  0.73632861572E+03 -0.48945579208E+03 -0.11426997600E+04  0.14448216306E+04  0.25500000920E-02 0. -1.
       -2    1    3    3    0  502 -0.73632861572E+03  0.48945579208E+03  0.12757215190E+03  0.89332046695E+03  0.25500000920E-02 0.  1.
</event>
<event>
 5   0  0.3108326E-05  0.2124806E+04  0.7818609E-02  0.8550394E-01
       -2   -1    0    0    0  501  0.00000000000E+00  0.00000000000E+00  0.65920763209E+03  0.65920763210E+03  0.25500000920E-02 0. -1.
        2   -1    0    0  501    0  0.00000000000E+00  0.00000000000E+00 -0.17122070219E+04  0.17122070219E+04  0.25500000920E-02 0.  1.
    10030    2    1    2    0    0  0.00000000000E+00  0.00000000000E+00 -0.10529993898E+04  0.23714146540E+04  0.21248058138E+04 0.  0.
        5    1    3    3  502    0  0.25680028303E+03  0.70244172099E+03 -0.13685955882E+04  0.15596303187E+04  0.46999998093E+01 0.  1.
       -5    1    3    3    0  502 -0.25680028303E+03 -0.70244172099E+03  0.31559619838E+03  0.81178433539E+03  0.46999998093E+01 0. -1.
</event>
<event>
 5   0  0.3242231E-05  0.2100943E+04  0.7818609E-02  0.8560828E-01
       -2   -1    0    0    0  501  0.00000000000E+00  0.00000000000E+00  0.92631748990E+03  0.92631748991E+03  0.25500000920E-02 0. -1.
        2   -1    0    0  501    0  0.00000000000E+00  0.00000000000E+00 -0.11912657921E+04  0.11912657921E+04  0.25500000920E-02 0.  1.
    10030    2    1    2    0    0  0.00000000000E+00  0.00000000000E+00 -0.26494830218E+03  0.21175832820E+04  0.21009429677E+04 0.  0.
        4    1    3    3  502    0 -0.70691974870E+03  0.29199056902E+03 -0.85824312413E+03  0.11495985806E+04  0.12699999809E+01 0.  1.
       -4    1    3    3    0  502  0.70691974870E+03 -0.29199056902E+03  0.59329482194E+03  0.96798470140E+03  0.12699999809E+01 0. -1.
</event>
<event>
 5   0  0.1435410E-05  0.2098852E+04  0.7818609E-02  0.8561749E-01
       -1   -1    0    0    0  501  0.00000000000E+00  0.00000000000E+00  0.59502224576E+03  0.59502224578E+03  0.50400001928E-02 0.  1.
        1   -1    0    0  501    0  0.00000000000E+00  0.00000000000E+00 -0.18508467179E+04  0.18508467179E+04  0.50400001928E-02 0. -1.
    10030    2    1    2    0    0  0.00000000000E+00  0.00000000000E+00 -0.12558244721E+04  0.24458689636E+04  0.20988520392E+04 0.  0.
        2    1    3    3  502    0 -0.45105683600E+03  0.39864253616E+02 -0.17311441214E+04  0.17893857597E+04  0.25500000920E-02 0. -1.
       -2    1    3    3    0  502  0.45105683600E+03 -0.39864253616E+02  0.47531964930E+03  0.65648320393E+03  0.25500000920E-02 0.  1.
</event>
<event>
 5   0  0.1466480E-05  0.2096865E+04  0.7818609E-02  0.8562625E-01
       -1   -1    0    0    0  501  0.00000000000E+00  0.00000000000E+00  0.61677306214E+03  0.61677306216E+03  0.50400001928E-02 0. -1.
        1   -1    0    0  501    0  0.00000000000E+00  0.00000000000E+00 -0.17821971118E+04  0.17821971118E+04  0.50400001928E-02 0.  1.
    10030    2    1    2    0    0  0.00000000000E+00  0.00000000000E+00 -0.11654240496E+04  0.23989701739E+04  0.20968654416E+04 0.  0.
        3    1    3    3  502    0 -0.42664314132E+03  0.90316227810E+03 -0.94717595101E+03  0.13765423215E+04  0.10100000352E+00 0. -1.
       -3    1    3    3    0  502  0.42664314132E+03 -0.90316227810E+03 -0.21824809864E+03  0.10224278524E+04  0.10100000352E+00 0.  1.
</event>
<event>
 5   0  0.1435410E-05  0.2133411E+04  0.7818609E-02  0.8546667E-01
        1   -1    0    0  501    0  0.00000000000E+00  0.00000000000E+00  0.64907706045E+03  0.64907706047E+03  0.50400001928E-02 0. -1.
       -1   -1    0    0    0  501  0.00000000000E+00  0.00000000000E+00 -0.17530441624E+04  0.17530441625E+04  0.50400001928E-02 0.  1.
    10030    2    1    2    0    0  0.00000000000E+00  0.00000000000E+00 -0.11039671020E+04  0.24021212229E+04  0.21334111201E+04 0.  0.
        2    1    3    3  502    0  0.63665004874E+03 -0.51285450351E+03  0.21953498063E+03  0.84648605071E+03  0.25500000920E-02 0. -1.
       -2    1    3    3    0  502 -0.63665004874E+03  0.51285450351E+03 -0.13235020826E+04  0.15556351722E+04  0.25500000920E-02 0.  1.
</event>
<event>
 5   0  0.3257130E-05  0.2059428E+04  0.7818609E-02  0.8579330E-01
        2   -1    0    0  501    0  0.00000000000E+00  0.00000000000E+00  0.10603989833E+04  0.10603989834E+04  0.25500000920E-02 0. -1.
       -2   -1    0    0    0  501  0.00000000000E+00  0.00000000000E+00 -0.99991647867E+03  0.99991647868E+03  0.25500000920E-02 0.  1.
    10030    2    1    2    0    0  0.00000000000E+00  0.00000000000E+00  0.60482504676E+02  0.20603154620E+04  0.20594275102E+04 0.  0.
        3    1    3    3  502    0  0.76253675011E+03 -0.69178922789E+03  0.46854921282E+02  0.10306454409E+04  0.10100000352E+00 0. -1.
       -3    1    3    3    0  502 -0.76253675011E+03  0.69178922789E+03  0.13627583394E+02  0.10296700211E+04  0.10100000352E+00 0.  1.
</event>
<event>
 5   0  0.1453430E-05  0.2101710E+04  0.7818609E-02  0.8560491E-01
        1   -1    0    0  501    0  0.00000000000E+00  0.00000000000E+00  0.18725051691E+04  0.18725051691E+04  0.50400001928E-02 0. -1.
       -1   -1    0    0    0  501  0.00000000000E+00  0.00000000000E+00 -0.58974260795E+03  0.58974260797E+03  0.50400001928E-02 0.  1.
    10030    2    1    2    0    0  0.00000000000E+00  0.00000000000E+00  0.12827625611E+04  0.24622477770E+04  0.21017098580E+04 0.  0.
        5    1    3    3  502    0  0.52993339708E+03  0.89563190625E+03  0.47044777931E+03  0.11420722919E+04  0.46999998093E+01 0.  1.
       -5    1    3    3    0  502 -0.52993339708E+03 -0.89563190625E+03  0.81231478180E+03  0.13201754851E+04  0.46999998093E+01 0. -1.
</event>
<event>
 5   0  0.1492552E-05  0.2094866E+04  0.7818609E-02  0.8563508E-01
        1   -1    0    0  501    0  0.00000000000E+00  0.00000000000E+00  0.23037563460E+04  0.23037563461E+04  0.50400001928E-02 0.  1.
       -1   -1    0    0    0  501  0.00000000000E+00  0.00000000000E+00 -0.47622924828E+03  0.47622924831E+03  0.50400001928E-02 0. -1.
    10030    2    1    2    0    0  0.00000000000E+00  0.00000000000E+00  0.18275270978E+04  0.27799855944E+04  0.20948662515E+04 0.  0.
        4    1    3    3  502    0  0.54170902708E+03 -0.38841156746E+03  0.19859667294E+04  0.20948455024E+04  0.12699999809E+01 0.  1.
       -4    1    3    3    0  502 -0.54170902708E+03  0.38841156746E+03 -0.15843963168E+03  0.68514009191E+03  0.12699999809E+01 0. -1.
</event>
<event>
 5   0  0.1466480E-05  0.2090614E+04  0.7818609E-02  0.8565389E-01
       -1   -1    0    0    0  501  0.00000000000E+00  0.00000000000E+00  0.85440474743E+03  0.85440474744E+03  0.50400001928E-02 0. -1.
        1   -1    0    0  501    0  0.00000000000E+00  0.00000000000E+00 -0.12788634475E+04  0.12788634476E+04  0.50400001928E-02 0.  1.
    10030    2    1    2    0    0  0.00000000000E+00  0.00000000000E+00 -0.42445870012E+03  0.21332681950E+04  0.20906142647E+04 0.  0.
        3    1    3    3  502    0 -0.10012774925E+04 -0.64959386345E+02 -0.51127982656E+03  0.11261364971E+04  0.10100000352E+00 0. -1.
       -3    1    3    3    0  502  0.10012774925E+04  0.64959386345E+02  0.86821126439E+02  0.10071316979E+04  0.10100000352E+00 0.  1.
</event>
<event>
 5   0  0.3130517E-05  0.2109526E+04  0.7818609E-02  0.8557059E-01
       -2   -1    0    0    0  501  0.00000000000E+00  0.00000000000E+00  0.78235202891E+03  0.78235202892E+03  0.25500000920E-02 0. -1.
        2   -1    0    0  501    0  0.00000000000E+00  0.00000000000E+00 -0.14220258787E+04  0.14220258787E+04  0.25500000920E-02 0.  1.
    10030    2    1    2    0    0  0.00000000000E+00  0.00000000000E+00 -0.63967384980E+03  0.22043779076E+04  0.21095258532E+04 0.  0.
        1    1    3    3  502    0  0.10362054656E+04 -0.19693759409E+03 -0.32434949177E+03  0.11034984258E+04  0.50400001928E-02 0.  1.
       -1    1    3    3    0  502 -0.10362054656E+04  0.19693759409E+03 -0.31532435803E+03  0.11008794819E+04  0.50400001928E-02 0. -1.
</event>
<event>
 5   0  0.1513292E-05  0.2065384E+04  0.7818609E-02  0.8576647E-01
       -1   -1    0    0    0  501  0.00000000000E+00  0.00000000000E+00  0.59892334748E+03  0.59892334750E+03  0.50400001928E-02 0.  1.
        1   -1    0    0  501    0  0.00000000000E+00  0.00000000000E+00 -0.17806160891E+04  0.17806160891E+04  0.50400001928E-02 0. -1.
    10030    2    1    2    0    0  0.00000000000E+00  0.00000000000E+00 -0.11816927416E+04  0.23795394366E+04  0.20653837887E+04 0.  0.
        1    1    3    3  502    0 -0.32294515757E+03 -0.97738685693E+03 -0.49532645522E+03  0.11423339880E+04  0.50400001928E-02 0. -1.
       -1    1    3    3    0  502  0.32294515757E+03  0.97738685693E+03 -0.68636628639E+03  0.12372054486E+04  0.50400001928E-02 0.  1.
</event>
<event>
 5   0  0.3257130E-05  0.2089341E+04  0.7818609E-02  0.8565953E-01
       -2   -1    0    0    0  501  0.00000000000E+00  0.00000000000E+00  0.82720033337E+03  0.82720033338E+03  0.25500000920E-02 0. -1.
        2   -1    0    0  501    0  0.00000000000E+00  0.00000000000E+00 -0.13193129921E+04  0.13193129921E+04  0.25500000920E-02 0.  1.
    10030    2    1    2    0    0  0.00000000000E+00  0.00000000000E+00 -0.49211265876E+03  0.21465133255E+04  0.20893407065E+04 0.  0.
        3    1    3    3  502    0  0.16725691823E+02 -0.79448585054E+03  0.45062114314E+03  0.91353540726E+03  0.10100000352E+00 0. -1.
       -3    1    3    3    0  502 -0.16725691823E+02  0.79448585054E+03 -0.94273380190E+03  0.12329779183E+04  0.10100000352E+00 0.  1.
</event>
<event>
 5   0  0.3257130E-05  0.2098172E+04  0.7818609E-02  0.8562049E-01
        2   -1    0    0  501    0  0.00000000000E+00  0.00000000000E+00  0.19290183914E+04  0.19290183914E+04  0.25500000920E-02 0.  1.
       -2   -1    0    0    0  501  0.00000000000E+00  0.00000000000E+00 -0.57053985134E+03  0.57053985135E+03  0.25500000920E-02 0. -1.
    10030    2    1    2    0    0  0.00000000000E+00  0.00000000000E+00  0.13584785401E+04  0.24995582428E+04  0.20981724107E+04 0.  0.
        3    1    3    3  502    0 -0.28069017890E+03  0.29151268428E+03  0.18322917150E+04  0.18764486565E+04  0.10100000352E+00 0.  1.
       -3    1    3    3    0  502  0.28069017890E+03 -0.29151268428E+03 -0.47381317487E+03  0.62310958627E+03  0.10100000352E+00 0. -1.
</event>
<event>
 5   0  0.3242231E-05  0.2108750E+04  0.7818609E-02  0.8557399E-01
       -2   -1    0    0    0  501  0.00000000000E+00  0.00000000000E+00  0.95403532693E+03  0.95403532693E+03  0.25500000920E-02 0.  1.
        2   -1    0    0  501    0  0.00000000000E+00  0.00000000000E+00 -0.11652681044E+04  0.11652681044E+04  0.25500000920E-02 0. -1.
    10030    2    1    2    0    0  0.00000000000E+00  0.00000000000E+00 -0.21123277744E+03  0.21193034313E+04  0.21087502810E+04 0.  0.
        4    1    3    3  502    0  0.68059667115E+03  0.56397196547E+03 -0.68332274107E+03  0.11172321997E+04  0.12699999809E+01 0. -1.
       -4    1    3    3    0  502 -0.68059667115E+03 -0.56397196547E+03  0.47208996363E+03  0.10020712316E+04  0.12699999809E+01 0.  1.
</event>
<event>
 5   0  0.1466480E-05  0.2109166E+04  0.7818609E-02  0.8557216E-01
       -1   -1    0    0    0  501  0.00000000000E+00  0.00000000000E+00  0.81740828810E+03  0.81740828812E+03  0.50400001928E-02 0.  1.
        1   -1    0    0  501    0  0.00000000000E+00  0.00000000000E+00 -0.13605753520E+04  0.13605753520E+04  0.50400001928E-02 0. -1.
    10030    2    1    2    0    0  0.00000000000E+00  0.00000000000E+00 -0.54316706391E+03  0.21779836401E+04  0.21091662517E+04 0.  0.
        3    1    3    3  502    0 -0.76616536164E+03  0.72448842669E+03 -0.25516775912E+03  0.10848978926E+04  0.10100000352E+00 0. -1.
       -3    1    3    3    0  502  0.76616536164E+03 -0.72448842669E+03 -0.28799930479E+03  0.10930857476E+04  0.10100000352E+00 0.  1.
</event>
<event>
 5   0  0.3242231E-05  0.2107044E+04  0.7818609E-02  0.8558147E-01
       -2   -1    0    0    0  501  0.00000000000E+00  0.00000000000E+00  0.76629965358E+03  0.76629965358E+03  0.25500000920E-02 0. -1.
        2   -1    0    0  501    0  0.00000000000E+00  0.00000000000E+00 -0.14484008216E+04  0.14484008216E+04  0.25500000920E-02 0.  1.
    10030    2    1    2    0    0  0.00000000000E+00  0.00000000000E+00 -0.68210116803E+03  0.22147004752E+04  0.21070444208E+04 0.  0.
        4    1    3    3  502    0  0.29914745210E+03  0.77186394222E+03  0.34389166027E+03  0.89639624626E+03  0.12699999809E+01 0. -1.
       -4    1    3    3    0  502 -0.29914745210E+03 -0.77186394222E+03 -0.10259928283E+04  0.13183042289E+04  0.12699999809E+01 0.  1.
</event>
<event>
 5   0  0.1453430E-05  0.2112165E+04  0.7818609E-02  0.8555903E-01
       -1   -1    0    0    0  501  0.00000000000E+00  0.00000000000E+00  0.11343287837E+04  0.11343287837E+04  0.50400001928E-02 0.  1.
        1   -1    0    0  501    0  0.00000000000E+00  0.00000000000E+00 -0.98323397668E+03  0.98323397669E+03  0.50400001928E-02 0. -1.
    10030    2    1    2    0    0  0.00000000000E+00  0.00000000000E+00  0.15109480700E+03  0.21175627604E+04  0.21121653353E+04 0.  0.
        5    1    3    3  502    0 -0.38245467246E+03 -0.34624426016E+03  0.99938566470E+03  0.11247001649E+04  0.46999998093E+01 0.  1.
       -5    1    3    3    0  502  0.38245467246E+03  0.34624426016E+03 -0.84829085770E+03  0.99286259545E+03  0.46999998093E+01 0. -1.
</event>
<event>
 5   0  0.3130517E-05  0.2069059E+04  0.7818609E-02  0.8574997E-01
        2   -1    0    0  501    0  0.00000000000E+00  0.00000000000E+00  0.13924820199E+04  0.13924820199E+04  0.25500000920E-02 0. -1.
       -2   -1    0    0    0  501  0.00000000000E+00  0.00000000000E+00 -0.76859269226E+03  0.76859269227E+03  0.25500000920E-02 0.  1.
    10030    2    1    2    0    0  0.00000000000E+00  0.00000000000E+00  0.62388932762E+03  0.21610747122E+04  0.20690592109E+04 0.  0.
        1    1    3    3  502    0  0.61590182551E+03  0.50114189200E+03  0.10045905622E+04  0.12805000790E+04  0.50400001928E-02 0. -1.
       -1    1    3    3    0  502 -0.61590182551E+03 -0.50114189200E+03 -0.38070123456E+03  0.88057463318E+03  0.50400001928E-02 0.  1.
</event>
<event>
 5   0  0.1435410E-05  0.2109211E+04  0.7818609E-02  0.8557197E-01
        1   -1    0    0  501    0  0.00000000000E+00  0.00000000000E+00  0.95023667238E+03  0.95023667239E+03  0.50400001928E-02 0. -1.
       -1   -1    0    0    0  501  0.00000000000E+00  0.00000000000E+00 -0.11704379137E+04  0.11704379137E+04  0.50400001928E-02 0.  1.
    10030    2    1    2    0    0  0.00000000000E+00  0.00000000000E+00 -0.22020124130E+03  0.21206745861E+04  0.21092112539E+04 0.  0.
        2    1    3    3  502    0  0.55125824761E+03  0.37222018165E+02  0.79306979146E+03  0.96655616926E+03  0.25500000920E-02 0. -1.
       -2    1    3    3    0  502 -0.55125824761E+03 -0.37222018165E+02 -0.10132710328E+04  0.11541184168E+04  0.25500000920E-02 0.  1.
</event>
<event>
 5   0  0.3108326E-05  0.2105151E+04  0.7818609E-02  0.8558978E-01
       -2   -1    0    0    0  501  0.00000000000E+00  0.00000000000E+00  0.81075550485E+03  0.81075550486E+03  0.25500000920E-02 0.  1.
        2   -1    0    0  501    0  0.00000000000E+00  0.00000000000E+00 -0.13665225090E+04  0.13665225090E+04  0.25500000920E-02 0. -1.
    10030    2    1    2    0    0  0.00000000000E+00  0.00000000000E+00 -0.55576700411E+03  0.21772780138E+04  0.21051514403E+04 0.  0.
        5    1    3    3  502    0 -0.11243288295E+02 -0.88724364666E+03 -0.86346746638E+03  0.12381138298E+04  0.46999998093E+01 0. -1.
       -5    1    3    3    0  502  0.11243288295E+02  0.88724364666E+03  0.30770046227E+03  0.93916418402E+03  0.46999998093E+01 0.  1.
</event>
<event>
 5   0  0.1466480E-05  0.2063313E+04  0.7818609E-02  0.8577579E-01
        1   -1    0    0  501    0  0.00000000000E+00  0.00000000000E+00  0.15523366735E+04  0.15523366735E+04  0.50400001928E-02 0. -1.
       -1   -1    0    0    0  501  0.00000000000E+00  0.00000000000E+00 -0.68562137965E+03  0.68562137966E+03  0.50400001928E-02 0.  1.
    10030    2    1    2    0    0  0.00000000000E+00  0.00000000000E+00  0.86671529388E+03  0.22379580532E+04  0.20633130754E+04 0.  0.
        3    1    3    3  502    0  0.20443662432E+03 -0.80584396313E+01  0.15301113534E+04  0.15437292625E+04  0.10100000352E+00 0. -1.
       -3    1    3    3    0  502 -0.20443662432E+03  0.80584396313E+01 -0.66339605955E+03  0.69422879070E+03  0.10100000352E+00 0.  1.
</event>
<event>
 5   0  0.1466480E-05  0.2020582E+04  0.7818609E-02  0.8597058E-01
        1   -1    0    0  501    0  0.00000000000E+00  0.00000000000E+00  0.10899187041E+04  0.10899187041E+04  0.50400001928E-02 0.  1.
       -1   -1    0    0    0  501  0.00000000000E+00  0.00000000000E+00 -0.93648041033E+03  0.93648041035E+03  0.50400001928E-02 0. -1.
    10030    2    1    2    0    0  0.00000000000E+00  0.00000000000E+00  0.15343829381E+03  0.20263991145E+04  0.20205816146E+04 0.  0.
        3    1    3    3  502    0 -0.35063223573E+03  0.31606966559E+03  0.97251226083E+03  0.10810287258E+04  0.10100000352E+00 0.  1.
       -3    1    3    3    0  502  0.35063223573E+03 -0.31606966559E+03 -0.81907396703E+03  0.94537038874E+03  0.10100000352E+00 0. -1.
</event>
<event>
 5   0  0.1129987E-05  0.2094361E+04  0.7818609E-02  0.8563732E-01
        3   -1    0    0  501    0  0.00000000000E+00  0.00000000000E+00  0.15396754215E+04  0.15396754248E+04  0.10100000352E+00 0.  1.
       -3   -1    0    0    0  501  0.00000000000E+00  0.00000000000E+00 -0.71221940352E+03  0.71221941068E+03  0.10100000352E+00 0. -1.
    10030    2    1    2    0    0  0.00000000000E+00  0.00000000000E+00  0.82745601801E+03  0.22518948355E+04  0.20943607351E+04 0.  0.
        3    1    3    3  502    0 -0.46446951262E+03 -0.10172175545E+02 -0.59534657329E+03  0.75516418999E+03  0.10100000352E+00 0. -1.
       -3    1    3    3    0  502  0.46446951262E+03  0.10172175545E+02  0.14228025913E+04  0.14967306455E+04  0.10100000352E+00 0.  1.
</event>
<event>
 5   0  0.1466480E-05  0.2097153E+04  0.7818609E-02  0.8562498E-01
        1   -1    0    0  501    0  0.00000000000E+00  0.00000000000E+00  0.11018465261E+04  0.11018465261E+04  0.50400001928E-02 0.  1.
       -1   -1    0    0    0  501  0.00000000000E+00  0.00000000000E+00 -0.99788217255E+03  0.99788217256E+03  0.50400001928E-02 0. -1.
    10030    2    1    2    0    0  0.00000000000E+00  0.00000000000E+00  0.10396435353E+03  0.20997286986E+04  0.20971533137E+04 0.  0.
        3    1    3    3  502    0 -0.76440794031E+03 -0.54226085578E+03 -0.41885765468E+03  0.10265515477E+04  0.10100000352E+00 0. -1.
       -3    1    3    3    0  502  0.76440794031E+03  0.54226085578E+03  0.52282200821E+03  0.10731771510E+04  0.10100000352E+00 0.  1.
</event>
<event>
 5   0  0.1435410E-05  0.2092913E+04  0.7818609E-02  0.8564371E-01
       -1   -1    0    0    0  501  0.00000000000E+00  0.00000000000E+00  0.97233248285E+03  0.97233248286E+03  0.50400001928E-02 0.  1.
        1   -1    0    0  501    0  0.00000000000E+00  0.00000000000E+00 -0.11262317505E+04  0.11262317505E+04  0.50400001928E-02 0. -1.
    10030    2    1    2    0    0  0.00000000000E+00  0.00000000000E+00 -0.15389926767E+03  0.20985642334E+04  0.20929134853E+04 0.  0.
        2    1    3    3  502    0  0.95454573767E+03 -0.42439715874E+02  0.35094957946E+03  0.10179019118E+04  0.25500000920E-02 0.  1.
       -2    1    3    3    0  502 -0.95454573767E+03  0.42439715874E+02 -0.50484884713E+03  0.10806623216E+04  0.25500000920E-02 0. -1.
</event>
<event>
 5   0  0.1453430E-05  0.2069872E+04  0.7818609E-02  0.8574632E-01
       -1   -1    0    0    0  501  0.00000000000E+00  0.00000000000E+00  0.10206121402E+04  0.10206121402E+04  0.50400001928E-02 0.  1.
        1   -1    0    0  501    0  0.00000000000E+00  0.00000000000E+00 -0.10494605596E+04  0.10494605596E+04  0.50400001928E-02 0. -1.
    10030    2    1    2    0    0  0.00000000000E+00  0.00000000000E+00 -0.28848419436E+02  0.20700726998E+04  0.20698716750E+04 0.  0.
        5    1    3    3  502    0  0.10773221825E+03 -0.35377431139E+03 -0.98111396924E+03  0.10485080853E+04  0.46999998093E+01 0. -1.
       -5    1    3    3    0  502 -0.10773221825E+03  0.35377431139E+03  0.95226554980E+03  0.10215646145E+04  0.46999998093E+01 0.  1.
</event>
<event>
 5   0  0.3108326E-05  0.2098966E+04  0.7818609E-02  0.8561699E-01
        2   -1    0    0  501    0  0.00000000000E+00  0.00000000000E+00  0.25548102510E+04  0.25548102510E+04  0.25500000920E-02 0.  1.
       -2   -1    0    0    0  501  0.00000000000E+00  0.00000000000E+00 -0.43111410980E+03  0.43111410981E+03  0.25500000920E-02 0. -1.
    10030    2    1    2    0    0  0.00000000000E+00  0.00000000000E+00  0.21236961412E+04  0.29859243608E+04  0.20989661713E+04 0.  0.
        5    1    3    3  502    0  0.69362624235E+03  0.14616334659E+03 -0.39069274190E+02  0.70995041105E+03  0.46999998093E+01 0. -1.
       -5    1    3    3    0  502 -0.69362624235E+03 -0.14616334659E+03  0.21627654154E+04  0.22759739497E+04  0.46999998093E+01 0.  1.
</event>
<event>
 5   0  0.1453430E-05  0.2097077E+04  0.7818609E-02  0.8562532E-01
        1   -1    0    0  501    0  0.00000000000E+00  0.00000000000E+00  0.79395827806E+03  0.79395827808E+03  0.50400001928E-02 0.  1.
       -1   -1    0    0    0  501  0.00000000000E+00  0.00000000000E+00 -0.13847488563E+04  0.13847488563E+04  0.50400001928E-02 0. -1.
    10030    2    1    2    0    0  0.00000000000E+00  0.00000000000E+00 -0.59079057826E+03  0.21787071344E+04  0.20970768394E+04 0.  0.
        5    1    3    3  502    0 -0.90611269755E+03 -0.45654834560E+03 -0.57013981838E+03  0.11638548514E+04  0.46999998093E+01 0. -1.
       -5    1    3    3    0  502  0.90611269755E+03  0.45654834560E+03 -0.20650759878E+02  0.10148522830E+04  0.46999998093E+01 0.  1.
</event>
<event>
 5   0  0.3130517E-05  0.2103583E+04  0.7818609E-02  0.8559667E-01
       -2   -1    0    0    0  501  0.00000000000E+00  0.00000000000E+00  0.50425622981E+03  0.50425622981E+03  0.25500000920E-02 0.  1.
        2   -1    0    0  501    0  0.00000000000E+00  0.00000000000E+00 -0.21938556100E+04  0.21938556101E+04  0.25500000920E-02 0. -1.
    10030    2    1    2    0    0  0.00000000000E+00  0.00000000000E+00 -0.16895993802E+04  0.26981118399E+04  0.21035829992E+04 0.  0.
        1    1    3    3  502    0  0.38711338653E+03 -0.89030089832E+03 -0.32573521274E+03  0.10240097131E+04  0.50400001928E-02 0.  1.
       -1    1    3    3    0  502 -0.38711338653E+03  0.89030089832E+03 -0.13638641675E+04  0.16741021268E+04  0.50400001928E-02 0. -1.
</event>
<event>
 5   0  0.1513292E-05  0.2101290E+04  0.7818609E-02  0.8560675E-01
        1   -1    0    0  501    0  0.00000000000E+00  0.00000000000E+00  0.11404357310E+04  0.11404357310E+04  0.50400001928E-02 0. -1.
       -1   -1    0    0    0  501  0.00000000000E+00  0.00000000000E+00 -0.96792366677E+03  0.96792366678E+03  0.50400001928E-02 0.  1.
    10030    2    1    2    0    0  0.00000000000E+00  0.00000000000E+00  0.17251206427E+03  0.21083593978E+04  0.21012898272E+04 0.  0.
        1    1    3    3  502    0  0.26903662966E+03  0.84406948397E+02 -0.92925060123E+03  0.97108800886E+03  0.50400001928E-02 0.  1.
       -1    1    3    3    0  502 -0.26903662966E+03 -0.84406948397E+02  0.11017626655E+04  0.11372713890E+04  0.50400001928E-02 0. -1.
</event>
<event>
 5   0  0.3242231E-05  0.2101224E+04  0.7818609E-02  0.8560705E-01
       -2   -1    0    0    0  501  0.00000000000E+00  0.00000000000E+00  0.38326479468E+03  0.38326479469E+03  0.25500000920E-02 0.  1.
        2   -1    0    0  501    0  0.00000000000E+00  0.00000000000E+00 -0.28799546388E+04  0.28799546388E+04  0.25500000920E-02 0. -1.
    10030    2    1    2    0    0  0.00000000000E+00  0.00000000000E+00 -0.24966898441E+04  0.32632194335E+04  0.21012236657E+04 0.  0.
        4    1    3    3  502    0  0.36116547439E+03  0.64388470253E+03 -0.87471309023E+02  0.74342508220E+03  0.12699999809E+01 0.  1.
       -4    1    3    3    0  502 -0.36116547439E+03 -0.64388470253E+03 -0.24092185351E+04  0.25197943513E+04  0.12699999809E+01 0. -1.
</event>
<event>
 5   0  0.3257130E-05  0.2096342E+04  0.7818609E-02  0.8562856E-01
        2   -1    0    0  501    0  0.00000000000E+00  0.00000000000E+00  0.10132834087E+04  0.10132834087E+04  0.25500000920E-02 0.  1.
       -2   -1    0    0    0  501  0.00000000000E+00  0.00000000000E+00 -0.10842602730E+04  0.10842602730E+04  0.25500000920E-02 0. -1.
    10030    2    1    2    0    0  0.00000000000E+00  0.00000000000E+00 -0.70976864274E+02  0.20975436816E+04  0.20963424771E+04 0.  0.
        3    1    3    3  502    0  0.11180800108E+02 -0.29437864313E+03  0.97100999573E+03  0.10147138601E+04  0.10100000352E+00 0.  1.
       -3    1    3    3    0  502 -0.11180800108E+02  0.29437864313E+03 -0.10419868600E+04  0.10828298216E+04  0.10100000352E+00 0. -1.
</event>
<event>
 5   0  0.1466480E-05  0.2101796E+04  0.7818609E-02  0.8560452E-01
        1   -1    0    0  501    0  0.00000000000E+00  0.00000000000E+00  0.11320495087E+04  0.11320495087E+04  0.50400001928E-02 0.  1.
       -1   -1    0    0    0  501  0.00000000000E+00  0.00000000000E+00 -0.97556418550E+03  0.97556418551E+03  0.50400001928E-02 0. -1.
    10030    2    1    2    0    0  0.00000000000E+00  0.00000000000E+00  0.15648532322E+03  0.21076136942E+04  0.21017963336E+04 0.  0.
        3    1    3    3  502    0 -0.43006572851E+03 -0.15337455005E+03  0.10273859148E+04  0.11242784849E+04  0.10100000352E+00 0.  1.
       -3    1    3    3    0  502  0.43006572851E+03  0.15337455005E+03 -0.87090059156E+03  0.98333520938E+03  0.10100000352E+00 0. -1.
</event>
<event>
 5   0  0.1453430E-05  0.2101606E+04  0.7818609E-02  0.8560536E-01
       -1   -1    0    0    0  501  0.00000000000E+00  0.00000000000E+00  0.82723478622E+03  0.82723478623E+03  0.50400001928E-02 0. -1.
        1   -1    0    0  501    0  0.00000000000E+00  0.00000000000E+00 -0.13347922910E+04  0.13347922910E+04  0.50400001928E-02 0.  1.
    10030    2    1    2    0    0  0.00000000000E+00  0.00000000000E+00 -0.50755750481E+03  0.21620270773E+04  0.21016056866E+04 0.  0.
        5    1    3    3  502    0 -0.54219167861E+03 -0.60580035654E+03 -0.93865026500E+03  0.12417939838E+04  0.46999998093E+01 0.  1.
       -5    1    3    3    0  502  0.54219167861E+03  0.60580035654E+03  0.43109276019E+03  0.92023309342E+03  0.46999998093E+01 0. -1.
</event>
<event>
 5   0  0.1129987E-05  0.2091527E+04  0.7818609E-02  0.8564985E-01
        3   -1    0    0  501    0  0.00000000000E+00  0.00000000000E+00  0.12404099568E+04  0.12404099609E+04  0.10100000352E+00 0.  1.
       -3   -1    0    0    0  501  0.00000000000E+00  0.00000000000E+00 -0.88166125885E+03  0.88166126463E+03  0.10100000352E+00 0. -1.
    10030    2    1    2    0    0  0.00000000000E+00  0.00000000000E+00  0.35874869795E+03  0.21220712255E+04  0.20915271115E+04 0.  0.
        5    1    3    3  502    0 -0.20339902404E+03  0.10199754072E+04  0.68794967750E+02  0.10423415140E+04  0.46999998093E+01 0.  1.
       -5    1    3    3    0  502  0.20339902404E+03 -0.10199754072E+04  0.28995373020E+03  0.10797297115E+04  0.46999998093E+01 0. -1.
</event>
<event>
 5   0  0.1492552E-05  0.2094538E+04  0.7818609E-02  0.8563653E-01
       -1   -1    0    0    0  501  0.00000000000E+00  0.00000000000E+00  0.11797252356E+04  0.11797252356E+04  0.50400001928E-02 0.  1.
        1   -1    0    0  501    0  0.00000000000E+00  0.00000000000E+00 -0.92968428839E+03  0.92968428840E+03  0.50400001928E-02 0. -1.
    10030    2    1    2    0    0  0.00000000000E+00  0.00000000000E+00  0.25004094717E+03  0.21094095240E+04  0.20945376732E+04 0.  0.
        4    1    3    3  502    0  0.71281514720E+03 -0.57500416294E+03 -0.38655791341E+03  0.99406431120E+03  0.12699999809E+01 0. -1.
       -4    1    3    3    0  502 -0.71281514720E+03  0.57500416294E+03  0.63659886058E+03  0.11153452128E+04  0.12699999809E+01 0.  1.
</event>
<event>
 5   0  0.3108326E-05  0.2096340E+04  0.7818609E-02  0.8562857E-01
       -2   -1    0    0    0  501  0.00000000000E+00  0.00000000000E+00  0.75015253389E+03  0.75015253389E+03  0.25500000920E-02 0. -1.
        2   -1    0    0  501    0  0.00000000000E+00  0.00000000000E+00 -0.14645824647E+04  0.14645824647E+04  0.25500000920E-02 0.  1.
    10030    2    1    2    0    0  0.00000000000E+00  0.00000000000E+00 -0.71442993078E+03  0.22147349986E+04  0.20963399027E+04 0.  0.
        5    1    3    3  502    0 -0.23188521895E+03  0.10033222372E+04 -0.15069629024E+03  0.10407486384E+04  0.46999998093E+01 0.  1.
       -5    1    3    3    0  502  0.23188521895E+03 -0.10033222372E+04 -0.56373364054E+03  0.11739863602E+04  0.46999998093E+01 0. -1.
</event>
<event>
 5   0  0.3279789E-05  0.2104273E+04  0.7818609E-02  0.8559363E-01
       -2   -1    0    0    0  501  0.00000000000E+00  0.00000000000E+00  0.55203394578E+03  0.55203394579E+03  0.25500000920E-02 0.  1.
        2   -1    0    0  501    0  0.00000000000E+00  0.00000000000E+00 -0.20052963780E+04  0.20052963780E+04  0.25500000920E-02 0. -1.
    10030    2    1    2    0    0  0.00000000000E+00  0.00000000000E+00 -0.14532624322E+04  0.25573303238E+04  0.21042734347E+04 0.  0.
        2    1    3    3  502    0 -0.59077642935E+03 -0.84610552490E+03 -0.97593231315E+03  0.14203363083E+04  0.25500000920E-02 0. -1.
       -2    1    3    3    0  502  0.59077642935E+03  0.84610552490E+03 -0.47733011907E+03  0.11369940155E+04  0.25500000920E-02 0.  1.
</event>
<event>
 5   0  0.3257130E-05  0.2131449E+04  0.7818609E-02  0.8547515E-01
       -2   -1    0    0    0  501  0.00000000000E+00  0.00000000000E+00  0.55938409162E+03  0.55938409163E+03  0.25500000920E-02 0. -1.
        2   -1    0    0  501    0  0.00000000000E+00  0.00000000000E+00 -0.20303913945E+04  0.20303913945E+04  0.25500000920E-02 0.  1.
    10030    2    1    2    0    0  0.00000000000E+00  0.00000000000E+00 -0.14710073029E+04  0.25897754862E+04  0.21314489399E+04 0.  0.
        3    1    3    3  502    0 -0.48806445153E+03 -0.51834462371E+03  0.22803973205E+03  0.74758958485E+03  0.10100000352E+00 0. -1.
       -3    1    3    3    0  502  0.48806445153E+03  0.51834462371E+03 -0.16990470350E+04  0.18421859013E+04  0.10100000352E+00 0.  1.
</event>
<event>
 5   0  0.3279789E-05  0.2092481E+04  0.7818609E-02  0.8564563E-01
       -2   -1    0    0    0  501  0.00000000000E+00  0.00000000000E+00  0.98352074913E+03  0.98352074913E+03  0.25500000920E-02 0.  1.
        2   -1    0    0  501    0  0.00000000000E+00  0.00000000000E+00 -0.11129600342E+04  0.11129600342E+04  0.25500000920E-02 0. -1.
    10030    2    1    2    0    0  0.00000000000E+00  0.00000000000E+00 -0.12943928511E+03  0.20964807834E+04  0.20924810982E+04 0.  0.
        2    1    3    3  502    0 -0.52846513136E+03 -0.52279324170E+03  0.67291525049E+03  0.10026979121E+04  0.25500000920E-02 0.  1.
       -2    1    3    3    0  502  0.52846513136E+03  0.52279324170E+03 -0.80235453560E+03  0.10937828712E+04  0.25500000920E-02 0. -1.
</event>
<event>
 5   0  0.3257130E-05  0.2098975E+04  0.7818609E-02  0.8561695E-01
        2   -1    0    0  501    0  0.00000000000E+00  0.00000000000E+00  0.16620896931E+04  0.16620896931E+04  0.25500000920E-02 0. -1.
       -2   -1    0    0    0  501  0.00000000000E+00  0.00000000000E+00 -0.66267430228E+03  0.66267430228E+03  0.25500000920E-02 0.  1.
    10030    2    1    2    0    0  0.00000000000E+00  0.00000000000E+00  0.99941539083E+03  0.23247639954E+04  0.20989751096E+04 0.  0.
        3    1    3    3  502    0  0.64879482426E+03  0.33134478252E+03  0.13364187935E+04  0.15220838645E+04  0.10100000352E+00 0. -1.
       -3    1    3    3    0  502 -0.64879482426E+03 -0.33134478252E+03 -0.33700340265E+03  0.80268013087E+03  0.10100000352E+00 0.  1.
</event>
<event>
 5   0  0.3108326E-05  0.2094338E+04  0.7818609E-02  0.8563741E-01
       -2   -1    0    0    0  501  0.00000000000E+00  0.00000000000E+00  0.88712012160E+03  0.88712012160E+03  0.25500000920E-02 0. -1.
        2   -1    0    0  501    0  0.00000000000E+00  0.00000000000E+00 -0.12360934600E+04  0.12360934600E+04  0.25500000920E-02 0.  1.
    10030    2    1    2    0    0  0.00000000000E+00  0.00000000000E+00 -0.34897333844E+03  0.21232135816E+04  0.20943384450E+04 0.  0.
        5    1    3    3  502    0 -0.95898851277E+03 -0.16122890618E+03  0.21931136186E+03  0.99688178399E+03  0.46999998093E+01 0. -1.
       -5    1    3    3    0  502  0.95898851277E+03  0.16122890618E+03 -0.56828470029E+03  0.11263317977E+04  0.46999998093E+01 0.  1.
</event>
<event>
 5   0  0.3242231E-05  0.2109022E+04  0.7818609E-02  0.8557279E-01
       -2   -1    0    0    0  501  0.00000000000E+00  0.00000000000E+00  0.95855248770E+03  0.95855248770E+03  0.25500000920E-02 0.  1.
        2   -1    0    0  501    0  0.00000000000E+00  0.00000000000E+00 -0.11600762040E+04  0.11600762040E+04  0.25500000920E-02 0. -1.
    10030    2    1    2    0    0  0.00000000000E+00  0.00000000000E+00 -0.20152371629E+03  0.21186286917E+04  0.21090224572E+04 0.  0.
        4    1    3    3  502    0 -0.74710091959E+03 -0.45319652031E+03 -0.69374321995E+03  0.11157186644E+04  0.12699999809E+01 0. -1.
       -4    1    3    3    0  502  0.74710091959E+03  0.45319652031E+03  0.49221950366E+03  0.10029100272E+04  0.12699999809E+01 0.  1.
</event>
<event>
 5   0  0.3242231E-05  0.2099979E+04  0.7818609E-02  0.8561253E-01
        2   -1    0    0  501    0  0.00000000000E+00  0.00000000000E+00  0.12734238416E+04  0.12734238416E+04  0.25500000920E-02 0. -1.
       -2   -1    0    0    0  501  0.00000000000E+00  0.00000000000E+00 -0.86575888192E+03  0.86575888193E+03  0.25500000920E-02 0.  1.
    10030    2    1    2    0    0  0.00000000000E+00  0.00000000000E+00  0.40766495964E+03  0.21391827235E+04  0.20999790487E+04 0.  0.
        4    1    3    3  502    0  0.10454039835E+03  0.66827254976E+03  0.10219188182E+04  0.12254944225E+04  0.12699999809E+01 0. -1.
       -4    1    3    3    0  502 -0.10454039835E+03 -0.66827254976E+03 -0.61425385859E+03  0.91368830098E+03  0.12699999809E+01 0.  1.
</event>
<event>
 5   0  0.1513292E-05  0.2101836E+04  0.7818609E-02  0.8560435E-01
        1   -1    0    0  501    0  0.00000000000E+00  0.00000000000E+00  0.11199188195E+04  0.11199188195E+04  0.50400001928E-02 0.  1.
       -1   -1    0    0    0  501  0.00000000000E+00  0.00000000000E+00 -0.98616826848E+03  0.98616826849E+03  0.50400001928E-02 0. -1.
    10030    2    1    2    0    0  0.00000000000E+00  0.00000000000E+00  0.13375055104E+03  0.21060870880E+04  0.21018357720E+04 0.  0.
        1    1    3    3  502    0 -0.13637793937E+03  0.20280695096E+03 -0.95729718709E+03  0.98800177436E+03  0.50400001928E-02 0. -1.
       -1    1    3    3    0  502  0.13637793937E+03 -0.20280695096E+03  0.10910477381E+04  0.11180853137E+04  0.50400001928E-02 0.  1.
</event>
<event>
 5   0  0.3279789E-05  0.2109516E+04  0.7818609E-02  0.8557063E-01
        2   -1    0    0  501    0  0.00000000000E+00  0.00000000000E+00  0.15561336830E+04  0.15561336830E+04  0.25500000920E-02 0. -1.
       -2   -1    0    0    0  501  0.00000000000E+00  0.00000000000E+00 -0.71492185041E+03  0.71492185041E+03  0.25500000920E-02 0.  1.
    10030    2    1    2    0    0  0.00000000000E+00  0.00000000000E+00  0.84121183256E+03  0.22710555334E+04  0.21095155578E+04 0.  0.
        2    1    3    3  502    0  0.23895270797E+03  0.76309578870E+03  0.11611001408E+04  0.14098110215E+04  0.25500000920E-02 0. -1.
       -2    1    3    3    0  502 -0.23895270797E+03 -0.76309578870E+03 -0.31988830829E+03  0.86124451184E+03  0.25500000920E-02 0.  1.
</event>
<event>
 5   0  0.1453430E-05  0.2099408E+04  0.7818609E-02  0.8561504E-01
       -1   -1    0    0    0  501  0.00000000000E+00  0.00000000000E+00  0.48728209634E+03  0.48728209637E+03  0.50400001928E-02 0. -1.
        1   -1    0    0  501    0  0.00000000000E+00  0.00000000000E+00 -0.22612734501E+04  0.22612734501E+04  0.50400001928E-02 0.  1.
    10030    2    1    2    0    0  0.00000000000E+00  0.00000000000E+00 -0.17739913538E+04  0.27485555465E+04  0.20994075995E+04 0.  0.
        5    1    3    3  502    0  0.78065999382E+03  0.13190919595E+03 -0.17893277717E+04  0.19566670710E+04  0.46999998093E+01 0.  1.
       -5    1    3    3    0  502 -0.78065999382E+03 -0.13190919595E+03  0.15336417967E+02  0.79188847551E+03  0.46999998093E+01 0. -1.
</event>
<event>
 5   0  0.1492552E-05  0.2096499E+04  0.7818609E-02  0.8562787E-01
       -1   -1    0    0    0  501  0.00000000000E+00  0.00000000000E+00  0.91572399118E+03  0.91572399119E+03  0.50400001928E-02 0. -1.
        1   -1    0    0  501    0  0.00000000000E+00  0.00000000000E+00 -0.11999547647E+04  0.11999547647E+04  0.50400001928E-02 0.  1.
    10030    2    1    2    0    0  0.00000000000E+00  0.00000000000E+00 -0.28423077356E+03  0.21156787559E+04  0.20964993360E+04 0.  0.
        4    1    3    3  502    0 -0.20992499955E+03 -0.90993628633E+03 -0.62267897648E+03  0.11224006732E+04  0.12699999809E+01 0.  1.
       -4    1    3    3    0  502  0.20992499955E+03  0.90993628633E+03  0.33844820293E+03  0.99327808270E+03  0.12699999809E+01 0. -1.
</event>
<event>
 5   0  0.1453430E-05  0.2100286E+04  0.7818609E-02  0.8561117E-01
       -1   -1    0    0    0  501  0.00000000000E+00  0.00000000000E+00  0.12895965600E+04  0.12895965600E+04  0.50400001928E-02 0.  1.
        1   -1    0    0  501    0  0.00000000000E+00  0.00000000000E+00 -0.85515146384E+03  0.85515146385E+03  0.50400001928E-02 0. -1.
    10030    2    1    2    0    0  0.00000000000E+00  0.00000000000E+00  0.43444509617E+03  0.21447480239E+04  0.21002860625E+04 0.  0.
        5    1    3    3  502    0 -0.30653008686E+03  0.11670122654E+03 -0.80149237020E+03  0.86602077337E+03  0.46999998093E+01 0. -1.
       -5    1    3    3    0  502  0.30653008686E+03 -0.11670122654E+03  0.12359374664E+04  0.12787272505E+04  0.46999998093E+01 0.  1.
</event>
<event>
 5   0  0.3130517E-05  0.2104646E+04  0.7818609E-02  0.8559199E-01
       -2   -1    0    0    0  501  0.00000000000E+00  0.00000000000E+00  0.49841525860E+03  0.49841525860E+03  0.25500000920E-02 0.  1.
        2   -1    0    0  501    0  0.00000000000E+00  0.00000000000E+00 -0.22218097177E+04  0.22218097177E+04  0.25500000920E-02 0. -1.
    10030    2    1    2    0    0  0.00000000000E+00  0.00000000000E+00 -0.17233944591E+04  0.27202249763E+04  0.21046461603E+04 0.  0.
        1    1    3    3  502    0  0.11139308255E+03 -0.15868010661E+03 -0.21985273788E+04  0.22070592267E+04  0.50400001928E-02 0. -1.
       -1    1    3    3    0  502 -0.11139308255E+03  0.15868010661E+03  0.47513291971E+03  0.51316574953E+03  0.50400001928E-02 0.  1.
</event>
<event>
 5   0  0.3257130E-05  0.2106131E+04  0.7818609E-02  0.8558547E-01
        2   -1    0    0  501    0  0.00000000000E+00  0.00000000000E+00  0.89958517100E+03  0.89958517100E+03  0.25500000920E-02 0. -1.
       -2   -1    0    0    0  501  0.00000000000E+00  0.00000000000E+00 -0.12327313801E+04  0.12327313801E+04  0.25500000920E-02 0.  1.
    10030    2    1    2    0    0  0.00000000000E+00  0.00000000000E+00 -0.33314620909E+03  0.21323165511E+04  0.21061309260E+04 0.  0.
        3    1    3    3  502    0 -0.54970391383E+03  0.46562202893E+03 -0.94421698502E+03  0.11876548285E+04  0.10100000352E+00 0.  1.
       -3    1    3    3    0  502  0.54970391383E+03 -0.46562202893E+03  0.61107077593E+03  0.94466172258E+03  0.10100000352E+00 0. -1.
</event>
<event>
 5   0  0.3108326E-05  0.2100934E+04  0.7818609E-02  0.8560832E-01
       -2   -1    0    0    0  501  0.00000000000E+00  0.00000000000E+00  0.71941067158E+03  0.71941067159E+03  0.25500000920E-02 0.  1.
        2   -1    0    0  501    0  0.00000000000E+00  0.00000000000E+00 -0.15338679872E+04  0.15338679872E+04  0.25500000920E-02 0. -1.
    10030    2    1    2    0    0  0.00000000000E+00  0.00000000000E+00 -0.81445731565E+03  0.22532786588E+04  0.21009340769E+04 0.  0.
        5    1    3    3  502    0  0.47873383938E+02 -0.86798811967E+03  0.22524812016E+03  0.89802786283E+03  0.46999998093E+01 0.  1.
       -5    1    3    3    0  502 -0.47873383938E+02  0.86798811967E+03 -0.10397054358E+04  0.13552507960E+04  0.46999998093E+01 0. -1.
</event>
<event>
 5   0  0.1453430E-05  0.2221174E+04  0.7818609E-02  0.8509666E-01
       -1   -1    0    0    0  501  0.00000000000E+00  0.00000000000E+00  0.11550837029E+04  0.11550837029E+04  0.50400001928E-02 0. -1.
        1   -1    0    0  501    0  0.00000000000E+00  0.00000000000E+00 -0.10678041598E+04  0.10678041598E+04  0.50400001928E-02 0.  1.
    10030    2    1    2    0    0  0.00000000000E+00  0.00000000000E+00  0.87279543124E+02  0.22228878627E+04  0.22211737284E+04 0.  0.
        5    1    3    3  502    0  0.45923497390E+03  0.33849072442E+03  0.99721735743E+03  0.11488852335E+04  0.46999998093E+01 0. -1.
       -5    1    3    3    0  502 -0.45923497390E+03 -0.33849072442E+03 -0.90993781430E+03  0.10740026293E+04  0.46999998093E+01 0.  1.
</event>
<event>
 5   0  0.3257130E-05  0.2101505E+04  0.7818609E-02  0.8560581E-01
        2   -1    0    0  501    0  0.00000000000E+00  0.00000000000E+00  0.22037631312E+04  0.22037631312E+04  0.25500000920E-02 0.  1.
       -2   -1    0    0    0  501  0.00000000000E+00  0.00000000000E+00 -0.50099808389E+03  0.50099808390E+03  0.25500000920E-02 0. -1.
    10030    2    1    2    0    0  0.00000000000E+00  0.00000000000E+00  0.17027650473E+04  0.27047612151E+04  0.21015052758E+04 0.  0.
        3    1    3    3  502    0 -0.50487735650E+03 -0.39444558620E+03  0.19232736622E+04  0.20271827878E+04  0.10100000352E+00 0.  1.
       -3    1    3    3    0  502  0.50487735650E+03  0.39444558620E+03 -0.22050861489E+03  0.67757842721E+03  0.10100000352E+00 0. -1.
</event>
<event>
 5   0  0.3242231E-05  0.2080690E+04  0.7818609E-02  0.8569798E-01
       -2   -1    0    0    0  501  0.00000000000E+00  0.00000000000E+00  0.82011359699E+03  0.82011359699E+03  0.25500000920E-02 0.  1.
        2   -1    0    0  501    0  0.00000000000E+00  0.00000000000E+00 -0.13197167967E+04  0.13197167967E+04  0.25500000920E-02 0. -1.
    10030    2    1    2    0    0  0.00000000000E+00  0.00000000000E+00 -0.49960319971E+03  0.21398303937E+04  0.20806899713E+04 0.  0.
        4    1    3    3  502    0 -0.82186042717E+03  0.61634295650E+03 -0.41873521831E+03  0.11093574707E+04  0.12699999809E+01 0. -1.
       -4    1    3    3    0  502  0.82186042717E+03 -0.61634295650E+03 -0.80867981399E+02  0.10304729230E+04  0.12699999809E+01 0.  1.
</event>
<event>
 5   0  0.3108326E-05  0.2102858E+04  0.7818609E-02  0.8559986E-01
        2   -1    0    0  501    0  0.00000000000E+00  0.00000000000E+00  0.64562057483E+03  0.64562057483E+03  0.25500000920E-02 0. -1.
       -2   -1    0    0    0  501  0.00000000000E+00  0.00000000000E+00 -0.17123098135E+04  0.17123098135E+04  0.25500000920E-02 0.  1.
    10030    2    1    2    0    0  0.00000000000E+00  0.00000000000E+00 -0.10666892387E+04  0.23579303883E+04  0.21028575283E+04 0.  0.
        5    1    3    3  502    0  0.18146934184E+03 -0.79788834556E+03  0.20698688697E+03  0.84405129902E+03  0.46999998093E+01 0. -1.
       -5    1    3    3    0  502 -0.18146934184E+03  0.79788834556E+03 -0.12736761256E+04  0.15138790893E+04  0.46999998093E+01 0.  1.
</event>
<event>
 5   0  0.1453430E-05  0.2103211E+04  0.7818609E-02  0.8559830E-01
       -1   -1    0    0    0  501  0.00000000000E+00  0.00000000000E+00  0.79053293056E+03  0.79053293057E+03  0.50400001928E-02 0. -1.
        1   -1    0    0  501    0  0.00000000000E+00  0.00000000000E+00 -0.13988975299E+04  0.13988975299E+04  0.50400001928E-02 0.  1.
    10030    2    1    2    0    0  0.00000000000E+00  0.00000000000E+00 -0.60836459932E+03  0.21894304605E+04  0.21032114148E+04 0.  0.
        5    1    3    3  502    0 -0.68177759266E+03  0.27246310478E+03 -0.10879032888E+04  0.13124833275E+04  0.46999998093E+01 0.  1.
       -5    1    3    3    0  502  0.68177759266E+03 -0.27246310478E+03  0.47953868943E+03  0.87694713295E+03  0.46999998093E+01 0. -1.
</event>
<event>
 5   0  0.3257130E-05  0.2098796E+04  0.7818609E-02  0.8561774E-01
        2   -1    0    0  501    0  0.00000000000E+00  0.00000000000E+00  0.18785564115E+04  0.18785564115E+04  0.25500000920E-02 0.  1.
       -2   -1    0    0    0  501  0.00000000000E+00  0.00000000000E+00 -0.58621418321E+03  0.58621418322E+03  0.25500000920E-02 0. -1.
    10030    2    1    2    0    0  0.00000000000E+00  0.00000000000E+00  0.12923422282E+04  0.24647705947E+04  0.20987962382E+04 0.  0.
        3    1    3    3  502    0  0.45938822717E+01  0.79026734819E+03  0.14569931271E+04  0.16575200053E+04  0.10100000352E+00 0.  1.
       -3    1    3    3    0  502 -0.45938822717E+01 -0.79026734819E+03 -0.16465089884E+03  0.80725058939E+03  0.10100000352E+00 0. -1.
</event>
<event>
 5   0  0.3130517E-05  0.2107369E+04  0.7818609E-02  0.8558004E-01
        2   -1    0    0  501    0  0.00000000000E+00  0.00000000000E+00  0.13139780086E+04  0.13139780086E+04  0.25500000920E-02 0. -1.
       -2   -1    0    0    0  501  0.00000000000E+00  0.00000000000E+00 -0.84495374950E+03  0.84495374951E+03  0.25500000920E-02 0.  1.
    10030    2    1    2    0    0  0.00000000000E+00  0.00000000000E+00  0.46902425910E+03  0.21589317581E+04  0.21073686390E+04 0.  0.
        1    1    3    3  502    0 -0.58055731130E+03  0.13450248510E+03 -0.65572223952E+03  0.88606397378E+03  0.50400001928E-02 0.  1.
       -1    1    3    3    0  502  0.58055731130E+03 -0.13450248510E+03  0.11247464986E+04  0.12728677843E+04  0.50400001928E-02 0. -1.
</event>
<event>
 5   0  0.3242231E-05  0.2098612E+04  0.7818609E-02  0.8561855E-01
        2   -1    0    0  501    0  0.00000000000E+00  0.00000000000E+00  0.13420570152E+04  0.13420570152E+04  0.25500000920E-02 0. -1.
       -2   -1    0    0    0  501  0.00000000000E+00  0.00000000000E+00 -0.82041438496E+03  0.82041438496E+03  0.25500000920E-02 0.  1.
    10030    2    1    2    0    0  0.00000000000E+00  0.00000000000E+00  0.52164263019E+03  0.21624714001E+04  0.20986118085E+04 0.  0.
        4    1    3    3  502    0  0.48355552988E+03  0.22485147673E+03 -0.67036833315E+03  0.85660927619E+03  0.12699999809E+01 0.  1.
       -4    1    3    3    0  502 -0.48355552988E+03 -0.22485147673E+03  0.11920109633E+04  0.13058621239E+04  0.12699999809E+01 0. -1.
</event>
<event>
 5   0  0.3130517E-05  0.2097952E+04  0.7818609E-02  0.8562146E-01
        2   -1    0    0  501    0  0.00000000000E+00  0.00000000000E+00  0.16600201048E+04  0.16600201048E+04  0.25500000920E-02 0. -1.
       -2   -1    0    0    0  501  0.00000000000E+00  0.00000000000E+00 -0.66285376343E+03  0.66285376344E+03  0.25500000920E-02 0.  1.
    10030    2    1    2    0    0  0.00000000000E+00  0.00000000000E+00  0.99716634136E+03  0.23228738682E+04  0.20979519288E+04 0.  0.
        1    1    3    3  502    0 -0.67051771974E+03 -0.22883140508E+03 -0.35790872279E+03  0.79376097052E+03  0.50400001928E-02 0.  1.
       -1    1    3    3    0  502  0.67051771974E+03  0.22883140508E+03  0.13550750641E+04  0.15291128977E+04  0.50400001928E-02 0. -1.
</event>
<event>
 5   0  0.3257130E-05  0.2108585E+04  0.7818609E-02  0.8557471E-01
        2   -1    0    0  501    0  0.00000000000E+00  0.00000000000E+00  0.14705923878E+04  0.14705923878E+04  0.25500000920E-02 0.  1.
       -2   -1    0    0    0  501  0.00000000000E+00  0.00000000000E+00 -0.75583989355E+03  0.75583989356E+03  0.25500000920E-02 0. -1.
    10030    2    1    2    0    0  0.00000000000E+00  0.00000000000E+00  0.71475249420E+03  0.22264322813E+04  0.21085847328E+04 0.  0.
        3    1    3    3  502    0  0.76230793724E+03 -0.20285995813E+03 -0.38119316835E+03  0.87611288975E+03  0.10100000352E+00 0. -1.
       -3    1    3    3    0  502 -0.76230793724E+03  0.20285995813E+03  0.10959456626E+04  0.13503193916E+04  0.10100000352E+00 0.  1.
</event>
<event>
 5   0  0.3279789E-05  0.2101996E+04  0.7818609E-02  0.8560365E-01
       -2   -1    0    0    0  501  0.00000000000E+00  0.00000000000E+00  0.82765186936E+03  0.82765186937E+03  0.25500000920E-02 0. -1.
        2   -1    0    0  501    0  0.00000000000E+00  0.00000000000E+00 -0.13346152775E+04  0.13346152775E+04  0.25500000920E-02 0.  1.
    10030    2    1    2    0    0  0.00000000000E+00  0.00000000000E+00 -0.50696340812E+03  0.21622671468E+04  0.21019960317E+04 0.  0.
        2    1    3    3  502    0 -0.76707676022E+02  0.16215639844E+03  0.81178785861E+03  0.83137133251E+03  0.25500000920E-02 0. -1.
       -2    1    3    3    0  502  0.76707676022E+02 -0.16215639844E+03 -0.13187512667E+04  0.13308958143E+04  0.25500000920E-02 0.  1.
</event>
<event>
 5   0  0.3130517E-05  0.2098804E+04  0.7818609E-02  0.8561770E-01
       -2   -1    0    0    0  501  0.00000000000E+00  0.00000000000E+00  0.62504358889E+03  0.62504358890E+03  0.25500000920E-02 0.  1.
        2   -1    0    0  501    0  0.00000000000E+00  0.00000000000E+00 -0.17618686358E+04  0.17618686358E+04  0.25500000920E-02 0. -1.
    10030    2    1    2    0    0  0.00000000000E+00  0.00000000000E+00 -0.11368250469E+04  0.23869122247E+04  0.20988041312E+04 0.  0.
        1    1    3    3  502    0  0.18589110906E+03 -0.61518014376E+03 -0.15118981923E+04  0.16428141275E+04  0.50400001928E-02 0. -1.
       -1    1    3    3    0  502 -0.18589110906E+03  0.61518014376E+03  0.37507314543E+03  0.74409809713E+03  0.50400001928E-02 0.  1.
</event>
<event>
 5   0  0.3279789E-05  0.2102002E+04  0.7818609E-02  0.8560362E-01
        2   -1    0    0  501    0  0.00000000000E+00  0.00000000000E+00  0.15321164584E+04  0.15321164584E+04  0.25500000920E-02 0.  1.
       -2   -1    0    0    0  501  0.00000000000E+00  0.00000000000E+00 -0.72096548041E+03  0.72096548041E+03  0.25500000920E-02 0. -1.
    10030    2    1    2    0    0  0.00000000000E+00  0.00000000000E+00  0.81115097800E+03  0.22530819388E+04  0.21020019776E+04 0.  0.
        2    1    3    3  502    0  0.73835222433E+03 -0.70540642890E+03  0.13902372512E+03  0.10305774271E+04  0.25500000920E-02 0. -1.
       -2    1    3    3    0  502 -0.73835222433E+03  0.70540642890E+03  0.67212725287E+03  0.12225045117E+04  0.25500000920E-02 0.  1.
</event>
<event>
 5   0  0.1513292E-05  0.2104276E+04  0.7818609E-02  0.8559362E-01
        1   -1    0    0  501    0  0.00000000000E+00  0.00000000000E+00  0.11329190741E+04  0.11329190741E+04  0.50400001928E-02 0.  1.
       -1   -1    0    0    0  501  0.00000000000E+00  0.00000000000E+00 -0.97711708042E+03  0.97711708044E+03  0.50400001928E-02 0. -1.
    10030    2    1    2    0    0  0.00000000000E+00  0.00000000000E+00  0.15580199368E+03  0.21100361545E+04  0.21042761968E+04 0.  0.
        1    1    3    3  502    0  0.44356716478E+03  0.87696025247E+03  0.45467338753E+03  0.10828384013E+04  0.50400001928E-02 0.  1.
       -1    1    3    3    0  502 -0.44356716478E+03 -0.87696025247E+03 -0.29887139385E+03  0.10271977532E+04  0.50400001928E-02 0. -1.
</event>
<event>
 5   0  0.1435410E-05  0.2097000E+04  0.7818609E-02  0.8562566E-01
       -1   -1    0    0    0  501  0.00000000000E+00  0.00000000000E+00  0.11173241134E+04  0.11173241134E+04  0.50400001928E-02 0. -1.
        1   -1    0    0  501    0  0.00000000000E+00  0.00000000000E+00 -0.98391483179E+03  0.98391483180E+03  0.50400001928E-02 0.  1.
    10030    2    1    2    0    0  0.00000000000E+00  0.00000000000E+00  0.13340928159E+03  0.21012389452E+04  0.20969995394E+04 0.  0.
        2    1    3    3  502    0  0.77973481127E+01  0.10379480633E+04 -0.81766386793E+02  0.10411929325E+04  0.25500000920E-02 0.  1.
       -2    1    3    3    0  502 -0.77973481127E+01 -0.10379480633E+04  0.21517566838E+03  0.10600460127E+04  0.25500000920E-02 0. -1.
</event>
<event>
 5   0  0.1492552E-05  0.2047143E+04  0.7818609E-02  0.8584891E-01
        1   -1    0    0  501    0  0.00000000000E+00  0.00000000000E+00  0.15344510939E+04  0.15344510939E+04  0.50400001928E-02 0. -1.
       -1   -1    0    0    0  501  0.00000000000E+00  0.00000000000E+00 -0.68278402636E+03  0.68278402638E+03  0.50400001928E-02 0.  1.
    10030    2    1    2    0    0  0.00000000000E+00  0.00000000000E+00  0.85166706750E+03  0.22172351202E+04  0.20471430787E+04 0.  0.
        4    1    3    3  502    0  0.46862334446E+03  0.24144600363E+03  0.13761112617E+04  0.14736308321E+04  0.12699999809E+01 0. -1.
       -4    1    3    3    0  502 -0.46862334446E+03 -0.24144600363E+03 -0.52444419423E+03  0.74360428818E+03  0.12699999809E+01 0.  1.
</event>
<event>
 5   0  0.1453430E-05  0.2098804E+04  0.7818609E-02  0.8561770E-01
       -1   -1    0    0    0  501  0.00000000000E+00  0.00000000000E+00  0.58151239413E+03  0.58151239415E+03  0.50400001928E-02 0.  1.
        1   -1    0    0  501    0  0.00000000000E+00  0.00000000000E+00 -0.18937593917E+04  0.18937593917E+04  0.50400001928E-02 0. -1.
    10030    2    1    2    0    0  0.00000000000E+00  0.00000000000E+00 -0.13122469976E+04  0.24752717858E+04  0.20988040002E+04 0.  0.
        5    1    3    3  502    0  0.33632194849E+03 -0.85074631991E+03 -0.49760017575E+02  0.91617678601E+03  0.46999998093E+01 0.  1.
       -5    1    3    3    0  502 -0.33632194849E+03  0.85074631991E+03 -0.12624869800E+04  0.15590949998E+04  0.46999998093E+01 0. -1.
</event>
<event>
 5   0  0.3257130E-05  0.2103018E+04  0.7818609E-02  0.8559915E-01
       -2   -1    0    0    0  501  0.00000000000E+00  0.00000000000E+00  0.83928721729E+03  0.83928721730E+03  0.25500000920E-02 0. -1.
        2   -1    0    0  501    0  0.00000000000E+00  0.00000000000E+00 -0.13173928256E+04  0.13173928256E+04  0.25500000920E-02 0.  1.
    10030    2    1    2    0    0  0.00000000000E+00  0.00000000000E+00 -0.47810560831E+03  0.21566800429E+04  0.21030177923E+04 0.  0.
        3    1    3    3  502    0  0.37894230685E+03  0.10422560670E+03 -0.12392396439E+04  0.13000673653E+04  0.10100000352E+00 0.  1.
       -3    1    3    3    0  502 -0.37894230685E+03 -0.10422560670E+03  0.76113403563E+03  0.85661267760E+03  0.10100000352E+00 0. -1.
</event>
<event>
 5   0  0.3257130E-05  0.2093828E+04  0.7818609E-02  0.8563967E-01
       -2   -1    0    0    0  501  0.00000000000E+00  0.00000000000E+00  0.46620084300E+03  0.46620084301E+03  0.25500000920E-02 0. -1.
        2   -1    0    0  501    0  0.00000000000E+00  0.00000000000E+00 -0.23509807259E+04  0.23509807259E+04  0.25500000920E-02 0.  1.
    10030    2    1    2    0    0  0.00000000000E+00  0.00000000000E+00 -0.18847798829E+04  0.28171815689E+04  0.20938282607E+04 0.  0.
        3    1    3    3  502    0  0.38290812356E+03  0.87958987086E+03 -0.37836349026E+03  0.10312399881E+04  0.10100000352E+00 0. -1.
       -3    1    3    3    0  502 -0.38290812356E+03 -0.87958987086E+03 -0.15064163926E+04  0.17859415808E+04  0.10100000352E+00 0.  1.
</event>
<event>
 5   0  0.1466480E-05  0.2102488E+04  0.7818609E-02  0.8560148E-01
        1   -1    0    0  501    0  0.00000000000E+00  0.00000000000E+00  0.10137605615E+04  0.10137605615E+04  0.50400001928E-02 0.  1.
       -1   -1    0    0    0  501  0.00000000000E+00  0.00000000000E+00 -0.10901138505E+04  0.10901138505E+04  0.50400001928E-02 0. -1.
    10030    2    1    2    0    0  0.00000000000E+00  0.00000000000E+00 -0.76353288994E+02  0.21038744121E+04  0.21024884583E+04 0.  0.
        3    1    3    3  502    0  0.29614637001E+03 -0.38754573147E+03  0.89368373505E+03  0.10181183600E+04  0.10100000352E+00 0.  1.
       -3    1    3    3    0  502 -0.29614637001E+03  0.38754573147E+03 -0.97003702404E+03  0.10857560521E+04  0.10100000352E+00 0. -1.
</event>
<event>
 5   0  0.1492552E-05  0.2094791E+04  0.7818609E-02  0.8563541E-01
        1   -1    0    0  501    0  0.00000000000E+00  0.00000000000E+00  0.13875343314E+04  0.13875343315E+04  0.50400001928E-02 0.  1.
       -1   -1    0    0    0  501  0.00000000000E+00  0.00000000000E+00 -0.79063811432E+03  0.79063811434E+03  0.50400001928E-02 0. -1.
    10030    2    1    2    0    0  0.00000000000E+00  0.00000000000E+00  0.59689621712E+03  0.21781724458E+04  0.20947911852E+04 0.  0.
        4    1    3    3  502    0 -0.30180490443E+03 -0.64249078481E+03  0.10992696224E+04  0.13085396152E+04  0.12699999809E+01 0.  1.
       -4    1    3    3    0  502  0.30180490443E+03  0.64249078481E+03 -0.50237340524E+03  0.86963283063E+03  0.12699999809E+01 0. -1.
</event>
<event>
 5   0  0.1453430E-05  0.2092644E+04  0.7818609E-02  0.8564491E-01
        1   -1    0    0  501    0  0.00000000000E+00  0.00000000000E+00  0.78562952010E+03  0.78562952012E+03  0.50400001928E-02 0. -1.
       -1   -1    0    0    0  501  0.00000000000E+00  0.00000000000E+00 -0.13935190914E+04  0.13935190914E+04  0.50400001928E-02 0.  1.
    10030    2    1    2    0    0  0.00000000000E+00  0.00000000000E+00 -0.60788957131E+03  0.21791486115E+04  0.20926440070E+04 0.  0.
        5    1    3    3  502    0  0.84625480674E+03  0.61323501074E+03 -0.35666638362E+03  0.11042813842E+04  0.46999998093E+01 0.  1.
       -5    1    3    3    0  502 -0.84625480674E+03 -0.61323501074E+03 -0.25122318769E+03  0.10748672273E+04  0.46999998093E+01 0. -1.
</event>
<event>
 5   0  0.3242231E-05  0.2097943E+04  0.7818609E-02  0.8562150E-01
       -2   -1    0    0    0  501  0.00000000000E+00  0.00000000000E+00  0.14116811578E+04  0.14116811578E+04  0.25500000920E-02 0.  1.
        2   -1    0    0  501    0  0.00000000000E+00  0.00000000000E+00 -0.77945423756E+03  0.77945423756E+03  0.25500000920E-02 0. -1.
    10030    2    1    2    0    0  0.00000000000E+00  0.00000000000E+00  0.63222692027E+03  0.21911353954E+04  0.20979426690E+04 0.  0.
        4    1    3    3  502    0  0.57356452850E+03  0.79975437534E+03  0.69521946618E+03  0.12049543760E+04  0.12699999809E+01 0.  1.
       -4    1    3    3    0  502 -0.57356452850E+03 -0.79975437534E+03 -0.62992545907E+02  0.98618101938E+03  0.12699999809E+01 0. -1.
</event>
<event>
 5   0  0.3242231E-05  0.2093093E+04  0.7818609E-02  0.8564292E-01
        2   -1    0    0  501    0  0.00000000000E+00  0.00000000000E+00  0.13521571892E+04  0.13521571892E+04  0.25500000920E-02 0. -1.
       -2   -1    0    0    0  501  0.00000000000E+00  0.00000000000E+00 -0.81000908048E+03  0.81000908049E+03  0.25500000920E-02 0.  1.
    10030    2    1    2    0    0  0.00000000000E+00  0.00000000000E+00  0.54214810877E+03  0.21621662697E+04  0.20930930238E+04 0.  0.
        4    1    3    3  502    0  0.92749631407E+03 -0.48423501607E+03  0.24740446903E+03  0.10751481515E+04  0.12699999809E+01 0. -1.
       -4    1    3    3    0  502 -0.92749631407E+03  0.48423501607E+03  0.29474363974E+03  0.10870181183E+04  0.12699999809E+01 0.  1.
</event>
<event>
 5   0  0.3257130E-05  0.2098189E+04  0.7818609E-02  0.8562041E-01
       -2   -1    0    0    0  501  0.00000000000E+00  0.00000000000E+00  0.66709773311E+03  0.66709773311E+03  0.25500000920E-02 0. -1.
        2   -1    0    0  501    0  0.00000000000E+00  0.00000000000E+00 -0.16498326518E+04  0.16498326518E+04  0.25500000920E-02 0.  1.
    10030    2    1    2    0    0  0.00000000000E+00  0.00000000000E+00 -0.98273491868E+03  0.23169303849E+04  0.20981893356E+04 0.  0.
        3    1    3    3  502    0  0.44021126270E+03  0.90047124342E+03 -0.83344549257E+03  0.13035589037E+04  0.10100000352E+00 0.  1.
       -3    1    3    3    0  502 -0.44021126270E+03 -0.90047124342E+03 -0.14928942611E+03  0.10133714812E+04  0.10100000352E+00 0. -1.
</event>
<event>
 5   0  0.1513292E-05  0.2095434E+04  0.7818609E-02  0.8563257E-01
       -1   -1    0    0    0  501  0.00000000000E+00  0.00000000000E+00  0.96898929588E+03  0.96898929589E+03  0.50400001928E-02 0. -1.
        1   -1    0    0  501    0  0.00000000000E+00  0.00000000000E+00 -0.11328413599E+04  0.11328413599E+04  0.50400001928E-02 0.  1.
    10030    2    1    2    0    0  0.00000000000E+00  0.00000000000E+00 -0.16385206402E+03  0.21018306558E+04  0.20954342287E+04 0.  0.
        1    1    3    3  502    0  0.81964690033E+03  0.26835606948E+03 -0.67861596329E+03  0.10974313860E+04  0.50400001928E-02 0.  1.
       -1    1    3    3    0  502 -0.81964690033E+03 -0.26835606948E+03  0.51476389927E+03  0.10043992698E+04  0.50400001928E-02 0. -1.
</event>
<event>
 5   0  0.3242231E-05  0.2097962E+04  0.7818609E-02  0.8562142E-01
       -2   -1    0    0    0  501  0.00000000000E+00  0.00000000000E+00  0.73582515009E+03  0.73582515010E+03  0.25500000920E-02 0.  1.
        2   -1    0    0  501    0  0.00000000000E+00  0.00000000000E+00 -0.14954107635E+04  0.14954107635E+04  0.25500000920E-02 0. -1.
    10030    2    1    2    0    0  0.00000000000E+00  0.00000000000E+00 -0.75958561337E+03  0.22312359136E+04  0.20979617246E+04 0.  0.
        4    1    3    3  502    0 -0.91812773182E+03  0.47437983999E+03 -0.57112242035E+03  0.11807528092E+04  0.12699999809E+01 0.  1.
       -4    1    3    3    0  502  0.91812773182E+03 -0.47437983999E+03 -0.18846319302E+03  0.10504831044E+04  0.12699999809E+01 0. -1.
</event>
<event>
 5   0  0.1492552E-05  0.2095050E+04  0.7818609E-02  0.8563427E-01
       -1   -1    0    0    0  501  0.00000000000E+00  0.00000000000E+00  0.79937835821E+03  0.79937835823E+03  0.50400001928E-02 0.  1.
        1   -1    0    0  501    0  0.00000000000E+00  0.00000000000E+00 -0.13727020898E+04  0.13727020898E+04  0.50400001928E-02 0. -1.
    10030    2    1    2    0    0  0.00000000000E+00  0.00000000000E+00 -0.57332373162E+03  0.21720804481E+04  0.20950497301E+04 0.  0.
        4    1    3    3  502    0 -0.15390813998E+03 -0.51937440573E+03 -0.12162151203E+04  0.13313971311E+04  0.12699999809E+01 0. -1.
       -4    1    3    3    0  502  0.15390813998E+03  0.51937440573E+03  0.64289138870E+03  0.84068331698E+03  0.12699999809E+01 0.  1.
</event>
<event>
 5   0  0.3130517E-05  0.2103300E+04  0.7818609E-02  0.8559791E-01
       -2   -1    0    0    0  501  0.00000000000E+00  0.00000000000E+00  0.13356815446E+04  0.13356815446E+04  0.25500000920E-02 0. -1.
        2   -1    0    0  501    0  0.00000000000E+00  0.00000000000E+00 -0.82801750078E+03  0.82801750078E+03  0.25500000920E-02 0.  1.
    10030    2    1    2    0    0  0.00000000000E+00  0.00000000000E+00  0.50766404385E+03  0.21636990454E+04  0.21032999733E+04 0.  0.
        1    1    3    3  502    0  0.88592747041E+02  0.11927322912E+03  0.13248304322E+04  0.13331355715E+04  0.50400001928E-02 0. -1.
       -1    1    3    3    0  502 -0.88592747041E+02 -0.11927322912E+03 -0.81716638830E+03  0.83056347392E+03  0.50400001928E-02 0.  1.
</event>
<event>
 5   0  0.3108326E-05  0.2103709E+04  0.7818609E-02  0.8559611E-01
       -2   -1    0    0    0  501  0.00000000000E+00  0.00000000000E+00  0.19366603466E+04  0.19366603466E+04  0.25500000920E-02 0.  1.
        2   -1    0    0  501    0  0.00000000000E+00  0.00000000000E+00 -0.57129177685E+03  0.57129177685E+03  0.25500000920E-02 0. -1.
    10030    2    1    2    0    0  0.00000000000E+00  0.00000000000E+00  0.13653685698E+04  0.25079521235E+04  0.21037092295E+04 0.  0.
        5    1    3    3  502    0  0.58577722974E+03 -0.52204956112E+03 -0.15242616562E+03  0.79932880163E+03  0.46999998093E+01 0. -1.
       -5    1    3    3    0  502 -0.58577722974E+03  0.52204956112E+03  0.15177947354E+04  0.17086233219E+04  0.46999998093E+01 0.  1.
</event>
<event>
 5   0  0.1513292E-05  0.2102517E+04  0.7818609E-02  0.8560135E-01
        1   -1    0    0  501    0  0.00000000000E+00  0.00000000000E+00  0.19115777871E+04  0.19115777871E+04  0.50400001928E-02 0.  1.
       -1   -1    0    0    0  501  0.00000000000E+00  0.00000000000E+00 -0.57813221879E+03  0.57813221881E+03  0.50400001928E-02 0. -1.
    10030    2    1    2    0    0  0.00000000000E+00  0.00000000000E+00  0.13334455683E+04  0.24897100059E+04  0.21025172603E+04 0.  0.
        1    1    3    3  502    0  0.57318954964E+03 -0.13965846340E+03  0.16970711485E+04  0.17966917458E+04  0.50400001928E-02 0.  1.
       -1    1    3    3    0  502 -0.57318954964E+03  0.13965846340E+03 -0.36362558024E+03  0.69301826011E+03  0.50400001928E-02 0. -1.
</event>
<event>
 5   0  0.1513292E-05  0.2000868E+04  0.7818609E-02  0.8606215E-01
       -1   -1    0    0    0  501  0.00000000000E+00  0.00000000000E+00  0.54524558707E+03  0.54524558710E+03  0.50400001928E-02 0.  1.
        1   -1    0    0  501    0  0.00000000000E+00  0.00000000000E+00 -0.18356281276E+04  0.18356281276E+04  0.50400001928E-02 0. -1.
    10030    2    1    2    0    0  0.00000000000E+00  0.00000000000E+00 -0.12903825405E+04  0.23808737147E+04  0.20008679478E+04 0.  0.
        1    1    3    3  502    0 -0.75083371325E+03  0.60011145838E+02  0.13827492940E+03  0.76581496376E+03  0.50400001928E-02 0.  1.
       -1    1    3    3    0  502  0.75083371325E+03 -0.60011145838E+02 -0.14286574699E+04  0.16150587509E+04  0.50400001928E-02 0. -1.
</event>
<event>
 5   0  0.1492552E-05  0.2104192E+04  0.7818609E-02  0.8559399E-01
        1   -1    0    0  501    0  0.00000000000E+00  0.00000000000E+00  0.16088647298E+04  0.16088647298E+04  0.50400001928E-02 0. -1.
       -1   -1    0    0    0  501  0.00000000000E+00  0.00000000000E+00 -0.68800454882E+03  0.68800454884E+03  0.50400001928E-02 0.  1.
    10030    2    1    2    0    0  0.00000000000E+00  0.00000000000E+00  0.92086018099E+03  0.22968692787E+04  0.21041922465E+04 0.  0.
        4    1    3    3  502    0  0.97897710395E+03 -0.74581271619E+02  0.47727662547E+02  0.98297409875E+03  0.12699999809E+01 0. -1.
       -4    1    3    3    0  502 -0.97897710395E+03  0.74581271619E+02  0.87313251845E+03  0.13138951799E+04  0.12699999809E+01 0.  1.
</event>
<event>
 5   0  0.3242231E-05  0.2057756E+04  0.7818609E-02  0.8580084E-01
        2   -1    0    0  501    0  0.00000000000E+00  0.00000000000E+00  0.24229424257E+04  0.24229424257E+04  0.25500000920E-02 0. -1.
       -2   -1    0    0    0  501  0.00000000000E+00  0.00000000000E+00 -0.43690242759E+03  0.43690242760E+03  0.25500000920E-02 0.  1.
    10030    2    1    2    0    0  0.00000000000E+00  0.00000000000E+00  0.19860399981E+04  0.28598448533E+04  0.20577555032E+04 0.  0.
        4    1    3    3  502    0 -0.94015661157E+03 -0.35889913193E+03  0.69531714499E+03  0.12231805207E+04  0.12699999809E+01 0.  1.
       -4    1    3    3    0  502  0.94015661157E+03  0.35889913193E+03  0.12907228531E+04  0.16366643326E+04  0.12699999809E+01 0. -1.
</event>
<event>
 5   0  0.1513292E-05  0.2103709E+04  0.7818609E-02  0.8559611E-01
        1   -1    0    0  501    0  0.00000000000E+00  0.00000000000E+00  0.94205542013E+03  0.94205542014E+03  0.50400001928E-02 0.  1.
       -1   -1    0    0    0  501  0.00000000000E+00  0.00000000000E+00 -0.11744506544E+04  0.11744506544E+04  0.50400001928E-02 0. -1.
    10030    2    1    2    0    0  0.00000000000E+00  0.00000000000E+00 -0.23239523427E+03  0.21165060746E+04  0.21037087295E+04 0.  0.
        1    1    3    3  502    0  0.14061219462E+03 -0.70190026000E+03  0.65917986118E+03  0.97311553974E+03  0.50400001928E-02 0.  1.
       -1    1    3    3    0  502 -0.14061219462E+03  0.70190026000E+03 -0.89157509546E+03  0.11433905348E+04  0.50400001928E-02 0. -1.
</event>
<event>
 5   0  0.3130517E-05  0.2106423E+04  0.7818609E-02  0.8558419E-01
       -2   -1    0    0    0  501  0.00000000000E+00  0.00000000000E+00  0.67212387567E+03  0.67212387567E+03  0.25500000920E-02 0. -1.
        2   -1    0    0  501    0  0.00000000000E+00  0.00000000000E+00 -0.16503723376E+04  0.16503723376E+04  0.25500000920E-02 0.  1.
    10030    2    1    2    0    0  0.00000000000E+00  0.00000000000E+00 -0.97824846191E+03  0.23224962133E+04  0.21064231786E+04 0.  0.
        1    1    3    3  502    0 -0.92232546907E+03  0.50658227203E+03 -0.53774758548E+03  0.11817285369E+04  0.50400001928E-02 0. -1.
       -1    1    3    3    0  502  0.92232546907E+03 -0.50658227203E+03 -0.44050087643E+03  0.11407676763E+04  0.50400001928E-02 0.  1.
</event>
<event>
 5   0  0.1129987E-05  0.2127278E+04  0.7818609E-02  0.8549321E-01
        3   -1    0    0  501    0  0.00000000000E+00  0.00000000000E+00  0.84135589050E+03  0.84135589656E+03  0.10100000352E+00 0.  1.
       -3   -1    0    0    0  501  0.00000000000E+00  0.00000000000E+00 -0.13446485817E+04  0.13446485855E+04  0.10100000352E+00 0. -1.
    10030    2    1    2    0    0  0.00000000000E+00  0.00000000000E+00 -0.50329269124E+03  0.21860044821E+04  0.21272780878E+04 0.  0.
        3    1    3    3  502    0 -0.33518997647E+03 -0.93339689756E+03  0.14334222133E+03  0.10020624189E+04  0.10100000352E+00 0. -1.
       -3    1    3    3    0  502  0.33518997647E+03  0.93339689756E+03 -0.64663491257E+03  0.11839420632E+04  0.10100000352E+00 0.  1.
</event>
<event>
 5   0  0.1453430E-05  0.2096471E+04  0.7818609E-02  0.8562799E-01
       -1   -1    0    0    0  501  0.00000000000E+00  0.00000000000E+00  0.13295433424E+04  0.13295433424E+04  0.50400001928E-02 0. -1.
        1   -1    0    0  501    0  0.00000000000E+00  0.00000000000E+00 -0.82644755012E+03  0.82644755014E+03  0.50400001928E-02 0.  1.
    10030    2    1    2    0    0  0.00000000000E+00  0.00000000000E+00  0.50309579225E+03  0.21559908925E+04  0.20964711666E+04 0.  0.
        5    1    3    3  502    0  0.24965829248E+03 -0.10173145308E+04  0.29161067391E+03  0.10873440084E+04  0.46999998093E+01 0. -1.
       -5    1    3    3    0  502 -0.24965829248E+03  0.10173145308E+04  0.21148511833E+03  0.10686468841E+04  0.46999998093E+01 0.  1.
</event>
<event>
 5   0  0.3257130E-05  0.2108880E+04  0.7818609E-02  0.8557342E-01
        2   -1    0    0  501    0  0.00000000000E+00  0.00000000000E+00  0.17047725595E+04  0.17047725595E+04  0.25500000920E-02 0. -1.
       -2   -1    0    0    0  501  0.00000000000E+00  0.00000000000E+00 -0.65219500536E+03  0.65219500536E+03  0.25500000920E-02 0.  1.
    10030    2    1    2    0    0  0.00000000000E+00  0.00000000000E+00  0.10525775541E+04  0.23569675648E+04  0.21088804125E+04 0.  0.
        3    1    3    3  502    0 -0.65186809018E+03  0.25446947593E+03  0.14078486112E+04  0.15721718874E+04  0.10100000352E+00 0.  1.
       -3    1    3    3    0  502  0.65186809018E+03 -0.25446947593E+03 -0.35527105709E+03  0.78479567747E+03  0.10100000352E+00 0. -1.
</event>
<event>
 5   0  0.1513292E-05  0.2093843E+04  0.7818609E-02  0.8563960E-01
        1   -1    0    0  501    0  0.00000000000E+00  0.00000000000E+00  0.12020189317E+04  0.12020189317E+04  0.50400001928E-02 0. -1.
       -1   -1    0    0    0  501  0.00000000000E+00  0.00000000000E+00 -0.91183681470E+03  0.91183681471E+03  0.50400001928E-02 0.  1.
    10030    2    1    2    0    0  0.00000000000E+00  0.00000000000E+00  0.29018211700E+03  0.21138557464E+04  0.20938434649E+04 0.  0.
        1    1    3    3  502    0  0.13725062613E+03  0.22900582108E+03  0.11670724907E+04  0.11972216165E+04  0.50400001928E-02 0. -1.
       -1    1    3    3    0  502 -0.13725062613E+03 -0.22900582108E+03 -0.87689037374E+03  0.91663412987E+03  0.50400001928E-02 0.  1.
</event>
<event>
 5   0  0.1453430E-05  0.2096758E+04  0.7818609E-02  0.8562673E-01
        1   -1    0    0  501    0  0.00000000000E+00  0.00000000000E+00  0.91946967542E+03  0.91946967543E+03  0.50400001928E-02 0. -1.
       -1   -1    0    0    0  501  0.00000000000E+00  0.00000000000E+00 -0.11953615818E+04  0.11953615818E+04  0.50400001928E-02 0.  1.
    10030    2    1    2    0    0  0.00000000000E+00  0.00000000000E+00 -0.27589190641E+03  0.21148312573E+04  0.20967581889E+04 0.  0.
        5    1    3    3  502    0 -0.10152286675E+04 -0.11489941290E+03  0.98994882341E+02  0.10265053333E+04  0.46999998093E+01 0.  1.
       -5    1    3    3    0  502  0.10152286675E+04  0.11489941290E+03 -0.37488678875E+03  0.10883259240E+04  0.46999998093E+01 0. -1.
</event>
<event>
 5   0  0.3108326E-05  0.2100707E+04  0.7818609E-02  0.8560932E-01
       -2   -1    0    0    0  501  0.00000000000E+00  0.00000000000E+00  0.57964048273E+03  0.57964048273E+03  0.25500000920E-02 0. -1.
        2   -1    0    0  501    0  0.00000000000E+00  0.00000000000E+00 -0.19033225852E+04  0.19033225852E+04  0.25500000920E-02 0.  1.
    10030    2    1    2    0    0  0.00000000000E+00  0.00000000000E+00 -0.13236821024E+04  0.24829630679E+04  0.21007073305E+04 0.  0.
        5    1    3    3  502    0 -0.59540919800E+03  0.28534374517E+03  0.30367883954E+03  0.72675724527E+03  0.46999998093E+01 0. -1.
       -5    1    3    3    0  502  0.59540919800E+03 -0.28534374517E+03 -0.16273609420E+04  0.17562058226E+04  0.46999998093E+01 0.  1.
</event>
<event>
 5   0  0.1513292E-05  0.2086994E+04  0.7818609E-02  0.8566995E-01
        1   -1    0    0  501    0  0.00000000000E+00  0.00000000000E+00  0.10335636310E+04  0.10335636310E+04  0.50400001928E-02 0. -1.
       -1   -1    0    0    0  501  0.00000000000E+00  0.00000000000E+00 -0.10535253845E+04  0.10535253845E+04  0.50400001928E-02 0.  1.
    10030    2    1    2    0    0  0.00000000000E+00  0.00000000000E+00 -0.19961753449E+02  0.20870890155E+04  0.20869935522E+04 0.  0.
        1    1    3    3  502    0 -0.10189249432E+04  0.58537657567E+01 -0.23503164533E+03  0.10456969832E+04  0.50400001928E-02 0. -1.
       -1    1    3    3    0  502  0.10189249432E+04 -0.58537657567E+01  0.21506989188E+03  0.10413920323E+04  0.50400001928E-02 0.  1.
</event>
<event>
 5   0  0.1453430E-05  0.2098989E+04  0.7818609E-02  0.8561689E-01
        1   -1    0    0  501    0  0.00000000000E+00  0.00000000000E+00  0.21639321861E+04  0.21639321861E+04  0.50400001928E-02 0. -1.
       -1   -1    0    0    0  501  0.00000000000E+00  0.00000000000E+00 -0.50899869038E+03  0.50899869041E+03  0.50400001928E-02 0.  1.
    10030    2    1    2    0    0  0.00000000000E+00  0.00000000000E+00  0.16549334957E+04  0.26729308765E+04  0.20989889460E+04 0.  0.
        5    1    3    3  502    0 -0.64820876516E+03 -0.49250563406E+03  0.16709016547E+04  0.18586744826E+04  0.46999998093E+01 0. -1.
       -5    1    3    3    0  502  0.64820876516E+03  0.49250563406E+03 -0.15968158988E+02  0.81425639384E+03  0.46999998093E+01 0.  1.
</event>
<event>
 5   0  0.1466480E-05  0.2113409E+04  0.7818609E-02  0.8555360E-01
       -1   -1    0    0    0  501  0.00000000000E+00  0.00000000000E+00  0.43993704399E+03  0.43993704402E+03  0.50400001928E-02 0.  1.
        1   -1    0    0  501    0  0.00000000000E+00  0.00000000000E+00 -0.25381447535E+04  0.25381447535E+04  0.50400001928E-02 0. -1.
    10030    2    1    2    0    0  0.00000000000E+00  0.00000000000E+00 -0.20982077095E+04  0.29780817976E+04  0.21134085267E+04 0.  0.
        3    1    3    3  502    0 -0.25215749502E+02 -0.69503690910E+03 -0.21701532440E+04  0.22788763133E+04  0.10100000352E+00 0. -1.
       -3    1    3    3    0  502  0.25215749502E+02  0.69503690910E+03  0.71945534418E+02  0.69920548421E+03  0.10100000352E+00 0.  1.
</event>
<event>
 5   0  0.3242231E-05  0.2111848E+04  0.7818609E-02  0.8556042E-01
        2   -1    0    0  501    0  0.00000000000E+00  0.00000000000E+00  0.20252619140E+04  0.20252619140E+04  0.25500000920E-02 0.  1.
       -2   -1    0    0    0  501  0.00000000000E+00  0.00000000000E+00 -0.55053423294E+03  0.55053423295E+03  0.25500000920E-02 0. -1.
    10030    2    1    2    0    0  0.00000000000E+00  0.00000000000E+00  0.14747276810E+04  0.25757961469E+04  0.21118484930E+04 0.  0.
        4    1    3    3  502    0  0.27355816365E+02 -0.40304985964E+03  0.19272798417E+04  0.19691639675E+04  0.12699999809E+01 0.  1.
       -4    1    3    3    0  502 -0.27355816365E+02  0.40304985964E+03 -0.45255216065E+03  0.60663217937E+03  0.12699999809E+01 0. -1.
</event>
<event>
 5   0  0.1435410E-05  0.2106324E+04  0.7818609E-02  0.8558463E-01
        1   -1    0    0  501    0  0.00000000000E+00  0.00000000000E+00  0.10040084438E+04  0.10040084438E+04  0.50400001928E-02 0.  1.
       -1   -1    0    0    0  501  0.00000000000E+00  0.00000000000E+00 -0.11047220016E+04  0.11047220016E+04  0.50400001928E-02 0. -1.
    10030    2    1    2    0    0  0.00000000000E+00  0.00000000000E+00 -0.10071355775E+03  0.21087304454E+04  0.21063240184E+04 0.  0.
        2    1    3    3  502    0 -0.17779932611E+03 -0.10132461717E+04 -0.27615782956E+03  0.10651495442E+04  0.25500000920E-02 0. -1.
       -2    1    3    3    0  502  0.17779932611E+03  0.10132461717E+04  0.17544427181E+03  0.10435809012E+04  0.25500000920E-02 0.  1.
</event>
<event>
 5   0  0.1129987E-05  0.2097227E+04  0.7818609E-02  0.8562466E-01
       -3   -1    0    0    0  501  0.00000000000E+00  0.00000000000E+00  0.12205535946E+04  0.12205535988E+04  0.10100000352E+00 0. -1.
        3   -1    0    0  501    0  0.00000000000E+00  0.00000000000E+00 -0.90089437295E+03  0.90089437861E+03  0.10100000352E+00 0.  1.
    10030    2    1    2    0    0  0.00000000000E+00  0.00000000000E+00  0.31965922168E+03  0.21214479774E+04  0.20972266217E+04 0.  0.
        1    1    3    3  502    0  0.73179924840E+02  0.93173391955E+03  0.64082789431E+03  0.11332006832E+04  0.50400001928E-02 0. -1.
       -1    1    3    3    0  502 -0.73179924840E+02 -0.93173391955E+03 -0.32116867263E+03  0.98824729423E+03  0.50400001928E-02 0.  1.
</event>
<event>
 5   0  0.3130517E-05  0.2098902E+04  0.7818609E-02  0.8561727E-01
        2   -1    0    0  501    0  0.00000000000E+00  0.00000000000E+00  0.18032414960E+04  0.18032414960E+04  0.25500000920E-02 0. -1.
       -2   -1    0    0    0  501  0.00000000000E+00  0.00000000000E+00 -0.61075990214E+03  0.61075990214E+03  0.25500000920E-02 0.  1.
    10030    2    1    2    0    0  0.00000000000E+00  0.00000000000E+00  0.11924815939E+04  0.24140013982E+04  0.20989021889E+04 0.  0.
        1    1    3    3  502    0  0.63867942915E+03 -0.62261302616E+03 -0.39758144063E+02  0.89282646892E+03  0.50400001928E-02 0.  1.
       -1    1    3    3    0  502 -0.63867942915E+03  0.62261302616E+03  0.12322397380E+04  0.15211749293E+04  0.50400001928E-02 0. -1.
</event>
<event>
 5   0  0.3242231E-05  0.2115808E+04  0.7818609E-02  0.8554312E-01
        2   -1    0    0  501    0  0.00000000000E+00  0.00000000000E+00  0.30229058001E+04  0.30229058001E+04  0.25500000920E-02 0.  1.
       -2   -1    0    0    0  501  0.00000000000E+00  0.00000000000E+00 -0.37022681907E+03  0.37022681908E+03  0.25500000920E-02 0. -1.
    10030    2    1    2    0    0  0.00000000000E+00  0.00000000000E+00  0.26526789810E+04  0.33931326192E+04  0.21158079296E+04 0.  0.
        4    1    3    3  502    0 -0.61162620722E+03  0.74902018236E+03  0.20143297365E+04  0.22344224648E+04  0.12699999809E+01 0.  1.
       -4    1    3    3    0  502  0.61162620722E+03 -0.74902018236E+03  0.63834924448E+03  0.11587101543E+04  0.12699999809E+01 0. -1.
</event>
<event>
 5   0  0.3242231E-05  0.2165855E+04  0.7818609E-02  0.8532776E-01
       -2   -1    0    0    0  501  0.00000000000E+00  0.00000000000E+00  0.11311081599E+04  0.11311081599E+04  0.25500000920E-02 0.  1.
        2   -1    0    0  501    0  0.00000000000E+00  0.00000000000E+00 -0.10367995764E+04  0.10367995764E+04  0.25500000920E-02 0. -1.
    10030    2    1    2    0    0  0.00000000000E+00  0.00000000000E+00  0.94308583427E+02  0.21679077363E+04  0.21658554532E+04 0.  0.
        4    1    3    3  502    0  0.17126939162E+03  0.12525366274E+03 -0.10157884752E+04  0.10377136039E+04  0.12699999809E+01 0. -1.
       -4    1    3    3    0  502 -0.17126939162E+03 -0.12525366274E+03  0.11100970586E+04  0.11301941324E+04  0.12699999809E+01 0.  1.
</event>
<event>
 5   0  0.3279789E-05  0.2101788E+04  0.7818609E-02  0.8560456E-01
        2   -1    0    0  501    0  0.00000000000E+00  0.00000000000E+00  0.81959695118E+03  0.81959695119E+03  0.25500000920E-02 0. -1.
       -2   -1    0    0    0  501  0.00000000000E+00  0.00000000000E+00 -0.13474655768E+04  0.13474655768E+04  0.25500000920E-02 0.  1.
    10030    2    1    2    0    0  0.00000000000E+00  0.00000000000E+00 -0.52786862559E+03  0.21670625280E+04  0.21017884561E+04 0.  0.
        2    1    3    3  502    0 -0.28788566947E+03 -0.99922913592E+03 -0.42044329369E+03  0.11216548435E+04  0.25500000920E-02 0. -1.
       -2    1    3    3    0  502  0.28788566947E+03  0.99922913592E+03 -0.10742533190E+03  0.10454076844E+04  0.25500000920E-02 0.  1.
</event>
<event>
 5   0  0.3257130E-05  0.2096515E+04  0.7818609E-02  0.8562780E-01
        2   -1    0    0  501    0  0.00000000000E+00  0.00000000000E+00  0.12057350514E+04  0.12057350514E+04  0.25500000920E-02 0.  1.
       -2   -1    0    0    0  501  0.00000000000E+00  0.00000000000E+00 -0.91134720040E+03  0.91134720041E+03  0.25500000920E-02 0. -1.
    10030    2    1    2    0    0  0.00000000000E+00  0.00000000000E+00  0.29438785102E+03  0.21170822518E+04  0.20965145013E+04 0.  0.
        3    1    3    3  502    0 -0.76495393873E+02 -0.10449094504E+04  0.11286113359E+03  0.10537670285E+04  0.10100000352E+00 0.  1.
       -3    1    3    3    0  502  0.76495393873E+02  0.10449094504E+04  0.18152671743E+03  0.10633152233E+04  0.10100000352E+00 0. -1.
</event>
<event>
 5   0  0.1466480E-05  0.2089505E+04  0.7818609E-02  0.8565881E-01
        1   -1    0    0  501    0  0.00000000000E+00  0.00000000000E+00  0.94183081803E+03  0.94183081804E+03  0.50400001928E-02 0.  1.
       -1   -1    0    0    0  501  0.00000000000E+00  0.00000000000E+00 -0.11589214797E+04  0.11589214797E+04  0.50400001928E-02 0. -1.
    10030    2    1    2    0    0  0.00000000000E+00  0.00000000000E+00 -0.21709066164E+03  0.21007522977E+04  0.20895051713E+04 0.  0.
        3    1    3    3  502    0  0.41419605052E+03 -0.95019105874E+03  0.22873755560E+02  0.10367953681E+04  0.10100000352E+00 0.  1.
       -3    1    3    3    0  502 -0.41419605052E+03  0.95019105874E+03 -0.23996441720E+03  0.10639569296E+04  0.10100000352E+00 0. -1.
</event>
<event>
 5   0  0.1492552E-05  0.2066077E+04  0.7818609E-02  0.8576336E-01
        1   -1    0    0  501    0  0.00000000000E+00  0.00000000000E+00  0.22326967079E+04  0.22326967079E+04  0.50400001928E-02 0.  1.
       -1   -1    0    0    0  501  0.00000000000E+00  0.00000000000E+00 -0.47797276541E+03  0.47797276544E+03  0.50400001928E-02 0. -1.
    10030    2    1    2    0    0  0.00000000000E+00  0.00000000000E+00  0.17547239425E+04  0.27106694734E+04  0.20660766877E+04 0.  0.
        4    1    3    3  502    0  0.65739664290E+03  0.70690233345E+01 -0.16807684824E+03  0.67858069306E+03  0.12699999809E+01 0. -1.
       -4    1    3    3    0  502 -0.65739664290E+03 -0.70690233345E+01  0.19228007908E+04  0.20320887803E+04  0.12699999809E+01 0.  1.
</event>
<event>
 5   0  0.3257130E-05  0.2116220E+04  0.7818609E-02  0.8554132E-01
       -2   -1    0    0    0  501  0.00000000000E+00  0.00000000000E+00  0.81340621081E+03  0.81340621081E+03  0.25500000920E-02 0.  1.
        2   -1    0    0  501    0  0.00000000000E+00  0.00000000000E+00 -0.13764304756E+04  0.13764304756E+04  0.25500000920E-02 0. -1.
    10030    2    1    2    0    0  0.00000000000E+00  0.00000000000E+00 -0.56302426481E+03  0.21898366864E+04  0.21162203076E+04 0.  0.
        3    1    3    3  502    0  0.32956947323E+03  0.95135920310E+03 -0.61825010791E+03  0.11814963297E+04  0.10100000352E+00 0.  1.
       -3    1    3    3    0  502 -0.32956947323E+03 -0.95135920310E+03  0.55225843100E+02  0.10083403567E+04  0.10100000352E+00 0. -1.
</event>
<event>
 5   0  0.3279789E-05  0.2100380E+04  0.7818609E-02  0.8561076E-01
        2   -1    0    0  501    0  0.00000000000E+00  0.00000000000E+00  0.24136082032E+04  0.24136082032E+04  0.25500000920E-02 0.  1.
       -2   -1    0    0    0  501  0.00000000000E+00  0.00000000000E+00 -0.45695039343E+03  0.45695039344E+03  0.25500000920E-02 0. -1.
    10030    2    1    2    0    0  0.00000000000E+00  0.00000000000E+00  0.19566578098E+04  0.28705585966E+04  0.21003801733E+04 0.  0.
        2    1    3    3  502    0 -0.78783731390E+03 -0.27294592577E+03  0.18509893881E+04  0.20301105453E+04  0.25500000920E-02 0.  1.
       -2    1    3    3    0  502  0.78783731390E+03  0.27294592577E+03  0.10566842169E+03  0.84044805129E+03  0.25500000920E-02 0. -1.
</event>
<event>
 5   0  0.1513292E-05  0.2093617E+04  0.7818609E-02  0.8564061E-01
       -1   -1    0    0    0  501  0.00000000000E+00  0.00000000000E+00  0.11494519678E+04  0.11494519678E+04  0.50400001928E-02 0. -1.
        1   -1    0    0  501    0  0.00000000000E+00  0.00000000000E+00 -0.95333054220E+03  0.95333054221E+03  0.50400001928E-02 0.  1.
    10030    2    1    2    0    0  0.00000000000E+00  0.00000000000E+00  0.19612142560E+03  0.21027825100E+04  0.20936166485E+04 0.  0.
        1    1    3    3  502    0 -0.44411591095E+03 -0.93838771338E+03  0.23280177371E+03  0.10639582270E+04  0.50400001928E-02 0. -1.
       -1    1    3    3    0  502  0.44411591095E+03  0.93838771338E+03 -0.36680348103E+02  0.10388242830E+04  0.50400001928E-02 0.  1.
</event>
<event>
 5   0  0.3130517E-05  0.2106057E+04  0.7818609E-02  0.8558580E-01
        2   -1    0    0  501    0  0.00000000000E+00  0.00000000000E+00  0.17933777102E+04  0.17933777102E+04  0.25500000920E-02 0. -1.
       -2   -1    0    0    0  501  0.00000000000E+00  0.00000000000E+00 -0.61831322483E+03  0.61831322483E+03  0.25500000920E-02 0.  1.
    10030    2    1    2    0    0  0.00000000000E+00  0.00000000000E+00  0.11750644853E+04  0.24116909350E+04  0.21060571268E+04 0.  0.
        1    1    3    3  502    0  0.17952537197E+03  0.33459248331E+03  0.17122534050E+04  0.17538509663E+04  0.50400001928E-02 0. -1.
       -1    1    3    3    0  502 -0.17952537197E+03 -0.33459248331E+03 -0.53718891962E+03  0.65783996873E+03  0.50400001928E-02 0.  1.
</event>
<event>
 5   0  0.1435410E-05  0.2098204E+04  0.7818609E-02  0.8562035E-01
        1   -1    0    0  501    0  0.00000000000E+00  0.00000000000E+00  0.13497529248E+04  0.13497529248E+04  0.50400001928E-02 0. -1.
       -1   -1    0    0    0  501  0.00000000000E+00  0.00000000000E+00 -0.81541965078E+03  0.81541965079E+03  0.50400001928E-02 0.  1.
    10030    2    1    2    0    0  0.00000000000E+00  0.00000000000E+00  0.53433327400E+03  0.21651725756E+04  0.20982040497E+04 0.  0.
        2    1    3    3  502    0 -0.79864103780E+02  0.15483434249E+03  0.13347211844E+04  0.13460433087E+04  0.25500000920E-02 0. -1.
       -2    1    3    3    0  502  0.79864103780E+02 -0.15483434249E+03 -0.80038791044E+03  0.81912926689E+03  0.25500000920E-02 0.  1.
</event>
<event>
 5   0  0.3108326E-05  0.2099858E+04  0.7818609E-02  0.8561306E-01
       -2   -1    0    0    0  501  0.00000000000E+00  0.00000000000E+00  0.75590395230E+03  0.75590395230E+03  0.25500000920E-02 0.  1.
        2   -1    0    0  501    0  0.00000000000E+00  0.00000000000E+00 -0.14583215469E+04  0.14583215469E+04  0.25500000920E-02 0. -1.
    10030    2    1    2    0    0  0.00000000000E+00  0.00000000000E+00 -0.70241759458E+03  0.22142254992E+04  0.20998581105E+04 0.  0.
        5    1    3    3  502    0 -0.64830576861E+03  0.86672190283E+02  0.51481172643E+03  0.83238551275E+03  0.46999998093E+01 0.  1.
       -5    1    3    3    0  502  0.64830576861E+03 -0.86672190283E+02 -0.12172293210E+04  0.13818399864E+04  0.46999998093E+01 0. -1.
</event>
<event>
 5   0  0.1435410E-05  0.2101794E+04  0.7818609E-02  0.8560454E-01
       -1   -1    0    0    0  501  0.00000000000E+00  0.00000000000E+00  0.60481389474E+03  0.60481389476E+03  0.50400001928E-02 0. -1.
        1   -1    0    0  501    0  0.00000000000E+00  0.00000000000E+00 -0.18259906371E+04  0.18259906371E+04  0.50400001928E-02 0.  1.
    10030    2    1    2    0    0  0.00000000000E+00  0.00000000000E+00 -0.12211767424E+04  0.24308045319E+04  0.21017940042E+04 0.  0.
        2    1    3    3  502    0 -0.19457815440E+03 -0.70372600912E+03 -0.14847455951E+04  0.16545574744E+04  0.25500000920E-02 0.  1.
       -2    1    3    3    0  502  0.19457815440E+03  0.70372600912E+03  0.26356885271E+03  0.77624705745E+03  0.25500000920E-02 0. -1.
</event>
<event>
 5   0  0.1466480E-05  0.2113699E+04  0.7818609E-02  0.8555233E-01
        1   -1    0    0  501    0  0.00000000000E+00  0.00000000000E+00  0.14678533780E+04  0.14678533780E+04  0.50400001928E-02 0.  1.
       -1   -1    0    0    0  501  0.00000000000E+00  0.00000000000E+00 -0.76092817743E+03  0.76092817745E+03  0.50400001928E-02 0. -1.
    10030    2    1    2    0    0  0.00000000000E+00  0.00000000000E+00  0.70692520055E+03  0.22287815554E+04  0.21136991230E+04 0.  0.
        3    1    3    3  502    0  0.16340281253E+03  0.43242886743E+03  0.13555945411E+04  0.14322471067E+04  0.10100000352E+00 0.  1.
       -3    1    3    3    0  502 -0.16340281253E+03 -0.43242886743E+03 -0.64866934053E+03  0.79653444877E+03  0.10100000352E+00 0. -1.
</event>
<event>
 5   0  0.1453430E-05  0.2125044E+04  0.7818609E-02  0.8550291E-01
        1   -1    0    0  501    0  0.00000000000E+00  0.00000000000E+00  0.11685850659E+04  0.11685850660E+04  0.50400001928E-02 0.  1.
       -1   -1    0    0    0  501  0.00000000000E+00  0.00000000000E+00 -0.96608527958E+03  0.96608527960E+03  0.50400001928E-02 0. -1.
    10030    2    1    2    0    0  0.00000000000E+00  0.00000000000E+00  0.20249978636E+03  0.21346703456E+04  0.21250438397E+04 0.  0.
        5    1    3    3  502    0 -0.86871320244E+03 -0.25915693388E+03  0.65793157326E+03  0.11201432897E+04  0.46999998093E+01 0.  1.
       -5    1    3    3    0  502  0.86871320244E+03  0.25915693388E+03 -0.45543178690E+03  0.10145270558E+04  0.46999998093E+01 0. -1.
</event>
<event>
 5   0  0.3130517E-05  0.2111370E+04  0.7818609E-02  0.8556251E-01
       -2   -1    0    0    0  501  0.00000000000E+00  0.00000000000E+00  0.72119372038E+03  0.72119372038E+03  0.25500000920E-02 0.  1.
        2   -1    0    0  501    0  0.00000000000E+00  0.00000000000E+00 -0.15453140265E+04  0.15453140265E+04  0.25500000920E-02 0. -1.
    10030    2    1    2    0    0  0.00000000000E+00  0.00000000000E+00 -0.82412030612E+03  0.22665077469E+04  0.21113699552E+04 0.  0.
        1    1    3    3  502    0 -0.42000518998E+03 -0.93308742980E+03 -0.69078055425E+03  0.12345988358E+04  0.50400001928E-02 0.  1.
       -1    1    3    3    0  502  0.42000518998E+03  0.93308742980E+03 -0.13333975187E+03  0.10319089111E+04  0.50400001928E-02 0. -1.
</event>
<event>
 5   0  0.1466480E-05  0.2100595E+04  0.7818609E-02  0.8560981E-01
        1   -1    0    0  501    0  0.00000000000E+00  0.00000000000E+00  0.97635175777E+03  0.97635175778E+03  0.50400001928E-02 0.  1.
       -1   -1    0    0    0  501  0.00000000000E+00  0.00000000000E+00 -0.11298438499E+04  0.11298438499E+04  0.50400001928E-02 0. -1.
    10030    2    1    2    0    0  0.00000000000E+00  0.00000000000E+00 -0.15349209215E+03  0.21061956077E+04  0.21005951813E+04 0.  0.
        3    1    3    3  502    0  0.41291611387E+03  0.49833209297E+03 -0.90616999285E+03  0.11135432897E+04  0.10100000352E+00 0. -1.
       -3    1    3    3    0  502 -0.41291611387E+03 -0.49833209297E+03  0.75267790070E+03  0.99265231797E+03  0.10100000352E+00 0.  1.
</event>
<event>
 5   0  0.3279789E-05  0.2099767E+04  0.7818609E-02  0.8561346E-01
       -2   -1    0    0    0  501  0.00000000000E+00  0.00000000000E+00  0.74877320190E+03  0.74877320190E+03  0.25500000920E-02 0. -1.
        2   -1    0    0  501    0  0.00000000000E+00  0.00000000000E+00 -0.14720818826E+04  0.14720818826E+04  0.25500000920E-02 0.  1.
    10030    2    1    2    0    0  0.00000000000E+00  0.00000000000E+00 -0.72330868072E+03  0.22208550845E+04  0.20997670963E+04 0.  0.
        2    1    3    3  502    0 -0.12025958329E+03  0.45143683508E+03  0.63277677996E+03  0.78655199238E+03  0.25500000920E-02 0. -1.
       -2    1    3    3    0  502  0.12025958329E+03 -0.45143683508E+03 -0.13560854607E+04  0.14343030921E+04  0.25500000920E-02 0.  1.
</event>
<event>
 5   0  0.1492552E-05  0.2100377E+04  0.7818609E-02  0.8561077E-01
        1   -1    0    0  501    0  0.00000000000E+00  0.00000000000E+00  0.11157546058E+04  0.11157546058E+04  0.50400001928E-02 0.  1.
       -1   -1    0    0    0  501  0.00000000000E+00  0.00000000000E+00 -0.98847504255E+03  0.98847504257E+03  0.50400001928E-02 0. -1.
    10030    2    1    2    0    0  0.00000000000E+00  0.00000000000E+00  0.12727956327E+03  0.21042296484E+04  0.21003767105E+04 0.  0.
        4    1    3    3  502    0  0.76795062852E+03 -0.48632797758E+03  0.59056172566E+03  0.10839870084E+04  0.12699999809E+01 0.  1.
       -4    1    3    3    0  502 -0.76795062852E+03  0.48632797758E+03 -0.46328216239E+03  0.10202426400E+04  0.12699999809E+01 0. -1.
</event>
<event>
 5   0  0.1453430E-05  0.2108469E+04  0.7818609E-02  0.8557522E-01
       -1   -1    0    0    0  501  0.00000000000E+00  0.00000000000E+00  0.60429861522E+03  0.60429861524E+03  0.50400001928E-02 0.  1.
        1   -1    0    0  501    0  0.00000000000E+00  0.00000000000E+00 -0.18391732709E+04  0.18391732709E+04  0.50400001928E-02 0. -1.
    10030    2    1    2    0    0  0.00000000000E+00  0.00000000000E+00 -0.12348746557E+04  0.24434718862E+04  0.21084685066E+04 0.  0.
        5    1    3    3  502    0 -0.72965915471E+03 -0.69488652408E+03 -0.97672524118E+03  0.14033118150E+04  0.46999998093E+01 0.  1.
       -5    1    3    3    0  502  0.72965915471E+03  0.69488652408E+03 -0.25814941451E+03  0.10401600712E+04  0.46999998093E+01 0. -1.
</event>
<event>
 5   0  0.3108326E-05  0.2061829E+04  0.7818609E-02  0.8578247E-01
        2   -1    0    0  501    0  0.00000000000E+00  0.00000000000E+00  0.14324521181E+04  0.14324521181E+04  0.25500000920E-02 0.  1.
       -2   -1    0    0    0  501  0.00000000000E+00  0.00000000000E+00 -0.74193394414E+03  0.74193394414E+03  0.25500000920E-02 0. -1.
    10030    2    1    2    0    0  0.00000000000E+00  0.00000000000E+00  0.69051817396E+03  0.21743860622E+04  0.20618291392E+04 0.  0.
        5    1    3    3  502    0  0.21590695724E+03 -0.48684413837E+03  0.12761287371E+04  0.13828086176E+04  0.46999998093E+01 0.  1.
       -5    1    3    3    0  502 -0.21590695724E+03  0.48684413837E+03 -0.58561056313E+03  0.79157744466E+03  0.46999998093E+01 0. -1.
</event>
<event>
 5   0  0.1453430E-05  0.2095775E+04  0.7818609E-02  0.8563107E-01
        1   -1    0    0  501    0  0.00000000000E+00  0.00000000000E+00  0.11924145226E+04  0.11924145226E+04  0.50400001928E-02 0.  1.
       -1   -1    0    0    0  501  0.00000000000E+00  0.00000000000E+00 -0.92087834167E+03  0.92087834169E+03  0.50400001928E-02 0. -1.
    10030    2    1    2    0    0  0.00000000000E+00  0.00000000000E+00  0.27153618096E+03  0.21132928643E+04  0.20957754729E+04 0.  0.
        5    1    3    3  502    0 -0.42837513131E+03 -0.51168055273E+01 -0.82852797181E+03  0.93274440491E+03  0.46999998093E+01 0. -1.
       -5    1    3    3    0  502  0.42837513131E+03  0.51168055273E+01  0.11000641528E+04  0.11805484594E+04  0.46999998093E+01 0.  1.
</event>
<event>
 5   0  0.1435410E-05  0.2101292E+04  0.7818609E-02  0.8560674E-01
       -1   -1    0    0    0  501  0.00000000000E+00  0.00000000000E+00  0.12441620229E+04  0.12441620229E+04  0.50400001928E-02 0.  1.
        1   -1    0    0  501    0  0.00000000000E+00  0.00000000000E+00 -0.88722935788E+03  0.88722935789E+03  0.50400001928E-02 0. -1.
    10030    2    1    2    0    0  0.00000000000E+00  0.00000000000E+00  0.35693266502E+03  0.21313913808E+04  0.21012920527E+04 0.  0.
        2    1    3    3  502    0 -0.10107619739E+04  0.12936216480E+03  0.43802778318E+03  0.11091630522E+04  0.25500000920E-02 0.  1.
       -2    1    3    3    0  502  0.10107619739E+04 -0.12936216480E+03 -0.81095118160E+02  0.10222283286E+04  0.25500000920E-02 0. -1.
</event>
<event>
 5   0  0.3130517E-05  0.2102963E+04  0.7818609E-02  0.8559939E-01
       -2   -1    0    0    0  501  0.00000000000E+00  0.00000000000E+00  0.10836658865E+04  0.10836658865E+04  0.25500000920E-02 0.  1.
        2   -1    0    0  501    0  0.00000000000E+00  0.00000000000E+00 -0.10202527372E+04  0.10202527372E+04  0.25500000920E-02 0. -1.
    10030    2    1    2    0    0  0.00000000000E+00  0.00000000000E+00  0.63413149341E+02  0.21039186237E+04  0.21029627547E+04 0.  0.
        1    1    3    3  502    0 -0.10112986277E+04  0.80394630547E+02 -0.24486957607E+03  0.10436231697E+04  0.50400001928E-02 0. -1.
       -1    1    3    3    0  502  0.10112986277E+04 -0.80394630547E+02  0.30828272541E+03  0.10602954540E+04  0.50400001928E-02 0.  1.
</event>
<event>
 5   0  0.1492552E-05  0.2104255E+04  0.7818609E-02  0.8559371E-01
        1   -1    0    0  501    0  0.00000000000E+00  0.00000000000E+00  0.13667406759E+04  0.13667406759E+04  0.50400001928E-02 0. -1.
       -1   -1    0    0    0  501  0.00000000000E+00  0.00000000000E+00 -0.80993588168E+03  0.80993588170E+03  0.50400001928E-02 0.  1.
    10030    2    1    2    0    0  0.00000000000E+00  0.00000000000E+00  0.55680479423E+03  0.21766765576E+04  0.21042550363E+04 0.  0.
        4    1    3    3  502    0 -0.71394397635E+03 -0.37520714108E+03  0.97728413303E+03  0.12671157365E+04  0.12699999809E+01 0. -1.
       -4    1    3    3    0  502  0.71394397635E+03  0.37520714108E+03 -0.42047933880E+03  0.90956082113E+03  0.12699999809E+01 0.  1.
</event>
<event>
 5   0  0.3130517E-05  0.2094222E+04  0.7818609E-02  0.8563793E-01
        2   -1    0    0  501    0  0.00000000000E+00  0.00000000000E+00  0.98142659036E+03  0.98142659037E+03  0.25500000920E-02 0. -1.
       -2   -1    0    0    0  501  0.00000000000E+00  0.00000000000E+00 -0.11171919520E+04  0.11171919520E+04  0.25500000920E-02 0.  1.
    10030    2    1    2    0    0  0.00000000000E+00  0.00000000000E+00 -0.13576536159E+03  0.20986185423E+04  0.20942224220E+04 0.  0.
        1    1    3    3  502    0 -0.25053671890E+02  0.54253423794E+03 -0.96501097397E+03  0.11073469491E+04  0.50400001928E-02 0.  1.
       -1    1    3    3    0  502  0.25053671890E+02 -0.54253423794E+03  0.82924561238E+03  0.99127159320E+03  0.50400001928E-02 0. -1.
</event>
<event>
 5   0  0.3130517E-05  0.2097401E+04  0.7818609E-02  0.8562389E-01
       -2   -1    0    0    0  501  0.00000000000E+00  0.00000000000E+00  0.14528674674E+04  0.14528674674E+04  0.25500000920E-02 0. -1.
        2   -1    0    0  501    0  0.00000000000E+00  0.00000000000E+00 -0.75696703472E+03  0.75696703472E+03  0.25500000920E-02 0.  1.
    10030    2    1    2    0    0  0.00000000000E+00  0.00000000000E+00  0.69590043267E+03  0.22098345021E+04  0.20974010381E+04 0.  0.
        1    1    3    3  502    0  0.89541973205E+03 -0.36271329166E+03  0.77778450628E+03  0.12402766493E+04  0.50400001928E-02 0. -1.
       -1    1    3    3    0  502 -0.89541973205E+03  0.36271329166E+03 -0.81884073604E+02  0.96955785285E+03  0.50400001928E-02 0.  1.
</event>
<event>
 5   0  0.1492552E-05  0.2092308E+04  0.7818609E-02  0.8564639E-01
        1   -1    0    0  501    0  0.00000000000E+00  0.00000000000E+00  0.17197261797E+04  0.17197261797E+04  0.50400001928E-02 0. -1.
       -1   -1    0    0    0  501  0.00000000000E+00  0.00000000000E+00 -0.63640286504E+03  0.63640286506E+03  0.50400001928E-02 0.  1.
    10030    2    1    2    0    0  0.00000000000E+00  0.00000000000E+00  0.10833233147E+04  0.23561290448E+04  0.20923084552E+04 0.  0.
        4    1    3    3  502    0  0.38188626958E+03  0.72748216386E+03 -0.18758064390E+03  0.84276659432E+03  0.12699999809E+01 0.  1.
       -4    1    3    3    0  502 -0.38188626958E+03 -0.72748216386E+03  0.12709039586E+04  0.15133624505E+04  0.12699999809E+01 0. -1.
</event>
<event>
 5   0  0.1466480E-05  0.2099978E+04  0.7818609E-02  0.8561253E-01
        1   -1    0    0  501    0  0.00000000000E+00  0.00000000000E+00  0.14325964496E+04  0.14325964496E+04  0.50400001928E-02 0.  1.
       -1   -1    0    0    0  501  0.00000000000E+00  0.00000000000E+00 -0.76956585332E+03  0.76956585334E+03  0.50400001928E-02 0. -1.
    10030    2    1    2    0    0  0.00000000000E+00  0.00000000000E+00  0.66303059626E+03  0.22021623029E+04  0.20999783896E+04 0.  0.
        3    1    3    3  502    0 -0.12620628580E+03 -0.17142964567E+03  0.14097296185E+04  0.14257116670E+04  0.10100000352E+00 0.  1.
       -3    1    3    3    0  502  0.12620628580E+03  0.17142964567E+03 -0.74669902224E+03  0.77645063591E+03  0.10100000352E+00 0. -1.
</event>
<event>
 5   0  0.3242231E-05  0.2073041E+04  0.7818609E-02  0.8573213E-01
        2   -1    0    0  501    0  0.00000000000E+00  0.00000000000E+00  0.13624057026E+04  0.13624057026E+04  0.25500000920E-02 0.  1.
       -2   -1    0    0    0  501  0.00000000000E+00  0.00000000000E+00 -0.78858669149E+03  0.78858669149E+03  0.25500000920E-02 0. -1.
    10030    2    1    2    0    0  0.00000000000E+00  0.00000000000E+00  0.57381901112E+03  0.21509923941E+04  0.20730412495E+04 0.  0.
        4    1    3    3  502    0 -0.59909308063E+03 -0.75188365116E+03 -0.11512871933E+03  0.96824468966E+03  0.12699999809E+01 0. -1.
       -4    1    3    3    0  502  0.59909308063E+03  0.75188365116E+03  0.68894773045E+03  0.11827477044E+04  0.12699999809E+01 0.  1.
</event>
<event>
 5   0  0.1492552E-05  0.2098018E+04  0.7818609E-02  0.8562117E-01
        1   -1    0    0  501    0  0.00000000000E+00  0.00000000000E+00  0.14444654090E+04  0.14444654090E+04  0.50400001928E-02 0. -1.
       -1   -1    0    0    0  501  0.00000000000E+00  0.00000000000E+00 -0.76181829443E+03  0.76181829445E+03  0.50400001928E-02 0.  1.
    10030    2    1    2    0    0  0.00000000000E+00  0.00000000000E+00  0.68264711454E+03  0.22062837034E+04  0.20980182785E+04 0.  0.
        4    1    3    3  502    0  0.91197125767E+03  0.49950486309E+03  0.48712103172E+03  0.11482531060E+04  0.12699999809E+01 0. -1.
       -4    1    3    3    0  502 -0.91197125767E+03 -0.49950486309E+03  0.19552608282E+03  0.10580305974E+04  0.12699999809E+01 0.  1.
</event>
<event>
 5   0  0.1513292E-05  0.2099468E+04  0.7818609E-02  0.8561478E-01
       -1   -1    0    0    0  501  0.00000000000E+00  0.00000000000E+00  0.72197202968E+03  0.72197202969E+03  0.50400001928E-02 0. -1.
        1   -1    0    0  501    0  0.00000000000E+00  0.00000000000E+00 -0.15262940731E+04  0.15262940731E+04  0.50400001928E-02 0.  1.
    10030    2    1    2    0    0  0.00000000000E+00  0.00000000000E+00 -0.80432204342E+03  0.22482661028E+04  0.20994681516E+04 0.  0.
        1    1    3    3  502    0  0.21659020785E+03  0.50873353908E+03  0.55339267883E+03  0.78228165576E+03  0.50400001928E-02 0. -1.
       -1    1    3    3    0  502 -0.21659020785E+03 -0.50873353908E+03 -0.13577147223E+04  0.14659844470E+04  0.50400001928E-02 0.  1.
</event>
<event>
 5   0  0.1453430E-05  0.2102412E+04  0.7818609E-02  0.8560182E-01
        1   -1    0    0  501    0  0.00000000000E+00  0.00000000000E+00  0.11273702780E+04  0.11273702780E+04  0.50400001928E-02 0.  1.
       -1   -1    0    0    0  501  0.00000000000E+00  0.00000000000E+00 -0.98018711597E+03  0.98018711598E+03  0.50400001928E-02 0. -1.
    10030    2    1    2    0    0  0.00000000000E+00  0.00000000000E+00  0.14718316202E+03  0.21075573940E+04  0.21024117783E+04 0.  0.
        5    1    3    3  502    0  0.32848142207E+03 -0.99689723159E+03  0.13124404682E+03  0.10578049087E+04  0.46999998093E+01 0.  1.
       -5    1    3    3    0  502 -0.32848142207E+03  0.99689723159E+03  0.15939115206E+02  0.10497524853E+04  0.46999998093E+01 0. -1.
</event>
<event>
 5   0  0.3242231E-05  0.2118240E+04  0.7818609E-02  0.8553251E-01
       -2   -1    0    0    0  501  0.00000000000E+00  0.00000000000E+00  0.14781060742E+04  0.14781060742E+04  0.25500000920E-02 0.  1.
        2   -1    0    0  501    0  0.00000000000E+00  0.00000000000E+00 -0.75890055609E+03  0.75890055610E+03  0.25500000920E-02 0. -1.
    10030    2    1    2    0    0  0.00000000000E+00  0.00000000000E+00  0.71920551815E+03  0.22370066303E+04  0.21182403279E+04 0.  0.
        4    1    3    3  502    0 -0.62570097598E+01 -0.44500733879E+03 -0.65535709909E+03  0.79219014256E+03  0.12699999809E+01 0. -1.
       -4    1    3    3    0  502  0.62570097598E+01  0.44500733879E+03  0.13745626172E+04  0.14448164878E+04  0.12699999809E+01 0.  1.
</event>
<event>
 5   0  0.3279789E-05  0.2093111E+04  0.7818609E-02  0.8564284E-01
       -2   -1    0    0    0  501  0.00000000000E+00  0.00000000000E+00  0.12867446277E+04  0.12867446277E+04  0.25500000920E-02 0. -1.
        2   -1    0    0  501    0  0.00000000000E+00  0.00000000000E+00 -0.85120142467E+03  0.85120142468E+03  0.25500000920E-02 0.  1.
    10030    2    1    2    0    0  0.00000000000E+00  0.00000000000E+00  0.43554320307E+03  0.21379460524E+04  0.20931114259E+04 0.  0.
        2    1    3    3  502    0 -0.97528374041E+03 -0.37439772049E+03  0.28177832624E+03  0.10820125011E+04  0.25500000920E-02 0. -1.
       -2    1    3    3    0  502  0.97528374041E+03  0.37439772049E+03  0.15376487683E+03  0.10559335513E+04  0.25500000920E-02 0.  1.
</event>
<event>
 5   0  0.1453430E-05  0.2117512E+04  0.7818609E-02  0.8553568E-01
       -1   -1    0    0    0  501  0.00000000000E+00  0.00000000000E+00  0.10469010671E+04  0.10469010671E+04  0.50400001928E-02 0. -1.
        1   -1    0    0  501    0  0.00000000000E+00  0.00000000000E+00 -0.10707455545E+04  0.10707455545E+04  0.50400001928E-02 0.  1.
    10030    2    1    2    0    0  0.00000000000E+00  0.00000000000E+00 -0.23844487402E+02  0.21176466216E+04  0.21175123741E+04 0.  0.
        5    1    3    3  502    0 -0.15943488223E+03  0.58100837009E+03 -0.88258203677E+03  0.10686268523E+04  0.46999998093E+01 0.  1.
       -5    1    3    3    0  502  0.15943488223E+03 -0.58100837009E+03  0.85873754937E+03  0.10490197693E+04  0.46999998093E+01 0. -1.
</event>
<event>
 5   0  0.1513292E-05  0.2101894E+04  0.7818609E-02  0.8560410E-01
       -1   -1    0    0    0  501  0.00000000000E+00  0.00000000000E+00  0.60334769003E+03  0.60334769006E+03  0.50400001928E-02 0.  1.
        1   -1    0    0  501    0  0.00000000000E+00  0.00000000000E+00 -0.18306020443E+04  0.18306020444E+04  0.50400001928E-02 0. -1.
    10030    2    1    2    0    0  0.00000000000E+00  0.00000000000E+00 -0.12272543543E+04  0.24339497344E+04  0.21018939220E+04 0.  0.
        1    1    3    3  502    0 -0.10083645331E+03  0.10439693026E+04 -0.69087073383E+03  0.12559228742E+04  0.50400001928E-02 0. -1.
       -1    1    3    3    0  502  0.10083645331E+03 -0.10439693026E+04 -0.53638362048E+03  0.11780268602E+04  0.50400001928E-02 0.  1.
</event>
<event>
 5   0  0.3257130E-05  0.2116471E+04  0.7818609E-02  0.8554022E-01
       -2   -1    0    0    0  501  0.00000000000E+00  0.00000000000E+00  0.12619734486E+04  0.12619734486E+04  0.25500000920E-02 0. -1.
        2   -1    0    0  501    0  0.00000000000E+00  0.00000000000E+00 -0.88738986379E+03  0.88738986379E+03  0.25500000920E-02 0.  1.
    10030    2    1    2    0    0  0.00000000000E+00  0.00000000000E+00  0.37458358482E+03  0.21493633124E+04  0.21164710692E+04 0.  0.
        3    1    3    3  502    0  0.75138765456E+03  0.69203874500E+03 -0.93338435552E+02  0.10257743932E+04  0.10100000352E+00 0.  1.
       -3    1    3    3    0  502 -0.75138765456E+03 -0.69203874500E+03  0.46792202037E+03  0.11235889192E+04  0.10100000352E+00 0. -1.
</event>
<event>
 5   0  0.3242231E-05  0.2093454E+04  0.7818609E-02  0.8564132E-01
        2   -1    0    0  501    0  0.00000000000E+00  0.00000000000E+00  0.21253769108E+04  0.21253769108E+04  0.25500000920E-02 0.  1.
       -2   -1    0    0    0  501  0.00000000000E+00  0.00000000000E+00 -0.51550275219E+03  0.51550275220E+03  0.25500000920E-02 0. -1.
    10030    2    1    2    0    0  0.00000000000E+00  0.00000000000E+00  0.16098741586E+04  0.26408796630E+04  0.20934542240E+04 0.  0.
        4    1    3    3  502    0 -0.90870247911E+02  0.20415731072E+03 -0.48505893982E+03  0.53406123008E+03  0.12699999809E+01 0. -1.
       -4    1    3    3    0  502  0.90870247911E+02 -0.20415731072E+03  0.20949330985E+04  0.21068184330E+04  0.12699999809E+01 0.  1.
</event>
<event>
 5   0  0.3242231E-05  0.2102465E+04  0.7818609E-02  0.8560158E-01
       -2   -1    0    0    0  501  0.00000000000E+00  0.00000000000E+00  0.72955925748E+03  0.72955925748E+03  0.25500000920E-02 0.  1.
        2   -1    0    0  501    0  0.00000000000E+00  0.00000000000E+00 -0.15147368262E+04  0.15147368262E+04  0.25500000920E-02 0. -1.
    10030    2    1    2    0    0  0.00000000000E+00  0.00000000000E+00 -0.78517756867E+03  0.22442960836E+04  0.21024654805E+04 0.  0.
        4    1    3    3  502    0  0.32910963389E+02 -0.56313761661E+03  0.55431523518E+03  0.79086920511E+03  0.12699999809E+01 0.  1.
       -4    1    3    3    0  502 -0.32910963389E+02  0.56313761661E+03 -0.13394928039E+04  0.14534268785E+04  0.12699999809E+01 0. -1.
</event>
<event>
 5   0  0.1466480E-05  0.2095740E+04  0.7818609E-02  0.8563122E-01
       -1   -1    0    0    0  501  0.00000000000E+00  0.00000000000E+00  0.43761219537E+03  0.43761219540E+03  0.50400001928E-02 0.  1.
        1   -1    0    0  501    0  0.00000000000E+00  0.00000000000E+00 -0.25091420374E+04  0.25091420374E+04  0.50400001928E-02 0. -1.
    10030    2    1    2    0    0  0.00000000000E+00  0.00000000000E+00 -0.20715298420E+04  0.29467542328E+04  0.20957396361E+04 0.  0.
        3    1    3    3  502    0 -0.31788942231E+03  0.36378393666E+03 -0.23432114183E+04  0.23924949735E+04  0.10100000352E+00 0. -1.
       -3    1    3    3    0  502  0.31788942231E+03 -0.36378393666E+03  0.27168157627E+03  0.55425925926E+03  0.10100000352E+00 0.  1.
</event>
<event>
 5   0  0.1466480E-05  0.2105250E+04  0.7818609E-02  0.8558934E-01
       -1   -1    0    0    0  501  0.00000000000E+00  0.00000000000E+00  0.10159740387E+04  0.10159740387E+04  0.50400001928E-02 0.  1.
        1   -1    0    0  501    0  0.00000000000E+00  0.00000000000E+00 -0.10905976748E+04  0.10905976748E+04  0.50400001928E-02 0. -1.
    10030    2    1    2    0    0  0.00000000000E+00  0.00000000000E+00 -0.74623636158E+02  0.21065717135E+04  0.21052495570E+04 0.  0.
        3    1    3    3  502    0 -0.81264783351E+03 -0.50596453533E+03  0.40070994605E+03  0.10377692823E+04  0.10100000352E+00 0.  1.
       -3    1    3    3    0  502  0.81264783351E+03  0.50596453533E+03 -0.47533358221E+03  0.10688024312E+04  0.10100000352E+00 0. -1.
</event>
<event>
 5   0  0.1513292E-05  0.2097394E+04  0.7818609E-02  0.8562392E-01
       -1   -1    0    0    0  501  0.00000000000E+00  0.00000000000E+00  0.40792279770E+03  0.40792279773E+03  0.50400001928E-02 0.  1.
        1   -1    0    0  501    0  0.00000000000E+00  0.00000000000E+00 -0.26960139633E+04  0.26960139633E+04  0.50400001928E-02 0. -1.
    10030    2    1    2    0    0  0.00000000000E+00  0.00000000000E+00 -0.22880911656E+04  0.31039367611E+04  0.20973941533E+04 0.  0.
        1    1    3    3  502    0 -0.74543272903E+03  0.70488675532E+02 -0.22306671812E+04  0.23529799574E+04  0.50400001928E-02 0. -1.
       -1    1    3    3    0  502  0.74543272903E+03 -0.70488675532E+02 -0.57423984444E+02  0.75095680362E+03  0.50400001928E-02 0.  1.
</event>
<event>
 5   0  0.1435410E-05  0.2107652E+04  0.7818609E-02  0.8557880E-01
       -1   -1    0    0    0  501  0.00000000000E+00  0.00000000000E+00  0.43957273594E+03  0.43957273597E+03  0.50400001928E-02 0.  1.
        1   -1    0    0  501    0  0.00000000000E+00  0.00000000000E+00 -0.25264281908E+04  0.25264281908E+04  0.50400001928E-02 0. -1.
    10030    2    1    2    0    0  0.00000000000E+00  0.00000000000E+00 -0.20868554548E+04  0.29660009268E+04  0.21076517284E+04 0.  0.
        2    1    3    3  502    0  0.42758760908E+03  0.43669468750E+03 -0.22515496233E+04  0.23330257435E+04  0.25500000920E-02 0. -1.
       -2    1    3    3    0  502 -0.42758760908E+03 -0.43669468750E+03  0.16469416845E+03  0.63297518328E+03  0.25500000920E-02 0.  1.
</event>
<event>
 5   0  0.3257130E-05  0.2104651E+04  0.7818609E-02  0.8559197E-01
       -2   -1    0    0    0  501  0.00000000000E+00  0.00000000000E+00  0.74025866782E+03  0.74025866783E+03  0.25500000920E-02 0. -1.
        2   -1    0    0  501    0  0.00000000000E+00  0.00000000000E+00 -0.14959487585E+04  0.14959487585E+04  0.25500000920E-02 0.  1.
    10030    2    1    2    0    0  0.00000000000E+00  0.00000000000E+00 -0.75569009070E+03  0.22362074264E+04  0.21046510733E+04 0.  0.
        3    1    3    3  502    0 -0.84741535549E+03 -0.36369461659E+03  0.16079746507E+03  0.93607819857E+03  0.10100000352E+00 0. -1.
       -3    1    3    3    0  502  0.84741535549E+03  0.36369461659E+03 -0.91648755577E+03  0.13001292278E+04  0.10100000352E+00 0.  1.
</event>
<event>
 5   0  0.3257130E-05  0.2087501E+04  0.7818609E-02  0.8566769E-01
        2   -1    0    0  501    0  0.00000000000E+00  0.00000000000E+00  0.80864317559E+03  0.80864317559E+03  0.25500000920E-02 0. -1.
       -2   -1    0    0    0  501  0.00000000000E+00  0.00000000000E+00 -0.13472138422E+04  0.13472138422E+04  0.25500000920E-02 0.  1.
    10030    2    1    2    0    0  0.00000000000E+00  0.00000000000E+00 -0.53857066663E+03  0.21558570178E+04  0.20875011661E+04 0.  0.
        3    1    3    3  502    0  0.84179895503E+03  0.59424745313E+03 -0.44104349253E+03  0.11208366914E+04  0.10100000352E+00 0. -1.
       -3    1    3    3    0  502 -0.84179895503E+03 -0.59424745313E+03 -0.97527174102E+02  0.10350203264E+04  0.10100000352E+00 0.  1.
</event>
<event>
 5   0  0.1466480E-05  0.2092161E+04  0.7818609E-02  0.8564704E-01
       -1   -1    0    0    0  501  0.00000000000E+00  0.00000000000E+00  0.61102804115E+03  0.61102804117E+03  0.50400001928E-02 0. -1.
        1   -1    0    0  501    0  0.00000000000E+00  0.00000000000E+00 -0.17908906982E+04  0.17908906982E+04  0.50400001928E-02 0.  1.
    10030    2    1    2    0    0  0.00000000000E+00  0.00000000000E+00 -0.11798626571E+04  0.24019187394E+04  0.20921610218E+04 0.  0.
        3    1    3    3  502    0  0.25300706807E+03 -0.47736922491E+02 -0.17539455593E+04  0.17727426281E+04  0.10100000352E+00 0.  1.
       -3    1    3    3    0  502 -0.25300706807E+03  0.47736922491E+02  0.57408290220E+03  0.62917611133E+03  0.10100000352E+00 0. -1.
</event>
<event>
 5   0  0.3279789E-05  0.2113165E+04  0.7818609E-02  0.8555466E-01
       -2   -1    0    0    0  501  0.00000000000E+00  0.00000000000E+00  0.78632520995E+03  0.78632520995E+03  0.25500000920E-02 0. -1.
        2   -1    0    0  501    0  0.00000000000E+00  0.00000000000E+00 -0.14197265338E+04  0.14197265338E+04  0.25500000920E-02 0.  1.
    10030    2    1    2    0    0  0.00000000000E+00  0.00000000000E+00 -0.63340132390E+03  0.22060517438E+04  0.21131651756E+04 0.  0.
        2    1    3    3  502    0 -0.73507904109E+03 -0.72699162576E+03 -0.89154756361E+02  0.10376929176E+04  0.25500000920E-02 0. -1.
       -2    1    3    3    0  502  0.73507904109E+03  0.72699162576E+03 -0.54424656753E+03  0.11683588262E+04  0.25500000920E-02 0.  1.
</event>
<event>
 5   0  0.3130517E-05  0.2092636E+04  0.7818609E-02  0.8564494E-01
       -2   -1    0    0    0  501  0.00000000000E+00  0.00000000000E+00  0.71973232748E+03  0.71973232748E+03  0.25500000920E-02 0. -1.
        2   -1    0    0  501    0  0.00000000000E+00  0.00000000000E+00 -0.15210956805E+04  0.15210956805E+04  0.25500000920E-02 0.  1.
    10030    2    1    2    0    0  0.00000000000E+00  0.00000000000E+00 -0.80136335306E+03  0.22408280080E+04  0.20926363606E+04 0.  0.
        1    1    3    3  502    0  0.70649178461E+03  0.54792774055E+03 -0.98270357166E+03  0.13285562692E+04  0.50400001928E-02 0.  1.
       -1    1    3    3    0  502 -0.70649178461E+03 -0.54792774055E+03  0.18134021861E+03  0.91227173884E+03  0.50400001928E-02 0. -1.
</event>
<event>
 5   0  0.3242231E-05  0.2168288E+04  0.7818609E-02  0.8531745E-01
       -2   -1    0    0    0  501  0.00000000000E+00  0.00000000000E+00  0.10678676899E+04  0.10678676899E+04  0.25500000920E-02 0.  1.
        2   -1    0    0  501    0  0.00000000000E+00  0.00000000000E+00 -0.11006681338E+04  0.11006681338E+04  0.25500000920E-02 0. -1.
    10030    2    1    2    0    0  0.00000000000E+00  0.00000000000E+00 -0.32800443891E+02  0.21685358237E+04  0.21682877461E+04 0.  0.
        4    1    3    3  502    0 -0.61847466820E+03 -0.31195472259E+03 -0.85048584426E+03  0.10968839721E+04  0.12699999809E+01 0. -1.
       -4    1    3    3    0  502  0.61847466820E+03  0.31195472259E+03  0.81768540037E+03  0.10716518516E+04  0.12699999809E+01 0.  1.
</event>
<event>
 5   0  0.1453430E-05  0.2117332E+04  0.7818609E-02  0.8553647E-01
       -1   -1    0    0    0  501  0.00000000000E+00  0.00000000000E+00  0.42770265757E+03  0.42770265760E+03  0.50400001928E-02 0.  1.
        1   -1    0    0  501    0  0.00000000000E+00  0.00000000000E+00 -0.26204512629E+04  0.26204512629E+04  0.50400001928E-02 0. -1.
    10030    2    1    2    0    0  0.00000000000E+00  0.00000000000E+00 -0.21927486053E+04  0.30481539205E+04  0.21173322547E+04 0.  0.
        5    1    3    3  502    0 -0.11735961374E+03  0.19628893864E+03 -0.25844493348E+04  0.25945525781E+04  0.46999998093E+01 0. -1.
       -5    1    3    3    0  502  0.11735961374E+03 -0.19628893864E+03  0.39170072947E+03  0.45360134241E+03  0.46999998093E+01 0.  1.
</event>
<event>
 5   0  0.3130517E-05  0.2112911E+04  0.7818609E-02  0.8555577E-01
       -2   -1    0    0    0  501  0.00000000000E+00  0.00000000000E+00  0.76784482468E+03  0.76784482469E+03  0.25500000920E-02 0.  1.
        2   -1    0    0  501    0  0.00000000000E+00  0.00000000000E+00 -0.14535460112E+04  0.14535460112E+04  0.25500000920E-02 0. -1.
    10030    2    1    2    0    0  0.00000000000E+00  0.00000000000E+00 -0.68570118647E+03  0.22213908358E+04  0.21129105822E+04 0.  0.
        1    1    3    3  502    0  0.24315340321E+03 -0.27878370575E+03  0.69752822497E+03  0.78955022433E+03  0.50400001928E-02 0.  1.
       -1    1    3    3    0  502 -0.24315340321E+03  0.27878370575E+03 -0.13832294114E+04  0.14318406115E+04  0.50400001928E-02 0. -1.
</event>
<event>
 5   0  0.3257130E-05  0.2096991E+04  0.7818609E-02  0.8562570E-01
        2   -1    0    0  501    0  0.00000000000E+00  0.00000000000E+00  0.12432046306E+04  0.12432046307E+04  0.25500000920E-02 0.  1.
       -2   -1    0    0    0  501  0.00000000000E+00  0.00000000000E+00 -0.88428149970E+03  0.88428149970E+03  0.25500000920E-02 0. -1.
    10030    2    1    2    0    0  0.00000000000E+00  0.00000000000E+00  0.35892313095E+03  0.21274861304E+04  0.20969910398E+04 0.  0.
        3    1    3    3  502    0 -0.61483139754E+03  0.84864541281E+03  0.14541522870E+03  0.10579991886E+04  0.10100000352E+00 0. -1.
       -3    1    3    3    0  502  0.61483139754E+03 -0.84864541281E+03  0.21350790225E+03  0.10694869418E+04  0.10100000352E+00 0.  1.
</event>
<event>
 5   0  0.1492552E-05  0.2091881E+04  0.7818609E-02  0.8564828E-01
       -1   -1    0    0    0  501  0.00000000000E+00  0.00000000000E+00  0.81612627185E+03  0.81612627186E+03  0.50400001928E-02 0. -1.
        1   -1    0    0  501    0  0.00000000000E+00  0.00000000000E+00 -0.13404680512E+04  0.13404680513E+04  0.50400001928E-02 0.  1.
    10030    2    1    2    0    0  0.00000000000E+00  0.00000000000E+00 -0.52434177939E+03  0.21565943231E+04  0.20918806785E+04 0.  0.
        4    1    3    3  502    0  0.25408270733E+03  0.54342986411E+03 -0.11454821323E+04  0.12930603109E+04  0.12699999809E+01 0.  1.
       -4    1    3    3    0  502 -0.25408270733E+03 -0.54342986411E+03  0.62114035289E+03  0.86353401221E+03  0.12699999809E+01 0. -1.
</event>
<event>
 5   0  0.3108326E-05  0.2108344E+04  0.7818609E-02  0.8557577E-01
        2   -1    0    0  501    0  0.00000000000E+00  0.00000000000E+00  0.19722276295E+04  0.19722276295E+04  0.25500000920E-02 0.  1.
       -2   -1    0    0    0  501  0.00000000000E+00  0.00000000000E+00 -0.56346345977E+03  0.56346345978E+03  0.25500000920E-02 0. -1.
    10030    2    1    2    0    0  0.00000000000E+00  0.00000000000E+00  0.14087641698E+04  0.25356910893E+04  0.21083436187E+04 0.  0.
        5    1    3    3  502    0 -0.86357918318E+03 -0.56530919940E+03  0.96208597537E+03  0.14110191390E+04  0.46999998093E+01 0.  1.
       -5    1    3    3    0  502  0.86357918318E+03  0.56530919940E+03  0.44667819439E+03  0.11246719503E+04  0.46999998093E+01 0. -1.
</event>
<event>
 5   0  0.3279789E-05  0.2106794E+04  0.7818609E-02  0.8558257E-01
       -2   -1    0    0    0  501  0.00000000000E+00  0.00000000000E+00  0.12445320928E+04  0.12445320928E+04  0.25500000920E-02 0.  1.
        2   -1    0    0  501    0  0.00000000000E+00  0.00000000000E+00 -0.89161619909E+03  0.89161619909E+03  0.25500000920E-02 0. -1.
    10030    2    1    2    0    0  0.00000000000E+00  0.00000000000E+00  0.35291589375E+03  0.21361482919E+04  0.21067937481E+04 0.  0.
        2    1    3    3  502    0  0.75533768711E+03  0.55750419695E+03 -0.30800593401E+03  0.98803522537E+03  0.25500000920E-02 0.  1.
       -2    1    3    3    0  502 -0.75533768711E+03 -0.55750419695E+03  0.66092182777E+03  0.11481130666E+04  0.25500000920E-02 0. -1.
</event>
<event>
 5   0  0.3279789E-05  0.2077225E+04  0.7818609E-02  0.8571343E-01
       -2   -1    0    0    0  501  0.00000000000E+00  0.00000000000E+00  0.60813959595E+03  0.60813959595E+03  0.25500000920E-02 0.  1.
        2   -1    0    0  501    0  0.00000000000E+00  0.00000000000E+00 -0.17737964723E+04  0.17737964723E+04  0.25500000920E-02 0. -1.
    10030    2    1    2    0    0  0.00000000000E+00  0.00000000000E+00 -0.11656568764E+04  0.23819360683E+04  0.20772249469E+04 0.  0.
        2    1    3    3  502    0  0.17918698300E+03 -0.11984911584E+03  0.58220334208E+03  0.62083211658E+03  0.25500000920E-02 0.  1.
       -2    1    3    3    0  502 -0.17918698300E+03  0.11984911584E+03 -0.17478602184E+04  0.17611039517E+04  0.25500000920E-02 0. -1.
</event>
<event>
 5   0  0.1466480E-05  0.2100800E+04  0.7818609E-02  0.8560891E-01
       -1   -1    0    0    0  501  0.00000000000E+00  0.00000000000E+00  0.45718182695E+03  0.45718182698E+03  0.50400001928E-02 0.  1.
        1   -1    0    0  501    0  0.00000000000E+00  0.00000000000E+00 -0.24133511014E+04  0.24133511014E+04  0.50400001928E-02 0. -1.
    10030    2    1    2    0    0  0.00000000000E+00  0.00000000000E+00 -0.19561692745E+04  0.28705329284E+04  0.21008001006E+04 0.  0.
        3    1    3    3  502    0  0.17118972104E+03 -0.20264698896E+03  0.41065665711E+03  0.48888712701E+03  0.10100000352E+00 0.  1.
       -3    1    3    3    0  502 -0.17118972104E+03  0.20264698896E+03 -0.23668259316E+04  0.23816458014E+04  0.10100000352E+00 0. -1.
</event>
<event>
 5   0  0.1435410E-05  0.2092439E+04  0.7818609E-02  0.8564582E-01
        1   -1    0    0  501    0  0.00000000000E+00  0.00000000000E+00  0.13701015407E+04  0.13701015407E+04  0.50400001928E-02 0. -1.
       -1   -1    0    0    0  501  0.00000000000E+00  0.00000000000E+00 -0.79890051202E+03  0.79890051204E+03  0.50400001928E-02 0.  1.
    10030    2    1    2    0    0  0.00000000000E+00  0.00000000000E+00  0.57120102864E+03  0.21690020527E+04  0.20924385988E+04 0.  0.
        2    1    3    3  502    0 -0.24302834281E+03 -0.49343321523E+03 -0.63692762361E+03  0.84155564939E+03  0.25500000920E-02 0.  1.
       -2    1    3    3    0  502  0.24302834281E+03  0.49343321523E+03  0.12081286523E+04  0.13274464033E+04  0.25500000920E-02 0. -1.
</event>
<event>
 5   0  0.3130517E-05  0.2105826E+04  0.7818609E-02  0.8558681E-01
       -2   -1    0    0    0  501  0.00000000000E+00  0.00000000000E+00  0.10534580395E+04  0.10534580395E+04  0.25500000920E-02 0.  1.
        2   -1    0    0  501    0  0.00000000000E+00  0.00000000000E+00 -0.10523680682E+04  0.10523680682E+04  0.25500000920E-02 0. -1.
    10030    2    1    2    0    0  0.00000000000E+00  0.00000000000E+00  0.10899712430E+01  0.21058261077E+04  0.21058258256E+04 0.  0.
        1    1    3    3  502    0 -0.31015196985E+03 -0.54344413726E+03 -0.84627259762E+03  0.10524747428E+04  0.50400001928E-02 0. -1.
       -1    1    3    3    0  502  0.31015196985E+03  0.54344413726E+03  0.84736256887E+03  0.10533513649E+04  0.50400001928E-02 0.  1.
</event>
<event>
 5   0  0.1435410E-05  0.2081515E+04  0.7818609E-02  0.8569430E-01
        1   -1    0    0  501    0  0.00000000000E+00  0.00000000000E+00  0.15947379213E+04  0.15947379213E+04  0.50400001928E-02 0. -1.
       -1   -1    0    0    0  501  0.00000000000E+00  0.00000000000E+00 -0.67921901212E+03  0.67921901214E+03  0.50400001928E-02 0.  1.
    10030    2    1    2    0    0  0.00000000000E+00  0.00000000000E+00  0.91551890919E+03  0.22739569335E+04  0.20815151362E+04 0.  0.
        2    1    3    3  502    0  0.33030302946E+03  0.72171326037E+03 -0.27768619012E+03  0.84088033730E+03  0.25500000920E-02 0.  1.
       -2    1    3    3    0  502 -0.33030302946E+03 -0.72171326037E+03  0.11932050993E+04  0.14330765962E+04  0.25500000920E-02 0. -1.
</event>
<event>
 5   0  0.1453430E-05  0.2185176E+04  0.7818609E-02  0.8524624E-01
        1   -1    0    0  501    0  0.00000000000E+00  0.00000000000E+00  0.27348819210E+04  0.27348819210E+04  0.50400001928E-02 0.  1.
       -1   -1    0    0    0  501  0.00000000000E+00  0.00000000000E+00 -0.43648988281E+03  0.43648988284E+03  0.50400001928E-02 0. -1.
    10030    2    1    2    0    0  0.00000000000E+00  0.00000000000E+00  0.22983920382E+04  0.31713718038E+04  0.21851757726E+04 0.  0.
        5    1    3    3  502    0 -0.20730224874E+03 -0.94847672199E+03  0.42188178398E+03  0.10585785961E+04  0.46999998093E+01 0.  1.
       -5    1    3    3    0  502  0.20730224874E+03  0.94847672199E+03  0.18765102542E+04  0.21127932077E+04  0.46999998093E+01 0. -1.
</event>
<event>
 5   0  0.3108326E-05  0.2101073E+04  0.7818609E-02  0.8560771E-01
       -2   -1    0    0    0  501  0.00000000000E+00  0.00000000000E+00  0.11472511690E+04  0.11472511690E+04  0.25500000920E-02 0.  1.
        2   -1    0    0  501    0  0.00000000000E+00  0.00000000000E+00 -0.96197514776E+03  0.96197514776E+03  0.25500000920E-02 0. -1.
    10030    2    1    2    0    0  0.00000000000E+00  0.00000000000E+00  0.18527602125E+03  0.21092263168E+04  0.21010731666E+04 0.  0.
        5    1    3    3  502    0 -0.84499254551E+03 -0.44278864532E+03 -0.34899048894E+03  0.10158201798E+04  0.46999998093E+01 0. -1.
       -5    1    3    3    0  502  0.84499254551E+03  0.44278864532E+03  0.53426651019E+03  0.10934061369E+04  0.46999998093E+01 0.  1.
</event>
<event>
 5   0  0.1435410E-05  0.2098328E+04  0.7818609E-02  0.8561980E-01
        1   -1    0    0  501    0  0.00000000000E+00  0.00000000000E+00  0.99947943703E+03  0.99947943704E+03  0.50400001928E-02 0. -1.
       -1   -1    0    0    0  501  0.00000000000E+00  0.00000000000E+00 -0.11013183818E+04  0.11013183818E+04  0.50400001928E-02 0.  1.
    10030    2    1    2    0    0  0.00000000000E+00  0.00000000000E+00 -0.10183894479E+03  0.21007978189E+04  0.20983279784E+04 0.  0.
        2    1    3    3  502    0  0.58669582918E+03 -0.76002487133E+03  0.37253850788E+03  0.10298712254E+04  0.25500000920E-02 0. -1.
       -2    1    3    3    0  502 -0.58669582918E+03  0.76002487133E+03 -0.47437745266E+03  0.10709265935E+04  0.25500000920E-02 0.  1.
</event>
<event>
 5   0  0.1466480E-05  0.2066618E+04  0.7818609E-02  0.8576093E-01
       -1   -1    0    0    0  501  0.00000000000E+00  0.00000000000E+00  0.17668533729E+04  0.17668533729E+04  0.50400001928E-02 0.  1.
        1   -1    0    0  501    0  0.00000000000E+00  0.00000000000E+00 -0.60430990677E+03  0.60430990679E+03  0.50400001928E-02 0. -1.
    10030    2    1    2    0    0  0.00000000000E+00  0.00000000000E+00  0.11625434662E+04  0.23711632797E+04  0.20666175235E+04 0.  0.
        3    1    3    3  502    0  0.83131544480E+03  0.52416373995E+03  0.94752005338E+03  0.13651473389E+04  0.10100000352E+00 0.  1.
       -3    1    3    3    0  502 -0.83131544480E+03 -0.52416373995E+03  0.21502341278E+03  0.10060159409E+04  0.10100000352E+00 0. -1.
</event>
<event>
 5   0  0.1453430E-05  0.2096266E+04  0.7818609E-02  0.8562890E-01
        1   -1    0    0  501    0  0.00000000000E+00  0.00000000000E+00  0.48901109789E+03  0.48901109792E+03  0.50400001928E-02 0.  1.
       -1   -1    0    0    0  501  0.00000000000E+00  0.00000000000E+00 -0.22465395768E+04  0.22465395768E+04  0.50400001928E-02 0. -1.
    10030    2    1    2    0    0  0.00000000000E+00  0.00000000000E+00 -0.17575284789E+04  0.27355506748E+04  0.20962659993E+04 0.  0.
        5    1    3    3  502    0 -0.25281987108E+03 -0.30613646926E+03 -0.21445945146E+04  0.21810422158E+04  0.46999998093E+01 0. -1.
       -5    1    3    3    0  502  0.25281987108E+03  0.30613646926E+03  0.38706603570E+03  0.55450845892E+03  0.46999998093E+01 0.  1.
</event>
<event>
 5   0  0.3279789E-05  0.2068247E+04  0.7818609E-02  0.8575361E-01
       -2   -1    0    0    0  501  0.00000000000E+00  0.00000000000E+00  0.80222822121E+03  0.80222822122E+03  0.25500000920E-02 0.  1.
        2   -1    0    0  501    0  0.00000000000E+00  0.00000000000E+00 -0.13330507841E+04  0.13330507841E+04  0.25500000920E-02 0. -1.
    10030    2    1    2    0    0  0.00000000000E+00  0.00000000000E+00 -0.53082256293E+03  0.21352790054E+04  0.20682465611E+04 0.  0.
        2    1    3    3  502    0 -0.64815886499E+03  0.77414945462E+03 -0.34571945872E+02  0.10102536869E+04  0.25500000920E-02 0.  1.
       -2    1    3    3    0  502  0.64815886499E+03 -0.77414945462E+03 -0.49625061706E+03  0.11250253185E+04  0.25500000920E-02 0. -1.
</event>
<event>
 5   0  0.3130517E-05  0.2101638E+04  0.7818609E-02  0.8560522E-01
        2   -1    0    0  501    0  0.00000000000E+00  0.00000000000E+00  0.10598883008E+04  0.10598883008E+04  0.25500000920E-02 0.  1.
       -2   -1    0    0    0  501  0.00000000000E+00  0.00000000000E+00 -0.10418274039E+04  0.10418274039E+04  0.25500000920E-02 0. -1.
    10030    2    1    2    0    0  0.00000000000E+00  0.00000000000E+00  0.18060896856E+02  0.21017157047E+04  0.21016381010E+04 0.  0.
        1    1    3    3  502    0  0.86632443794E+03  0.48622142244E+03 -0.33346047939E+03  0.10479146887E+04  0.50400001928E-02 0. -1.
       -1    1    3    3    0  502 -0.86632443794E+03 -0.48622142244E+03  0.35152137625E+03  0.10538010160E+04  0.50400001928E-02 0.  1.
</event>
<event>
 5   0  0.1466480E-05  0.2127358E+04  0.7818609E-02  0.8549287E-01
        1   -1    0    0  501    0  0.00000000000E+00  0.00000000000E+00  0.12181843363E+04  0.12181843363E+04  0.50400001928E-02 0.  1.
       -1   -1    0    0    0  501  0.00000000000E+00  0.00000000000E+00 -0.92876993084E+03  0.92876993085E+03  0.50400001928E-02 0. -1.
    10030    2    1    2    0    0  0.00000000000E+00  0.00000000000E+00  0.28941440542E+03  0.21469542671E+04  0.21273579687E+04 0.  0.
        3    1    3    3  502    0 -0.90303163754E+03  0.17828083876E+03  0.68268680836E+03  0.11459980298E+04  0.10100000352E+00 0.  1.
       -3    1    3    3    0  502  0.90303163754E+03 -0.17828083876E+03 -0.39327240293E+03  0.10009562373E+04  0.10100000352E+00 0. -1.
</event>
<event>
 5   0  0.3130517E-05  0.2100897E+04  0.7818609E-02  0.8560848E-01
        2   -1    0    0  501    0  0.00000000000E+00  0.00000000000E+00  0.24241377672E+04  0.24241377672E+04  0.25500000920E-02 0. -1.
       -2   -1    0    0    0  501  0.00000000000E+00  0.00000000000E+00 -0.45518937971E+03  0.45518937971E+03  0.25500000920E-02 0.  1.
    10030    2    1    2    0    0  0.00000000000E+00  0.00000000000E+00  0.19689483875E+04  0.28793271469E+04  0.21008967291E+04 0.  0.
        1    1    3    3  502    0 -0.23500518805E+03 -0.98910259312E+03  0.62215191916E+03  0.11918994877E+04  0.50400001928E-02 0.  1.
       -1    1    3    3    0  502  0.23500518805E+03  0.98910259312E+03  0.13467964684E+04  0.16874276593E+04  0.50400001928E-02 0. -1.
</event>
<event>
 5   0  0.3130517E-05  0.2101327E+04  0.7818609E-02  0.8560659E-01
       -2   -1    0    0    0  501  0.00000000000E+00  0.00000000000E+00  0.66029223195E+03  0.66029223195E+03  0.25500000920E-02 0. -1.
        2   -1    0    0  501    0  0.00000000000E+00  0.00000000000E+00 -0.16718265388E+04  0.16718265388E+04  0.25500000920E-02 0.  1.
    10030    2    1    2    0    0  0.00000000000E+00  0.00000000000E+00 -0.10115343068E+04  0.23321187707E+04  0.21013272727E+04 0.  0.
        1    1    3    3  502    0 -0.15033056685E+03  0.92626986583E+03 -0.10302360522E+04  0.13935427754E+04  0.50400001928E-02 0. -1.
       -1    1    3    3    0  502  0.15033056685E+03 -0.92626986583E+03  0.18701745359E+02  0.93857599531E+03  0.50400001928E-02 0.  1.
</event>
<event>
 5   0  0.3108326E-05  0.2111962E+04  0.7818609E-02  0.8555992E-01
        2   -1    0    0  501    0  0.00000000000E+00  0.00000000000E+00  0.12866668102E+04  0.12866668102E+04  0.25500000920E-02 0.  1.
       -2   -1    0    0    0  501  0.00000000000E+00  0.00000000000E+00 -0.86665451401E+03  0.86665451401E+03  0.25500000920E-02 0. -1.
    10030    2    1    2    0    0  0.00000000000E+00  0.00000000000E+00  0.42001229618E+03  0.21533213242E+04  0.21119617412E+04 0.  0.
        5    1    3    3  502    0  0.31415132645E+03  0.21658904912E+03  0.12139059038E+04  0.12724745598E+04  0.46999998093E+01 0.  1.
       -5    1    3    3    0  502 -0.31415132645E+03 -0.21658904912E+03 -0.79389360762E+03  0.88084676439E+03  0.46999998093E+01 0. -1.
</event>
<event>
 5   0  0.3257130E-05  0.2106233E+04  0.7818609E-02  0.8558503E-01
        2   -1    0    0  501    0  0.00000000000E+00  0.00000000000E+00  0.21232114956E+04  0.21232114956E+04  0.25500000920E-02 0. -1.
       -2   -1    0    0    0  501  0.00000000000E+00  0.00000000000E+00 -0.52234734811E+03  0.52234734812E+03  0.25500000920E-02 0.  1.
    10030    2    1    2    0    0  0.00000000000E+00  0.00000000000E+00  0.16008641475E+04  0.26455588437E+04  0.21062325553E+04 0.  0.
        3    1    3    3  502    0 -0.75532162493E+03  0.21643437900E+03  0.16811987881E+04  0.18557435095E+04  0.10100000352E+00 0. -1.
       -3    1    3    3    0  502  0.75532162493E+03 -0.21643437900E+03 -0.80334640667E+02  0.78981533423E+03  0.10100000352E+00 0.  1.
</event>
<event>
 5   0  0.1513292E-05  0.2099973E+04  0.7818609E-02  0.8561255E-01
       -1   -1    0    0    0  501  0.00000000000E+00  0.00000000000E+00  0.11339146592E+04  0.11339146592E+04  0.50400001928E-02 0.  1.
        1   -1    0    0  501    0  0.00000000000E+00  0.00000000000E+00 -0.97227053185E+03  0.97227053187E+03  0.50400001928E-02 0. -1.
    10030    2    1    2    0    0  0.00000000000E+00  0.00000000000E+00  0.16164412735E+03  0.21061851911E+04  0.20999731511E+04 0.  0.
        1    1    3    3  502    0 -0.10497944688E+04  0.19234435315E+02  0.75024086659E+02  0.10526476162E+04  0.50400001928E-02 0.  1.
       -1    1    3    3    0  502  0.10497944688E+04 -0.19234435315E+02  0.86620040695E+02  0.10535375749E+04  0.50400001928E-02 0. -1.
</event>
<event>
 5   0  0.1513292E-05  0.2108048E+04  0.7818609E-02  0.8557706E-01
       -1   -1    0    0    0  501  0.00000000000E+00  0.00000000000E+00  0.84551629029E+03  0.84551629031E+03  0.50400001928E-02 0. -1.
        1   -1    0    0  501    0  0.00000000000E+00  0.00000000000E+00 -0.13139510035E+04  0.13139510035E+04  0.50400001928E-02 0.  1.
    10030    2    1    2    0    0  0.00000000000E+00  0.00000000000E+00 -0.46843471316E+03  0.21594672938E+04  0.21080483658E+04 0.  0.
        1    1    3    3  502    0  0.84104613763E+02 -0.23484202063E+03 -0.12832778163E+04  0.13072973321E+04  0.50400001928E-02 0.  1.
       -1    1    3    3    0  502 -0.84104613763E+02  0.23484202063E+03  0.81484310317E+03  0.85216996163E+03  0.50400001928E-02 0. -1.
</event>
<event>
 5   0  0.1513292E-05  0.2035955E+04  0.7818609E-02  0.8589993E-01
        1   -1    0    0  501    0  0.00000000000E+00  0.00000000000E+00  0.18082413504E+04  0.18082413504E+04  0.50400001928E-02 0.  1.
       -1   -1    0    0    0  501  0.00000000000E+00  0.00000000000E+00 -0.57308599848E+03  0.57308599851E+03  0.50400001928E-02 0. -1.
    10030    2    1    2    0    0  0.00000000000E+00  0.00000000000E+00  0.12351553519E+04  0.23813273489E+04  0.20359546162E+04 0.  0.
        1    1    3    3  502    0  0.90583005663E+03 -0.41406417385E+03  0.37139603894E+03  0.10629733060E+04  0.50400001928E-02 0. -1.
       -1    1    3    3    0  502 -0.90583005663E+03  0.41406417385E+03  0.86375931295E+03  0.13183540428E+04  0.50400001928E-02 0.  1.
</event>
<event>
 5   0  0.3108326E-05  0.2100198E+04  0.7818609E-02  0.8561156E-01
        2   -1    0    0  501    0  0.00000000000E+00  0.00000000000E+00  0.18809131563E+04  0.18809131563E+04  0.25500000920E-02 0. -1.
       -2   -1    0    0    0  501  0.00000000000E+00  0.00000000000E+00 -0.58626176690E+03  0.58626176691E+03  0.25500000920E-02 0.  1.
    10030    2    1    2    0    0  0.00000000000E+00  0.00000000000E+00  0.12946513894E+04  0.24671749232E+04  0.21001975816E+04 0.  0.
        5    1    3    3  502    0 -0.41060035550E+03  0.88915292528E+03  0.20232012982E+03  0.10000705482E+04  0.46999998093E+01 0.  1.
       -5    1    3    3    0  502  0.41060035550E+03 -0.88915292528E+03  0.10923312596E+04  0.14671043750E+04  0.46999998093E+01 0. -1.
</event>
<event>
 5   0  0.3130517E-05  0.2096271E+04  0.7818609E-02  0.8562888E-01
        2   -1    0    0  501    0  0.00000000000E+00  0.00000000000E+00  0.17139085737E+04  0.17139085737E+04  0.25500000920E-02 0. -1.
       -2   -1    0    0    0  501  0.00000000000E+00  0.00000000000E+00 -0.64098411032E+03  0.64098411033E+03  0.25500000920E-02 0.  1.
    10030    2    1    2    0    0  0.00000000000E+00  0.00000000000E+00  0.10729244634E+04  0.23548926840E+04  0.20962711297E+04 0.  0.
        1    1    3    3  502    0 -0.13340066428E+03 -0.90807925104E+03 -0.32128912578E+02  0.91838767982E+03  0.50400001928E-02 0.  1.
       -1    1    3    3    0  502  0.13340066428E+03  0.90807925104E+03  0.11050533760E+04  0.14365050042E+04  0.50400001928E-02 0. -1.
</event>
<event>
 5   0  0.1453430E-05  0.2138564E+04  0.7818609E-02  0.8544443E-01
        1   -1    0    0  501    0  0.00000000000E+00  0.00000000000E+00  0.12944637094E+04  0.12944637094E+04  0.50400001928E-02 0.  1.
       -1   -1    0    0    0  501  0.00000000000E+00  0.00000000000E+00 -0.88327218754E+03  0.88327218756E+03  0.50400001928E-02 0. -1.
    10030    2    1    2    0    0  0.00000000000E+00  0.00000000000E+00  0.41119152181E+03  0.21777358969E+04  0.21385638099E+04 0.  0.
        5    1    3    3  502    0 -0.61496111605E+03  0.86795494254E+03  0.31630113196E+03  0.11097709010E+04  0.46999998093E+01 0. -1.
       -5    1    3    3    0  502  0.61496111605E+03 -0.86795494254E+03  0.94890389851E+02  0.10679649960E+04  0.46999998093E+01 0.  1.
</event>
<event>
 5   0  0.1453430E-05  0.2100018E+04  0.7818609E-02  0.8561236E-01
       -1   -1    0    0    0  501  0.00000000000E+00  0.00000000000E+00  0.87522257795E+03  0.87522257797E+03  0.50400001928E-02 0. -1.
        1   -1    0    0  501    0  0.00000000000E+00  0.00000000000E+00 -0.12597006110E+04  0.12597006110E+04  0.50400001928E-02 0.  1.
    10030    2    1    2    0    0  0.00000000000E+00  0.00000000000E+00 -0.38447803308E+03  0.21349231890E+04  0.21000175392E+04 0.  0.
        5    1    3    3  502    0 -0.45782618590E+03 -0.11398602914E+02  0.76832669278E+03  0.89447344370E+03  0.46999998093E+01 0. -1.
       -5    1    3    3    0  502  0.45782618590E+03  0.11398602914E+02 -0.11528047259E+04  0.12404497453E+04  0.46999998093E+01 0.  1.
</event>
<event>
 5   0  0.3130517E-05  0.2074436E+04  0.7818609E-02  0.8572589E-01
        2   -1    0    0  501    0  0.00000000000E+00  0.00000000000E+00  0.13372114311E+04  0.13372114311E+04  0.25500000920E-02 0. -1.
       -2   -1    0    0    0  501  0.00000000000E+00  0.00000000000E+00 -0.80452554374E+03  0.80452554374E+03  0.25500000920E-02 0.  1.
    10030    2    1    2    0    0  0.00000000000E+00  0.00000000000E+00  0.53268588735E+03  0.21417369748E+04  0.20744355894E+04 0.  0.
        1    1    3    3  502    0 -0.51297709040E+03 -0.87742984005E+03  0.47991683130E+03  0.11239878934E+04  0.50400001928E-02 0. -1.
       -1    1    3    3    0  502  0.51297709040E+03  0.87742984005E+03  0.52769056046E+02  0.10177490814E+04  0.50400001928E-02 0.  1.
</event>
<event>
 5   0  0.1466480E-05  0.2104453E+04  0.7818609E-02  0.8559284E-01
        1   -1    0    0  501    0  0.00000000000E+00  0.00000000000E+00  0.12335603180E+04  0.12335603180E+04  0.50400001928E-02 0. -1.
       -1   -1    0    0    0  501  0.00000000000E+00  0.00000000000E+00 -0.89754857492E+03  0.89754857494E+03  0.50400001928E-02 0.  1.
    10030    2    1    2    0    0  0.00000000000E+00  0.00000000000E+00  0.33601174305E+03  0.21311088929E+04  0.21044527132E+04 0.  0.
        3    1    3    3  502    0  0.45417536341E+03 -0.84193344254E+03  0.61179549667E+03  0.11355267158E+04  0.10100000352E+00 0. -1.
       -3    1    3    3    0  502 -0.45417536341E+03  0.84193344254E+03 -0.27578375362E+03  0.99558217710E+03  0.10100000352E+00 0.  1.
</event>
<event>
 5   0  0.1435410E-05  0.2083054E+04  0.7818609E-02  0.8568745E-01
        1   -1    0    0  501    0  0.00000000000E+00  0.00000000000E+00  0.11687352691E+04  0.11687352691E+04  0.50400001928E-02 0.  1.
       -1   -1    0    0    0  501  0.00000000000E+00  0.00000000000E+00 -0.92816405764E+03  0.92816405765E+03  0.50400001928E-02 0. -1.
    10030    2    1    2    0    0  0.00000000000E+00  0.00000000000E+00  0.24057121146E+03  0.20968993268E+04  0.20830535948E+04 0.  0.
        2    1    3    3  502    0  0.11806541440E+03 -0.98902685166E+03 -0.18614621604E+03  0.10132936243E+04  0.25500000920E-02 0.  1.
       -2    1    3    3    0  502 -0.11806541440E+03  0.98902685166E+03  0.42671742751E+03  0.10836057024E+04  0.25500000920E-02 0. -1.
</event>
<event>
 5   0  0.1492552E-05  0.2098592E+04  0.7818609E-02  0.8561864E-01
       -1   -1    0    0    0  501  0.00000000000E+00  0.00000000000E+00  0.55259091929E+03  0.55259091931E+03  0.50400001928E-02 0. -1.
        1   -1    0    0  501    0  0.00000000000E+00  0.00000000000E+00 -0.19924721027E+04  0.19924721027E+04  0.50400001928E-02 0.  1.
    10030    2    1    2    0    0  0.00000000000E+00  0.00000000000E+00 -0.14398811834E+04  0.25450630220E+04  0.20985919002E+04 0.  0.
        4    1    3    3  502    0 -0.21608815374E+03 -0.90080500733E+03 -0.12226790430E+03  0.93439542204E+03  0.12699999809E+01 0. -1.
       -4    1    3    3    0  502  0.21608815374E+03  0.90080500733E+03 -0.13176132791E+04  0.16106676000E+04  0.12699999809E+01 0.  1.
</event>
<event>
 5   0  0.1492552E-05  0.2092677E+04  0.7818609E-02  0.8564476E-01
        1   -1    0    0  501    0  0.00000000000E+00  0.00000000000E+00  0.21127528035E+04  0.21127528035E+04  0.50400001928E-02 0. -1.
       -1   -1    0    0    0  501  0.00000000000E+00  0.00000000000E+00 -0.51819819646E+03  0.51819819649E+03  0.50400001928E-02 0.  1.
    10030    2    1    2    0    0  0.00000000000E+00  0.00000000000E+00  0.15945546071E+04  0.26309510000E+04  0.20926774165E+04 0.  0.
        4    1    3    3  502    0  0.20108406708E+02 -0.94106574371E+03  0.13717776247E+04  0.16636659961E+04  0.12699999809E+01 0. -1.
       -4    1    3    3    0  502 -0.20108406708E+02  0.94106574371E+03  0.22277698232E+03  0.96728500389E+03  0.12699999809E+01 0.  1.
</event>
<event>
 5   0  0.1513292E-05  0.2091066E+04  0.7818609E-02  0.8565189E-01
       -1   -1    0    0    0  501  0.00000000000E+00  0.00000000000E+00  0.78430724743E+03  0.78430724745E+03  0.50400001928E-02 0.  1.
        1   -1    0    0  501    0  0.00000000000E+00  0.00000000000E+00 -0.13937637266E+04  0.13937637266E+04  0.50400001928E-02 0. -1.
    10030    2    1    2    0    0  0.00000000000E+00  0.00000000000E+00 -0.60945647913E+03  0.21780709740E+04  0.20910657493E+04 0.  0.
        1    1    3    3  502    0  0.38953179741E+03 -0.87814224821E+03  0.12507888917E+03  0.96876909417E+03  0.50400001928E-02 0.  1.
       -1    1    3    3    0  502 -0.38953179741E+03  0.87814224821E+03 -0.73453536831E+03  0.12093018798E+04  0.50400001928E-02 0. -1.
</event>
<event>
 5   0  0.1466480E-05  0.2109721E+04  0.7818609E-02  0.8556973E-01
       -1   -1    0    0    0  501  0.00000000000E+00  0.00000000000E+00  0.10048288520E+04  0.10048288520E+04  0.50400001928E-02 0. -1.
        1   -1    0    0  501    0  0.00000000000E+00  0.00000000000E+00 -0.11073834581E+04  0.11073834581E+04  0.50400001928E-02 0.  1.
    10030    2    1    2    0    0  0.00000000000E+00  0.00000000000E+00 -0.10255460612E+03  0.21122123101E+04  0.21097211653E+04 0.  0.
        3    1    3    3  502    0  0.71462633284E+02 -0.21678332986E+03 -0.10823617635E+04  0.11061685755E+04  0.10100000352E+00 0.  1.
       -3    1    3    3    0  502 -0.71462633284E+02  0.21678332986E+03  0.97980715738E+03  0.10060437346E+04  0.10100000352E+00 0. -1.
</event>
<event>
 5   0  0.1492552E-05  0.2095033E+04  0.7818609E-02  0.8563435E-01
        1   -1    0    0  501    0  0.00000000000E+00  0.00000000000E+00  0.14802324343E+04  0.14802324343E+04  0.50400001928E-02 0. -1.
       -1   -1    0    0    0  501  0.00000000000E+00  0.00000000000E+00 -0.74129629678E+03  0.74129629680E+03  0.50400001928E-02 0.  1.
    10030    2    1    2    0    0  0.00000000000E+00  0.00000000000E+00  0.73893613749E+03  0.22215287311E+04  0.20950330040E+04 0.  0.
        4    1    3    3  502    0  0.10163184128E+04 -0.22332843539E+03  0.49720082871E+03  0.11532514831E+04  0.12699999809E+01 0. -1.
       -4    1    3    3    0  502 -0.10163184128E+04  0.22332843539E+03  0.24173530878E+03  0.10682772480E+04  0.12699999809E+01 0.  1.
</event>
<event>
 5   0  0.3108326E-05  0.2083451E+04  0.7818609E-02  0.8568569E-01
        2   -1    0    0  501    0  0.00000000000E+00  0.00000000000E+00  0.14607987178E+04  0.14607987178E+04  0.25500000920E-02 0.  1.
       -2   -1    0    0    0  501  0.00000000000E+00  0.00000000000E+00 -0.74287578575E+03  0.74287578576E+03  0.25500000920E-02 0. -1.
    10030    2    1    2    0    0  0.00000000000E+00  0.00000000000E+00  0.71792293202E+03  0.22036745035E+04  0.20834509788E+04 0.  0.
        5    1    3    3  502    0  0.28110953746E+03 -0.10030633629E+04  0.35541803681E+03  0.11006828576E+04  0.46999998093E+01 0. -1.
       -5    1    3    3    0  502 -0.28110953746E+03  0.10030633629E+04  0.36250489521E+03  0.11029916460E+04  0.46999998093E+01 0.  1.
</event>
<event>
 5   0  0.1435410E-05  0.2086235E+04  0.7818609E-02  0.8567331E-01
       -1   -1    0    0    0  501  0.00000000000E+00  0.00000000000E+00  0.12150982318E+04  0.12150982318E+04  0.50400001928E-02 0.  1.
        1   -1    0    0  501    0  0.00000000000E+00  0.00000000000E+00 -0.89547868981E+03  0.89547868983E+03  0.50400001928E-02 0. -1.
    10030    2    1    2    0    0  0.00000000000E+00  0.00000000000E+00  0.31961954200E+03  0.21105769217E+04  0.20862354351E+04 0.  0.
        2    1    3    3  502    0  0.62370619411E+03  0.38017746014E+03 -0.59356022859E+03  0.94120033082E+03  0.25500000920E-02 0. -1.
       -2    1    3    3    0  502 -0.62370619411E+03 -0.38017746014E+03  0.91317977059E+03  0.11693765908E+04  0.25500000920E-02 0.  1.
</event>
<event>
 5   0  0.1466480E-05  0.2092572E+04  0.7818609E-02  0.8564523E-01
       -1   -1    0    0    0  501  0.00000000000E+00  0.00000000000E+00  0.40199535610E+03  0.40199535613E+03  0.50400001928E-02 0. -1.
        1   -1    0    0  501    0  0.00000000000E+00  0.00000000000E+00 -0.27232010104E+04  0.27232010104E+04  0.50400001928E-02 0.  1.
    10030    2    1    2    0    0  0.00000000000E+00  0.00000000000E+00 -0.23212056543E+04  0.31251963665E+04  0.20925717765E+04 0.  0.
        3    1    3    3  502    0  0.45613000561E+03 -0.56331249735E+03 -0.33710917283E+02  0.72561145790E+03  0.10100000352E+00 0. -1.
       -3    1    3    3    0  502 -0.45613000561E+03  0.56331249735E+03 -0.22874947370E+04  0.23995849086E+04  0.10100000352E+00 0.  1.
</event>
<event>
 5   0  0.1435410E-05  0.2092819E+04  0.7818609E-02  0.8564413E-01
       -1   -1    0    0    0  501  0.00000000000E+00  0.00000000000E+00  0.18718012854E+04  0.18718012854E+04  0.50400001928E-02 0. -1.
        1   -1    0    0  501    0  0.00000000000E+00  0.00000000000E+00 -0.58498342931E+03  0.58498342933E+03  0.50400001928E-02 0.  1.
    10030    2    1    2    0    0  0.00000000000E+00  0.00000000000E+00  0.12868178561E+04  0.24567847147E+04  0.20928188980E+04 0.  0.
        2    1    3    3  502    0  0.36166742397E+03 -0.64419424619E+03 -0.22654062209E+03  0.77272906367E+03  0.25500000920E-02 0.  1.
       -2    1    3    3    0  502 -0.36166742397E+03  0.64419424619E+03  0.15133584782E+04  0.16840556511E+04  0.25500000920E-02 0. -1.
</event>
<event>
 5   0  0.3130517E-05  0.2085271E+04  0.7818609E-02  0.8567759E-01
       -2   -1    0    0    0  501  0.00000000000E+00  0.00000000000E+00  0.11225038652E+04  0.11225038652E+04  0.25500000920E-02 0. -1.
        2   -1    0    0  501    0  0.00000000000E+00  0.00000000000E+00 -0.96845037780E+03  0.96845037780E+03  0.25500000920E-02 0.  1.
    10030    2    1    2    0    0  0.00000000000E+00  0.00000000000E+00  0.15405348742E+03  0.20909542430E+04  0.20852714858E+04 0.  0.
        1    1    3    3  502    0  0.57550713446E+03 -0.45230488207E+03  0.82154673479E+03  0.11003304984E+04  0.50400001928E-02 0. -1.
       -1    1    3    3    0  502 -0.57550713446E+03  0.45230488207E+03 -0.66749324737E+03  0.99062374466E+03  0.50400001928E-02 0.  1.
</event>
<event>
 5   0  0.1513292E-05  0.2096035E+04  0.7818609E-02  0.8562992E-01
       -1   -1    0    0    0  501  0.00000000000E+00  0.00000000000E+00  0.21381550984E+04  0.21381550985E+04  0.50400001928E-02 0.  1.
        1   -1    0    0  501    0  0.00000000000E+00  0.00000000000E+00 -0.51368611911E+03  0.51368611914E+03  0.50400001928E-02 0. -1.
    10030    2    1    2    0    0  0.00000000000E+00  0.00000000000E+00  0.16244689793E+04  0.26518412176E+04  0.20960349182E+04 0.  0.
        1    1    3    3  502    0 -0.82292761805E+03  0.61204102779E+03  0.53930786140E+03  0.11587307943E+04  0.50400001928E-02 0. -1.
       -1    1    3    3    0  502  0.82292761805E+03 -0.61204102779E+03  0.10851611179E+04  0.14931104233E+04  0.50400001928E-02 0.  1.
</event>
<event>
 5   0  0.3279789E-05  0.2105835E+04  0.7818609E-02  0.8558677E-01
        2   -1    0    0  501    0  0.00000000000E+00  0.00000000000E+00  0.17338191750E+04  0.17338191750E+04  0.25500000920E-02 0. -1.
       -2   -1    0    0    0  501  0.00000000000E+00  0.00000000000E+00 -0.63941822266E+03  0.63941822267E+03  0.25500000920E-02 0.  1.
    10030    2    1    2    0    0  0.00000000000E+00  0.00000000000E+00  0.10944009523E+04  0.23732373977E+04  0.21058352977E+04 0.  0.
        2    1    3    3  502    0 -0.94824087549E+03 -0.42147557251E+03  0.74827481647E+03  0.12793426504E+04  0.25500000920E-02 0. -1.
       -2    1    3    3    0  502  0.94824087549E+03  0.42147557251E+03  0.34612613587E+03  0.10938947473E+04  0.25500000920E-02 0.  1.
</event>
<event>
 5   0  0.1129987E-05  0.2085497E+04  0.7818609E-02  0.8567659E-01
        3   -1    0    0  501    0  0.00000000000E+00  0.00000000000E+00  0.44679066789E+03  0.44679067930E+03  0.10100000352E+00 0.  1.
       -3   -1    0    0    0  501  0.00000000000E+00  0.00000000000E+00 -0.24336316242E+04  0.24336316263E+04  0.10100000352E+00 0. -1.
    10030    2    1    2    0    0  0.00000000000E+00  0.00000000000E+00 -0.19868409563E+04  0.28804223056E+04  0.20854965051E+04 0.  0.
        2    1    3    3  502    0  0.43664884379E+03  0.93272307897E+03 -0.76778062610E+03  0.12845706071E+04  0.25500000920E-02 0. -1.
       -2    1    3    3    0  502 -0.43664884379E+03 -0.93272307897E+03 -0.12190603302E+04  0.15958516985E+04  0.25500000920E-02 0.  1.
</event>
<event>
 5   0  0.1513292E-05  0.2104666E+04  0.7818609E-02  0.8559191E-01
       -1   -1    0    0    0  501  0.00000000000E+00  0.00000000000E+00  0.97147345506E+03  0.97147345508E+03  0.50400001928E-02 0.  1.
        1   -1    0    0  501    0  0.00000000000E+00  0.00000000000E+00 -0.11399222665E+04  0.11399222665E+04  0.50400001928E-02 0. -1.
    10030    2    1    2    0    0  0.00000000000E+00  0.00000000000E+00 -0.16844881146E+03  0.21113957216E+04  0.21046655058E+04 0.  0.
        1    1    3    3  502    0  0.56079877869E+03  0.53445048501E+03  0.63028317649E+03  0.99869388388E+03  0.50400001928E-02 0.  1.
       -1    1    3    3    0  502 -0.56079877869E+03 -0.53445048501E+03 -0.79873198795E+03  0.11127018377E+04  0.50400001928E-02 0. -1.
</event>
<event>
 5   0  0.1466480E-05  0.2105434E+04  0.7818609E-02  0.8558854E-01
        1   -1    0    0  501    0  0.00000000000E+00  0.00000000000E+00  0.23306757149E+04  0.23306757149E+04  0.50400001928E-02 0. -1.
       -1   -1    0    0    0  501  0.00000000000E+00  0.00000000000E+00 -0.47548985367E+03  0.47548985369E+03  0.50400001928E-02 0.  1.
    10030    2    1    2    0    0  0.00000000000E+00  0.00000000000E+00  0.18551858612E+04  0.28061655686E+04  0.21054335940E+04 0.  0.
        3    1    3    3  502    0  0.24387882462E+03  0.10233423127E+04  0.97932070492E+03  0.14372805653E+04  0.10100000352E+00 0. -1.
       -3    1    3    3    0  502 -0.24387882462E+03 -0.10233423127E+04  0.87586515629E+03  0.13688850033E+04  0.10100000352E+00 0.  1.
</event>
<event>
 5   0  0.3257130E-05  0.2101504E+04  0.7818609E-02  0.8560581E-01
       -2   -1    0    0    0  501  0.00000000000E+00  0.00000000000E+00  0.46530596178E+03  0.46530596179E+03  0.25500000920E-02 0. -1.
        2   -1    0    0  501    0  0.00000000000E+00  0.00000000000E+00 -0.23728026970E+04  0.23728026970E+04  0.25500000920E-02 0.  1.
    10030    2    1    2    0    0  0.00000000000E+00  0.00000000000E+00 -0.19074967352E+04  0.28381086588E+04  0.21015035009E+04 0.  0.
        3    1    3    3  502    0  0.51916501605E+03 -0.29492753390E+03 -0.21214268684E+04  0.22038526567E+04  0.10100000352E+00 0.  1.
       -3    1    3    3    0  502 -0.51916501605E+03  0.29492753390E+03  0.21393013318E+03  0.63425600212E+03  0.10100000352E+00 0. -1.
</event>
<event>
 5   0  0.3242231E-05  0.2099103E+04  0.7818609E-02  0.8561639E-01
        2   -1    0    0  501    0  0.00000000000E+00  0.00000000000E+00  0.94958046122E+03  0.94958046122E+03  0.25500000920E-02 0. -1.
       -2   -1    0    0    0  501  0.00000000000E+00  0.00000000000E+00 -0.11600474652E+04  0.11600474652E+04  0.25500000920E-02 0.  1.
    10030    2    1    2    0    0  0.00000000000E+00  0.00000000000E+00 -0.21046700400E+03  0.21096279264E+04  0.20991030533E+04 0.  0.
        4    1    3    3  502    0 -0.13216151666E+03 -0.35794587474E+02 -0.11510319883E+04  0.11591480363E+04  0.12699999809E+01 0.  1.
       -4    1    3    3    0  502  0.13216151666E+03  0.35794587474E+02  0.94056498432E+03  0.95047989016E+03  0.12699999809E+01 0. -1.
</event>
<event>
 5   0  0.1513292E-05  0.2104167E+04  0.7818609E-02  0.8559410E-01
       -1   -1    0    0    0  501  0.00000000000E+00  0.00000000000E+00  0.89569517274E+03  0.89569517275E+03  0.50400001928E-02 0.  1.
        1   -1    0    0  501    0  0.00000000000E+00  0.00000000000E+00 -0.12357778037E+04  0.12357778037E+04  0.50400001928E-02 0. -1.
    10030    2    1    2    0    0  0.00000000000E+00  0.00000000000E+00 -0.34008263094E+03  0.21314729764E+04  0.21041674965E+04 0.  0.
        1    1    3    3  502    0  0.54428990104E+02 -0.98788990724E+03  0.19235988594E+03  0.10079143364E+04  0.50400001928E-02 0.  1.
       -1    1    3    3    0  502 -0.54428990104E+02  0.98788990724E+03 -0.53244251688E+03  0.11235586400E+04  0.50400001928E-02 0. -1.
</event>
<event>
 5   0  0.1453430E-05  0.2100716E+04  0.7818609E-02  0.8560928E-01
       -1   -1    0    0    0  501  0.00000000000E+00  0.00000000000E+00  0.91824842057E+03  0.91824842059E+03  0.50400001928E-02 0. -1.
        1   -1    0    0  501    0  0.00000000000E+00  0.00000000000E+00 -0.12014742003E+04  0.12014742003E+04  0.50400001928E-02 0.  1.
    10030    2    1    2    0    0  0.00000000000E+00  0.00000000000E+00 -0.28322577975E+03  0.21197226209E+04  0.21007158654E+04 0.  0.
        5    1    3    3  502    0 -0.70608552729E+03 -0.77188959063E+03 -0.23658880858E+03  0.10725514749E+04  0.46999998093E+01 0.  1.
       -5    1    3    3    0  502  0.70608552729E+03  0.77188959063E+03 -0.46636971168E+02  0.10471711460E+04  0.46999998093E+01 0. -1.
</event>
<event>
 5   0  0.3257130E-05  0.2098362E+04  0.7818609E-02  0.8561965E-01
       -2   -1    0    0    0  501  0.00000000000E+00  0.00000000000E+00  0.17164957223E+04  0.17164957223E+04  0.25500000920E-02 0.  1.
        2   -1    0    0  501    0  0.00000000000E+00  0.00000000000E+00 -0.64129553758E+03  0.64129553759E+03  0.25500000920E-02 0. -1.
    10030    2    1    2    0    0  0.00000000000E+00  0.00000000000E+00  0.10752001847E+04  0.23577912599E+04  0.20983622633E+04 0.  0.
        3    1    3    3  502    0 -0.52594157742E+03 -0.51031611845E+03  0.13812569372E+04  0.15636201010E+04  0.10100000352E+00 0.  1.
       -3    1    3    3    0  502  0.52594157742E+03  0.51031611845E+03 -0.30605675248E+03  0.79417115885E+03  0.10100000352E+00 0. -1.
</event>
<event>
 5   0  0.1492552E-05  0.2114571E+04  0.7818609E-02  0.8554852E-01
       -1   -1    0    0    0  501  0.00000000000E+00  0.00000000000E+00  0.66408615241E+03  0.66408615242E+03  0.50400001928E-02 0.  1.
        1   -1    0    0  501    0  0.00000000000E+00  0.00000000000E+00 -0.16832949446E+04  0.16832949446E+04  0.50400001928E-02 0. -1.
    10030    2    1    2    0    0  0.00000000000E+00  0.00000000000E+00 -0.10192087922E+04  0.23473810970E+04  0.21145712219E+04 0.  0.
        4    1    3    3  502    0 -0.10256574679E+04  0.95008133209E+02 -0.24491770195E+03  0.10587663012E+04  0.12699999809E+01 0.  1.
       -4    1    3    3    0  502  0.10256574679E+04 -0.95008133209E+02 -0.77429109025E+03  0.12886147959E+04  0.12699999809E+01 0. -1.
</event>
<event>
 5   0  0.3257130E-05  0.2104478E+04  0.7818609E-02  0.8559273E-01
        2   -1    0    0  501    0  0.00000000000E+00  0.00000000000E+00  0.16522510215E+04  0.16522510215E+04  0.25500000920E-02 0.  1.
       -2   -1    0    0    0  501  0.00000000000E+00  0.00000000000E+00 -0.67012020703E+03  0.67012020704E+03  0.25500000920E-02 0. -1.
    10030    2    1    2    0    0  0.00000000000E+00  0.00000000000E+00  0.98213081443E+03  0.23223712285E+04  0.21044778892E+04 0.  0.
        3    1    3    3  502    0 -0.99243764162E+03  0.22757218757E+03  0.19808654743E+03  0.10372848517E+04  0.10100000352E+00 0. -1.
       -3    1    3    3    0  502  0.99243764162E+03 -0.22757218757E+03  0.78404426700E+03  0.12850863768E+04  0.10100000352E+00 0.  1.
</event>
<event>
 5   0  0.1453430E-05  0.2110039E+04  0.7818609E-02  0.8556834E-01
       -1   -1    0    0    0  501  0.00000000000E+00  0.00000000000E+00  0.70376700251E+03  0.70376700252E+03  0.50400001928E-02 0.  1.
        1   -1    0    0  501    0  0.00000000000E+00  0.00000000000E+00 -0.15815833189E+04  0.15815833189E+04  0.50400001928E-02 0. -1.
    10030    2    1    2    0    0  0.00000000000E+00  0.00000000000E+00 -0.87781631636E+03  0.22853503214E+04  0.21100390059E+04 0.  0.
        5    1    3    3  502    0 -0.48056037876E+03 -0.76733772596E+03  0.14765839129E+03  0.91737154622E+03  0.46999998093E+01 0.  1.
       -5    1    3    3    0  502  0.48056037876E+03  0.76733772596E+03 -0.10254747076E+04  0.13679787752E+04  0.46999998093E+01 0. -1.
</event>
<event>
 5   0  0.1435410E-05  0.2105474E+04  0.7818609E-02  0.8558836E-01
        1   -1    0    0  501    0  0.00000000000E+00  0.00000000000E+00  0.19011098081E+04  0.19011098081E+04  0.50400001928E-02 0. -1.
       -1   -1    0    0    0  501  0.00000000000E+00  0.00000000000E+00 -0.58295167242E+03  0.58295167244E+03  0.50400001928E-02 0.  1.
    10030    2    1    2    0    0  0.00000000000E+00  0.00000000000E+00  0.13181581357E+04  0.24840614805E+04  0.21054739534E+04 0.  0.
        2    1    3    3  502    0  0.48782992940E+03 -0.81986494637E+03  0.13396562114E+03  0.96338121113E+03  0.25500000920E-02 0.  1.
       -2    1    3    3    0  502 -0.48782992940E+03  0.81986494637E+03  0.11841925145E+04  0.15206802694E+04  0.25500000920E-02 0. -1.
</event>
<event>
 5   0  0.3108326E-05  0.2102297E+04  0.7818609E-02  0.8560232E-01
        2   -1    0    0  501    0  0.00000000000E+00  0.00000000000E+00  0.94850420153E+03  0.94850420153E+03  0.25500000920E-02 0.  1.
       -2   -1    0    0    0  501  0.00000000000E+00  0.00000000000E+00 -0.11649011155E+04  0.11649011155E+04  0.25500000920E-02 0. -1.
    10030    2    1    2    0    0  0.00000000000E+00  0.00000000000E+00 -0.21639691395E+03  0.21134053170E+04  0.21022974123E+04 0.  0.
        5    1    3    3  502    0  0.15206044534E+03  0.50573039341E+03 -0.10218492076E+04  0.11502536689E+04  0.46999998093E+01 0. -1.
       -5    1    3    3    0  502 -0.15206044534E+03 -0.50573039341E+03  0.80545229364E+03  0.96315164807E+03  0.46999998093E+01 0.  1.
</event>
<event>
 5   0  0.1513292E-05  0.2062267E+04  0.7818609E-02  0.8578050E-01
        1   -1    0    0  501    0  0.00000000000E+00  0.00000000000E+00  0.64158697211E+03  0.64158697213E+03  0.50400001928E-02 0.  1.
       -1   -1    0    0    0  501  0.00000000000E+00  0.00000000000E+00 -0.16571973212E+04  0.16571973213E+04  0.50400001928E-02 0. -1.
    10030    2    1    2    0    0  0.00000000000E+00  0.00000000000E+00 -0.10156103491E+04  0.22987842934E+04  0.20622669192E+04 0.  0.
        1    1    3    3  502    0  0.58940173196E+03 -0.30701813770E+03  0.37101991343E+03  0.76112437532E+03  0.50400001928E-02 0.  1.
       -1    1    3    3    0  502 -0.58940173196E+03  0.30701813770E+03 -0.13866302626E+04  0.15376599181E+04  0.50400001928E-02 0. -1.
</event>
<event>
 5   0  0.1513292E-05  0.2089393E+04  0.7818609E-02  0.8565930E-01
        1   -1    0    0  501    0  0.00000000000E+00  0.00000000000E+00  0.67620412198E+03  0.67620412199E+03  0.50400001928E-02 0. -1.
       -1   -1    0    0    0  501  0.00000000000E+00  0.00000000000E+00 -0.16139967073E+04  0.16139967073E+04  0.50400001928E-02 0.  1.
    10030    2    1    2    0    0  0.00000000000E+00  0.00000000000E+00 -0.93779258534E+03  0.22902008293E+04  0.20893934300E+04 0.  0.
        1    1    3    3  502    0  0.12942962247E+03  0.53217817567E+03 -0.14440170173E+04  0.15443933385E+04  0.50400001928E-02 0.  1.
       -1    1    3    3    0  502 -0.12942962247E+03 -0.53217817567E+03  0.50622443194E+03  0.74580749081E+03  0.50400001928E-02 0. -1.
</event>
<event>
 5   0  0.3257130E-05  0.2119470E+04  0.7818609E-02  0.8552715E-01
        2   -1    0    0  501    0  0.00000000000E+00  0.00000000000E+00  0.13938445245E+04  0.13938445245E+04  0.25500000920E-02 0.  1.
       -2   -1    0    0    0  501  0.00000000000E+00  0.00000000000E+00 -0.80571300626E+03  0.80571300626E+03  0.25500000920E-02 0. -1.
    10030    2    1    2    0    0  0.00000000000E+00  0.00000000000E+00  0.58813151819E+03  0.21995575307E+04  0.21194703697E+04 0.  0.
        3    1    3    3  502    0  0.29357298302E+03  0.59636761686E+03  0.11506006281E+04  0.13288044425E+04  0.10100000352E+00 0.  1.
       -3    1    3    3    0  502 -0.29357298302E+03 -0.59636761686E+03 -0.56246910993E+03  0.87075308821E+03  0.10100000352E+00 0. -1.
</event>
<event>
 5   0  0.1492552E-05  0.2102073E+04  0.7818609E-02  0.8560331E-01
        1   -1    0    0  501    0  0.00000000000E+00  0.00000000000E+00  0.17014451085E+04  0.17014451085E+04  0.50400001928E-02 0.  1.
       -1   -1    0    0    0  501  0.00000000000E+00  0.00000000000E+00 -0.64925828871E+03  0.64925828873E+03  0.50400001928E-02 0. -1.
    10030    2    1    2    0    0  0.00000000000E+00  0.00000000000E+00  0.10521868197E+04  0.23507033972E+04  0.21020726338E+04 0.  0.
        4    1    3    3  502    0 -0.58518230902E+03 -0.67399290493E+03 -0.94496910115E+02  0.89757230884E+03  0.12699999809E+01 0.  1.
       -4    1    3    3    0  502  0.58518230902E+03  0.67399290493E+03  0.11466837299E+04  0.14531310883E+04  0.12699999809E+01 0. -1.
</event>
<event>
 5   0  0.1513292E-05  0.2102503E+04  0.7818609E-02  0.8560142E-01
       -1   -1    0    0    0  501  0.00000000000E+00  0.00000000000E+00  0.10023557338E+04  0.10023557338E+04  0.50400001928E-02 0. -1.
        1   -1    0    0  501    0  0.00000000000E+00  0.00000000000E+00 -0.11025322984E+04  0.11025322985E+04  0.50400001928E-02 0.  1.
    10030    2    1    2    0    0  0.00000000000E+00  0.00000000000E+00 -0.10017656465E+03  0.21048880323E+04  0.21025028619E+04 0.  0.
        1    1    3    3  502    0  0.45940164565E+03 -0.72202078766E+03  0.56114974335E+03  0.10233537630E+04  0.50400001928E-02 0. -1.
       -1    1    3    3    0  502 -0.45940164565E+03  0.72202078766E+03 -0.66132630801E+03  0.10815342692E+04  0.50400001928E-02 0.  1.
</event>
<event>
 5   0  0.3108326E-05  0.2090647E+04  0.7818609E-02  0.8565375E-01
       -2   -1    0    0    0  501  0.00000000000E+00  0.00000000000E+00  0.17373674492E+04  0.17373674492E+04  0.25500000920E-02 0. -1.
        2   -1    0    0  501    0  0.00000000000E+00  0.00000000000E+00 -0.62894096519E+03  0.62894096519E+03  0.25500000920E-02 0.  1.
    10030    2    1    2    0    0  0.00000000000E+00  0.00000000000E+00  0.11084264840E+04  0.23663084144E+04  0.20906473260E+04 0.  0.
        5    1    3    3  502    0 -0.23730811551E+03  0.48319352635E+03 -0.45997401043E+03  0.70808848731E+03  0.46999998093E+01 0.  1.
       -5    1    3    3    0  502  0.23730811551E+03 -0.48319352635E+03  0.15684004945E+04  0.16582199271E+04  0.46999998093E+01 0. -1.
</event>
<event>
 5   0  0.1453430E-05  0.2098072E+04  0.7818609E-02  0.8562093E-01
       -1   -1    0    0    0  501  0.00000000000E+00  0.00000000000E+00  0.63213625361E+03  0.63213625363E+03  0.50400001928E-02 0. -1.
        1   -1    0    0  501    0  0.00000000000E+00  0.00000000000E+00 -0.17408848255E+04  0.17408848255E+04  0.50400001928E-02 0.  1.
    10030    2    1    2    0    0  0.00000000000E+00  0.00000000000E+00 -0.11087485719E+04  0.23730210791E+04  0.20980718878E+04 0.  0.
        5    1    3    3  502    0  0.13248623589E+03  0.99388993712E+03 -0.20560669481E+03  0.10235555739E+04  0.46999998093E+01 0. -1.
       -5    1    3    3    0  502 -0.13248623589E+03 -0.99388993712E+03 -0.90314187708E+03  0.13494655053E+04  0.46999998093E+01 0.  1.
</event>
<event>
 5   0  0.3257130E-05  0.2091294E+04  0.7818609E-02  0.8565088E-01
       -2   -1    0    0    0  501  0.00000000000E+00  0.00000000000E+00  0.10851531021E+04  0.10851531021E+04  0.25500000920E-02 0. -1.
        2   -1    0    0  501    0  0.00000000000E+00  0.00000000000E+00 -0.10075792676E+04  0.10075792676E+04  0.25500000920E-02 0.  1.
    10030    2    1    2    0    0  0.00000000000E+00  0.00000000000E+00  0.77573834561E+02  0.20927323697E+04  0.20912941141E+04 0.  0.
        3    1    3    3  502    0  0.99912752408E+03 -0.44145860501E+01  0.34738587263E+03  0.10578053945E+04  0.10100000352E+00 0. -1.
       -3    1    3    3    0  502 -0.99912752408E+03  0.44145860501E+01 -0.26981203807E+03  0.10349269752E+04  0.10100000352E+00 0.  1.
</event>
<event>
 5   0  0.1435410E-05  0.2093360E+04  0.7818609E-02  0.8564174E-01
        1   -1    0    0  501    0  0.00000000000E+00  0.00000000000E+00  0.16005716169E+04  0.16005716169E+04  0.50400001928E-02 0. -1.
       -1   -1    0    0    0  501  0.00000000000E+00  0.00000000000E+00 -0.68446727031E+03  0.68446727033E+03  0.50400001928E-02 0.  1.
    10030    2    1    2    0    0  0.00000000000E+00  0.00000000000E+00  0.91610434655E+03  0.22850388872E+04  0.20933598693E+04 0.  0.
        2    1    3    3  502    0 -0.10403579229E+04 -0.57213899943E+02  0.34932850775E+03  0.10989305913E+04  0.25500000920E-02 0.  1.
       -2    1    3    3    0  502  0.10403579229E+04  0.57213899943E+02  0.56677583881E+03  0.11861082959E+04  0.25500000920E-02 0. -1.
</event>
<event>
 5   0  0.1492552E-05  0.2110019E+04  0.7818609E-02  0.8556843E-01
        1   -1    0    0  501    0  0.00000000000E+00  0.00000000000E+00  0.46265017656E+03  0.46265017659E+03  0.50400001928E-02 0. -1.
       -1   -1    0    0    0  501  0.00000000000E+00  0.00000000000E+00 -0.24058038357E+04  0.24058038357E+04  0.50400001928E-02 0.  1.
    10030    2    1    2    0    0  0.00000000000E+00  0.00000000000E+00 -0.19431536592E+04  0.28684540123E+04  0.21100194970E+04 0.  0.
        4    1    3    3  502    0 -0.57718452245E+03  0.88237737670E+03 -0.92233287262E+03  0.14008680697E+04  0.12699999809E+01 0.  1.
       -4    1    3    3    0  502  0.57718452245E+03 -0.88237737670E+03 -0.10208207865E+04  0.14675859426E+04  0.12699999809E+01 0. -1.
</event>
<event>
 5   0  0.1513292E-05  0.2101812E+04  0.7818609E-02  0.8560446E-01
        1   -1    0    0  501    0  0.00000000000E+00  0.00000000000E+00  0.16607994610E+04  0.16607994610E+04  0.50400001928E-02 0.  1.
       -1   -1    0    0    0  501  0.00000000000E+00  0.00000000000E+00 -0.66498273664E+03  0.66498273666E+03  0.50400001928E-02 0. -1.
    10030    2    1    2    0    0  0.00000000000E+00  0.00000000000E+00  0.99581672432E+03  0.23257821976E+04  0.21018115716E+04 0.  0.
        1    1    3    3  502    0 -0.21905047596E+03  0.10250443010E+04  0.41433525118E+03  0.11271080828E+04  0.50400001928E-02 0.  1.
       -1    1    3    3    0  502  0.21905047596E+03 -0.10250443010E+04  0.58148147314E+03  0.11986741148E+04  0.50400001928E-02 0. -1.
</event>
<event>
 5   0  0.1492552E-05  0.2086900E+04  0.7818609E-02  0.8567036E-01
        1   -1    0    0  501    0  0.00000000000E+00  0.00000000000E+00  0.44012428592E+03  0.44012428595E+03  0.50400001928E-02 0.  1.
       -1   -1    0    0    0  501  0.00000000000E+00  0.00000000000E+00 -0.24738195305E+04  0.24738195305E+04  0.50400001928E-02 0. -1.
    10030    2    1    2    0    0  0.00000000000E+00  0.00000000000E+00 -0.20336952446E+04  0.29139438164E+04  0.20869001456E+04 0.  0.
        4    1    3    3  502    0  0.70862257580E+03  0.17339907634E+03  0.24847589901E+02  0.72995356718E+03  0.12699999809E+01 0.  1.
       -4    1    3    3    0  502 -0.70862257580E+03 -0.17339907634E+03 -0.20585428345E+04  0.21839902493E+04  0.12699999809E+01 0. -1.
</event>
<event>
 5   0  0.3279789E-05  0.2090709E+04  0.7818609E-02  0.8565347E-01
        2   -1    0    0  501    0  0.00000000000E+00  0.00000000000E+00  0.18433732645E+04  0.18433732645E+04  0.25500000920E-02 0.  1.
       -2   -1    0    0    0  501  0.00000000000E+00  0.00000000000E+00 -0.59280805992E+03  0.59280805993E+03  0.25500000920E-02 0. -1.
    10030    2    1    2    0    0  0.00000000000E+00  0.00000000000E+00  0.12505652045E+04  0.24361813244E+04  0.20907094764E+04 0.  0.
        2    1    3    3  502    0  0.36272319478E+03 -0.68148118088E+03  0.14465768211E+04  0.16396857062E+04  0.25500000920E-02 0.  1.
       -2    1    3    3    0  502 -0.36272319478E+03  0.68148118088E+03 -0.19601161654E+03  0.79649561816E+03  0.25500000920E-02 0. -1.
</event>
<event>
 5   0  0.3130517E-05  0.2098626E+04  0.7818609E-02  0.8561849E-01
       -2   -1    0    0    0  501  0.00000000000E+00  0.00000000000E+00  0.50002938500E+03  0.50002938501E+03  0.25500000920E-02 0. -1.
        2   -1    0    0  501    0  0.00000000000E+00  0.00000000000E+00 -0.22019857254E+04  0.22019857254E+04  0.25500000920E-02 0.  1.
    10030    2    1    2    0    0  0.00000000000E+00  0.00000000000E+00 -0.17019563404E+04  0.27020151104E+04  0.20986258057E+04 0.  0.
        1    1    3    3  502    0 -0.11185266694E+03 -0.58064074370E+03  0.26508606439E+03  0.64801644570E+03  0.50400001928E-02 0. -1.
       -1    1    3    3    0  502  0.11185266694E+03  0.58064074370E+03 -0.19670424048E+04  0.20539986647E+04  0.50400001928E-02 0.  1.
</event>
<event>
 5   0  0.3257130E-05  0.2101004E+04  0.7818609E-02  0.8560801E-01
       -2   -1    0    0    0  501  0.00000000000E+00  0.00000000000E+00  0.91943557610E+03  0.91943557610E+03  0.25500000920E-02 0. -1.
        2   -1    0    0  501    0  0.00000000000E+00  0.00000000000E+00 -0.12002523525E+04  0.12002523525E+04  0.25500000920E-02 0.  1.
    10030    2    1    2    0    0  0.00000000000E+00  0.00000000000E+00 -0.28081677637E+03  0.21196879286E+04  0.21010042486E+04 0.  0.
        3    1    3    3  502    0 -0.78295575806E+03  0.67031230487E+03  0.64415220086E+02  0.10327088825E+04  0.10100000352E+00 0. -1.
       -3    1    3    3    0  502  0.78295575806E+03 -0.67031230487E+03 -0.34523199646E+03  0.10869790461E+04  0.10100000352E+00 0.  1.
</event>
<event>
 5   0  0.3130517E-05  0.2096619E+04  0.7818609E-02  0.8562734E-01
       -2   -1    0    0    0  501  0.00000000000E+00  0.00000000000E+00  0.10821141039E+04  0.10821141039E+04  0.25500000920E-02 0. -1.
        2   -1    0    0  501    0  0.00000000000E+00  0.00000000000E+00 -0.10155606777E+04  0.10155606777E+04  0.25500000920E-02 0.  1.
    10030    2    1    2    0    0  0.00000000000E+00  0.00000000000E+00  0.66553426175E+02  0.20976747816E+04  0.20966187376E+04 0.  0.
        1    1    3    3  502    0  0.52663047817E+03 -0.85542408224E+01 -0.87356809543E+03  0.10200657101E+04  0.50400001928E-02 0.  1.
       -1    1    3    3    0  502 -0.52663047817E+03  0.85542408224E+01  0.94012152161E+03  0.10776090715E+04  0.50400001928E-02 0. -1.
</event>
<event>
 5   0  0.3242231E-05  0.2097460E+04  0.7818609E-02  0.8562363E-01
        2   -1    0    0  501    0  0.00000000000E+00  0.00000000000E+00  0.15054082848E+04  0.15054082848E+04  0.25500000920E-02 0.  1.
       -2   -1    0    0    0  501  0.00000000000E+00  0.00000000000E+00 -0.73058902735E+03  0.73058902735E+03  0.25500000920E-02 0. -1.
    10030    2    1    2    0    0  0.00000000000E+00  0.00000000000E+00  0.77481925748E+03  0.22359973122E+04  0.20974601542E+04 0.  0.
        4    1    3    3  502    0  0.28291098388E+03  0.71385417210E+02 -0.68644650269E+03  0.74588532399E+03  0.12699999809E+01 0. -1.
       -4    1    3    3    0  502 -0.28291098388E+03 -0.71385417210E+02  0.14612657602E+04  0.14901119882E+04  0.12699999809E+01 0.  1.
</event>
<event>
 5   0  0.1466480E-05  0.2101563E+04  0.7818609E-02  0.8560555E-01
       -1   -1    0    0    0  501  0.00000000000E+00  0.00000000000E+00  0.17741314069E+04  0.17741314069E+04  0.50400001928E-02 0.  1.
        1   -1    0    0  501    0  0.00000000000E+00  0.00000000000E+00 -0.62235646009E+03  0.62235646011E+03  0.50400001928E-02 0. -1.
    10030    2    1    2    0    0  0.00000000000E+00  0.00000000000E+00  0.11517749469E+04  0.23964878671E+04  0.21015633630E+04 0.  0.
        3    1    3    3  502    0 -0.47332350585E+03 -0.53721091189E+03  0.14529172029E+04  0.16197527940E+04  0.10100000352E+00 0.  1.
       -3    1    3    3    0  502  0.47332350585E+03  0.53721091189E+03 -0.30114225608E+03  0.77673507301E+03  0.10100000352E+00 0. -1.
</event>
<event>
 5   0  0.1513292E-05  0.2105637E+04  0.7818609E-02  0.8558764E-01
        1   -1    0    0  501    0  0.00000000000E+00  0.00000000000E+00  0.13177353535E+04  0.13177353535E+04  0.50400001928E-02 0. -1.
       -1   -1    0    0    0  501  0.00000000000E+00  0.00000000000E+00 -0.84116026482E+03  0.84116026484E+03  0.50400001928E-02 0.  1.
    10030    2    1    2    0    0  0.00000000000E+00  0.00000000000E+00  0.47657508866E+03  0.21588956183E+04  0.21056368338E+04 0.  0.
        1    1    3    3  502    0 -0.16714532487E+03  0.16426557529E+03  0.12906531794E+04  0.13117569776E+04  0.50400001928E-02 0. -1.
       -1    1    3    3    0  502  0.16714532487E+03 -0.16426557529E+03 -0.81407809070E+03  0.84713864074E+03  0.50400001928E-02 0.  1.
</event>
<event>
 5   0  0.1129987E-05  0.2098529E+04  0.7818609E-02  0.8561892E-01
       -3   -1    0    0    0  501  0.00000000000E+00  0.00000000000E+00  0.10812037548E+04  0.10812037595E+04  0.10100000352E+00 0.  1.
        3   -1    0    0  501    0  0.00000000000E+00  0.00000000000E+00 -0.10182688577E+04  0.10182688627E+04  0.10100000352E+00 0. -1.
    10030    2    1    2    0    0  0.00000000000E+00  0.00000000000E+00  0.62934897160E+02  0.20994726222E+04  0.20985291254E+04 0.  0.
        2    1    3    3  502    0 -0.15147383821E+03 -0.32299810325E+03  0.10186653800E+04  0.10793290763E+04  0.25500000920E-02 0.  1.
       -2    1    3    3    0  502  0.15147383821E+03  0.32299810325E+03 -0.95573048289E+03  0.10201435459E+04  0.25500000920E-02 0. -1.
</event>
<event>
 5   0  0.1513292E-05  0.2096612E+04  0.7818609E-02  0.8562737E-01
       -1   -1    0    0    0  501  0.00000000000E+00  0.00000000000E+00  0.61306359970E+03  0.61306359972E+03  0.50400001928E-02 0.  1.
        1   -1    0    0  501    0  0.00000000000E+00  0.00000000000E+00 -0.17925476570E+04  0.17925476571E+04  0.50400001928E-02 0. -1.
    10030    2    1    2    0    0  0.00000000000E+00  0.00000000000E+00 -0.11794840573E+04  0.24056112568E+04  0.20966122381E+04 0.  0.
        1    1    3    3  502    0 -0.72322345438E+03 -0.21520960987E+03  0.24523101216E+03  0.79341388347E+03  0.50400001928E-02 0.  1.
       -1    1    3    3    0  502  0.72322345438E+03  0.21520960987E+03 -0.14247150695E+04  0.16121973733E+04  0.50400001928E-02 0. -1.
</event>
<event>
 5   0  0.1492552E-05  0.2115401E+04  0.7818609E-02  0.8554490E-01
       -1   -1    0    0    0  501  0.00000000000E+00  0.00000000000E+00  0.79172131245E+03  0.79172131247E+03  0.50400001928E-02 0. -1.
        1   -1    0    0  501    0  0.00000000000E+00  0.00000000000E+00 -0.14130349002E+04  0.14130349002E+04  0.50400001928E-02 0.  1.
    10030    2    1    2    0    0  0.00000000000E+00  0.00000000000E+00 -0.62131358775E+03  0.22047562127E+04  0.21154005254E+04 0.  0.
        4    1    3    3  502    0  0.77490641623E+03 -0.39585005065E+03  0.31603319996E+03  0.92577308931E+03  0.12699999809E+01 0. -1.
       -4    1    3    3    0  502 -0.77490641623E+03  0.39585005065E+03 -0.93734678771E+03  0.12789831234E+04  0.12699999809E+01 0.  1.
</event>
<event>
 5   0  0.1466480E-05  0.2102476E+04  0.7818609E-02  0.8560153E-01
        1   -1    0    0  501    0  0.00000000000E+00  0.00000000000E+00  0.13915527002E+04  0.13915527002E+04  0.50400001928E-02 0. -1.
       -1   -1    0    0    0  501  0.00000000000E+00  0.00000000000E+00 -0.79415017844E+03  0.79415017846E+03  0.50400001928E-02 0.  1.
    10030    2    1    2    0    0  0.00000000000E+00  0.00000000000E+00  0.59740252173E+03  0.21857028786E+04  0.21024764685E+04 0.  0.
        3    1    3    3  502    0  0.17253082095E+03  0.91399863893E+03 -0.21052711012E+03  0.95366769393E+03  0.10100000352E+00 0.  1.
       -3    1    3    3    0  502 -0.17253082095E+03 -0.91399863893E+03  0.80792963185E+03  0.12320351847E+04  0.10100000352E+00 0. -1.
</event>
<event>
 5   0  0.3242231E-05  0.2082549E+04  0.7818609E-02  0.8568970E-01
        2   -1    0    0  501    0  0.00000000000E+00  0.00000000000E+00  0.87130594868E+03  0.87130594868E+03  0.25500000920E-02 0. -1.
       -2   -1    0    0    0  501  0.00000000000E+00  0.00000000000E+00 -0.12443988027E+04  0.12443988027E+04  0.25500000920E-02 0.  1.
    10030    2    1    2    0    0  0.00000000000E+00  0.00000000000E+00 -0.37309285400E+03  0.21157047514E+04  0.20825485150E+04 0.  0.
        4    1    3    3  502    0 -0.92667126967E+03 -0.41875643687E+03 -0.41410790098E+03  0.10979815855E+04  0.12699999809E+01 0.  1.
       -4    1    3    3    0  502  0.92667126967E+03  0.41875643687E+03  0.41015046972E+02  0.10177231659E+04  0.12699999809E+01 0. -1.
</event>
<event>
 5   0  0.1435410E-05  0.2104717E+04  0.7818609E-02  0.8559168E-01
        1   -1    0    0  501    0  0.00000000000E+00  0.00000000000E+00  0.13740747158E+04  0.13740747158E+04  0.50400001928E-02 0. -1.
       -1   -1    0    0    0  501  0.00000000000E+00  0.00000000000E+00 -0.80596652706E+03  0.80596652707E+03  0.50400001928E-02 0.  1.
    10030    2    1    2    0    0  0.00000000000E+00  0.00000000000E+00  0.56810818877E+03  0.21800412429E+04  0.21047168234E+04 0.  0.
        2    1    3    3  502    0  0.42961543155E+03 -0.71757875468E+03  0.94563796099E+03  0.12624261727E+04  0.25500000920E-02 0. -1.
       -2    1    3    3    0  502 -0.42961543155E+03  0.71757875468E+03 -0.37752977223E+03  0.91761507023E+03  0.25500000920E-02 0.  1.
</event>
<event>
 5   0  0.1466480E-05  0.2101071E+04  0.7818609E-02  0.8560772E-01
        1   -1    0    0  501    0  0.00000000000E+00  0.00000000000E+00  0.15938934534E+04  0.15938934534E+04  0.50400001928E-02 0. -1.
       -1   -1    0    0    0  501  0.00000000000E+00  0.00000000000E+00 -0.69240807592E+03  0.69240807594E+03  0.50400001928E-02 0.  1.
    10030    2    1    2    0    0  0.00000000000E+00  0.00000000000E+00  0.90148537750E+03  0.22863015294E+04  0.21010708692E+04 0.  0.
        3    1    3    3  502    0 -0.16613253773E+03 -0.21001513563E+03  0.15561325200E+04  0.15790043721E+04  0.10100000352E+00 0. -1.
       -3    1    3    3    0  502  0.16613253773E+03  0.21001513563E+03 -0.65464714248E+03  0.70729715724E+03  0.10100000352E+00 0.  1.
</event>
<event>
 5   0  0.3108326E-05  0.2100065E+04  0.7818609E-02  0.8561215E-01
       -2   -1    0    0    0  501  0.00000000000E+00  0.00000000000E+00  0.10088590447E+04  0.10088590447E+04  0.25500000920E-02 0.  1.
        2   -1    0    0  501    0  0.00000000000E+00  0.00000000000E+00 -0.10928863390E+04  0.10928863390E+04  0.25500000920E-02 0. -1.
    10030    2    1    2    0    0  0.00000000000E+00  0.00000000000E+00 -0.84027294280E+02  0.21017453838E+04  0.21000650161E+04 0.  0.
        5    1    3    3  502    0  0.17221413081E+03  0.77382635647E+03  0.64707286209E+03  0.10233231726E+04  0.46999998093E+01 0. -1.
       -5    1    3    3    0  502 -0.17221413081E+03 -0.77382635647E+03 -0.73110015637E+03  0.10784222111E+04  0.46999998093E+01 0.  1.
</event>
<event>
 5   0  0.1435410E-05  0.2111296E+04  0.7818609E-02  0.8556284E-01
       -1   -1    0    0    0  501  0.00000000000E+00  0.00000000000E+00  0.89741255329E+03  0.89741255330E+03  0.50400001928E-02 0.  1.
        1   -1    0    0  501    0  0.00000000000E+00  0.00000000000E+00 -0.12417841391E+04  0.12417841391E+04  0.50400001928E-02 0. -1.
    10030    2    1    2    0    0  0.00000000000E+00  0.00000000000E+00 -0.34437158580E+03  0.21391966924E+04  0.21112959763E+04 0.  0.
        2    1    3    3  502    0 -0.10728533760E+03 -0.10417371900E+04 -0.37515235599E+02  0.10479188468E+04  0.25500000920E-02 0.  1.
       -2    1    3    3    0  502  0.10728533760E+03  0.10417371900E+04 -0.30685635020E+03  0.10912778456E+04  0.25500000920E-02 0. -1.
</event>
<event>
 5   0  0.1453430E-05  0.2101038E+04  0.7818609E-02  0.8560786E-01
       -1   -1    0    0    0  501  0.00000000000E+00  0.00000000000E+00  0.94014756091E+03  0.94014756093E+03  0.50400001928E-02 0.  1.
        1   -1    0    0  501    0  0.00000000000E+00  0.00000000000E+00 -0.11738475495E+04  0.11738475495E+04  0.50400001928E-02 0. -1.
    10030    2    1    2    0    0  0.00000000000E+00  0.00000000000E+00 -0.23369998854E+03  0.21139951104E+04  0.21010377536E+04 0.  0.
        5    1    3    3  502    0 -0.71167211454E+03  0.77260993379E+03 -0.12975532311E+03  0.10584242260E+04  0.46999998093E+01 0. -1.
       -5    1    3    3    0  502  0.71167211454E+03 -0.77260993379E+03 -0.10394466543E+03  0.10555708843E+04  0.46999998093E+01 0.  1.
</event>
<event>
 5   0  0.1453430E-05  0.2084863E+04  0.7818609E-02  0.8567941E-01
        1   -1    0    0  501    0  0.00000000000E+00  0.00000000000E+00  0.56282685276E+03  0.56282685278E+03  0.50400001928E-02 0.  1.
       -1   -1    0    0    0  501  0.00000000000E+00  0.00000000000E+00 -0.19307247564E+04  0.19307247564E+04  0.50400001928E-02 0. -1.
    10030    2    1    2    0    0  0.00000000000E+00  0.00000000000E+00 -0.13678979037E+04  0.24935516092E+04  0.20848632936E+04 0.  0.
        5    1    3    3  502    0  0.58051319852E+03 -0.49725652160E+03  0.16378157958E+03  0.78173276619E+03  0.46999998093E+01 0.  1.
       -5    1    3    3    0  502 -0.58051319852E+03  0.49725652160E+03 -0.15316794832E+04  0.17118188430E+04  0.46999998093E+01 0. -1.
</event>
<event>
 5   0  0.3279789E-05  0.2099916E+04  0.7818609E-02  0.8561280E-01
       -2   -1    0    0    0  501  0.00000000000E+00  0.00000000000E+00  0.58485826089E+03  0.58485826089E+03  0.25500000920E-02 0.  1.
        2   -1    0    0  501    0  0.00000000000E+00  0.00000000000E+00 -0.18849221896E+04  0.18849221896E+04  0.25500000920E-02 0. -1.
    10030    2    1    2    0    0  0.00000000000E+00  0.00000000000E+00 -0.13000639288E+04  0.24697804505E+04  0.20999164876E+04 0.  0.
        2    1    3    3  502    0 -0.52792885259E+03  0.66330948526E+03 -0.13785927436E+04  0.16183962121E+04  0.25500000920E-02 0. -1.
       -2    1    3    3    0  502  0.52792885259E+03 -0.66330948526E+03  0.78528814874E+02  0.85138423841E+03  0.25500000920E-02 0.  1.
</event>
<event>
 5   0  0.3279789E-05  0.2133280E+04  0.7818609E-02  0.8546723E-01
       -2   -1    0    0    0  501  0.00000000000E+00  0.00000000000E+00  0.47008942019E+03  0.47008942020E+03  0.25500000920E-02 0.  1.
        2   -1    0    0  501    0  0.00000000000E+00  0.00000000000E+00 -0.24202224426E+04  0.24202224426E+04  0.25500000920E-02 0. -1.
    10030    2    1    2    0    0  0.00000000000E+00  0.00000000000E+00 -0.19501330224E+04  0.28903118628E+04  0.21332800705E+04 0.  0.
        2    1    3    3  502    0  0.47865882228E+03 -0.61910050580E+03 -0.19570616051E+04  0.21077214784E+04  0.25500000920E-02 0. -1.
       -2    1    3    3    0  502 -0.47865882228E+03  0.61910050580E+03  0.69285827035E+01  0.78259038436E+03  0.25500000920E-02 0.  1.
</event>
<event>
 5   0  0.3108326E-05  0.2106169E+04  0.7818609E-02  0.8558531E-01
        2   -1    0    0  501    0  0.00000000000E+00  0.00000000000E+00  0.13761590089E+04  0.13761590089E+04  0.25500000920E-02 0. -1.
       -2   -1    0    0    0  501  0.00000000000E+00  0.00000000000E+00 -0.80585700633E+03  0.80585700634E+03  0.25500000920E-02 0.  1.
    10030    2    1    2    0    0  0.00000000000E+00  0.00000000000E+00  0.57030200261E+03  0.21820160153E+04  0.21061693941E+04 0.  0.
        5    1    3    3  502    0  0.14853130018E+03 -0.51704994978E+03  0.12230494820E+04  0.13361415805E+04  0.46999998093E+01 0. -1.
       -5    1    3    3    0  502 -0.14853130018E+03  0.51704994978E+03 -0.65274747935E+03  0.84587443483E+03  0.46999998093E+01 0.  1.
</event>
<event>
 5   0  0.3242231E-05  0.2107042E+04  0.7818609E-02  0.8558148E-01
        2   -1    0    0  501    0  0.00000000000E+00  0.00000000000E+00  0.16839017037E+04  0.16839017037E+04  0.25500000920E-02 0.  1.
       -2   -1    0    0    0  501  0.00000000000E+00  0.00000000000E+00 -0.65912753362E+03  0.65912753362E+03  0.25500000920E-02 0. -1.
    10030    2    1    2    0    0  0.00000000000E+00  0.00000000000E+00  0.10247741701E+04  0.23430292373E+04  0.21070415058E+04 0.  0.
        4    1    3    3  502    0 -0.77650844678E+03  0.24503741580E+03 -0.23098746083E+03  0.84638379180E+03  0.12699999809E+01 0. -1.
       -4    1    3    3    0  502  0.77650844678E+03 -0.24503741580E+03  0.12557616309E+04  0.14966454455E+04  0.12699999809E+01 0.  1.
</event>
<event>
 5   0  0.1513292E-05  0.2096986E+04  0.7818609E-02  0.8562572E-01
        1   -1    0    0  501    0  0.00000000000E+00  0.00000000000E+00  0.10809091821E+04  0.10809091821E+04  0.50400001928E-02 0.  1.
       -1   -1    0    0    0  501  0.00000000000E+00  0.00000000000E+00 -0.10170492608E+04  0.10170492608E+04  0.50400001928E-02 0. -1.
    10030    2    1    2    0    0  0.00000000000E+00  0.00000000000E+00  0.63859921353E+02  0.20979584429E+04  0.20969862991E+04 0.  0.
        1    1    3    3  502    0  0.78584810223E+03 -0.49525599327E+03  0.51847027484E+03  0.10637890602E+04  0.50400001928E-02 0.  1.
       -1    1    3    3    0  502 -0.78584810223E+03  0.49525599327E+03 -0.45461035348E+03  0.10341693827E+04  0.50400001928E-02 0. -1.
</event>
<event>
 5   0  0.3242231E-05  0.2089128E+04  0.7818609E-02  0.8566048E-01
       -2   -1    0    0    0  501  0.00000000000E+00  0.00000000000E+00  0.12190409141E+04  0.12190409141E+04  0.25500000920E-02 0.  1.
        2   -1    0    0  501    0  0.00000000000E+00  0.00000000000E+00 -0.89505919437E+03  0.89505919437E+03  0.25500000920E-02 0. -1.
    10030    2    1    2    0    0  0.00000000000E+00  0.00000000000E+00  0.32398171970E+03  0.21141001084E+04  0.20891278357E+04 0.  0.
        4    1    3    3  502    0 -0.41337233431E+02  0.70871760358E+03 -0.61340769966E+03  0.93822173679E+03  0.12699999809E+01 0. -1.
       -4    1    3    3    0  502  0.41337233431E+02 -0.70871760358E+03  0.93738941937E+03  0.11758783717E+04  0.12699999809E+01 0.  1.
</event>
<event>
 5   0  0.1492552E-05  0.2092044E+04  0.7818609E-02  0.8564756E-01
        1   -1    0    0  501    0  0.00000000000E+00  0.00000000000E+00  0.14714083718E+04  0.14714083718E+04  0.50400001928E-02 0.  1.
       -1   -1    0    0    0  501  0.00000000000E+00  0.00000000000E+00 -0.74361563285E+03  0.74361563287E+03  0.50400001928E-02 0. -1.
    10030    2    1    2    0    0  0.00000000000E+00  0.00000000000E+00  0.72779273893E+03  0.22150240047E+04  0.20920442324E+04 0.  0.
        4    1    3    3  502    0  0.28461070711E+03  0.58525075851E+02 -0.70002781426E+03  0.75793732771E+03  0.12699999809E+01 0. -1.
       -4    1    3    3    0  502 -0.28461070711E+03 -0.58525075851E+02  0.14278205532E+04  0.14570866769E+04  0.12699999809E+01 0.  1.
</event>
<event>
 5   0  0.3130517E-05  0.2248619E+04  0.7818609E-02  0.8498460E-01
        2   -1    0    0  501    0  0.00000000000E+00  0.00000000000E+00  0.70741080566E+03  0.70741080567E+03  0.25500000920E-02 0.  1.
       -2   -1    0    0    0  501  0.00000000000E+00  0.00000000000E+00 -0.17868990787E+04  0.17868990787E+04  0.25500000920E-02 0. -1.
    10030    2    1    2    0    0  0.00000000000E+00  0.00000000000E+00 -0.10794882731E+04  0.24943098844E+04  0.22486188801E+04 0.  0.
        1    1    3    3  502    0  0.72155330222E+02  0.86029374243E+03  0.25920254373E+03  0.90138652844E+03  0.50400001928E-02 0.  1.
       -1    1    3    3    0  502 -0.72155330222E+02 -0.86029374243E+03 -0.13386908168E+04  0.15929233560E+04  0.50400001928E-02 0. -1.
</event>
<event>
 5   0  0.1466480E-05  0.2126084E+04  0.7818609E-02  0.8549840E-01
       -1   -1    0    0    0  501  0.00000000000E+00  0.00000000000E+00  0.12264586102E+04  0.12264586102E+04  0.50400001928E-02 0. -1.
        1   -1    0    0  501    0  0.00000000000E+00  0.00000000000E+00 -0.92139928838E+03  0.92139928839E+03  0.50400001928E-02 0.  1.
    10030    2    1    2    0    0  0.00000000000E+00  0.00000000000E+00  0.30505932185E+03  0.21478578986E+04  0.21260838090E+04 0.  0.
        3    1    3    3  502    0 -0.24395498156E+03 -0.31048311890E+02  0.11973264084E+04  0.12223209763E+04  0.10100000352E+00 0. -1.
       -3    1    3    3    0  502  0.24395498156E+03  0.31048311890E+02 -0.89226708653E+03  0.92553692233E+03  0.10100000352E+00 0.  1.
</event>
<event>
 5   0  0.3257130E-05  0.2084950E+04  0.7818609E-02  0.8567902E-01
        2   -1    0    0  501    0  0.00000000000E+00  0.00000000000E+00  0.11757812968E+04  0.11757812968E+04  0.25500000920E-02 0.  1.
       -2   -1    0    0    0  501  0.00000000000E+00  0.00000000000E+00 -0.92428226479E+03  0.92428226480E+03  0.25500000920E-02 0. -1.
    10030    2    1    2    0    0  0.00000000000E+00  0.00000000000E+00  0.25149903197E+03  0.21000635616E+04  0.20849496875E+04 0.  0.
        3    1    3    3  502    0  0.55084670543E+03 -0.25272334780E+03  0.98010370906E+03  0.11523473756E+04  0.10100000352E+00 0.  1.
       -3    1    3    3    0  502 -0.55084670543E+03  0.25272334780E+03 -0.72860467709E+03  0.94771618594E+03  0.10100000352E+00 0. -1.
</event>
<event>
 5   0  0.1453430E-05  0.2099601E+04  0.7818609E-02  0.8561419E-01
       -1   -1    0    0    0  501  0.00000000000E+00  0.00000000000E+00  0.10150907049E+04  0.10150907049E+04  0.50400001928E-02 0. -1.
        1   -1    0    0  501    0  0.00000000000E+00  0.00000000000E+00 -0.10856969023E+04  0.10856969023E+04  0.50400001928E-02 0.  1.
    10030    2    1    2    0    0  0.00000000000E+00  0.00000000000E+00 -0.70606197444E+02  0.21007876072E+04  0.20996007562E+04 0.  0.
        5    1    3    3  502    0  0.25524818715E+03 -0.77155218660E+03  0.62961324042E+03  0.10280463687E+04  0.46999998093E+01 0. -1.
       -5    1    3    3    0  502 -0.25524818715E+03  0.77155218660E+03 -0.70021943787E+03  0.10727412385E+04  0.46999998093E+01 0.  1.
</event>
<event>
 5   0  0.3130517E-05  0.2108776E+04  0.7818609E-02  0.8557387E-01
       -2   -1    0    0    0  501  0.00000000000E+00  0.00000000000E+00  0.10960404437E+04  0.10960404437E+04  0.25500000920E-02 0. -1.
        2   -1    0    0  501    0  0.00000000000E+00  0.00000000000E+00 -0.10143188415E+04  0.10143188415E+04  0.25500000920E-02 0.  1.
    10030    2    1    2    0    0  0.00000000000E+00  0.00000000000E+00  0.81721602148E+02  0.21103592852E+04  0.21087763970E+04 0.  0.
        1    1    3    3  502    0 -0.55151199366E+03 -0.10366631018E+03 -0.85245826811E+03  0.10205867341E+04  0.50400001928E-02 0.  1.
       -1    1    3    3    0  502  0.55151199366E+03  0.10366631018E+03  0.93417987026E+03  0.10897725511E+04  0.50400001928E-02 0. -1.
</event>
<event>
 5   0  0.3257130E-05  0.2100393E+04  0.7818609E-02  0.8561070E-01
        2   -1    0    0  501    0  0.00000000000E+00  0.00000000000E+00  0.90313362107E+03  0.90313362108E+03  0.25500000920E-02 0.  1.
       -2   -1    0    0    0  501  0.00000000000E+00  0.00000000000E+00 -0.12212062506E+04  0.12212062506E+04  0.25500000920E-02 0. -1.
    10030    2    1    2    0    0  0.00000000000E+00  0.00000000000E+00 -0.31807262956E+03  0.21243398717E+04  0.21003927473E+04 0.  0.
        3    1    3    3  502    0  0.57694841829E+03 -0.26238239974E+03  0.68788673430E+03  0.93536205316E+03  0.10100000352E+00 0.  1.
       -3    1    3    3    0  502 -0.57694841829E+03  0.26238239974E+03 -0.10059593639E+04  0.11889778185E+04  0.10100000352E+00 0. -1.
</event>
<event>
 5   0  0.1129987E-05  0.2097495E+04  0.7818609E-02  0.8562348E-01
       -3   -1    0    0    0  501  0.00000000000E+00  0.00000000000E+00  0.14901469509E+04  0.14901469544E+04  0.10100000352E+00 0.  1.
        3   -1    0    0  501    0  0.00000000000E+00  0.00000000000E+00 -0.73809555650E+03  0.73809556341E+03  0.10100000352E+00 0. -1.
    10030    2    1    2    0    0  0.00000000000E+00  0.00000000000E+00  0.75205139443E+03  0.22282425178E+04  0.20974945573E+04 0.  0.
        2    1    3    3  502    0  0.99273655061E+03 -0.34022912807E+02  0.73343078231E+03  0.12347486100E+04  0.25500000920E-02 0.  1.
       -2    1    3    3    0  502 -0.99273655061E+03  0.34022912807E+02  0.18620612125E+02  0.99349390774E+03  0.25500000920E-02 0. -1.
</event>
<event>
 5   0  0.1492552E-05  0.2144751E+04  0.7818609E-02  0.8541782E-01
        1   -1    0    0  501    0  0.00000000000E+00  0.00000000000E+00  0.13097212260E+04  0.13097212260E+04  0.50400001928E-02 0.  1.
       -1   -1    0    0    0  501  0.00000000000E+00  0.00000000000E+00 -0.87804158279E+03  0.87804158280E+03  0.50400001928E-02 0. -1.
    10030    2    1    2    0    0  0.00000000000E+00  0.00000000000E+00  0.43167964317E+03  0.21877628088E+04  0.21447514525E+04 0.  0.
        4    1    3    3  502    0 -0.53528820525E+02 -0.32109768503E+03 -0.82642354023E+03  0.88822662576E+03  0.12699999809E+01 0. -1.
       -4    1    3    3    0  502  0.53528820525E+02  0.32109768503E+03  0.12581031834E+04  0.12995361830E+04  0.12699999809E+01 0.  1.
</event>
<event>
 5   0  0.1435410E-05  0.2093923E+04  0.7818609E-02  0.8563925E-01
        1   -1    0    0  501    0  0.00000000000E+00  0.00000000000E+00  0.15118953289E+04  0.15118953289E+04  0.50400001928E-02 0. -1.
       -1   -1    0    0    0  501  0.00000000000E+00  0.00000000000E+00 -0.72500316362E+03  0.72500316364E+03  0.50400001928E-02 0.  1.
    10030    2    1    2    0    0  0.00000000000E+00  0.00000000000E+00  0.78689216525E+03  0.22368984925E+04  0.20939234910E+04 0.  0.
        2    1    3    3  502    0  0.66399147219E+03  0.50110866279E+03  0.10725689268E+04  0.13573498701E+04  0.25500000920E-02 0. -1.
       -2    1    3    3    0  502 -0.66399147219E+03 -0.50110866279E+03 -0.28567676159E+03  0.87954862241E+03  0.25500000920E-02 0.  1.
</event>
<event>
 5   0  0.3242231E-05  0.2099470E+04  0.7818609E-02  0.8561477E-01
        2   -1    0    0  501    0  0.00000000000E+00  0.00000000000E+00  0.23653106050E+04  0.23653106050E+04  0.25500000920E-02 0. -1.
       -2   -1    0    0    0  501  0.00000000000E+00  0.00000000000E+00 -0.46587693463E+03  0.46587693464E+03  0.25500000920E-02 0.  1.
    10030    2    1    2    0    0  0.00000000000E+00  0.00000000000E+00  0.18994336704E+04  0.28311875397E+04  0.20994700799E+04 0.  0.
        4    1    3    3  502    0  0.54116974045E+03  0.86867787612E+03  0.12644640936E+04  0.16267565882E+04  0.12699999809E+01 0. -1.
       -4    1    3    3    0  502 -0.54116974045E+03 -0.86867787612E+03  0.63496957682E+03  0.12044309515E+04  0.12699999809E+01 0.  1.
</event>
<event>
 5   0  0.3130517E-05  0.2101712E+04  0.7818609E-02  0.8560489E-01
       -2   -1    0    0    0  501  0.00000000000E+00  0.00000000000E+00  0.10199252528E+04  0.10199252528E+04  0.25500000920E-02 0.  1.
        2   -1    0    0  501    0  0.00000000000E+00  0.00000000000E+00 -0.10827251625E+04  0.10827251625E+04  0.25500000920E-02 0. -1.
    10030    2    1    2    0    0  0.00000000000E+00  0.00000000000E+00 -0.62799909765E+02  0.21026504153E+04  0.21017123829E+04 0.  0.
        1    1    3    3  502    0  0.70707301431E+03  0.13280738210E+03 -0.79771093690E+03  0.10742126359E+04  0.50400001928E-02 0. -1.
       -1    1    3    3    0  502 -0.70707301431E+03 -0.13280738210E+03  0.73491102713E+03  0.10284377794E+04  0.50400001928E-02 0.  1.
</event>
<event>
 5   0  0.1513292E-05  0.2089373E+04  0.7818609E-02  0.8565939E-01
       -1   -1    0    0    0  501  0.00000000000E+00  0.00000000000E+00  0.12172350189E+04  0.12172350189E+04  0.50400001928E-02 0.  1.
        1   -1    0    0  501    0  0.00000000000E+00  0.00000000000E+00 -0.89659758678E+03  0.89659758680E+03  0.50400001928E-02 0. -1.
    10030    2    1    2    0    0  0.00000000000E+00  0.00000000000E+00  0.32063743210E+03  0.21138326057E+04  0.20893730931E+04 0.  0.
        1    1    3    3  502    0 -0.39366511899E+03  0.63530650650E+03  0.89878374998E+03  0.11689306277E+04  0.50400001928E-02 0.  1.
       -1    1    3    3    0  502  0.39366511899E+03 -0.63530650650E+03 -0.57814631788E+03  0.94490197799E+03  0.50400001928E-02 0. -1.
</event>
<event>
 5   0  0.3108326E-05  0.2094817E+04  0.7818609E-02  0.8563530E-01
       -2   -1    0    0    0  501  0.00000000000E+00  0.00000000000E+00  0.40135805775E+03  0.40135805776E+03  0.25500000920E-02 0.  1.
        2   -1    0    0  501    0  0.00000000000E+00  0.00000000000E+00 -0.27333814076E+04  0.27333814076E+04  0.25500000920E-02 0. -1.
    10030    2    1    2    0    0  0.00000000000E+00  0.00000000000E+00 -0.23320233498E+04  0.31347394654E+04  0.20948170831E+04 0.  0.
        5    1    3    3  502    0 -0.61043291568E+03  0.71708827038E+03 -0.47993874156E+03  0.10569802353E+04  0.46999998093E+01 0.  1.
       -5    1    3    3    0  502  0.61043291568E+03 -0.71708827038E+03 -0.18520846083E+04  0.20777592301E+04  0.46999998093E+01 0. -1.
</event>
<event>
 5   0  0.1492552E-05  0.2101689E+04  0.7818609E-02  0.8560500E-01
       -1   -1    0    0    0  501  0.00000000000E+00  0.00000000000E+00  0.46408741791E+03  0.46408741793E+03  0.50400001928E-02 0. -1.
        1   -1    0    0  501    0  0.00000000000E+00  0.00000000000E+00 -0.23794531122E+04  0.23794531122E+04  0.50400001928E-02 0.  1.
    10030    2    1    2    0    0  0.00000000000E+00  0.00000000000E+00 -0.19153656943E+04  0.28435405302E+04  0.21016890835E+04 0.  0.
        4    1    3    3  502    0  0.10408311926E+04 -0.12260603339E+03 -0.10617024241E+04  0.14918362716E+04  0.12699999809E+01 0. -1.
       -4    1    3    3    0  502 -0.10408311926E+04  0.12260603339E+03 -0.85366327017E+03  0.13517042586E+04  0.12699999809E+01 0.  1.
</event>
<event>
 5   0  0.1466480E-05  0.2092794E+04  0.7818609E-02  0.8564424E-01
       -1   -1    0    0    0  501  0.00000000000E+00  0.00000000000E+00  0.65110122426E+03  0.65110122428E+03  0.50400001928E-02 0.  1.
        1   -1    0    0  501    0  0.00000000000E+00  0.00000000000E+00 -0.16816848425E+04  0.16816848425E+04  0.50400001928E-02 0. -1.
    10030    2    1    2    0    0  0.00000000000E+00  0.00000000000E+00 -0.10305836182E+04  0.23327860668E+04  0.20927943614E+04 0.  0.
        3    1    3    3  502    0 -0.34580858968E+03  0.70216990832E+00  0.58556666330E+03  0.68005323403E+03  0.10100000352E+00 0.  1.
       -3    1    3    3    0  502  0.34580858968E+03 -0.70216990832E+00 -0.16161502815E+04  0.16527328327E+04  0.10100000352E+00 0. -1.
</event>
<event>
 5   0  0.1435410E-05  0.2097969E+04  0.7818609E-02  0.8562139E-01
       -1   -1    0    0    0  501  0.00000000000E+00  0.00000000000E+00  0.86883662536E+03  0.86883662538E+03  0.50400001928E-02 0.  1.
        1   -1    0    0  501    0  0.00000000000E+00  0.00000000000E+00 -0.12664844372E+04  0.12664844372E+04  0.50400001928E-02 0. -1.
    10030    2    1    2    0    0  0.00000000000E+00  0.00000000000E+00 -0.39764781180E+03  0.21353210626E+04  0.20979686027E+04 0.  0.
        2    1    3    3  502    0 -0.55189617392E+03  0.22198943132E+03  0.68056082851E+03  0.90389807817E+03  0.25500000920E-02 0.  1.
       -2    1    3    3    0  502  0.55189617392E+03 -0.22198943132E+03 -0.10782086403E+04  0.12314229844E+04  0.25500000920E-02 0. -1.
</event>
<event>
 5   0  0.3242231E-05  0.2116689E+04  0.7818609E-02  0.8553927E-01
        2   -1    0    0  501    0  0.00000000000E+00  0.00000000000E+00  0.16999486863E+04  0.16999486863E+04  0.25500000920E-02 0.  1.
       -2   -1    0    0    0  501  0.00000000000E+00  0.00000000000E+00 -0.65889791460E+03  0.65889791460E+03  0.25500000920E-02 0. -1.
    10030    2    1    2    0    0  0.00000000000E+00  0.00000000000E+00  0.10410507717E+04  0.23588466009E+04  0.21166885877E+04 0.  0.
        4    1    3    3  502    0 -0.74408947621E+03  0.55973755166E+03  0.10811889337E+04  0.14268659358E+04  0.12699999809E+01 0.  1.
       -4    1    3    3    0  502  0.74408947621E+03 -0.55973755166E+03 -0.40138161959E+02  0.93198066519E+03  0.12699999809E+01 0. -1.
</event>
<event>
 5   0  0.1513292E-05  0.2093731E+04  0.7818609E-02  0.8564010E-01
       -1   -1    0    0    0  501  0.00000000000E+00  0.00000000000E+00  0.72037924126E+03  0.72037924128E+03  0.50400001928E-02 0. -1.
        1   -1    0    0  501    0  0.00000000000E+00  0.00000000000E+00 -0.15213194016E+04  0.15213194016E+04  0.50400001928E-02 0.  1.
    10030    2    1    2    0    0  0.00000000000E+00  0.00000000000E+00 -0.80094016034E+03  0.22416986429E+04  0.20937305617E+04 0.  0.
        1    1    3    3  502    0  0.59041623554E+03 -0.55536934921E+03  0.30884543582E+03  0.86741682511E+03  0.50400001928E-02 0. -1.
       -1    1    3    3    0  502 -0.59041623554E+03  0.55536934921E+03 -0.11097855962E+04  0.13742818178E+04  0.50400001928E-02 0.  1.
</event>
<event>
 5   0  0.1466480E-05  0.2104764E+04  0.7818609E-02  0.8559148E-01
       -1   -1    0    0    0  501  0.00000000000E+00  0.00000000000E+00  0.89703340942E+03  0.89703340944E+03  0.50400001928E-02 0. -1.
        1   -1    0    0  501    0  0.00000000000E+00  0.00000000000E+00 -0.12346338974E+04  0.12346338974E+04  0.50400001928E-02 0.  1.
    10030    2    1    2    0    0  0.00000000000E+00  0.00000000000E+00 -0.33760048796E+03  0.21316673068E+04  0.21047639814E+04 0.  0.
        3    1    3    3  502    0  0.32545771853E+03  0.80503788256E+03 -0.77095787319E+03  0.11611997121E+04  0.10100000352E+00 0.  1.
       -3    1    3    3    0  502 -0.32545771853E+03 -0.80503788256E+03  0.43335738524E+03  0.97046759475E+03  0.10100000352E+00 0. -1.
</event>
<event>
 5   0  0.3279789E-05  0.2103218E+04  0.7818609E-02  0.8559827E-01
       -2   -1    0    0    0  501  0.00000000000E+00  0.00000000000E+00  0.63646814927E+03  0.63646814927E+03  0.25500000920E-02 0. -1.
        2   -1    0    0  501    0  0.00000000000E+00  0.00000000000E+00 -0.17375287266E+04  0.17375287266E+04  0.25500000920E-02 0.  1.
    10030    2    1    2    0    0  0.00000000000E+00  0.00000000000E+00 -0.11010605773E+04  0.23739968759E+04  0.21032181940E+04 0.  0.
        2    1    3    3  502    0  0.14045733588E+03  0.54738799018E+03  0.45050790546E+03  0.72271657507E+03  0.25500000920E-02 0. -1.
       -2    1    3    3    0  502 -0.14045733588E+03 -0.54738799018E+03 -0.15515684828E+04  0.16512803008E+04  0.25500000920E-02 0.  1.
</event>
<event>
 5   0  0.3242231E-05  0.2090686E+04  0.7818609E-02  0.8565357E-01
        2   -1    0    0  501    0  0.00000000000E+00  0.00000000000E+00  0.10577197706E+04  0.10577197706E+04  0.25500000920E-02 0. -1.
       -2   -1    0    0    0  501  0.00000000000E+00  0.00000000000E+00 -0.10331113843E+04  0.10331113843E+04  0.25500000920E-02 0.  1.
    10030    2    1    2    0    0  0.00000000000E+00  0.00000000000E+00  0.24608386296E+02  0.20908311550E+04  0.20906863337E+04 0.  0.
        4    1    3    3  502    0 -0.29603335260E+03 -0.85105984728E+03  0.54224854644E+03  0.10516528460E+04  0.12699999809E+01 0. -1.
       -4    1    3    3    0  502  0.29603335260E+03  0.85105984728E+03 -0.51764016014E+03  0.10391783089E+04  0.12699999809E+01 0.  1.
</event>
<event>
 5   0  0.1453430E-05  0.2096753E+04  0.7818609E-02  0.8562675E-01
       -1   -1    0    0    0  501  0.00000000000E+00  0.00000000000E+00  0.46874908203E+03  0.46874908206E+03  0.50400001928E-02 0.  1.
        1   -1    0    0  501    0  0.00000000000E+00  0.00000000000E+00 -0.23447368170E+04  0.23447368170E+04  0.50400001928E-02 0. -1.
    10030    2    1    2    0    0  0.00000000000E+00  0.00000000000E+00 -0.18759877350E+04  0.28134858991E+04  0.20967529474E+04 0.  0.
        5    1    3    3  502    0  0.13584622039E+03 -0.40679171780E+03 -0.22216261868E+04  0.22626486031E+04  0.46999998093E+01 0. -1.
       -5    1    3    3    0  502 -0.13584622039E+03  0.40679171780E+03  0.34563845182E+03  0.55083729597E+03  0.46999998093E+01 0.  1.
</event>
<event>
 5   0  0.3242231E-05  0.2105759E+04  0.7818609E-02  0.8558711E-01
       -2   -1    0    0    0  501  0.00000000000E+00  0.00000000000E+00  0.12302872548E+04  0.12302872548E+04  0.25500000920E-02 0. -1.
        2   -1    0    0  501    0  0.00000000000E+00  0.00000000000E+00 -0.90105439559E+03  0.90105439559E+03  0.25500000920E-02 0.  1.
    10030    2    1    2    0    0  0.00000000000E+00  0.00000000000E+00  0.32923285925E+03  0.21313416504E+04  0.21057594723E+04 0.  0.
        4    1    3    3  502    0  0.10178610383E+04  0.21094394191E+03  0.33402872970E+03  0.10918403020E+04  0.12699999809E+01 0.  1.
       -4    1    3    3    0  502 -0.10178610383E+04 -0.21094394191E+03 -0.47958704534E+01  0.10395013484E+04  0.12699999809E+01 0. -1.
</event>
<event>
 5   0  0.1435410E-05  0.2113653E+04  0.7818609E-02  0.8555253E-01
        1   -1    0    0  501    0  0.00000000000E+00  0.00000000000E+00  0.13626642214E+04  0.13626642214E+04  0.50400001928E-02 0. -1.
       -1   -1    0    0    0  501  0.00000000000E+00  0.00000000000E+00 -0.81963167332E+03  0.81963167334E+03  0.50400001928E-02 0.  1.
    10030    2    1    2    0    0  0.00000000000E+00  0.00000000000E+00  0.54303254808E+03  0.21822958948E+04  0.21136534777E+04 0.  0.
        2    1    3    3  502    0 -0.65970000478E+03 -0.79254088528E+03  0.32575415131E+02  0.10316909948E+04  0.25500000920E-02 0.  1.
       -2    1    3    3    0  502  0.65970000478E+03  0.79254088528E+03  0.51045713295E+03  0.11506048999E+04  0.25500000920E-02 0. -1.
</event>
<event>
 5   0  0.3108326E-05  0.2096751E+04  0.7818609E-02  0.8562676E-01
       -2   -1    0    0    0  501  0.00000000000E+00  0.00000000000E+00  0.70709818268E+03  0.70709818269E+03  0.25500000920E-02 0.  1.
        2   -1    0    0  501    0  0.00000000000E+00  0.00000000000E+00 -0.15543684345E+04  0.15543684345E+04  0.25500000920E-02 0. -1.
    10030    2    1    2    0    0  0.00000000000E+00  0.00000000000E+00 -0.84727025178E+03  0.22614666172E+04  0.20967509106E+04 0.  0.
        5    1    3    3  502    0 -0.52977876925E+03  0.71652157259E+03  0.17201806416E+03  0.90756873720E+03  0.46999998093E+01 0.  1.
       -5    1    3    3    0  502  0.52977876925E+03 -0.71652157259E+03 -0.10192883159E+04  0.13538978800E+04  0.46999998093E+01 0. -1.
</event>
<event>
 5   0  0.1492552E-05  0.2091562E+04  0.7818609E-02  0.8564969E-01
       -1   -1    0    0    0  501  0.00000000000E+00  0.00000000000E+00  0.61915295926E+03  0.61915295929E+03  0.50400001928E-02 0. -1.
        1   -1    0    0  501    0  0.00000000000E+00  0.00000000000E+00 -0.17663779914E+04  0.17663779914E+04  0.50400001928E-02 0.  1.
    10030    2    1    2    0    0  0.00000000000E+00  0.00000000000E+00 -0.11472250321E+04  0.23855309507E+04  0.20915622492E+04 0.  0.
        4    1    3    3  502    0  0.68312514951E+03 -0.11437203715E+03  0.32003983218E+03  0.76299937081E+03  0.12699999809E+01 0. -1.
       -4    1    3    3    0  502 -0.68312514951E+03  0.11437203715E+03 -0.14672648643E+04  0.16225315799E+04  0.12699999809E+01 0.  1.
</event>
<event>
 5   0  0.3257130E-05  0.2089843E+04  0.7818609E-02  0.8565731E-01
       -2   -1    0    0    0  501  0.00000000000E+00  0.00000000000E+00  0.95273104645E+03  0.95273104645E+03  0.25500000920E-02 0. -1.
        2   -1    0    0  501    0  0.00000000000E+00  0.00000000000E+00 -0.11460327317E+04  0.11460327317E+04  0.25500000920E-02 0.  1.
    10030    2    1    2    0    0  0.00000000000E+00  0.00000000000E+00 -0.19330168523E+03  0.20987637781E+04  0.20898430216E+04 0.  0.
        3    1    3    3  502    0 -0.24404816342E+03 -0.99277285227E+03  0.12038160153E+03  0.10293926279E+04  0.10100000352E+00 0. -1.
       -3    1    3    3    0  502  0.24404816342E+03  0.99277285227E+03 -0.31368328676E+03  0.10693711502E+04  0.10100000352E+00 0.  1.
</event>
<event>
 5   0  0.1129987E-05  0.2071275E+04  0.7818609E-02  0.8574003E-01
        4   -1    0    0  501    0  0.00000000000E+00  0.00000000000E+00  0.15755697383E+04  0.15755702502E+04  0.12699999809E+01 0.  1.
       -4   -1    0    0    0  501  0.00000000000E+00  0.00000000000E+00 -0.68073367470E+03  0.68073485938E+03  0.12699999809E+01 0. -1.
    10030    2    1    2    0    0  0.00000000000E+00  0.00000000000E+00  0.89483606362E+03  0.22563051095E+04  0.20712752513E+04 0.  0.
        5    1    3    3  502    0  0.18648032647E+03  0.11810294564E+03 -0.65480014822E+03  0.69101992882E+03  0.46999998093E+01 0. -1.
       -5    1    3    3    0  502 -0.18648032647E+03 -0.11810294564E+03  0.15496362118E+04  0.15652851807E+04  0.46999998093E+01 0.  1.
</event>
<event>
 5   0  0.3279789E-05  0.2088991E+04  0.7818609E-02  0.8566109E-01
       -2   -1    0    0    0  501  0.00000000000E+00  0.00000000000E+00  0.74375043418E+03  0.74375043419E+03  0.25500000920E-02 0. -1.
        2   -1    0    0  501    0  0.00000000000E+00  0.00000000000E+00 -0.14668503734E+04  0.14668503734E+04  0.25500000920E-02 0.  1.
    10030    2    1    2    0    0  0.00000000000E+00  0.00000000000E+00 -0.72309993924E+03  0.22106008076E+04  0.20889907631E+04 0.  0.
        2    1    3    3  502    0  0.22566478128E+03  0.54856234763E+03  0.54822263750E+03  0.80770867460E+03  0.25500000920E-02 0. -1.
       -2    1    3    3    0  502 -0.22566478128E+03 -0.54856234763E+03 -0.12713225767E+04  0.14028921330E+04  0.25500000920E-02 0.  1.
</event>
<event>
 5   0  0.1129987E-05  0.2099820E+04  0.7818609E-02  0.8561322E-01
       -3   -1    0    0    0  501  0.00000000000E+00  0.00000000000E+00  0.11515038751E+04  0.11515038795E+04  0.10100000352E+00 0.  1.
        3   -1    0    0  501    0  0.00000000000E+00  0.00000000000E+00 -0.95727980977E+03  0.95727981510E+03  0.10100000352E+00 0. -1.
    10030    2    1    2    0    0  0.00000000000E+00  0.00000000000E+00  0.19422406532E+03  0.21087836946E+04  0.20998203931E+04 0.  0.
        1    1    3    3  502    0 -0.80777289707E+03  0.56800927122E+03 -0.26103306832E+03  0.10214058196E+04  0.50400001928E-02 0. -1.
       -1    1    3    3    0  502  0.80777289707E+03 -0.56800927122E+03  0.45525713363E+03  0.10873778751E+04  0.50400001928E-02 0.  1.
</event>
<event>
 5   0  0.3242231E-05  0.2102918E+04  0.7818609E-02  0.8559959E-01
        2   -1    0    0  501    0  0.00000000000E+00  0.00000000000E+00  0.11875617683E+04  0.11875617683E+04  0.25500000920E-02 0. -1.
       -2   -1    0    0    0  501  0.00000000000E+00  0.00000000000E+00 -0.93095454141E+03  0.93095454141E+03  0.25500000920E-02 0.  1.
    10030    2    1    2    0    0  0.00000000000E+00  0.00000000000E+00  0.25660722687E+03  0.21185163097E+04  0.21029179931E+04 0.  0.
        4    1    3    3  502    0  0.53781667726E+02 -0.11264892144E+03 -0.92346248965E+03  0.93186202304E+03  0.12699999809E+01 0.  1.
       -4    1    3    3    0  502 -0.53781667726E+02  0.11264892144E+03  0.11800697165E+04  0.11866542867E+04  0.12699999809E+01 0. -1.
</event>
<event>
 5   0  0.3108326E-05  0.2102677E+04  0.7818609E-02  0.8560065E-01
       -2   -1    0    0    0  501  0.00000000000E+00  0.00000000000E+00  0.90893931866E+03  0.90893931867E+03  0.25500000920E-02 0.  1.
        2   -1    0    0  501    0  0.00000000000E+00  0.00000000000E+00 -0.12160466887E+04  0.12160466887E+04  0.25500000920E-02 0. -1.
    10030    2    1    2    0    0  0.00000000000E+00  0.00000000000E+00 -0.30710737006E+03  0.21249860074E+04  0.21026770068E+04 0.  0.
        5    1    3    3  502    0  0.53756834244E+03  0.72659023259E+03  0.38915175205E+03  0.98406009218E+03  0.46999998093E+01 0.  1.
       -5    1    3    3    0  502 -0.53756834244E+03 -0.72659023259E+03 -0.69625912211E+03  0.11409259152E+04  0.46999998093E+01 0. -1.
</event>
<event>
 5   0  0.1492552E-05  0.2102262E+04  0.7818609E-02  0.8560248E-01
        1   -1    0    0  501    0  0.00000000000E+00  0.00000000000E+00  0.13146171583E+04  0.13146171583E+04  0.50400001928E-02 0.  1.
       -1   -1    0    0    0  501  0.00000000000E+00  0.00000000000E+00 -0.84045493230E+03  0.84045493232E+03  0.50400001928E-02 0. -1.
    10030    2    1    2    0    0  0.00000000000E+00  0.00000000000E+00  0.47416222603E+03  0.21550720907E+04  0.21022620910E+04 0.  0.
        4    1    3    3  502    0  0.96566675723E+03  0.41505833767E+03  0.22740187659E+03  0.10754064051E+04  0.12699999809E+01 0. -1.
       -4    1    3    3    0  502 -0.96566675723E+03 -0.41505833767E+03  0.24676034943E+03  0.10796656856E+04  0.12699999809E+01 0.  1.
</event>
<event>
 5   0  0.1435410E-05  0.2104979E+04  0.7818609E-02  0.8559053E-01
       -1   -1    0    0    0  501  0.00000000000E+00  0.00000000000E+00  0.12691813493E+04  0.12691813493E+04  0.50400001928E-02 0.  1.
        1   -1    0    0  501    0  0.00000000000E+00  0.00000000000E+00 -0.87279383503E+03  0.87279383504E+03  0.50400001928E-02 0. -1.
    10030    2    1    2    0    0  0.00000000000E+00  0.00000000000E+00  0.39638751424E+03  0.21419751843E+04  0.21049785340E+04 0.  0.
        2    1    3    3  502    0  0.12792872340E+03 -0.99508051996E+03  0.52187669329E+03  0.11308873872E+04  0.25500000920E-02 0.  1.
       -2    1    3    3    0  502 -0.12792872340E+03  0.99508051996E+03 -0.12548917905E+03  0.10110877971E+04  0.25500000920E-02 0. -1.
</event>
<event>
 5   0  0.3108326E-05  0.2097577E+04  0.7818609E-02  0.8562311E-01
       -2   -1    0    0    0  501  0.00000000000E+00  0.00000000000E+00  0.78914615482E+03  0.78914615482E+03  0.25500000920E-02 0.  1.
        2   -1    0    0  501    0  0.00000000000E+00  0.00000000000E+00 -0.13938580168E+04  0.13938580168E+04  0.25500000920E-02 0. -1.
    10030    2    1    2    0    0  0.00000000000E+00  0.00000000000E+00 -0.60471186198E+03  0.21830041716E+04  0.20975773591E+04 0.  0.
        5    1    3    3  502    0  0.50957083643E+03  0.31551040259E+03 -0.11980619175E+04  0.13396207298E+04  0.46999998093E+01 0. -1.
       -5    1    3    3    0  502 -0.50957083643E+03 -0.31551040259E+03  0.59335005557E+03  0.84338344181E+03  0.46999998093E+01 0.  1.
</event>
<event>
 5   0  0.1466480E-05  0.2104333E+04  0.7818609E-02  0.8559337E-01
       -1   -1    0    0    0  501  0.00000000000E+00  0.00000000000E+00  0.73831947060E+03  0.73831947062E+03  0.50400001928E-02 0.  1.
        1   -1    0    0  501    0  0.00000000000E+00  0.00000000000E+00 -0.14994249556E+04  0.14994249556E+04  0.50400001928E-02 0. -1.
    10030    2    1    2    0    0  0.00000000000E+00  0.00000000000E+00 -0.76110548496E+03  0.22377444262E+04  0.21043332810E+04 0.  0.
        3    1    3    3  502    0  0.10006772072E+04  0.80067826841E+02 -0.45474438726E+02  0.10049048038E+04  0.10100000352E+00 0.  1.
       -3    1    3    3    0  502 -0.10006772072E+04 -0.80067826841E+02 -0.71563104623E+03  0.12328396224E+04  0.10100000352E+00 0. -1.
</event>
<event>
 5   0  0.3130517E-05  0.2100927E+04  0.7818609E-02  0.8560835E-01
       -2   -1    0    0    0  501  0.00000000000E+00  0.00000000000E+00  0.71827147427E+03  0.71827147428E+03  0.25500000920E-02 0. -1.
        2   -1    0    0  501    0  0.00000000000E+00  0.00000000000E+00 -0.15362903812E+04  0.15362903812E+04  0.25500000920E-02 0.  1.
    10030    2    1    2    0    0  0.00000000000E+00  0.00000000000E+00 -0.81801890696E+03  0.22545618555E+04  0.21009269926E+04 0.  0.
        1    1    3    3  502    0  0.71042907200E+03 -0.59248135207E+03  0.12511251535E+03  0.93348634720E+03  0.50400001928E-02 0. -1.
       -1    1    3    3    0  502 -0.71042907200E+03  0.59248135207E+03 -0.94313142231E+03  0.13210755083E+04  0.50400001928E-02 0.  1.
</event>
<event>
 5   0  0.1513292E-05  0.2148733E+04  0.7818609E-02  0.8540075E-01
        1   -1    0    0  501    0  0.00000000000E+00  0.00000000000E+00  0.28396931704E+04  0.28396931705E+04  0.50400001928E-02 0. -1.
       -1   -1    0    0    0  501  0.00000000000E+00  0.00000000000E+00 -0.40647458201E+03  0.40647458204E+03  0.50400001928E-02 0.  1.
    10030    2    1    2    0    0  0.00000000000E+00  0.00000000000E+00  0.24332185884E+04  0.32461677525E+04  0.21487327377E+04 0.  0.
        1    1    3    3  502    0  0.99471342231E+03 -0.17231080383E+03  0.17719301953E+04  0.20393338184E+04  0.50400001928E-02 0. -1.
       -1    1    3    3    0  502 -0.99471342231E+03  0.17231080383E+03  0.66128839309E+03  0.12068339341E+04  0.50400001928E-02 0.  1.
</event>
<event>
 5   0  0.3130517E-05  0.2100870E+04  0.7818609E-02  0.8560860E-01
        2   -1    0    0  501    0  0.00000000000E+00  0.00000000000E+00  0.10141208395E+04  0.10141208395E+04  0.25500000920E-02 0.  1.
       -2   -1    0    0    0  501  0.00000000000E+00  0.00000000000E+00 -0.10880496836E+04  0.10880496836E+04  0.25500000920E-02 0. -1.
    10030    2    1    2    0    0  0.00000000000E+00  0.00000000000E+00 -0.73928844073E+02  0.21021705231E+04  0.21008701612E+04 0.  0.
        1    1    3    3  502    0  0.45517415106E+03  0.10978336999E+03  0.90392497046E+03  0.10179961927E+04  0.50400001928E-02 0.  1.
       -1    1    3    3    0  502 -0.45517415106E+03 -0.10978336999E+03 -0.97785381453E+03  0.10841743304E+04  0.50400001928E-02 0. -1.
</event>
<event>
 5   0  0.3130517E-05  0.2100053E+04  0.7818609E-02  0.8561220E-01
       -2   -1    0    0    0  501  0.00000000000E+00  0.00000000000E+00  0.10098074943E+04  0.10098074943E+04  0.25500000920E-02 0. -1.
        2   -1    0    0  501    0  0.00000000000E+00  0.00000000000E+00 -0.10918472732E+04  0.10918472732E+04  0.25500000920E-02 0.  1.
    10030    2    1    2    0    0  0.00000000000E+00  0.00000000000E+00 -0.82039778849E+02  0.21016547675E+04  0.21000529128E+04 0.  0.
        1    1    3    3  502    0 -0.65896900993E+03 -0.48892726421E+03 -0.69670323051E+03  0.10764225087E+04  0.50400001928E-02 0.  1.
       -1    1    3    3    0  502  0.65896900993E+03  0.48892726421E+03  0.61466345166E+03  0.10252322588E+04  0.50400001928E-02 0. -1.
</event>
<event>
 5   0  0.3108326E-05  0.2094977E+04  0.7818609E-02  0.8563459E-01
        2   -1    0    0  501    0  0.00000000000E+00  0.00000000000E+00  0.35707062388E+04  0.35707062388E+04  0.25500000920E-02 0.  1.
       -2   -1    0    0    0  501  0.00000000000E+00  0.00000000000E+00 -0.30728717796E+03  0.30728717797E+03  0.25500000920E-02 0. -1.
    10030    2    1    2    0    0  0.00000000000E+00  0.00000000000E+00  0.32634190608E+04  0.38779934168E+04  0.20949770820E+04 0.  0.
        5    1    3    3  502    0 -0.99473521718E+03  0.12480119096E+02  0.10246299677E+04  0.14281255429E+04  0.46999998093E+01 0.  1.
       -5    1    3    3    0  502  0.99473521718E+03 -0.12480119096E+02  0.22387890932E+04  0.24498678739E+04  0.46999998093E+01 0. -1.
</event>
<event>
 5   0  0.3257130E-05  0.2131767E+04  0.7818609E-02  0.8547378E-01
       -2   -1    0    0    0  501  0.00000000000E+00  0.00000000000E+00  0.80726980984E+03  0.80726980985E+03  0.25500000920E-02 0. -1.
        2   -1    0    0  501    0  0.00000000000E+00  0.00000000000E+00 -0.14073452656E+04  0.14073452657E+04  0.25500000920E-02 0.  1.
    10030    2    1    2    0    0  0.00000000000E+00  0.00000000000E+00 -0.60007545581E+03  0.22146150755E+04  0.21317667274E+04 0.  0.
        3    1    3    3  502    0 -0.98231513215E+03  0.12256008864E+03 -0.71054448089E+03  0.12185390694E+04  0.10100000352E+00 0. -1.
       -3    1    3    3    0  502  0.98231513215E+03 -0.12256008864E+03  0.11046902509E+03  0.99607600608E+03  0.10100000352E+00 0.  1.
</event>
<event>
 5   0  0.1435410E-05  0.2097859E+04  0.7818609E-02  0.8562187E-01
        1   -1    0    0  501    0  0.00000000000E+00  0.00000000000E+00  0.11862028080E+04  0.11862028080E+04  0.50400001928E-02 0.  1.
       -1   -1    0    0    0  501  0.00000000000E+00  0.00000000000E+00 -0.92754175113E+03  0.92754175114E+03  0.50400001928E-02 0. -1.
    10030    2    1    2    0    0  0.00000000000E+00  0.00000000000E+00  0.25866105687E+03  0.21137445592E+04  0.20978585555E+04 0.  0.
        2    1    3    3  502    0 -0.61064115210E+02 -0.81373476212E+03  0.79338083561E+03  0.11381327864E+04  0.25500000920E-02 0.  1.
       -2    1    3    3    0  502  0.61064115210E+02  0.81373476212E+03 -0.53471977875E+03  0.97561177271E+03  0.25500000920E-02 0. -1.
</event>
<event>
 5   0  0.1466480E-05  0.2082293E+04  0.7818609E-02  0.8569084E-01
        1   -1    0    0  501    0  0.00000000000E+00  0.00000000000E+00  0.71528545373E+03  0.71528545375E+03  0.50400001928E-02 0. -1.
       -1   -1    0    0    0  501  0.00000000000E+00  0.00000000000E+00 -0.15154586571E+04  0.15154586571E+04  0.50400001928E-02 0.  1.
    10030    2    1    2    0    0  0.00000000000E+00  0.00000000000E+00 -0.80017320339E+03  0.22307441109E+04  0.20822925185E+04 0.  0.
        3    1    3    3  502    0  0.67032579690E+03 -0.17619850549E+03  0.43222066819E+03  0.81682146369E+03  0.10100000352E+00 0. -1.
       -3    1    3    3    0  502 -0.67032579690E+03  0.17619850549E+03 -0.12323938716E+04  0.14139226472E+04  0.10100000352E+00 0.  1.
</event>
<event>
 5   0  0.1129987E-05  0.2114736E+04  0.7818609E-02  0.8554780E-01
       -3   -1    0    0    0  501  0.00000000000E+00  0.00000000000E+00  0.96836528797E+03  0.96836529324E+03  0.10100000352E+00 0. -1.
        3   -1    0    0  501    0  0.00000000000E+00  0.00000000000E+00 -0.11545509065E+04  0.11545509110E+04  0.10100000352E+00 0.  1.
    10030    2    1    2    0    0  0.00000000000E+00  0.00000000000E+00 -0.18618561857E+03  0.21229162042E+04  0.21147359470E+04 0.  0.
        5    1    3    3  502    0 -0.59771278256E+01 -0.55853895525E+03  0.80815693598E+03  0.98241600850E+03  0.46999998093E+01 0. -1.
       -5    1    3    3    0  502  0.59771278256E+01  0.55853895525E+03 -0.99434255455E+03  0.11405001957E+04  0.46999998093E+01 0.  1.
</event>
<event>
 5   0  0.1435410E-05  0.2099949E+04  0.7818609E-02  0.8561266E-01
       -1   -1    0    0    0  501  0.00000000000E+00  0.00000000000E+00  0.14194908784E+04  0.14194908784E+04  0.50400001928E-02 0.  1.
        1   -1    0    0  501    0  0.00000000000E+00  0.00000000000E+00 -0.77664952006E+03  0.77664952008E+03  0.50400001928E-02 0. -1.
    10030    2    1    2    0    0  0.00000000000E+00  0.00000000000E+00  0.64284135834E+03  0.21961403985E+04  0.20999494370E+04 0.  0.
        2    1    3    3  502    0  0.16347425956E+03  0.53321125234E+02  0.14046660067E+04  0.14151514288E+04  0.25500000920E-02 0.  1.
       -2    1    3    3    0  502 -0.16347425956E+03 -0.53321125234E+02 -0.76182464837E+03  0.78098896971E+03  0.25500000920E-02 0. -1.
</event>
<event>
 5   0  0.1513292E-05  0.2103142E+04  0.7818609E-02  0.8559861E-01
       -1   -1    0    0    0  501  0.00000000000E+00  0.00000000000E+00  0.68719698827E+03  0.68719698829E+03  0.50400001928E-02 0. -1.
        1   -1    0    0  501    0  0.00000000000E+00  0.00000000000E+00 -0.16091471114E+04  0.16091471114E+04  0.50400001928E-02 0.  1.
    10030    2    1    2    0    0  0.00000000000E+00  0.00000000000E+00 -0.92195012311E+03  0.22963440997E+04  0.21031415061E+04 0.  0.
        1    1    3    3  502    0 -0.22139969733E+03  0.36117953167E+02  0.66076753497E+03  0.69780804511E+03  0.50400001928E-02 0. -1.
       -1    1    3    3    0  502  0.22139969733E+03 -0.36117953167E+02 -0.15827176581E+04  0.15985360546E+04  0.50400001928E-02 0.  1.
</event>
<event>
 5   0  0.3130517E-05  0.2097595E+04  0.7818609E-02  0.8562303E-01
        2   -1    0    0  501    0  0.00000000000E+00  0.00000000000E+00  0.73030504728E+03  0.73030504729E+03  0.25500000920E-02 0. -1.
       -2   -1    0    0    0  501  0.00000000000E+00  0.00000000000E+00 -0.15061878467E+04  0.15061878467E+04  0.25500000920E-02 0.  1.
    10030    2    1    2    0    0  0.00000000000E+00  0.00000000000E+00 -0.77588279946E+03  0.22364928940E+04  0.20975953725E+04 0.  0.
        1    1    3    3  502    0 -0.95783827131E+03  0.12174415690E+03 -0.82457119106E+03  0.12697217974E+04  0.50400001928E-02 0.  1.
       -1    1    3    3    0  502  0.95783827131E+03 -0.12174415690E+03  0.48688391600E+02  0.96677109660E+03  0.50400001928E-02 0. -1.
</event>
<event>
 5   0  0.1466480E-05  0.2102950E+04  0.7818609E-02  0.8559945E-01
        1   -1    0    0  501    0  0.00000000000E+00  0.00000000000E+00  0.73108584489E+03  0.73108584490E+03  0.50400001928E-02 0.  1.
       -1   -1    0    0    0  501  0.00000000000E+00  0.00000000000E+00 -0.15122712843E+04  0.15122712843E+04  0.50400001928E-02 0. -1.
    10030    2    1    2    0    0  0.00000000000E+00  0.00000000000E+00 -0.78118543944E+03  0.22433571292E+04  0.21029504318E+04 0.  0.
        3    1    3    3  502    0 -0.77625676922E+03  0.69000545794E+03 -0.56561401800E+03  0.11826247635E+04  0.10100000352E+00 0.  1.
       -3    1    3    3    0  502  0.77625676922E+03 -0.69000545794E+03 -0.21557142144E+03  0.10607323657E+04  0.10100000352E+00 0. -1.
</event>
<event>
 5   0  0.3279789E-05  0.2096625E+04  0.7818609E-02  0.8562732E-01
       -2   -1    0    0    0  501  0.00000000000E+00  0.00000000000E+00  0.78089790052E+03  0.78089790052E+03  0.25500000920E-02 0.  1.
        2   -1    0    0  501    0  0.00000000000E+00  0.00000000000E+00 -0.14073018832E+04  0.14073018832E+04  0.25500000920E-02 0. -1.
    10030    2    1    2    0    0  0.00000000000E+00  0.00000000000E+00 -0.62640398269E+03  0.21881997837E+04  0.20966249889E+04 0.  0.
        2    1    3    3  502    0  0.83629278290E+02  0.22630304027E+03  0.75152894846E+03  0.78930518978E+03  0.25500000920E-02 0.  1.
       -2    1    3    3    0  502 -0.83629278290E+02 -0.22630304027E+03 -0.13779329312E+04  0.13988945939E+04  0.25500000920E-02 0. -1.
</event>
<event>
 5   0  0.1453430E-05  0.2096983E+04  0.7818609E-02  0.8562574E-01
       -1   -1    0    0    0  501  0.00000000000E+00  0.00000000000E+00  0.88199825235E+03  0.88199825237E+03  0.50400001928E-02 0. -1.
        1   -1    0    0  501    0  0.00000000000E+00  0.00000000000E+00 -0.12464129552E+04  0.12464129552E+04  0.50400001928E-02 0.  1.
    10030    2    1    2    0    0  0.00000000000E+00  0.00000000000E+00 -0.36441470283E+03  0.21284112076E+04  0.20969826401E+04 0.  0.
        5    1    3    3  502    0 -0.17458952780E+03  0.91519957998E+02  0.86301029266E+03  0.88524926499E+03  0.46999998093E+01 0. -1.
       -5    1    3    3    0  502  0.17458952780E+03 -0.91519957998E+02 -0.12274249955E+04  0.12431619426E+04  0.46999998093E+01 0.  1.
</event>
<event>
 5   0  0.3242231E-05  0.2106556E+04  0.7818609E-02  0.8558361E-01
       -2   -1    0    0    0  501  0.00000000000E+00  0.00000000000E+00  0.56056638448E+03  0.56056638449E+03  0.25500000920E-02 0.  1.
        2   -1    0    0  501    0  0.00000000000E+00  0.00000000000E+00 -0.19790595959E+04  0.19790595959E+04  0.25500000920E-02 0. -1.
    10030    2    1    2    0    0  0.00000000000E+00  0.00000000000E+00 -0.14184932114E+04  0.25396259804E+04  0.21065557504E+04 0.  0.
        4    1    3    3  502    0 -0.55621330440E+02 -0.99375074446E+03 -0.29378684787E+03  0.10377603767E+04  0.12699999809E+01 0.  1.
       -4    1    3    3    0  502  0.55621330440E+02  0.99375074446E+03 -0.11247063636E+04  0.15018656037E+04  0.12699999809E+01 0. -1.
</event>
<event>
 5   0  0.3130517E-05  0.2091179E+04  0.7818609E-02  0.8565139E-01
       -2   -1    0    0    0  501  0.00000000000E+00  0.00000000000E+00  0.67826104940E+03  0.67826104940E+03  0.25500000920E-02 0.  1.
        2   -1    0    0  501    0  0.00000000000E+00  0.00000000000E+00 -0.16118533904E+04  0.16118533904E+04  0.25500000920E-02 0. -1.
    10030    2    1    2    0    0  0.00000000000E+00  0.00000000000E+00 -0.93359234098E+03  0.22901144398E+04  0.20911789709E+04 0.  0.
        1    1    3    3  502    0 -0.73665664538E+03  0.73160941351E+03 -0.60244227422E+03  0.12003549645E+04  0.50400001928E-02 0. -1.
       -1    1    3    3    0  502  0.73665664538E+03 -0.73160941351E+03 -0.33115006676E+03  0.10897594752E+04  0.50400001928E-02 0.  1.
</event>
<event>
 5   0  0.3130517E-05  0.2208835E+04  0.7818609E-02  0.8514760E-01
       -2   -1    0    0    0  501  0.00000000000E+00  0.00000000000E+00  0.10228194425E+04  0.10228194425E+04  0.25500000920E-02 0.  1.
        2   -1    0    0  501    0  0.00000000000E+00  0.00000000000E+00 -0.11925249004E+04  0.11925249004E+04  0.25500000920E-02 0. -1.
    10030    2    1    2    0    0  0.00000000000E+00  0.00000000000E+00 -0.16970545789E+03  0.22153443430E+04  0.22088346737E+04 0.  0.
        1    1    3    3  502    0 -0.58539548201E+02 -0.77834484091E+03 -0.86849406514E+03  0.11677026639E+04  0.50400001928E-02 0. -1.
       -1    1    3    3    0  502  0.58539548201E+02  0.77834484091E+03  0.69878860725E+03  0.10476416791E+04  0.50400001928E-02 0.  1.
</event>
<event>
 5   0  0.1492552E-05  0.2094899E+04  0.7818609E-02  0.8563494E-01
        1   -1    0    0  501    0  0.00000000000E+00  0.00000000000E+00  0.19622016164E+04  0.19622016164E+04  0.50400001928E-02 0. -1.
       -1   -1    0    0    0  501  0.00000000000E+00  0.00000000000E+00 -0.55914271444E+03  0.55914271446E+03  0.50400001928E-02 0.  1.
    10030    2    1    2    0    0  0.00000000000E+00  0.00000000000E+00  0.14030589020E+04  0.25213443309E+04  0.20948992702E+04 0.  0.
        4    1    3    3  502    0 -0.27845927213E+03 -0.23140552722E+03 -0.48143392277E+03  0.60238552370E+03  0.12699999809E+01 0.  1.
       -4    1    3    3    0  502  0.27845927213E+03  0.23140552722E+03  0.18844928247E+04  0.19189588072E+04  0.12699999809E+01 0. -1.
</event>
<event>
 5   0  0.3242231E-05  0.2111280E+04  0.7818609E-02  0.8556290E-01
       -2   -1    0    0    0  501  0.00000000000E+00  0.00000000000E+00  0.10200249719E+04  0.10200249719E+04  0.25500000920E-02 0.  1.
        2   -1    0    0  501    0  0.00000000000E+00  0.00000000000E+00 -0.10924990027E+04  0.10924990027E+04  0.25500000920E-02 0. -1.
    10030    2    1    2    0    0  0.00000000000E+00  0.00000000000E+00 -0.72474030843E+02  0.21125239746E+04  0.21112804310E+04 0.  0.
        4    1    3    3  502    0 -0.77075597541E+03 -0.68524281818E+03 -0.26165210322E+03  0.10639952676E+04  0.12699999809E+01 0.  1.
       -4    1    3    3    0  502  0.77075597541E+03  0.68524281818E+03  0.18917807238E+03  0.10485287070E+04  0.12699999809E+01 0. -1.
</event>
<event>
 5   0  0.3242231E-05  0.2097164E+04  0.7818609E-02  0.8562494E-01
       -2   -1    0    0    0  501  0.00000000000E+00  0.00000000000E+00  0.57187130575E+03  0.57187130576E+03  0.25500000920E-02 0.  1.
        2   -1    0    0  501    0  0.00000000000E+00  0.00000000000E+00 -0.19226777984E+04  0.19226777984E+04  0.25500000920E-02 0. -1.
    10030    2    1    2    0    0  0.00000000000E+00  0.00000000000E+00 -0.13508064927E+04  0.24945491042E+04  0.20971640500E+04 0.  0.
        4    1    3    3  502    0  0.15103471696E+02  0.10200429708E+04 -0.96385534055E+03  0.14034723038E+04  0.12699999809E+01 0.  1.
       -4    1    3    3    0  502 -0.15103471696E+02 -0.10200429708E+04 -0.38695115214E+03  0.10910768004E+04  0.12699999809E+01 0. -1.
</event>
<event>
 5   0  0.1435410E-05  0.1991163E+04  0.7818609E-02  0.8610763E-01
        1   -1    0    0  501    0  0.00000000000E+00  0.00000000000E+00  0.98075953508E+03  0.98075953509E+03  0.50400001928E-02 0. -1.
       -1   -1    0    0    0  501  0.00000000000E+00  0.00000000000E+00 -0.10106276792E+04  0.10106276792E+04  0.50400001928E-02 0.  1.
    10030    2    1    2    0    0  0.00000000000E+00  0.00000000000E+00 -0.29868144105E+02  0.19913872143E+04  0.19911632106E+04 0.  0.
        2    1    3    3  502    0  0.60245785894E+03 -0.51377103704E+03 -0.61854698303E+03  0.10047469933E+04  0.25500000920E-02 0.  1.
       -2    1    3    3    0  502 -0.60245785894E+03  0.51377103704E+03  0.58867883892E+03  0.98664022100E+03  0.25500000920E-02 0. -1.
</event>
<event>
 5   0  0.3130517E-05  0.2109330E+04  0.7818609E-02  0.8557144E-01
       -2   -1    0    0    0  501  0.00000000000E+00  0.00000000000E+00  0.83841378321E+03  0.83841378322E+03  0.25500000920E-02 0. -1.
        2   -1    0    0  501    0  0.00000000000E+00  0.00000000000E+00 -0.13266940335E+04  0.13266940335E+04  0.25500000920E-02 0.  1.
    10030    2    1    2    0    0  0.00000000000E+00  0.00000000000E+00 -0.48828025024E+03  0.21651078167E+04  0.21093302859E+04 0.  0.
        1    1    3    3  502    0  0.51144811694E+03  0.91775907430E+03 -0.14974267114E+03  0.10612651706E+04  0.50400001928E-02 0.  1.
       -1    1    3    3    0  502 -0.51144811694E+03 -0.91775907430E+03 -0.33853757910E+03  0.11038426461E+04  0.50400001928E-02 0. -1.
</event>
<event>
 5   0  0.1453430E-05  0.2090061E+04  0.7818609E-02  0.8565634E-01
       -1   -1    0    0    0  501  0.00000000000E+00  0.00000000000E+00  0.64755343290E+03  0.64755343292E+03  0.50400001928E-02 0.  1.
        1   -1    0    0  501    0  0.00000000000E+00  0.00000000000E+00 -0.16864847039E+04  0.16864847039E+04  0.50400001928E-02 0. -1.
    10030    2    1    2    0    0  0.00000000000E+00  0.00000000000E+00 -0.10389312710E+04  0.23340381368E+04  0.20900612044E+04 0.  0.
        5    1    3    3  502    0  0.54239238519E+03 -0.58161235425E+03  0.23761310580E+03  0.83002681172E+03  0.46999998093E+01 0.  1.
       -5    1    3    3    0  502 -0.54239238519E+03  0.58161235425E+03 -0.12765443768E+04  0.15040113251E+04  0.46999998093E+01 0. -1.
</event>
<event>
 5   0  0.1453430E-05  0.2097440E+04  0.7818609E-02  0.8562372E-01
       -1   -1    0    0    0  501  0.00000000000E+00  0.00000000000E+00  0.19586415239E+04  0.19586415239E+04  0.50400001928E-02 0.  1.
        1   -1    0    0  501    0  0.00000000000E+00  0.00000000000E+00 -0.56151885055E+03  0.56151885057E+03  0.50400001928E-02 0. -1.
    10030    2    1    2    0    0  0.00000000000E+00  0.00000000000E+00  0.13971226734E+04  0.25201603745E+04  0.20974404756E+04 0.  0.
        5    1    3    3  502    0 -0.26186867845E+03 -0.13835895025E+03  0.19073338937E+04  0.19301976780E+04  0.46999998093E+01 0.  1.
       -5    1    3    3    0  502  0.26186867845E+03  0.13835895025E+03 -0.51021122038E+03  0.58996269651E+03  0.46999998093E+01 0. -1.
</event>
<event>
 5   0  0.1453430E-05  0.2100758E+04  0.7818609E-02  0.8560909E-01
       -1   -1    0    0    0  501  0.00000000000E+00  0.00000000000E+00  0.18396737815E+04  0.18396737815E+04  0.50400001928E-02 0. -1.
        1   -1    0    0  501    0  0.00000000000E+00  0.00000000000E+00 -0.59972382011E+03  0.59972382013E+03  0.50400001928E-02 0.  1.
    10030    2    1    2    0    0  0.00000000000E+00  0.00000000000E+00  0.12399499614E+04  0.24393976017E+04  0.21007581375E+04 0.  0.
        5    1    3    3  502    0  0.24840197920E+03  0.79680971914E+03  0.13604746063E+04  0.15960960235E+04  0.46999998093E+01 0. -1.
       -5    1    3    3    0  502 -0.24840197920E+03 -0.79680971914E+03 -0.12052464486E+03  0.84330157821E+03  0.46999998093E+01 0.  1.
</event>
<event>
 5   0  0.1435410E-05  0.2094676E+04  0.7818609E-02  0.8563592E-01
       -1   -1    0    0    0  501  0.00000000000E+00  0.00000000000E+00  0.17731018567E+04  0.17731018567E+04  0.50400001928E-02 0.  1.
        1   -1    0    0  501    0  0.00000000000E+00  0.00000000000E+00 -0.61864292691E+03  0.61864292693E+03  0.50400001928E-02 0. -1.
    10030    2    1    2    0    0  0.00000000000E+00  0.00000000000E+00  0.11544589298E+04  0.23917447836E+04  0.20946760345E+04 0.  0.
        2    1    3    3  502    0 -0.92468066018E+03  0.10056763373E+03  0.11269290521E+04  0.14612040449E+04  0.25500000920E-02 0.  1.
       -2    1    3    3    0  502  0.92468066018E+03 -0.10056763373E+03  0.27529877637E+02  0.93054073872E+03  0.25500000920E-02 0. -1.
</event>
<event>
 5   0  0.3257130E-05  0.2089546E+04  0.7818609E-02  0.8565862E-01
       -2   -1    0    0    0  501  0.00000000000E+00  0.00000000000E+00  0.11061997602E+04  0.11061997602E+04  0.25500000920E-02 0.  1.
        2   -1    0    0  501    0  0.00000000000E+00  0.00000000000E+00 -0.98675738636E+03  0.98675738636E+03  0.25500000920E-02 0. -1.
    10030    2    1    2    0    0  0.00000000000E+00  0.00000000000E+00  0.11944237381E+03  0.20929571465E+04  0.20895461556E+04 0.  0.
        3    1    3    3  502    0 -0.33776102267E+03  0.98865069706E+03  0.53541456244E+02  0.10461259040E+04  0.10100000352E+00 0.  1.
       -3    1    3    3    0  502  0.33776102267E+03 -0.98865069706E+03  0.65900917567E+02  0.10468312425E+04  0.10100000352E+00 0. -1.
</event>
<event>
 5   0  0.3108326E-05  0.2103652E+04  0.7818609E-02  0.8559637E-01
       -2   -1    0    0    0  501  0.00000000000E+00  0.00000000000E+00  0.62277338846E+03  0.62277338847E+03  0.25500000920E-02 0. -1.
        2   -1    0    0  501    0  0.00000000000E+00  0.00000000000E+00 -0.17764686816E+04  0.17764686816E+04  0.25500000920E-02 0.  1.
    10030    2    1    2    0    0  0.00000000000E+00  0.00000000000E+00 -0.11536952932E+04  0.23992420701E+04  0.21036515114E+04 0.  0.
        5    1    3    3  502    0  0.84163525747E+03  0.58920499061E+03 -0.31978170850E+03  0.10760087633E+04  0.46999998093E+01 0. -1.
       -5    1    3    3    0  502 -0.84163525747E+03 -0.58920499061E+03 -0.83391358467E+03  0.13232333068E+04  0.46999998093E+01 0.  1.
</event>
<event>
 5   0  0.3279789E-05  0.2097534E+04  0.7818609E-02  0.8562330E-01
       -2   -1    0    0    0  501  0.00000000000E+00  0.00000000000E+00  0.83399929399E+03  0.83399929400E+03  0.25500000920E-02 0. -1.
        2   -1    0    0  501    0  0.00000000000E+00  0.00000000000E+00 -0.13188407031E+04  0.13188407031E+04  0.25500000920E-02 0.  1.
    10030    2    1    2    0    0  0.00000000000E+00  0.00000000000E+00 -0.48484140909E+03  0.21528399971E+04  0.20975339952E+04 0.  0.
        2    1    3    3  502    0 -0.24676149997E+03  0.32807881614E+02  0.80323770933E+03  0.84092711496E+03  0.25500000920E-02 0. -1.
       -2    1    3    3    0  502  0.24676149997E+03 -0.32807881614E+02 -0.12880791184E+04  0.13119128821E+04  0.25500000920E-02 0.  1.
</event>
<event>
 5   0  0.1435410E-05  0.2098882E+04  0.7818609E-02  0.8561736E-01
        1   -1    0    0  501    0  0.00000000000E+00  0.00000000000E+00  0.16798939318E+04  0.16798939318E+04  0.50400001928E-02 0.  1.
       -1   -1    0    0    0  501  0.00000000000E+00  0.00000000000E+00 -0.65559270879E+03  0.65559270881E+03  0.50400001928E-02 0. -1.
    10030    2    1    2    0    0  0.00000000000E+00  0.00000000000E+00  0.10243012230E+04  0.23354866406E+04  0.20988818101E+04 0.  0.
        2    1    3    3  502    0 -0.28125943913E+03 -0.98955996139E+03  0.28143591097E+03  0.10665561220E+04  0.25500000920E-02 0. -1.
       -2    1    3    3    0  502  0.28125943913E+03  0.98955996139E+03  0.74286531201E+03  0.12689305186E+04  0.25500000920E-02 0.  1.
</event>
<event>
 5   0  0.3130517E-05  0.2133071E+04  0.7818609E-02  0.8546814E-01
       -2   -1    0    0    0  501  0.00000000000E+00  0.00000000000E+00  0.20397758212E+04  0.20397758212E+04  0.25500000920E-02 0.  1.
        2   -1    0    0  501    0  0.00000000000E+00  0.00000000000E+00 -0.55765818186E+03  0.55765818186E+03  0.25500000920E-02 0. -1.
    10030    2    1    2    0    0  0.00000000000E+00  0.00000000000E+00  0.14821176393E+04  0.25974340031E+04  0.21330707216E+04 0.  0.
        1    1    3    3  502    0  0.17728668633E+03 -0.69788250938E+03 -0.21700425363E+03  0.75203817202E+03  0.50400001928E-02 0.  1.
       -1    1    3    3    0  502 -0.17728668633E+03  0.69788250938E+03  0.16991218930E+04  0.18453958310E+04  0.50400001928E-02 0. -1.
</event>
<event>
 5   0  0.1435410E-05  0.2112427E+04  0.7818609E-02  0.8555789E-01
        1   -1    0    0  501    0  0.00000000000E+00  0.00000000000E+00  0.13239661035E+04  0.13239661035E+04  0.50400001928E-02 0.  1.
       -1   -1    0    0    0  501  0.00000000000E+00  0.00000000000E+00 -0.84260990212E+03  0.84260990214E+03  0.50400001928E-02 0. -1.
    10030    2    1    2    0    0  0.00000000000E+00  0.00000000000E+00  0.48135620140E+03  0.21665760057E+04  0.21124269918E+04 0.  0.
        2    1    3    3  502    0  0.25076450693E+03  0.97522028964E+03 -0.86319705773E+02  0.10106376912E+04  0.25500000920E-02 0. -1.
       -2    1    3    3    0  502 -0.25076450693E+03 -0.97522028964E+03  0.56767590717E+03  0.11559383145E+04  0.25500000920E-02 0.  1.
</event>
<event>
 5   0  0.1513292E-05  0.2101089E+04  0.7818609E-02  0.8560764E-01
       -1   -1    0    0    0  501  0.00000000000E+00  0.00000000000E+00  0.51253817312E+03  0.51253817314E+03  0.50400001928E-02 0. -1.
        1   -1    0    0  501    0  0.00000000000E+00  0.00000000000E+00 -0.21532915631E+04  0.21532915631E+04  0.50400001928E-02 0.  1.
    10030    2    1    2    0    0  0.00000000000E+00  0.00000000000E+00 -0.16407533900E+04  0.26658297363E+04  0.21010893594E+04 0.  0.
        1    1    3    3  502    0 -0.45155912985E+03 -0.92101990163E+03 -0.53255321279E+03  0.11557665125E+04  0.50400001928E-02 0. -1.
       -1    1    3    3    0  502  0.45155912985E+03  0.92101990163E+03 -0.11082001772E+04  0.15100632238E+04  0.50400001928E-02 0.  1.
</event>
<event>
 5   0  0.1466480E-05  0.2146687E+04  0.7818609E-02  0.8540952E-01
       -1   -1    0    0    0  501  0.00000000000E+00  0.00000000000E+00  0.12127746287E+04  0.12127746287E+04  0.50400001928E-02 0.  1.
        1   -1    0    0  501    0  0.00000000000E+00  0.00000000000E+00 -0.94994271463E+03  0.94994271465E+03  0.50400001928E-02 0. -1.
    10030    2    1    2    0    0  0.00000000000E+00  0.00000000000E+00  0.26283191404E+03  0.21627173433E+04  0.21466871435E+04 0.  0.
        3    1    3    3  502    0 -0.74322384059E+03 -0.77284964575E+03  0.18064969153E+03  0.10873419763E+04  0.10100000352E+00 0. -1.
       -3    1    3    3    0  502  0.74322384059E+03  0.77284964575E+03  0.82182222515E+02  0.10753753670E+04  0.10100000352E+00 0.  1.
</event>
<event>
 5   0  0.1435410E-05  0.2095399E+04  0.7818609E-02  0.8563273E-01
        1   -1    0    0  501    0  0.00000000000E+00  0.00000000000E+00  0.60220772719E+03  0.60220772721E+03  0.50400001928E-02 0. -1.
       -1   -1    0    0    0  501  0.00000000000E+00  0.00000000000E+00 -0.18227503372E+04  0.18227503372E+04  0.50400001928E-02 0.  1.
    10030    2    1    2    0    0  0.00000000000E+00  0.00000000000E+00 -0.12205426100E+04  0.24249580645E+04  0.20953990912E+04 0.  0.
        2    1    3    3  502    0  0.78452111696E+02 -0.10425380603E+04 -0.53149141908E+03  0.11728271269E+04  0.25500000920E-02 0. -1.
       -2    1    3    3    0  502 -0.78452111696E+02  0.10425380603E+04 -0.68905119097E+03  0.12521309376E+04  0.25500000920E-02 0.  1.
</event>
<event>
 5   0  0.1466480E-05  0.2030075E+04  0.7818609E-02  0.8592687E-01
       -1   -1    0    0    0  501  0.00000000000E+00  0.00000000000E+00  0.44981585670E+03  0.44981585673E+03  0.50400001928E-02 0. -1.
        1   -1    0    0  501    0  0.00000000000E+00  0.00000000000E+00 -0.22904944908E+04  0.22904944908E+04  0.50400001928E-02 0.  1.
    10030    2    1    2    0    0  0.00000000000E+00  0.00000000000E+00 -0.18406786341E+04  0.27403103475E+04  0.20300746210E+04 0.  0.
        3    1    3    3  502    0 -0.19759417000E+03  0.59932200988E+03  0.15283550840E+03  0.64929887600E+03  0.10100000352E+00 0. -1.
       -3    1    3    3    0  502  0.19759417000E+03 -0.59932200988E+03 -0.19935141425E+04  0.20910114715E+04  0.10100000352E+00 0.  1.
</event>
<event>
 5   0  0.1492552E-05  0.2110906E+04  0.7818609E-02  0.8556454E-01
       -1   -1    0    0    0  501  0.00000000000E+00  0.00000000000E+00  0.60112683760E+03  0.60112683762E+03  0.50400001928E-02 0. -1.
        1   -1    0    0  501    0  0.00000000000E+00  0.00000000000E+00 -0.18531544889E+04  0.18531544889E+04  0.50400001928E-02 0.  1.
    10030    2    1    2    0    0  0.00000000000E+00  0.00000000000E+00 -0.12520276513E+04  0.24542813265E+04  0.21109058695E+04 0.  0.
        4    1    3    3  502    0  0.74921117121E+02 -0.27003493655E+03  0.55708075168E+03  0.62359651822E+03  0.12699999809E+01 0. -1.
       -4    1    3    3    0  502 -0.74921117121E+02  0.27003493655E+03 -0.18091084030E+04  0.18306848083E+04  0.12699999809E+01 0.  1.
</event>
<event>
 5   0  0.1435410E-05  0.2088662E+04  0.7818609E-02  0.8566254E-01
       -1   -1    0    0    0  501  0.00000000000E+00  0.00000000000E+00  0.10481768463E+04  0.10481768463E+04  0.50400001928E-02 0. -1.
        1   -1    0    0  501    0  0.00000000000E+00  0.00000000000E+00 -0.10404990575E+04  0.10404990575E+04  0.50400001928E-02 0.  1.
    10030    2    1    2    0    0  0.00000000000E+00  0.00000000000E+00  0.76777888115E+01  0.20886759039E+04  0.20886617924E+04 0.  0.
        2    1    3    3  502    0  0.34234608998E+03 -0.98391535520E+03  0.76892445421E+02  0.10446064904E+04  0.25500000920E-02 0.  1.
       -2    1    3    3    0  502 -0.34234608998E+03  0.98391535520E+03 -0.69214656610E+02  0.10440694135E+04  0.25500000920E-02 0. -1.
</event>
<event>
 5   0  0.3279789E-05  0.2112258E+04  0.7818609E-02  0.8555863E-01
       -2   -1    0    0    0  501  0.00000000000E+00  0.00000000000E+00  0.73772394814E+03  0.73772394814E+03  0.25500000920E-02 0.  1.
        2   -1    0    0  501    0  0.00000000000E+00  0.00000000000E+00 -0.15119587336E+04  0.15119587336E+04  0.25500000920E-02 0. -1.
    10030    2    1    2    0    0  0.00000000000E+00  0.00000000000E+00 -0.77423478544E+03  0.22496826817E+04  0.21122577176E+04 0.  0.
        2    1    3    3  502    0  0.70940992830E+03  0.73373593960E+03 -0.67640891818E+03  0.12244018540E+04  0.25500000920E-02 0.  1.
       -2    1    3    3    0  502 -0.70940992830E+03 -0.73373593960E+03 -0.97825867259E+02  0.10252808277E+04  0.25500000920E-02 0. -1.
</event>
<event>
 5   0  0.1435410E-05  0.2102383E+04  0.7818609E-02  0.8560195E-01
       -1   -1    0    0    0  501  0.00000000000E+00  0.00000000000E+00  0.16289124908E+04  0.16289124908E+04  0.50400001928E-02 0.  1.
        1   -1    0    0  501    0  0.00000000000E+00  0.00000000000E+00 -0.67836860877E+03  0.67836860878E+03  0.50400001928E-02 0. -1.
    10030    2    1    2    0    0  0.00000000000E+00  0.00000000000E+00  0.95054388200E+03  0.23072810996E+04  0.21023825534E+04 0.  0.
        2    1    3    3  502    0  0.76789160904E+03 -0.70674730426E+03  0.61345531507E+03  0.12105687502E+04  0.25500000920E-02 0.  1.
       -2    1    3    3    0  502 -0.76789160904E+03  0.70674730426E+03  0.33708856692E+03  0.10967123494E+04  0.25500000920E-02 0. -1.
</event>
<event>
 5   0  0.1453430E-05  0.2096736E+04  0.7818609E-02  0.8562683E-01
        1   -1    0    0  501    0  0.00000000000E+00  0.00000000000E+00  0.10507516581E+04  0.10507516581E+04  0.50400001928E-02 0. -1.
       -1   -1    0    0    0  501  0.00000000000E+00  0.00000000000E+00 -0.10459893756E+04  0.10459893756E+04  0.50400001928E-02 0.  1.
    10030    2    1    2    0    0  0.00000000000E+00  0.00000000000E+00  0.47622825460E+01  0.20967410337E+04  0.20967356255E+04 0.  0.
        5    1    3    3  502    0 -0.96984794682E+03 -0.39461012232E+03 -0.49875975825E+02  0.10482518264E+04  0.46999998093E+01 0.  1.
       -5    1    3    3    0  502  0.96984794682E+03  0.39461012232E+03  0.54638258371E+02  0.10484892073E+04  0.46999998093E+01 0. -1.
</event>
<event>
 5   0  0.1129987E-05  0.1952403E+04  0.7818609E-02  0.8629203E-01
        3   -1    0    0  501    0  0.00000000000E+00  0.00000000000E+00  0.21527328691E+04  0.21527328714E+04  0.10100000352E+00 0. -1.
       -3   -1    0    0    0  501  0.00000000000E+00  0.00000000000E+00 -0.44267866947E+03  0.44267868099E+03  0.10100000352E+00 0.  1.
    10030    2    1    2    0    0  0.00000000000E+00  0.00000000000E+00  0.17100541996E+04  0.25954115524E+04  0.19524025612E+04 0.  0.
        3    1    3    3  502    0  0.12935377219E+03  0.55062121730E+03  0.19127132901E+04  0.19945897482E+04  0.10100000352E+00 0. -1.
       -3    1    3    3    0  502 -0.12935377219E+03 -0.55062121730E+03 -0.20265909046E+03  0.60082180425E+03  0.10100000352E+00 0.  1.
</event>
<event>
 5   0  0.3257130E-05  0.1972428E+04  0.7818609E-02  0.8619621E-01
       -2   -1    0    0    0  501  0.00000000000E+00  0.00000000000E+00  0.74871632458E+03  0.74871632459E+03  0.25500000920E-02 0.  1.
        2   -1    0    0  501    0  0.00000000000E+00  0.00000000000E+00 -0.12990479495E+04  0.12990479495E+04  0.25500000920E-02 0. -1.
    10030    2    1    2    0    0  0.00000000000E+00  0.00000000000E+00 -0.55033162496E+03  0.20477642741E+04  0.19724283574E+04 0.  0.
        3    1    3    3  502    0  0.80585899947E+02 -0.72831840057E+03 -0.96043443992E+03  0.12080463995E+04  0.10100000352E+00 0. -1.
       -3    1    3    3    0  502 -0.80585899947E+02  0.72831840057E+03  0.41010281495E+03  0.83971787459E+03  0.10100000352E+00 0.  1.
</event>
<event>
 5   0  0.3257130E-05  0.2099264E+04  0.7818609E-02  0.8561568E-01
       -2   -1    0    0    0  501  0.00000000000E+00  0.00000000000E+00  0.13403445867E+04  0.13403445867E+04  0.25500000920E-02 0. -1.
        2   -1    0    0  501    0  0.00000000000E+00  0.00000000000E+00 -0.82197345392E+03  0.82197345392E+03  0.25500000920E-02 0.  1.
    10030    2    1    2    0    0  0.00000000000E+00  0.00000000000E+00  0.51837113283E+03  0.21623180407E+04  0.20992643182E+04 0.  0.
        3    1    3    3  502    0  0.59000628905E+02  0.42320293932E+03  0.12467027576E+04  0.13178958904E+04  0.10100000352E+00 0. -1.
       -3    1    3    3    0  502 -0.59000628905E+02 -0.42320293932E+03 -0.72833162473E+03  0.84442215026E+03  0.10100000352E+00 0.  1.
</event>
<event>
 5   0  0.3242231E-05  0.2106763E+04  0.7818609E-02  0.8558270E-01
       -2   -1    0    0    0  501  0.00000000000E+00  0.00000000000E+00  0.46917135345E+03  0.46917135346E+03  0.25500000920E-02 0.  1.
        2   -1    0    0  501    0  0.00000000000E+00  0.00000000000E+00 -0.23650476518E+04  0.23650476518E+04  0.25500000920E-02 0. -1.
    10030    2    1    2    0    0  0.00000000000E+00  0.00000000000E+00 -0.18958762984E+04  0.28342190053E+04  0.21067630221E+04 0.  0.
        4    1    3    3  502    0 -0.93203435239E+03  0.40725362845E+03 -0.13165281338E+04  0.16636680834E+04  0.12699999809E+01 0. -1.
       -4    1    3    3    0  502  0.93203435239E+03 -0.40725362845E+03 -0.57934816461E+03  0.11705509219E+04  0.12699999809E+01 0.  1.
</event>
<event>
 5   0  0.3257130E-05  0.2101004E+04  0.7818609E-02  0.8560801E-01
        2   -1    0    0  501    0  0.00000000000E+00  0.00000000000E+00  0.25313363808E+04  0.25313363808E+04  0.25500000920E-02 0.  1.
       -2   -1    0    0    0  501  0.00000000000E+00  0.00000000000E+00 -0.43595707238E+03  0.43595707239E+03  0.25500000920E-02 0. -1.
    10030    2    1    2    0    0  0.00000000000E+00  0.00000000000E+00  0.20953793084E+04  0.29672934532E+04  0.21010035676E+04 0.  0.
        3    1    3    3  502    0 -0.42858540926E+03 -0.83461205721E+03  0.17150640790E+04  0.19549188076E+04  0.10100000352E+00 0.  1.
       -3    1    3    3    0  502  0.42858540926E+03  0.83461205721E+03  0.38031522942E+03  0.10123746456E+04  0.10100000352E+00 0. -1.
</event>
<event>
 5   0  0.3130517E-05  0.2114648E+04  0.7818609E-02  0.8554818E-01
       -2   -1    0    0    0  501  0.00000000000E+00  0.00000000000E+00  0.79605557117E+03  0.79605557117E+03  0.25500000920E-02 0. -1.
        2   -1    0    0  501    0  0.00000000000E+00  0.00000000000E+00 -0.14043413598E+04  0.14043413598E+04  0.25500000920E-02 0.  1.
    10030    2    1    2    0    0  0.00000000000E+00  0.00000000000E+00 -0.60828578859E+03  0.22003969309E+04  0.21146477373E+04 0.  0.
        1    1    3    3  502    0  0.16635531442E+03 -0.69641467233E+03 -0.11136790259E+04  0.13239895994E+04  0.50400001928E-02 0.  1.
       -1    1    3    3    0  502 -0.16635531442E+03  0.69641467233E+03  0.50539323731E+03  0.87640733156E+03  0.50400001928E-02 0. -1.
</event>
<event>
 5   0  0.3108326E-05  0.2110388E+04  0.7818609E-02  0.8556681E-01
       -2   -1    0    0    0  501  0.00000000000E+00  0.00000000000E+00  0.10151714815E+04  0.10151714815E+04  0.25500000920E-02 0. -1.
        2   -1    0    0  501    0  0.00000000000E+00  0.00000000000E+00 -0.10967942972E+04  0.10967942973E+04  0.25500000920E-02 0.  1.
    10030    2    1    2    0    0  0.00000000000E+00  0.00000000000E+00 -0.81622815781E+02  0.21119657787E+04  0.21103879185E+04 0.  0.
        5    1    3    3  502    0  0.92422866148E+03 -0.12533179291E+02  0.46854506982E+03  0.10362973858E+04  0.46999998093E+01 0. -1.
       -5    1    3    3    0  502 -0.92422866148E+03  0.12533179291E+02 -0.55016788561E+03  0.10756683930E+04  0.46999998093E+01 0.  1.
</event>
<event>
 5   0  0.3108326E-05  0.2103479E+04  0.7818609E-02  0.8559712E-01
        2   -1    0    0  501    0  0.00000000000E+00  0.00000000000E+00  0.79557455975E+03  0.79557455976E+03  0.25500000920E-02 0.  1.
       -2   -1    0    0    0  501  0.00000000000E+00  0.00000000000E+00 -0.13903862674E+04  0.13903862674E+04  0.25500000920E-02 0. -1.
    10030    2    1    2    0    0  0.00000000000E+00  0.00000000000E+00 -0.59481170769E+03  0.21859608272E+04  0.21034789684E+04 0.  0.
        5    1    3    3  502    0 -0.10100936427E+04 -0.22635110434E+03 -0.49073803104E+03  0.11455871397E+04  0.46999998093E+01 0.  1.
       -5    1    3    3    0  502  0.10100936427E+04  0.22635110434E+03 -0.10407367666E+03  0.10403736875E+04  0.46999998093E+01 0. -1.
</event>
<event>
 5   0  0.1466480E-05  0.2101694E+04  0.7818609E-02  0.8560498E-01
        1   -1    0    0  501    0  0.00000000000E+00  0.00000000000E+00  0.12460200030E+04  0.12460200030E+04  0.50400001928E-02 0. -1.
       -1   -1    0    0    0  501  0.00000000000E+00  0.00000000000E+00 -0.88624535380E+03  0.88624535381E+03  0.50400001928E-02 0.  1.
    10030    2    1    2    0    0  0.00000000000E+00  0.00000000000E+00  0.35977464922E+03  0.21322653568E+04  0.21016940200E+04 0.  0.
        3    1    3    3  502    0 -0.27937142378E+03  0.12983010481E+03 -0.83940340201E+03  0.89414894176E+03  0.10100000352E+00 0.  1.
       -3    1    3    3    0  502  0.27937142378E+03 -0.12983010481E+03  0.11991780512E+04  0.12381164151E+04  0.10100000352E+00 0. -1.
</event>
<event>
 5   0  0.1513292E-05  0.2113086E+04  0.7818609E-02  0.8555501E-01
       -1   -1    0    0    0  501  0.00000000000E+00  0.00000000000E+00  0.58427809243E+03  0.58427809245E+03  0.50400001928E-02 0.  1.
        1   -1    0    0  501    0  0.00000000000E+00  0.00000000000E+00 -0.19105335492E+04  0.19105335492E+04  0.50400001928E-02 0. -1.
    10030    2    1    2    0    0  0.00000000000E+00  0.00000000000E+00 -0.13262554567E+04  0.24948116416E+04  0.21130857982E+04 0.  0.
        1    1    3    3  502    0 -0.57425616114E+03 -0.49474731545E+03 -0.15321186148E+04  0.17093661090E+04  0.50400001928E-02 0. -1.
       -1    1    3    3    0  502  0.57425616114E+03  0.49474731545E+03  0.20586315812E+03  0.78544553258E+03  0.50400001928E-02 0.  1.
</event>
<event>
 5   0  0.1466480E-05  0.2097992E+04  0.7818609E-02  0.8562129E-01
        1   -1    0    0  501    0  0.00000000000E+00  0.00000000000E+00  0.67414224213E+03  0.67414224214E+03  0.50400001928E-02 0.  1.
       -1   -1    0    0    0  501  0.00000000000E+00  0.00000000000E+00 -0.16322847782E+04  0.16322847782E+04  0.50400001928E-02 0. -1.
    10030    2    1    2    0    0  0.00000000000E+00  0.00000000000E+00 -0.95814253611E+03  0.23064270204E+04  0.20979915350E+04 0.  0.
        3    1    3    3  502    0 -0.83257872284E+03  0.57757868358E+03 -0.77733293860E+03  0.12771182299E+04  0.10100000352E+00 0. -1.
       -3    1    3    3    0  502  0.83257872284E+03 -0.57757868358E+03 -0.18080959751E+03  0.10293087905E+04  0.10100000352E+00 0.  1.
</event>
<event>
 5   0  0.1513292E-05  0.2085061E+04  0.7818609E-02  0.8567853E-01
        1   -1    0    0  501    0  0.00000000000E+00  0.00000000000E+00  0.15565301969E+04  0.15565301969E+04  0.50400001928E-02 0. -1.
       -1   -1    0    0    0  501  0.00000000000E+00  0.00000000000E+00 -0.69826453755E+03  0.69826453757E+03  0.50400001928E-02 0.  1.
    10030    2    1    2    0    0  0.00000000000E+00  0.00000000000E+00  0.85826565931E+03  0.22547947344E+04  0.20850609949E+04 0.  0.
        1    1    3    3  502    0 -0.82937422086E+03 -0.11394321159E+03 -0.24275390616E+03  0.87165022381E+03  0.50400001928E-02 0.  1.
       -1    1    3    3    0  502  0.82937422086E+03  0.11394321159E+03  0.11010195655E+04  0.13831445106E+04  0.50400001928E-02 0. -1.
</event>
<event>
 5   0  0.1492552E-05  0.2096890E+04  0.7818609E-02  0.8562615E-01
       -1   -1    0    0    0  501  0.00000000000E+00  0.00000000000E+00  0.64481191262E+03  0.64481191264E+03  0.50400001928E-02 0. -1.
        1   -1    0    0  501    0  0.00000000000E+00  0.00000000000E+00 -0.17047401550E+04  0.17047401551E+04  0.50400001928E-02 0.  1.
    10030    2    1    2    0    0  0.00000000000E+00  0.00000000000E+00 -0.10599282424E+04  0.23495520677E+04  0.20968898492E+04 0.  0.
        4    1    3    3  502    0  0.37389871053E+03 -0.87692177999E+03 -0.10189452172E+04  0.13953648349E+04  0.12699999809E+01 0.  1.
       -4    1    3    3    0  502 -0.37389871053E+03  0.87692177999E+03 -0.40983025220E+02  0.95418723278E+03  0.12699999809E+01 0. -1.
</event>
<event>
 5   0  0.3242231E-05  0.2102013E+04  0.7818609E-02  0.8560357E-01
        2   -1    0    0  501    0  0.00000000000E+00  0.00000000000E+00  0.18342306273E+04  0.18342306273E+04  0.25500000920E-02 0.  1.
       -2   -1    0    0    0  501  0.00000000000E+00  0.00000000000E+00 -0.60222225945E+03  0.60222225945E+03  0.25500000920E-02 0. -1.
    10030    2    1    2    0    0  0.00000000000E+00  0.00000000000E+00  0.12320083679E+04  0.24364528868E+04  0.21020128570E+04 0.  0.
        4    1    3    3  502    0 -0.78203925221E+02 -0.64703965801E+03  0.15717116115E+04  0.17014861667E+04  0.12699999809E+01 0.  1.
       -4    1    3    3    0  502  0.78203925221E+02  0.64703965801E+03 -0.33970324362E+03  0.73496672005E+03  0.12699999809E+01 0. -1.
</event>
<event>
 5   0  0.3108326E-05  0.2101305E+04  0.7818609E-02  0.8560669E-01
       -2   -1    0    0    0  501  0.00000000000E+00  0.00000000000E+00  0.88069110696E+03  0.88069110696E+03  0.25500000920E-02 0.  1.
        2   -1    0    0  501    0  0.00000000000E+00  0.00000000000E+00 -0.12534135494E+04  0.12534135494E+04  0.25500000920E-02 0. -1.
    10030    2    1    2    0    0  0.00000000000E+00  0.00000000000E+00 -0.37272244248E+03  0.21341046564E+04  0.21013045151E+04 0.  0.
        5    1    3    3  502    0  0.54987320276E+03  0.57624989248E+03  0.50947844005E+03  0.94552358436E+03  0.46999998093E+01 0.  1.
       -5    1    3    3    0  502 -0.54987320276E+03 -0.57624989248E+03 -0.88220088253E+03  0.11885810720E+04  0.46999998093E+01 0. -1.
</event>
<event>
 5   0  0.1513292E-05  0.2135715E+04  0.7818609E-02  0.8545672E-01
       -1   -1    0    0    0  501  0.00000000000E+00  0.00000000000E+00  0.82135981596E+03  0.82135981598E+03  0.50400001928E-02 0. -1.
        1   -1    0    0  501    0  0.00000000000E+00  0.00000000000E+00 -0.13883318116E+04  0.13883318116E+04  0.50400001928E-02 0.  1.
    10030    2    1    2    0    0  0.00000000000E+00  0.00000000000E+00 -0.56697199564E+03  0.22096916276E+04  0.21357153006E+04 0.  0.
        1    1    3    3  502    0  0.19070319449E+02  0.10337394284E+04 -0.71407132744E+01  0.10339399754E+04  0.50400001928E-02 0. -1.
       -1    1    3    3    0  502 -0.19070319449E+02 -0.10337394284E+04 -0.55983128236E+03  0.11757516522E+04  0.50400001928E-02 0.  1.
</event>
<event>
 5   0  0.3257130E-05  0.2105072E+04  0.7818609E-02  0.8559012E-01
        2   -1    0    0  501    0  0.00000000000E+00  0.00000000000E+00  0.11141251171E+04  0.11141251171E+04  0.25500000920E-02 0.  1.
       -2   -1    0    0    0  501  0.00000000000E+00  0.00000000000E+00 -0.99435144493E+03  0.99435144494E+03  0.25500000920E-02 0. -1.
    10030    2    1    2    0    0  0.00000000000E+00  0.00000000000E+00  0.11977367220E+03  0.21084765621E+04  0.21050718943E+04 0.  0.
        3    1    3    3  502    0 -0.84039837309E+03  0.25997451270E+03 -0.51895418828E+03  0.10213567606E+04  0.10100000352E+00 0. -1.
       -3    1    3    3    0  502  0.84039837309E+03 -0.25997451270E+03  0.63872786048E+03  0.10871198014E+04  0.10100000352E+00 0.  1.
</event>
<event>
 5   0  0.3130517E-05  0.2085966E+04  0.7818609E-02  0.8567451E-01
        2   -1    0    0  501    0  0.00000000000E+00  0.00000000000E+00  0.64986329247E+03  0.64986329247E+03  0.25500000920E-02 0.  1.
       -2   -1    0    0    0  501  0.00000000000E+00  0.00000000000E+00 -0.16739114717E+04  0.16739114717E+04  0.25500000920E-02 0. -1.
    10030    2    1    2    0    0  0.00000000000E+00  0.00000000000E+00 -0.10240481792E+04  0.23237747641E+04  0.20859660786E+04 0.  0.
        1    1    3    3  502    0 -0.56637413583E+03 -0.50491880476E+03 -0.13092113385E+04  0.15131943002E+04  0.50400001928E-02 0. -1.
       -1    1    3    3    0  502  0.56637413583E+03  0.50491880476E+03  0.28516315931E+03  0.81058046398E+03  0.50400001928E-02 0.  1.
</event>
<event>
 5   0  0.3279789E-05  0.2098054E+04  0.7818609E-02  0.8562101E-01
        2   -1    0    0  501    0  0.00000000000E+00  0.00000000000E+00  0.94498427902E+03  0.94498427902E+03  0.25500000920E-02 0.  1.
       -2   -1    0    0    0  501  0.00000000000E+00  0.00000000000E+00 -0.11645248560E+04  0.11645248560E+04  0.25500000920E-02 0. -1.
    10030    2    1    2    0    0  0.00000000000E+00  0.00000000000E+00 -0.21954057700E+03  0.21095091350E+04  0.20980540331E+04 0.  0.
        2    1    3    3  502    0 -0.64177439123E+03 -0.81922676456E+03  0.23052522334E+02  0.10409314482E+04  0.25500000920E-02 0.  1.
       -2    1    3    3    0  502  0.64177439123E+03  0.81922676456E+03 -0.24259309933E+03  0.10685776869E+04  0.25500000920E-02 0. -1.
</event>
<event>
 5   0  0.1435410E-05  0.2104772E+04  0.7818609E-02  0.8559144E-01
        1   -1    0    0  501    0  0.00000000000E+00  0.00000000000E+00  0.14557843117E+04  0.14557843117E+04  0.50400001928E-02 0.  1.
       -1   -1    0    0    0  501  0.00000000000E+00  0.00000000000E+00 -0.76076976840E+03  0.76076976842E+03  0.50400001928E-02 0. -1.
    10030    2    1    2    0    0  0.00000000000E+00  0.00000000000E+00  0.69501454326E+03  0.22165540801E+04  0.21047723807E+04 0.  0.
        2    1    3    3  502    0 -0.81510213238E+03 -0.66106445364E+03  0.42988565496E+03  0.11341073029E+04  0.25500000920E-02 0. -1.
       -2    1    3    3    0  502  0.81510213238E+03  0.66106445364E+03  0.26512888830E+03  0.10824467772E+04  0.25500000920E-02 0.  1.
</event>
<event>
 5   0  0.1492552E-05  0.2089189E+04  0.7818609E-02  0.8566021E-01
        1   -1    0    0  501    0  0.00000000000E+00  0.00000000000E+00  0.10996745762E+04  0.10996745762E+04  0.50400001928E-02 0. -1.
       -1   -1    0    0    0  501  0.00000000000E+00  0.00000000000E+00 -0.99227357424E+03  0.99227357425E+03  0.50400001928E-02 0.  1.
    10030    2    1    2    0    0  0.00000000000E+00  0.00000000000E+00  0.10740100192E+03  0.20919481504E+04  0.20891893377E+04 0.  0.
        4    1    3    3  502    0  0.77019503362E+03 -0.61680441166E+03  0.39697726806E+03  0.10635979674E+04  0.12699999809E+01 0. -1.
       -4    1    3    3    0  502 -0.77019503362E+03  0.61680441166E+03 -0.28957626614E+03  0.10283501830E+04  0.12699999809E+01 0.  1.
</event>
<event>
 5   0  0.3108326E-05  0.2096100E+04  0.7818609E-02  0.8562963E-01
       -2   -1    0    0    0  501  0.00000000000E+00  0.00000000000E+00  0.96048286038E+03  0.96048286038E+03  0.25500000920E-02 0. -1.
        2   -1    0    0  501    0  0.00000000000E+00  0.00000000000E+00 -0.11436006304E+04  0.11436006304E+04  0.25500000920E-02 0.  1.
    10030    2    1    2    0    0  0.00000000000E+00  0.00000000000E+00 -0.18311777001E+03  0.21040834908E+04  0.20961000020E+04 0.  0.
        5    1    3    3  502    0  0.91080337829E+03 -0.11468834944E+03  0.41600566686E+03  0.10078685511E+04  0.46999998093E+01 0. -1.
       -5    1    3    3    0  502 -0.91080337829E+03  0.11468834944E+03 -0.59912343687E+03  0.10962149397E+04  0.46999998093E+01 0.  1.
</event>
<event>
 5   0  0.1129987E-05  0.2100411E+04  0.7818609E-02  0.8561063E-01
       -4   -1    0    0    0  501  0.00000000000E+00  0.00000000000E+00  0.61800018272E+03  0.61800148765E+03  0.12699999809E+01 0.  1.
        4   -1    0    0  501    0  0.00000000000E+00  0.00000000000E+00 -0.17846743928E+04  0.17846748447E+04  0.12699999809E+01 0. -1.
    10030    2    1    2    0    0  0.00000000000E+00  0.00000000000E+00 -0.11666742101E+04  0.24026763323E+04  0.21004106373E+04 0.  0.
        5    1    3    3  502    0  0.99240654377E+03  0.84760369621E+02 -0.20247580157E+03  0.10164022868E+04  0.46999998093E+01 0.  1.
       -5    1    3    3    0  502 -0.99240654377E+03 -0.84760369621E+02 -0.96419840852E+03  0.13862740455E+04  0.46999998093E+01 0. -1.
</event>
<event>
 5   0  0.1453430E-05  0.2099107E+04  0.7818609E-02  0.8561637E-01
       -1   -1    0    0    0  501  0.00000000000E+00  0.00000000000E+00  0.48853286899E+03  0.48853286901E+03  0.50400001928E-02 0. -1.
        1   -1    0    0  501    0  0.00000000000E+00  0.00000000000E+00 -0.22548389917E+04  0.22548389917E+04  0.50400001928E-02 0.  1.
    10030    2    1    2    0    0  0.00000000000E+00  0.00000000000E+00 -0.17663061227E+04  0.27433718608E+04  0.20991073929E+04 0.  0.
        5    1    3    3  502    0 -0.70549603117E+03  0.58669754580E+02 -0.18958068437E+04  0.20236779558E+04  0.46999998093E+01 0.  1.
       -5    1    3    3    0  502  0.70549603117E+03 -0.58669754580E+02  0.12950072097E+03  0.71969390496E+03  0.46999998093E+01 0. -1.
</event>
<event>
 5   0  0.1492552E-05  0.2094362E+04  0.7818609E-02  0.8563731E-01
       -1   -1    0    0    0  501  0.00000000000E+00  0.00000000000E+00  0.91233152456E+03  0.91233152458E+03  0.50400001928E-02 0.  1.
        1   -1    0    0  501    0  0.00000000000E+00  0.00000000000E+00 -0.12019620737E+04  0.12019620737E+04  0.50400001928E-02 0. -1.
    10030    2    1    2    0    0  0.00000000000E+00  0.00000000000E+00 -0.28963054914E+03  0.21142935983E+04  0.20943618514E+04 0.  0.
        4    1    3    3  502    0  0.28305027896E+03 -0.91253032547E+03  0.28793343913E+03  0.99786588958E+03  0.12699999809E+01 0.  1.
       -4    1    3    3    0  502 -0.28305027896E+03  0.91253032547E+03 -0.57756398827E+03  0.11164277087E+04  0.12699999809E+01 0. -1.
</event>
<event>
 5   0  0.1466480E-05  0.2108945E+04  0.7818609E-02  0.8557313E-01
        1   -1    0    0  501    0  0.00000000000E+00  0.00000000000E+00  0.19024167195E+04  0.19024167195E+04  0.50400001928E-02 0. -1.
       -1   -1    0    0    0  501  0.00000000000E+00  0.00000000000E+00 -0.58447332428E+03  0.58447332431E+03  0.50400001928E-02 0.  1.
    10030    2    1    2    0    0  0.00000000000E+00  0.00000000000E+00  0.13179433952E+04  0.24868900438E+04  0.21089445931E+04 0.  0.
        3    1    3    3  502    0 -0.89411116015E+03 -0.55759742174E+03  0.61236433484E+03  0.12187451498E+04  0.10100000352E+00 0.  1.
       -3    1    3    3    0  502  0.89411116015E+03  0.55759742174E+03  0.70557906032E+03  0.12681448939E+04  0.10100000352E+00 0. -1.
</event>
<event>
 5   0  0.1453430E-05  0.2101178E+04  0.7818609E-02  0.8560724E-01
       -1   -1    0    0    0  501  0.00000000000E+00  0.00000000000E+00  0.60222633700E+03  0.60222633703E+03  0.50400001928E-02 0. -1.
        1   -1    0    0  501    0  0.00000000000E+00  0.00000000000E+00 -0.18327621588E+04  0.18327621588E+04  0.50400001928E-02 0.  1.
    10030    2    1    2    0    0  0.00000000000E+00  0.00000000000E+00 -0.12305358218E+04  0.24349884958E+04  0.21011783756E+04 0.  0.
        5    1    3    3  502    0 -0.51360791469E+03 -0.23815935680E+03  0.41031563952E+03  0.69920954177E+03  0.46999998093E+01 0. -1.
       -5    1    3    3    0  502  0.51360791469E+03  0.23815935680E+03 -0.16408514613E+04  0.17357789540E+04  0.46999998093E+01 0.  1.
</event>
<event>
 5   0  0.1513292E-05  0.2108209E+04  0.7818609E-02  0.8557636E-01
       -1   -1    0    0    0  501  0.00000000000E+00  0.00000000000E+00  0.17731143902E+04  0.17731143903E+04  0.50400001928E-02 0. -1.
        1   -1    0    0  501    0  0.00000000000E+00  0.00000000000E+00 -0.62665783282E+03  0.62665783284E+03  0.50400001928E-02 0.  1.
    10030    2    1    2    0    0  0.00000000000E+00  0.00000000000E+00  0.11464565574E+04  0.23997722231E+04  0.21082087384E+04 0.  0.
        1    1    3    3  502    0  0.59705836470E+03 -0.73540027989E+03  0.46841827173E+02  0.94841257864E+03  0.50400001928E-02 0. -1.
       -1    1    3    3    0  502 -0.59705836470E+03  0.73540027989E+03  0.10996147303E+04  0.14513596445E+04  0.50400001928E-02 0.  1.
</event>
<event>
 5   0  0.1129987E-05  0.2100504E+04  0.7818609E-02  0.8561021E-01
       -3   -1    0    0    0  501  0.00000000000E+00  0.00000000000E+00  0.71681762435E+03  0.71681763146E+03  0.10100000352E+00 0. -1.
        3   -1    0    0  501    0  0.00000000000E+00  0.00000000000E+00 -0.15387861572E+04  0.15387861606E+04  0.10100000352E+00 0.  1.
    10030    2    1    2    0    0  0.00000000000E+00  0.00000000000E+00 -0.82196853290E+03  0.22556037920E+04  0.21005037961E+04 0.  0.
        3    1    3    3  502    0  0.52572562910E+03  0.59102532232E+03 -0.11528904922E+04  0.13981612446E+04  0.10100000352E+00 0.  1.
       -3    1    3    3    0  502 -0.52572562910E+03 -0.59102532232E+03  0.33092195933E+03  0.85744254739E+03  0.10100000352E+00 0. -1.
</event>
<event>
 5   0  0.3130517E-05  0.2099607E+04  0.7818609E-02  0.8561416E-01
       -2   -1    0    0    0  501  0.00000000000E+00  0.00000000000E+00  0.11058087751E+04  0.11058087751E+04  0.25500000920E-02 0. -1.
        2   -1    0    0  501    0  0.00000000000E+00  0.00000000000E+00 -0.99663502978E+03  0.99663502978E+03  0.25500000920E-02 0.  1.
    10030    2    1    2    0    0  0.00000000000E+00  0.00000000000E+00  0.10917374528E+03  0.21024438048E+04  0.20996073552E+04 0.  0.
        1    1    3    3  502    0  0.16188424416E+03  0.10299353113E+04 -0.68520287150E+02  0.10448293084E+04  0.50400001928E-02 0. -1.
       -1    1    3    3    0  502 -0.16188424416E+03 -0.10299353113E+04  0.17769403243E+03  0.10576144964E+04  0.50400001928E-02 0.  1.
</event>
<event>
 5   0  0.1513292E-05  0.2104808E+04  0.7818609E-02  0.8559128E-01
       -1   -1    0    0    0  501  0.00000000000E+00  0.00000000000E+00  0.81289746144E+03  0.81289746146E+03  0.50400001928E-02 0. -1.
        1   -1    0    0  501    0  0.00000000000E+00  0.00000000000E+00 -0.13624777207E+04  0.13624777207E+04  0.50400001928E-02 0.  1.
    10030    2    1    2    0    0  0.00000000000E+00  0.00000000000E+00 -0.54958025925E+03  0.21753751822E+04  0.21048084763E+04 0.  0.
        1    1    3    3  502    0  0.69822783789E+03  0.58459253763E+03 -0.82000263298E+03  0.12254284421E+04  0.50400001928E-02 0.  1.
       -1    1    3    3    0  502 -0.69822783789E+03 -0.58459253763E+03  0.27042237373E+03  0.94994674003E+03  0.50400001928E-02 0. -1.
</event>
<event>
 5   0  0.3242231E-05  0.2092537E+04  0.7818609E-02  0.8564538E-01
       -2   -1    0    0    0  501  0.00000000000E+00  0.00000000000E+00  0.16847865336E+04  0.16847865336E+04  0.25500000920E-02 0.  1.
        2   -1    0    0  501    0  0.00000000000E+00  0.00000000000E+00 -0.64974247883E+03  0.64974247884E+03  0.25500000920E-02 0. -1.
    10030    2    1    2    0    0  0.00000000000E+00  0.00000000000E+00  0.10350440548E+04  0.23345290125E+04  0.20925366221E+04 0.  0.
        4    1    3    3  502    0  0.10077818697E+04  0.26868123403E+03  0.42510601133E+03  0.11262906535E+04  0.12699999809E+01 0. -1.
       -4    1    3    3    0  502 -0.10077818697E+04 -0.26868123403E+03  0.60993804346E+03  0.12082383590E+04  0.12699999809E+01 0.  1.
</event>
<event>
 5   0  0.3108326E-05  0.2100925E+04  0.7818609E-02  0.8560836E-01
       -2   -1    0    0    0  501  0.00000000000E+00  0.00000000000E+00  0.60328087035E+03  0.60328087036E+03  0.25500000920E-02 0. -1.
        2   -1    0    0  501    0  0.00000000000E+00  0.00000000000E+00 -0.18291172215E+04  0.18291172215E+04  0.25500000920E-02 0.  1.
    10030    2    1    2    0    0  0.00000000000E+00  0.00000000000E+00 -0.12258363512E+04  0.24323980919E+04  0.21009249671E+04 0.  0.
        5    1    3    3  502    0 -0.21262054657E+03  0.92082507694E+03 -0.11438851590E+04  0.14837862603E+04  0.46999998093E+01 0.  1.
       -5    1    3    3    0  502  0.21262054657E+03 -0.92082507694E+03 -0.81951192140E+02  0.94861183160E+03  0.46999998093E+01 0. -1.
</event>
<event>
 5   0  0.1435410E-05  0.2107226E+04  0.7818609E-02  0.8558067E-01
       -1   -1    0    0    0  501  0.00000000000E+00  0.00000000000E+00  0.11038001099E+04  0.11038001099E+04  0.50400001928E-02 0.  1.
        1   -1    0    0  501    0  0.00000000000E+00  0.00000000000E+00 -0.10057082308E+04  0.10057082308E+04  0.50400001928E-02 0. -1.
    10030    2    1    2    0    0  0.00000000000E+00  0.00000000000E+00  0.98091879120E+02  0.21095083407E+04  0.21072264763E+04 0.  0.
        2    1    3    3  502    0 -0.49685301285E+03  0.79749433050E+03 -0.42816800145E+03  0.10325637806E+04  0.25500000920E-02 0. -1.
       -2    1    3    3    0  502  0.49685301285E+03 -0.79749433050E+03  0.52625988056E+03  0.10769445601E+04  0.25500000920E-02 0.  1.
</event>
<event>
 5   0  0.1513292E-05  0.2093310E+04  0.7818609E-02  0.8564196E-01
       -1   -1    0    0    0  501  0.00000000000E+00  0.00000000000E+00  0.12375989766E+04  0.12375989766E+04  0.50400001928E-02 0. -1.
        1   -1    0    0  501    0  0.00000000000E+00  0.00000000000E+00 -0.88517076777E+03  0.88517076778E+03  0.50400001928E-02 0.  1.
    10030    2    1    2    0    0  0.00000000000E+00  0.00000000000E+00  0.35242820886E+03  0.21227697444E+04  0.20933097586E+04 0.  0.
        1    1    3    3  502    0  0.54436141171E+03  0.32595043433E+03 -0.66791499598E+03  0.92124018262E+03  0.50400001928E-02 0.  1.
       -1    1    3    3    0  502 -0.54436141171E+03 -0.32595043433E+03  0.10203432048E+04  0.12015295618E+04  0.50400001928E-02 0. -1.
</event>
<event>
 5   0  0.3279789E-05  0.2098105E+04  0.7818609E-02  0.8562079E-01
        2   -1    0    0  501    0  0.00000000000E+00  0.00000000000E+00  0.20259593428E+04  0.20259593428E+04  0.25500000920E-02 0. -1.
       -2   -1    0    0    0  501  0.00000000000E+00  0.00000000000E+00 -0.54320480591E+03  0.54320480592E+03  0.25500000920E-02 0.  1.
    10030    2    1    2    0    0  0.00000000000E+00  0.00000000000E+00  0.14827545369E+04  0.25691641488E+04  0.20981047177E+04 0.  0.
        2    1    3    3  502    0 -0.71143704108E+03 -0.58691953011E+02 -0.19992759478E+03  0.74132209729E+03  0.25500000920E-02 0.  1.
       -2    1    3    3    0  502  0.71143704108E+03  0.58691953011E+02  0.16826821317E+04  0.18278420515E+04  0.25500000920E-02 0. -1.
</event>
<event>
 5   0  0.1466480E-05  0.2088181E+04  0.7818609E-02  0.8566468E-01
       -1   -1    0    0    0  501  0.00000000000E+00  0.00000000000E+00  0.86217848830E+03  0.86217848832E+03  0.50400001928E-02 0.  1.
        1   -1    0    0  501    0  0.00000000000E+00  0.00000000000E+00 -0.12643839052E+04  0.12643839052E+04  0.50400001928E-02 0. -1.
    10030    2    1    2    0    0  0.00000000000E+00  0.00000000000E+00 -0.40220541688E+03  0.21265623935E+04  0.20881806474E+04 0.  0.
        3    1    3    3  502    0 -0.18184816832E+03  0.88185793372E+03  0.33717897518E+03  0.96147378700E+03  0.10100000352E+00 0.  1.
       -3    1    3    3    0  502  0.18184816832E+03 -0.88185793372E+03 -0.73938439207E+03  0.11650886065E+04  0.10100000352E+00 0. -1.
</event>
<event>
 5   0  0.1466480E-05  0.2104228E+04  0.7818609E-02  0.8559383E-01
       -1   -1    0    0    0  501  0.00000000000E+00  0.00000000000E+00  0.61321531844E+03  0.61321531846E+03  0.50400001928E-02 0.  1.
        1   -1    0    0  501    0  0.00000000000E+00  0.00000000000E+00 -0.18051463519E+04  0.18051463519E+04  0.50400001928E-02 0. -1.
    10030    2    1    2    0    0  0.00000000000E+00  0.00000000000E+00 -0.11919310335E+04  0.24183616704E+04  0.21042275495E+04 0.  0.
        3    1    3    3  502    0  0.14960106842E+03  0.59167677777E+03  0.38899535469E+03  0.72372597383E+03  0.10100000352E+00 0.  1.
       -3    1    3    3    0  502 -0.14960106842E+03 -0.59167677777E+03 -0.15809263882E+04  0.16946356966E+04  0.10100000352E+00 0. -1.
</event>
<event>
 5   0  0.3279789E-05  0.2107817E+04  0.7818609E-02  0.8557808E-01
        2   -1    0    0  501    0  0.00000000000E+00  0.00000000000E+00  0.12359406176E+04  0.12359406176E+04  0.25500000920E-02 0.  1.
       -2   -1    0    0    0  501  0.00000000000E+00  0.00000000000E+00 -0.89868644546E+03  0.89868644547E+03  0.25500000920E-02 0. -1.
    10030    2    1    2    0    0  0.00000000000E+00  0.00000000000E+00  0.33725417215E+03  0.21346270631E+04  0.21078169564E+04 0.  0.
        2    1    3    3  502    0 -0.53652495830E+03  0.54708562669E+03  0.90140591531E+03  0.11830867838E+04  0.25500000920E-02 0.  1.
       -2    1    3    3    0  502  0.53652495830E+03 -0.54708562669E+03 -0.56415174316E+03  0.95154027930E+03  0.25500000920E-02 0. -1.
</event>
<event>
 5   0  0.1453430E-05  0.2106634E+04  0.7818609E-02  0.8558327E-01
       -1   -1    0    0    0  501  0.00000000000E+00  0.00000000000E+00  0.67305947774E+03  0.67305947776E+03  0.50400001928E-02 0. -1.
        1   -1    0    0  501    0  0.00000000000E+00  0.00000000000E+00 -0.16484082979E+04  0.16484082979E+04  0.50400001928E-02 0.  1.
    10030    2    1    2    0    0  0.00000000000E+00  0.00000000000E+00 -0.97534882011E+03  0.23214677756E+04  0.21066341192E+04 0.  0.
        5    1    3    3  502    0  0.47770217401E+03  0.21049272875E+03  0.52047019646E+03  0.73716882144E+03  0.46999998093E+01 0. -1.
       -5    1    3    3    0  502 -0.47770217401E+03 -0.21049272875E+03 -0.14958190166E+04  0.15842989542E+04  0.46999998093E+01 0.  1.
</event>
<event>
 5   0  0.3257130E-05  0.2097313E+04  0.7818609E-02  0.8562428E-01
        2   -1    0    0  501    0  0.00000000000E+00  0.00000000000E+00  0.22740052529E+04  0.22740052529E+04  0.25500000920E-02 0.  1.
       -2   -1    0    0    0  501  0.00000000000E+00  0.00000000000E+00 -0.48358739190E+03  0.48358739190E+03  0.25500000920E-02 0. -1.
    10030    2    1    2    0    0  0.00000000000E+00  0.00000000000E+00  0.17904178610E+04  0.27575926448E+04  0.20973128230E+04 0.  0.
        3    1    3    3  502    0 -0.49020720131E+03 -0.10498983033E+03 -0.31582282476E+03  0.59251162987E+03  0.10100000352E+00 0. -1.
       -3    1    3    3    0  502  0.49020720131E+03  0.10498983033E+03  0.21062406857E+04  0.21650810149E+04  0.10100000352E+00 0.  1.
</event>
<event>
 5   0  0.3257130E-05  0.2088662E+04  0.7818609E-02  0.8566254E-01
        2   -1    0    0  501    0  0.00000000000E+00  0.00000000000E+00  0.20647164092E+04  0.20647164092E+04  0.25500000920E-02 0. -1.
       -2   -1    0    0    0  501  0.00000000000E+00  0.00000000000E+00 -0.52822117308E+03  0.52822117309E+03  0.25500000920E-02 0.  1.
    10030    2    1    2    0    0  0.00000000000E+00  0.00000000000E+00  0.15364952361E+04  0.25929375823E+04  0.20886616995E+04 0.  0.
        3    1    3    3  502    0  0.35856382174E+03  0.65321374835E+03  0.16765935141E+04  0.18347266928E+04  0.10100000352E+00 0. -1.
       -3    1    3    3    0  502 -0.35856382174E+03 -0.65321374835E+03 -0.14009827801E+03  0.75821088953E+03  0.10100000352E+00 0.  1.
</event>
<event>
 5   0  0.3279789E-05  0.2106349E+04  0.7818609E-02  0.8558452E-01
        2   -1    0    0  501    0  0.00000000000E+00  0.00000000000E+00  0.11644911825E+04  0.11644911825E+04  0.25500000920E-02 0.  1.
       -2   -1    0    0    0  501  0.00000000000E+00  0.00000000000E+00 -0.95249869334E+03  0.95249869335E+03  0.25500000920E-02 0. -1.
    10030    2    1    2    0    0  0.00000000000E+00  0.00000000000E+00  0.21199248920E+03  0.21169898759E+04  0.21063488123E+04 0.  0.
        2    1    3    3  502    0  0.30387967289E+03 -0.47239554480E+03 -0.78938932720E+03  0.96883224361E+03  0.25500000920E-02 0. -1.
       -2    1    3    3    0  502 -0.30387967289E+03  0.47239554480E+03  0.10013818164E+04  0.11481576323E+04  0.25500000920E-02 0.  1.
</event>
<event>
 5   0  0.1492552E-05  0.2099475E+04  0.7818609E-02  0.8561475E-01
        1   -1    0    0  501    0  0.00000000000E+00  0.00000000000E+00  0.53852520918E+03  0.53852520921E+03  0.50400001928E-02 0. -1.
       -1   -1    0    0    0  501  0.00000000000E+00  0.00000000000E+00 -0.20462351035E+04  0.20462351035E+04  0.50400001928E-02 0.  1.
    10030    2    1    2    0    0  0.00000000000E+00  0.00000000000E+00 -0.15077098943E+04  0.25847603127E+04  0.20994753508E+04 0.  0.
        4    1    3    3  502    0 -0.48143268114E+03 -0.21379100396E+03 -0.18717350541E+04  0.19444479282E+04  0.12699999809E+01 0.  1.
       -4    1    3    3    0  502  0.48143268114E+03  0.21379100396E+03  0.36402515982E+03  0.64031238448E+03  0.12699999809E+01 0. -1.
</event>
<event>
 5   0  0.3130517E-05  0.2094354E+04  0.7818609E-02  0.8563735E-01
        2   -1    0    0  501    0  0.00000000000E+00  0.00000000000E+00  0.91164349169E+03  0.91164349169E+03  0.25500000920E-02 0. -1.
       -2   -1    0    0    0  501  0.00000000000E+00  0.00000000000E+00 -0.12028600288E+04  0.12028600288E+04  0.25500000920E-02 0.  1.
    10030    2    1    2    0    0  0.00000000000E+00  0.00000000000E+00 -0.29121653715E+03  0.21145035205E+04  0.20943538543E+04 0.  0.
        1    1    3    3  502    0  0.10142831080E+04  0.19170700803E+03  0.32319246785E+02  0.10327469844E+04  0.50400001928E-02 0.  1.
       -1    1    3    3    0  502 -0.10142831080E+04 -0.19170700803E+03 -0.32353578393E+03  0.10817565362E+04  0.50400001928E-02 0. -1.
</event>
<event>
 5   0  0.3279789E-05  0.2108291E+04  0.7818609E-02  0.8557600E-01
       -2   -1    0    0    0  501  0.00000000000E+00  0.00000000000E+00  0.64222759029E+03  0.64222759029E+03  0.25500000920E-02 0. -1.
        2   -1    0    0  501    0  0.00000000000E+00  0.00000000000E+00 -0.17302628038E+04  0.17302628038E+04  0.25500000920E-02 0.  1.
    10030    2    1    2    0    0  0.00000000000E+00  0.00000000000E+00 -0.10880352136E+04  0.23724903941E+04  0.21082907874E+04 0.  0.
        2    1    3    3  502    0 -0.18837527945E+03  0.74625910152E+03 -0.13545836849E+04  0.15579745993E+04  0.25500000920E-02 0.  1.
       -2    1    3    3    0  502  0.18837527945E+03 -0.74625910152E+03  0.26654847136E+03  0.81451579487E+03  0.25500000920E-02 0. -1.
</event>
<event>
 5   0  0.3130517E-05  0.2095310E+04  0.7818609E-02  0.8563312E-01
        2   -1    0    0  501    0  0.00000000000E+00  0.00000000000E+00  0.64805089532E+03  0.64805089533E+03  0.25500000920E-02 0.  1.
       -2   -1    0    0    0  501  0.00000000000E+00  0.00000000000E+00 -0.16936643959E+04  0.16936643959E+04  0.25500000920E-02 0. -1.
    10030    2    1    2    0    0  0.00000000000E+00  0.00000000000E+00 -0.10456135006E+04  0.23417152912E+04  0.20953097414E+04 0.  0.
        1    1    3    3  502    0  0.57036933027E+03 -0.66799540814E+03 -0.11609562418E+04  0.14558016464E+04  0.50400001928E-02 0. -1.
       -1    1    3    3    0  502 -0.57036933027E+03  0.66799540814E+03  0.11534274119E+03  0.88591364488E+03  0.50400001928E-02 0.  1.
</event>
<event>
 5   0  0.3257130E-05  0.2108778E+04  0.7818609E-02  0.8557387E-01
        2   -1    0    0  501    0  0.00000000000E+00  0.00000000000E+00  0.19483938434E+04  0.19483938434E+04  0.25500000920E-02 0.  1.
       -2   -1    0    0    0  501  0.00000000000E+00  0.00000000000E+00 -0.57059082281E+03  0.57059082281E+03  0.25500000920E-02 0. -1.
    10030    2    1    2    0    0  0.00000000000E+00  0.00000000000E+00  0.13778030206E+04  0.25189846662E+04  0.21087775096E+04 0.  0.
        3    1    3    3  502    0 -0.90472060839E+03  0.53769774842E+03  0.76536397932E+03  0.13013148270E+04  0.10100000352E+00 0. -1.
       -3    1    3    3    0  502  0.90472060839E+03 -0.53769774842E+03  0.61243904127E+03  0.12176698392E+04  0.10100000352E+00 0.  1.
</event>
<event>
 5   0  0.1435410E-05  0.2104841E+04  0.7818609E-02  0.8559114E-01
        1   -1    0    0  501    0  0.00000000000E+00  0.00000000000E+00  0.23486813474E+04  0.23486813474E+04  0.50400001928E-02 0.  1.
       -1   -1    0    0    0  501  0.00000000000E+00  0.00000000000E+00 -0.47157918907E+03  0.47157918909E+03  0.50400001928E-02 0. -1.
    10030    2    1    2    0    0  0.00000000000E+00  0.00000000000E+00  0.18771021583E+04  0.28202605365E+04  0.21048413196E+04 0.  0.
        2    1    3    3  502    0 -0.57579332620E+03  0.59713241073E+02  0.21161979202E+04  0.21939455925E+04  0.25500000920E-02 0.  1.
       -2    1    3    3    0  502  0.57579332620E+03 -0.59713241073E+02 -0.23909576187E+03  0.62631494394E+03  0.25500000920E-02 0. -1.
</event>
<event>
 5   0  0.3130517E-05  0.2102823E+04  0.7818609E-02  0.8560001E-01
        2   -1    0    0  501    0  0.00000000000E+00  0.00000000000E+00  0.10053694557E+04  0.10053694557E+04  0.25500000920E-02 0.  1.
       -2   -1    0    0    0  501  0.00000000000E+00  0.00000000000E+00 -0.10995622139E+04  0.10995622139E+04  0.25500000920E-02 0. -1.
    10030    2    1    2    0    0  0.00000000000E+00  0.00000000000E+00 -0.94192758188E+02  0.21049316697E+04  0.21028231163E+04 0.  0.
        1    1    3    3  502    0  0.10517814634E+03 -0.10429160194E+04  0.35022449240E+02  0.10487911317E+04  0.50400001928E-02 0.  1.
       -1    1    3    3    0  502 -0.10517814634E+03  0.10429160194E+04 -0.12921520743E+03  0.10561405379E+04  0.50400001928E-02 0. -1.
</event>
<event>
 5   0  0.3242231E-05  0.2098366E+04  0.7818609E-02  0.8561963E-01
        2   -1    0    0  501    0  0.00000000000E+00  0.00000000000E+00  0.18902704689E+04  0.18902704689E+04  0.25500000920E-02 0. -1.
       -2   -1    0    0    0  501  0.00000000000E+00  0.00000000000E+00 -0.58234273483E+03  0.58234273484E+03  0.25500000920E-02 0.  1.
    10030    2    1    2    0    0  0.00000000000E+00  0.00000000000E+00  0.13079277340E+04  0.24726132037E+04  0.20983662926E+04 0.  0.
        4    1    3    3  502    0  0.26108450232E+03  0.50594217560E+03 -0.38448485505E+03  0.68700277952E+03  0.12699999809E+01 0.  1.
       -4    1    3    3    0  502 -0.26108450232E+03 -0.50594217560E+03  0.16924125891E+04  0.17856104242E+04  0.12699999809E+01 0. -1.
</event>
<event>
 5   0  0.1513292E-05  0.2116367E+04  0.7818609E-02  0.8554067E-01
       -1   -1    0    0    0  501  0.00000000000E+00  0.00000000000E+00  0.96281761558E+03  0.96281761560E+03  0.50400001928E-02 0. -1.
        1   -1    0    0  501    0  0.00000000000E+00  0.00000000000E+00 -0.11629957431E+04  0.11629957431E+04  0.50400001928E-02 0.  1.
    10030    2    1    2    0    0  0.00000000000E+00  0.00000000000E+00 -0.20017812747E+03  0.21258133587E+04  0.21163674428E+04 0.  0.
        1    1    3    3  502    0  0.69916920349E+03 -0.45008645536E+03  0.55730693423E+03  0.10010027030E+04  0.50400001928E-02 0. -1.
       -1    1    3    3    0  502 -0.69916920349E+03  0.45008645536E+03 -0.75748506170E+03  0.11248106557E+04  0.50400001928E-02 0.  1.
</event>
<event>
 5   0  0.1435410E-05  0.2085897E+04  0.7818609E-02  0.8567482E-01
        1   -1    0    0  501    0  0.00000000000E+00  0.00000000000E+00  0.15330158101E+04  0.15330158101E+04  0.50400001928E-02 0.  1.
       -1   -1    0    0    0  501  0.00000000000E+00  0.00000000000E+00 -0.70954331022E+03  0.70954331024E+03  0.50400001928E-02 0. -1.
    10030    2    1    2    0    0  0.00000000000E+00  0.00000000000E+00  0.82347249989E+03  0.22425591204E+04  0.20858965579E+04 0.  0.
        2    1    3    3  502    0 -0.10140259221E+04  0.23983234175E+03  0.45949066658E+03  0.11388150840E+04  0.25500000920E-02 0. -1.
       -2    1    3    3    0  502  0.10140259221E+04 -0.23983234175E+03  0.36398183331E+03  0.11037440364E+04  0.25500000920E-02 0.  1.
</event>
<event>
 5   0  0.1453430E-05  0.2209143E+04  0.7818609E-02  0.8514632E-01
        1   -1    0    0  501    0  0.00000000000E+00  0.00000000000E+00  0.26589023731E+04  0.26589023731E+04  0.50400001928E-02 0. -1.
       -1   -1    0    0    0  501  0.00000000000E+00  0.00000000000E+00 -0.45886535821E+03  0.45886535824E+03  0.50400001928E-02 0.  1.
    10030    2    1    2    0    0  0.00000000000E+00  0.00000000000E+00  0.22000370149E+04  0.31177677313E+04  0.22091429921E+04 0.  0.
        5    1    3    3  502    0  0.84857525718E+02 -0.88662401354E+03  0.17806652497E+03  0.90831311692E+03  0.46999998093E+01 0.  1.
       -5    1    3    3    0  502 -0.84857525718E+02  0.88662401354E+03  0.20219704899E+04  0.22094546144E+04  0.46999998093E+01 0. -1.
</event>
<event>
 5   0  0.1129987E-05  0.2114096E+04  0.7818609E-02  0.8555059E-01
       -3   -1    0    0    0  501  0.00000000000E+00  0.00000000000E+00  0.88262516636E+03  0.88262517214E+03  0.10100000352E+00 0.  1.
        3   -1    0    0  501    0  0.00000000000E+00  0.00000000000E+00 -0.12659402310E+04  0.12659402350E+04  0.10100000352E+00 0. -1.
    10030    2    1    2    0    0  0.00000000000E+00  0.00000000000E+00 -0.38331506462E+03  0.21485654071E+04  0.21140962301E+04 0.  0.
        1    1    3    3  502    0 -0.23077875984E+03  0.15429381215E+03 -0.12282309284E+04  0.12592127024E+04  0.50400001928E-02 0. -1.
       -1    1    3    3    0  502  0.23077875984E+03 -0.15429381215E+03  0.84491586379E+03  0.88935270471E+03  0.50400001928E-02 0.  1.
</event>
<event>
 5   0  0.1466480E-05  0.2108451E+04  0.7818609E-02  0.8557530E-01
       -1   -1    0    0    0  501  0.00000000000E+00  0.00000000000E+00  0.92293274466E+03  0.92293274467E+03  0.50400001928E-02 0. -1.
        1   -1    0    0  501    0  0.00000000000E+00  0.00000000000E+00 -0.12041951340E+04  0.12041951340E+04  0.50400001928E-02 0.  1.
    10030    2    1    2    0    0  0.00000000000E+00  0.00000000000E+00 -0.28126238938E+03  0.21271278787E+04  0.21084507300E+04 0.  0.
        3    1    3    3  502    0 -0.84003073945E+03  0.63664865822E+03 -0.12000620501E+03  0.10608367719E+04  0.10100000352E+00 0.  1.
       -3    1    3    3    0  502  0.84003073945E+03 -0.63664865822E+03 -0.16125618437E+03  0.10662911068E+04  0.10100000352E+00 0. -1.
</event>
<event>
 5   0  0.3242231E-05  0.2099682E+04  0.7818609E-02  0.8561384E-01
        2   -1    0    0  501    0  0.00000000000E+00  0.00000000000E+00  0.21623870631E+04  0.21623870631E+04  0.25500000920E-02 0.  1.
       -2   -1    0    0    0  501  0.00000000000E+00  0.00000000000E+00 -0.50969869280E+03  0.50969869281E+03  0.25500000920E-02 0. -1.
    10030    2    1    2    0    0  0.00000000000E+00  0.00000000000E+00  0.16526883703E+04  0.26720857559E+04  0.20996817467E+04 0.  0.
        4    1    3    3  502    0 -0.49573283159E+03 -0.91603487911E+03  0.99369812379E+03  0.14395514976E+04  0.12699999809E+01 0. -1.
       -4    1    3    3    0  502  0.49573283159E+03  0.91603487911E+03  0.65899024651E+03  0.12325342583E+04  0.12699999809E+01 0.  1.
</event>
<event>
 5   0  0.1513292E-05  0.1979601E+04  0.7818609E-02  0.8616218E-01
        1   -1    0    0  501    0  0.00000000000E+00  0.00000000000E+00  0.17103677090E+04  0.17103677090E+04  0.50400001928E-02 0. -1.
       -1   -1    0    0    0  501  0.00000000000E+00  0.00000000000E+00 -0.57280371499E+03  0.57280371501E+03  0.50400001928E-02 0.  1.
    10030    2    1    2    0    0  0.00000000000E+00  0.00000000000E+00  0.11375639940E+04  0.22831714240E+04  0.19796009474E+04 0.  0.
        1    1    3    3  502    0 -0.51088319928E+03 -0.15183049374E+03 -0.39317691566E+03  0.66230070902E+03  0.50400001928E-02 0.  1.
       -1    1    3    3    0  502  0.51088319928E+03  0.15183049374E+03  0.15307409096E+04  0.16208707150E+04  0.50400001928E-02 0. -1.
</event>
<event>
 5   0  0.3108326E-05  0.2097238E+04  0.7818609E-02  0.8562461E-01
        2   -1    0    0  501    0  0.00000000000E+00  0.00000000000E+00  0.12634373812E+04  0.12634373812E+04  0.25500000920E-02 0.  1.
       -2   -1    0    0    0  501  0.00000000000E+00  0.00000000000E+00 -0.87032529682E+03  0.87032529683E+03  0.25500000920E-02 0. -1.
    10030    2    1    2    0    0  0.00000000000E+00  0.00000000000E+00  0.39311208433E+03  0.21337626780E+04  0.20972377202E+04 0.  0.
        5    1    3    3  502    0  0.35373325829E+03  0.41031005640E+03  0.11100219416E+04  0.12351730086E+04  0.46999998093E+01 0.  1.
       -5    1    3    3    0  502 -0.35373325829E+03 -0.41031005640E+03 -0.71690985728E+03  0.89858966935E+03  0.46999998093E+01 0. -1.
</event>
<event>
 5   0  0.3108326E-05  0.2097444E+04  0.7818609E-02  0.8562370E-01
       -2   -1    0    0    0  501  0.00000000000E+00  0.00000000000E+00  0.11211874665E+04  0.11211874665E+04  0.25500000920E-02 0.  1.
        2   -1    0    0  501    0  0.00000000000E+00  0.00000000000E+00 -0.98093979631E+03  0.98093979631E+03  0.25500000920E-02 0. -1.
    10030    2    1    2    0    0  0.00000000000E+00  0.00000000000E+00  0.14024767021E+03  0.21021272628E+04  0.20974435917E+04 0.  0.
        5    1    3    3  502    0  0.29475063508E+02  0.92656125316E+03 -0.42128808113E+03  0.10182780919E+04  0.46999998093E+01 0. -1.
       -5    1    3    3    0  502 -0.29475063508E+02 -0.92656125316E+03  0.56153575134E+03  0.10838491709E+04  0.46999998093E+01 0.  1.
</event>
<event>
 5   0  0.3108326E-05  0.2094868E+04  0.7818609E-02  0.8563507E-01
        2   -1    0    0  501    0  0.00000000000E+00  0.00000000000E+00  0.13372490232E+04  0.13372490232E+04  0.25500000920E-02 0. -1.
       -2   -1    0    0    0  501  0.00000000000E+00  0.00000000000E+00 -0.82042946288E+03  0.82042946288E+03  0.25500000920E-02 0.  1.
    10030    2    1    2    0    0  0.00000000000E+00  0.00000000000E+00  0.51681956029E+03  0.21576784861E+04  0.20948684902E+04 0.  0.
        5    1    3    3  502    0  0.18531837525E+03  0.23028612435E+03 -0.77656754501E+03  0.83093552171E+03  0.46999998093E+01 0.  1.
       -5    1    3    3    0  502 -0.18531837525E+03 -0.23028612435E+03  0.12933871053E+04  0.13267429643E+04  0.46999998093E+01 0. -1.
</event>
<event>
 5   0  0.3279789E-05  0.2102158E+04  0.7818609E-02  0.8560293E-01
        2   -1    0    0  501    0  0.00000000000E+00  0.00000000000E+00  0.19779795371E+04  0.19779795371E+04  0.25500000920E-02 0.  1.
       -2   -1    0    0    0  501  0.00000000000E+00  0.00000000000E+00 -0.55853311502E+03  0.55853311503E+03  0.25500000920E-02 0. -1.
    10030    2    1    2    0    0  0.00000000000E+00  0.00000000000E+00  0.14194464221E+04  0.25365126521E+04  0.21021580077E+04 0.  0.
        2    1    3    3  502    0  0.71989665941E+03 -0.70458762811E+03  0.10718552354E+04  0.14709073974E+04  0.25500000920E-02 0.  1.
       -2    1    3    3    0  502 -0.71989665941E+03  0.70458762811E+03  0.34759118663E+03  0.10656052547E+04  0.25500000920E-02 0. -1.
</event>
<event>
 5   0  0.1492552E-05  0.2055337E+04  0.7818609E-02  0.8581177E-01
       -1   -1    0    0    0  501  0.00000000000E+00  0.00000000000E+00  0.10513411024E+04  0.10513411024E+04  0.50400001928E-02 0. -1.
        1   -1    0    0  501    0  0.00000000000E+00  0.00000000000E+00 -0.10045292811E+04  0.10045292811E+04  0.50400001928E-02 0.  1.
    10030    2    1    2    0    0  0.00000000000E+00  0.00000000000E+00  0.46811821263E+02  0.20558703835E+04  0.20553373658E+04 0.  0.
        4    1    3    3  502    0 -0.93992527650E+03 -0.39915374129E+03  0.13883980025E+03  0.10305636019E+04  0.12699999809E+01 0. -1.
       -4    1    3    3    0  502  0.93992527650E+03  0.39915374129E+03 -0.92027978984E+02  0.10253067816E+04  0.12699999809E+01 0.  1.
</event>
<event>
 5   0  0.3130517E-05  0.2094675E+04  0.7818609E-02  0.8563593E-01
        2   -1    0    0  501    0  0.00000000000E+00  0.00000000000E+00  0.16638320634E+04  0.16638320634E+04  0.25500000920E-02 0. -1.
       -2   -1    0    0    0  501  0.00000000000E+00  0.00000000000E+00 -0.65927093862E+03  0.65927093863E+03  0.25500000920E-02 0.  1.
    10030    2    1    2    0    0  0.00000000000E+00  0.00000000000E+00  0.10045611248E+04  0.23231030020E+04  0.20946752743E+04 0.  0.
        1    1    3    3  502    0 -0.68458995183E+03  0.65350734467E+03  0.99972560310E+03  0.13766577400E+04  0.50400001928E-02 0. -1.
       -1    1    3    3    0  502  0.68458995183E+03 -0.65350734467E+03  0.48355216945E+01  0.94644526201E+03  0.50400001928E-02 0.  1.
</event>
<event>
 5   0  0.3108326E-05  0.2098074E+04  0.7818609E-02  0.8562092E-01
       -2   -1    0    0    0  501  0.00000000000E+00  0.00000000000E+00  0.63837146820E+03  0.63837146821E+03  0.25500000920E-02 0.  1.
        2   -1    0    0  501    0  0.00000000000E+00  0.00000000000E+00 -0.17238843043E+04  0.17238843043E+04  0.25500000920E-02 0. -1.
    10030    2    1    2    0    0  0.00000000000E+00  0.00000000000E+00 -0.10855128361E+04  0.23622557725E+04  0.20980739304E+04 0.  0.
        5    1    3    3  502    0 -0.14402386925E+01 -0.25088211568E+03 -0.16895963642E+04  0.17081281785E+04  0.46999998093E+01 0. -1.
       -5    1    3    3    0  502  0.14402386925E+01  0.25088211568E+03  0.60408352813E+03  0.65412759398E+03  0.46999998093E+01 0.  1.
</event>
<event>
 5   0  0.3242231E-05  0.2098791E+04  0.7818609E-02  0.8561776E-01
       -2   -1    0    0    0  501  0.00000000000E+00  0.00000000000E+00  0.88368152371E+03  0.88368152371E+03  0.25500000920E-02 0. -1.
        2   -1    0    0  501    0  0.00000000000E+00  0.00000000000E+00 -0.12461855078E+04  0.12461855078E+04  0.25500000920E-02 0.  1.
    10030    2    1    2    0    0  0.00000000000E+00  0.00000000000E+00 -0.36250398405E+03  0.21298670315E+04  0.20987911838E+04 0.  0.
        4    1    3    3  502    0 -0.15595931447E+03  0.42465475740E+03 -0.11421481506E+04  0.12284783195E+04  0.12699999809E+01 0.  1.
       -4    1    3    3    0  502  0.15595931447E+03 -0.42465475740E+03  0.77964416653E+03  0.90138871196E+03  0.12699999809E+01 0. -1.
</event>
<event>
 5   0  0.3257130E-05  0.2095762E+04  0.7818609E-02  0.8563113E-01
       -2   -1    0    0    0  501  0.00000000000E+00  0.00000000000E+00  0.57985902367E+03  0.57985902367E+03  0.25500000920E-02 0.  1.
        2   -1    0    0  501    0  0.00000000000E+00  0.00000000000E+00 -0.18936571266E+04  0.18936571266E+04  0.25500000920E-02 0. -1.
    10030    2    1    2    0    0  0.00000000000E+00  0.00000000000E+00 -0.13137981029E+04  0.24735161503E+04  0.20957616015E+04 0.  0.
        3    1    3    3  502    0  0.37440312528E+03  0.96089681473E+03 -0.87629096352E+03  0.13532872022E+04  0.10100000352E+00 0. -1.
       -3    1    3    3    0  502 -0.37440312528E+03 -0.96089681473E+03 -0.43750713941E+03  0.11202289480E+04  0.10100000352E+00 0.  1.
</event>
<event>
 5   0  0.3108326E-05  0.2103680E+04  0.7818609E-02  0.8559624E-01
       -2   -1    0    0    0  501  0.00000000000E+00  0.00000000000E+00  0.91268252005E+03  0.91268252005E+03  0.25500000920E-02 0. -1.
        2   -1    0    0  501    0  0.00000000000E+00  0.00000000000E+00 -0.12122153534E+04  0.12122153534E+04  0.25500000920E-02 0.  1.
    10030    2    1    2    0    0  0.00000000000E+00  0.00000000000E+00 -0.29953283335E+03  0.21248978735E+04  0.21036803594E+04 0.  0.
        5    1    3    3  502    0  0.15368433625E+03 -0.44476128050E+03 -0.10999529962E+04  0.11963904696E+04  0.46999998093E+01 0.  1.
       -5    1    3    3    0  502 -0.15368433625E+03  0.44476128050E+03  0.80042016289E+03  0.92850740385E+03  0.46999998093E+01 0. -1.
</event>
<event>
 5   0  0.1492552E-05  0.2098214E+04  0.7818609E-02  0.8562031E-01
       -1   -1    0    0    0  501  0.00000000000E+00  0.00000000000E+00  0.14946636541E+04  0.14946636541E+04  0.50400001928E-02 0. -1.
        1   -1    0    0  501    0  0.00000000000E+00  0.00000000000E+00 -0.73636994322E+03  0.73636994323E+03  0.50400001928E-02 0.  1.
    10030    2    1    2    0    0  0.00000000000E+00  0.00000000000E+00  0.75829371090E+03  0.22310335974E+04  0.20982138977E+04 0.  0.
        4    1    3    3  502    0  0.54003168621E+03  0.39826391990E+03 -0.47836158971E+03  0.82406298024E+03  0.12699999809E+01 0.  1.
       -4    1    3    3    0  502 -0.54003168621E+03 -0.39826391990E+03  0.12366553006E+04  0.14069706171E+04  0.12699999809E+01 0. -1.
</event>
<event>
 5   0  0.1466480E-05  0.2099176E+04  0.7818609E-02  0.8561606E-01
        1   -1    0    0  501    0  0.00000000000E+00  0.00000000000E+00  0.11337143377E+04  0.11337143377E+04  0.50400001928E-02 0. -1.
       -1   -1    0    0    0  501  0.00000000000E+00  0.00000000000E+00 -0.97170406215E+03  0.97170406217E+03  0.50400001928E-02 0.  1.
    10030    2    1    2    0    0  0.00000000000E+00  0.00000000000E+00  0.16201027552E+03  0.21054183998E+04  0.20991758642E+04 0.  0.
        3    1    3    3  502    0 -0.81237307851E+03 -0.15509555361E+03  0.72917005557E+03  0.11025849761E+04  0.10100000352E+00 0. -1.
       -3    1    3    3    0  502  0.81237307851E+03  0.15509555361E+03 -0.56715978005E+03  0.10028334237E+04  0.10100000352E+00 0.  1.
</event>
<event>
 5   0  0.1453430E-05  0.2141384E+04  0.7818609E-02  0.8543229E-01
       -1   -1    0    0    0  501  0.00000000000E+00  0.00000000000E+00  0.15760744908E+04  0.15760744908E+04  0.50400001928E-02 0. -1.
        1   -1    0    0  501    0  0.00000000000E+00  0.00000000000E+00 -0.72736489804E+03  0.72736489806E+03  0.50400001928E-02 0.  1.
    10030    2    1    2    0    0  0.00000000000E+00  0.00000000000E+00  0.84870959274E+03  0.23034393889E+04  0.21413839089E+04 0.  0.
        5    1    3    3  502    0  0.53622363971E+03  0.28709331452E+03  0.13721734323E+04  0.15009464952E+04  0.46999998093E+01 0. -1.
       -5    1    3    3    0  502 -0.53622363971E+03 -0.28709331452E+03 -0.52346383959E+03  0.80249289366E+03  0.46999998093E+01 0.  1.
</event>
<event>
 5   0  0.3130517E-05  0.2102908E+04  0.7818609E-02  0.8559963E-01
        2   -1    0    0  501    0  0.00000000000E+00  0.00000000000E+00  0.13730220077E+04  0.13730220078E+04  0.25500000920E-02 0.  1.
       -2   -1    0    0    0  501  0.00000000000E+00  0.00000000000E+00 -0.80519902721E+03  0.80519902722E+03  0.25500000920E-02 0. -1.
    10030    2    1    2    0    0  0.00000000000E+00  0.00000000000E+00  0.56782298053E+03  0.21782210350E+04  0.21029084478E+04 0.  0.
        1    1    3    3  502    0  0.68144520351E+02  0.46502257956E+03  0.12581635359E+04  0.13430804734E+04  0.50400001928E-02 0.  1.
       -1    1    3    3    0  502 -0.68144520351E+02 -0.46502257956E+03 -0.69034055532E+03  0.83514056153E+03  0.50400001928E-02 0. -1.
</event>
<event>
 5   0  0.3108326E-05  0.2103814E+04  0.7818609E-02  0.8559565E-01
       -2   -1    0    0    0  501  0.00000000000E+00  0.00000000000E+00  0.10535057323E+04  0.10535057323E+04  0.25500000920E-02 0. -1.
        2   -1    0    0  501    0  0.00000000000E+00  0.00000000000E+00 -0.10503107001E+04  0.10503107001E+04  0.25500000920E-02 0.  1.
    10030    2    1    2    0    0  0.00000000000E+00  0.00000000000E+00  0.31950321981E+01  0.21038164325E+04  0.21038140063E+04 0.  0.
        5    1    3    3  502    0  0.57458142163E+03 -0.52491049680E+03 -0.70608360465E+03  0.10508334723E+04  0.46999998093E+01 0.  1.
       -5    1    3    3    0  502 -0.57458142163E+03  0.52491049680E+03  0.70927863685E+03  0.10529829602E+04  0.46999998093E+01 0. -1.
</event>
<event>
 5   0  0.1453430E-05  0.2106424E+04  0.7818609E-02  0.8558419E-01
        1   -1    0    0  501    0  0.00000000000E+00  0.00000000000E+00  0.14050554531E+04  0.14050554531E+04  0.50400001928E-02 0. -1.
       -1   -1    0    0    0  501  0.00000000000E+00  0.00000000000E+00 -0.78947467767E+03  0.78947467769E+03  0.50400001928E-02 0.  1.
    10030    2    1    2    0    0  0.00000000000E+00  0.00000000000E+00  0.61558077543E+03  0.21945301308E+04  0.21064241747E+04 0.  0.
        5    1    3    3  502    0 -0.86332413591E+03 -0.57775527557E+03  0.48855233818E+03  0.11479700341E+04  0.46999998093E+01 0.  1.
       -5    1    3    3    0  502  0.86332413591E+03  0.57775527557E+03  0.12702843725E+03  0.10465600967E+04  0.46999998093E+01 0. -1.
</event>
<event>
 5   0  0.1513292E-05  0.2097425E+04  0.7818609E-02  0.8562379E-01
       -1   -1    0    0    0  501  0.00000000000E+00  0.00000000000E+00  0.63626588164E+03  0.63626588166E+03  0.50400001928E-02 0.  1.
        1   -1    0    0  501    0  0.00000000000E+00  0.00000000000E+00 -0.17285188518E+04  0.17285188518E+04  0.50400001928E-02 0. -1.
    10030    2    1    2    0    0  0.00000000000E+00  0.00000000000E+00 -0.10922529701E+04  0.23647847334E+04  0.20974246791E+04 0.  0.
        1    1    3    3  502    0  0.48176258470E+03  0.70005178272E+03  0.14672223208E+03  0.86237758547E+03  0.50400001928E-02 0.  1.
       -1    1    3    3    0  502 -0.48176258470E+03 -0.70005178272E+03 -0.12389752022E+04  0.15024071480E+04  0.50400001928E-02 0. -1.
</event>
<event>
 5   0  0.3242231E-05  0.2102517E+04  0.7818609E-02  0.8560135E-01
        2   -1    0    0  501    0  0.00000000000E+00  0.00000000000E+00  0.15314375384E+04  0.15314375384E+04  0.25500000920E-02 0. -1.
       -2   -1    0    0    0  501  0.00000000000E+00  0.00000000000E+00 -0.72163882143E+03  0.72163882144E+03  0.25500000920E-02 0.  1.
    10030    2    1    2    0    0  0.00000000000E+00  0.00000000000E+00  0.80979871698E+03  0.22530763599E+04  0.21025173296E+04 0.  0.
        4    1    3    3  502    0 -0.15010916086E+03 -0.10356736329E+04  0.51200951739E+03  0.11650356187E+04  0.12699999809E+01 0. -1.
       -4    1    3    3    0  502  0.15010916086E+03  0.10356736329E+04  0.29778919960E+03  0.10880407411E+04  0.12699999809E+01 0.  1.
</event>
<event>
 5   0  0.1513292E-05  0.2095189E+04  0.7818609E-02  0.8563366E-01
        1   -1    0    0  501    0  0.00000000000E+00  0.00000000000E+00  0.57230460201E+03  0.57230460204E+03  0.50400001928E-02 0.  1.
       -1   -1    0    0    0  501  0.00000000000E+00  0.00000000000E+00 -0.19176047322E+04  0.19176047322E+04  0.50400001928E-02 0. -1.
    10030    2    1    2    0    0  0.00000000000E+00  0.00000000000E+00 -0.13453001302E+04  0.24899093343E+04  0.20951887869E+04 0.  0.
        1    1    3    3  502    0 -0.74169096323E+03  0.15711475828E+03 -0.15318049237E+04  0.17091567677E+04  0.50400001928E-02 0. -1.
       -1    1    3    3    0  502  0.74169096323E+03 -0.15711475828E+03  0.18650479349E+03  0.78075256659E+03  0.50400001928E-02 0.  1.
</event>
<event>
 5   0  0.3242231E-05  0.2071996E+04  0.7818609E-02  0.8573681E-01
       -2   -1    0    0    0  501  0.00000000000E+00  0.00000000000E+00  0.11558298903E+04  0.11558298903E+04  0.25500000920E-02 0.  1.
        2   -1    0    0  501    0  0.00000000000E+00  0.00000000000E+00 -0.92858969423E+03  0.92858969424E+03  0.25500000920E-02 0. -1.
    10030    2    1    2    0    0  0.00000000000E+00  0.00000000000E+00  0.22724019606E+03  0.20844195845E+04  0.20719958730E+04 0.  0.
        4    1    3    3  502    0 -0.23351721436E+03 -0.99815003673E+03 -0.37132780642E+02  0.10257749468E+04  0.12699999809E+01 0. -1.
       -4    1    3    3    0  502  0.23351721436E+03  0.99815003673E+03  0.26437297670E+03  0.10586446377E+04  0.12699999809E+01 0.  1.
</event>
<event>
 5   0  0.3130517E-05  0.2087726E+04  0.7818609E-02  0.8566669E-01
        2   -1    0    0  501    0  0.00000000000E+00  0.00000000000E+00  0.10601963479E+04  0.10601963479E+04  0.25500000920E-02 0.  1.
       -2   -1    0    0    0  501  0.00000000000E+00  0.00000000000E+00 -0.10277814988E+04  0.10277814988E+04  0.25500000920E-02 0. -1.
    10030    2    1    2    0    0  0.00000000000E+00  0.00000000000E+00  0.32414849104E+02  0.20879778467E+04  0.20877262191E+04 0.  0.
        1    1    3    3  502    0 -0.82343709161E+03 -0.51004936698E+03  0.40542163424E+03  0.10500312863E+04  0.50400001928E-02 0.  1.
       -1    1    3    3    0  502  0.82343709161E+03  0.51004936698E+03 -0.37300678513E+03  0.10379465605E+04  0.50400001928E-02 0. -1.
</event>
<event>
 5   0  0.1129987E-05  0.2106861E+04  0.7818609E-02  0.8558227E-01
        4   -1    0    0  501    0  0.00000000000E+00  0.00000000000E+00  0.88996026972E+03  0.88996117588E+03  0.12699999809E+01 0. -1.
       -4   -1    0    0    0  501  0.00000000000E+00  0.00000000000E+00 -0.12469260001E+04  0.12469266469E+04  0.12699999809E+01 0.  1.
    10030    2    1    2    0    0  0.00000000000E+00  0.00000000000E+00 -0.35696573041E+03  0.21368878228E+04  0.21068614179E+04 0.  0.
        3    1    3    3  502    0 -0.14683907902E+03  0.32789288004E+03  0.82590332218E+03  0.90066184759E+03  0.10100000352E+00 0. -1.
       -3    1    3    3    0  502  0.14683907902E+03 -0.32789288004E+03 -0.11828690526E+04  0.12362259752E+04  0.10100000352E+00 0.  1.
</event>
<event>
 5   0  0.1513292E-05  0.2106319E+04  0.7818609E-02  0.8558465E-01
       -1   -1    0    0    0  501  0.00000000000E+00  0.00000000000E+00  0.14593889316E+04  0.14593889316E+04  0.50400001928E-02 0.  1.
        1   -1    0    0  501    0  0.00000000000E+00  0.00000000000E+00 -0.76000606260E+03  0.76000606262E+03  0.50400001928E-02 0. -1.
    10030    2    1    2    0    0  0.00000000000E+00  0.00000000000E+00  0.69938286897E+03  0.22193949942E+04  0.21063185283E+04 0.  0.
        1    1    3    3  502    0  0.83500838375E+03 -0.25031854763E+02 -0.32604718091E+03  0.89675657728E+03  0.50400001928E-02 0.  1.
       -1    1    3    3    0  502 -0.83500838375E+03  0.25031854763E+02  0.10254300499E+04  0.13226384169E+04  0.50400001928E-02 0. -1.
</event>
<event>
 5   0  0.1129987E-05  0.2082425E+04  0.7818609E-02  0.8569025E-01
       -3   -1    0    0    0  501  0.00000000000E+00  0.00000000000E+00  0.72759706827E+03  0.72759707528E+03  0.10100000352E+00 0. -1.
        3   -1    0    0  501    0  0.00000000000E+00  0.00000000000E+00 -0.14900051359E+04  0.14900051393E+04  0.10100000352E+00 0.  1.
    10030    2    1    2    0    0  0.00000000000E+00  0.00000000000E+00 -0.76240806762E+03  0.22176022146E+04  0.20824249136E+04 0.  0.
        4    1    3    3  502    0  0.90438431610E+03 -0.30659329417E+03  0.60717489209E+02  0.95686919986E+03  0.12699999809E+01 0. -1.
       -4    1    3    3    0  502 -0.90438431610E+03  0.30659329417E+03 -0.82312555683E+03  0.12607330147E+04  0.12699999809E+01 0.  1.
</event>
<event>
 5   0  0.3242231E-05  0.2090517E+04  0.7818609E-02  0.8565432E-01
        2   -1    0    0  501    0  0.00000000000E+00  0.00000000000E+00  0.89136374187E+03  0.89136374187E+03  0.25500000920E-02 0. -1.
       -2   -1    0    0    0  501  0.00000000000E+00  0.00000000000E+00 -0.12257232756E+04  0.12257232756E+04  0.25500000920E-02 0.  1.
    10030    2    1    2    0    0  0.00000000000E+00  0.00000000000E+00 -0.33435953374E+03  0.21170870175E+04  0.20905169556E+04 0.  0.
        4    1    3    3  502    0 -0.97965608561E+03  0.26561018447E+02  0.20094009215E+03  0.10004049517E+04  0.12699999809E+01 0. -1.
       -4    1    3    3    0  502  0.97965608561E+03 -0.26561018447E+02 -0.53529962589E+03  0.11166820658E+04  0.12699999809E+01 0.  1.
</event>
<event>
 5   0  0.1492552E-05  0.2098451E+04  0.7818609E-02  0.8561926E-01
       -1   -1    0    0    0  501  0.00000000000E+00  0.00000000000E+00  0.11279496572E+04  0.11279496572E+04  0.50400001928E-02 0. -1.
        1   -1    0    0  501    0  0.00000000000E+00  0.00000000000E+00 -0.97599606923E+03  0.97599606924E+03  0.50400001928E-02 0.  1.
    10030    2    1    2    0    0  0.00000000000E+00  0.00000000000E+00  0.15195358793E+03  0.21039457264E+04  0.20984512686E+04 0.  0.
        4    1    3    3  502    0 -0.19926861175E+03  0.82789317620E+03  0.69057261778E+03  0.10963609096E+04  0.12699999809E+01 0. -1.
       -4    1    3    3    0  502  0.19926861175E+03 -0.82789317620E+03 -0.53861902985E+03  0.10075848168E+04  0.12699999809E+01 0.  1.
</event>
<event>
 5   0  0.3242231E-05  0.2100131E+04  0.7818609E-02  0.8561186E-01
        2   -1    0    0  501    0  0.00000000000E+00  0.00000000000E+00  0.23804660018E+04  0.23804660018E+04  0.25500000920E-02 0. -1.
       -2   -1    0    0    0  501  0.00000000000E+00  0.00000000000E+00 -0.46320219712E+03  0.46320219713E+03  0.25500000920E-02 0.  1.
    10030    2    1    2    0    0  0.00000000000E+00  0.00000000000E+00  0.19172638046E+04  0.28436681989E+04  0.21001305504E+04 0.  0.
        4    1    3    3  502    0  0.22141764290E+03  0.49377133032E+03  0.21771203037E+04  0.22433658482E+04  0.12699999809E+01 0. -1.
       -4    1    3    3    0  502 -0.22141764290E+03 -0.49377133032E+03 -0.25985649906E+03  0.60030235068E+03  0.12699999809E+01 0.  1.
</event>
<event>
 5   0  0.1435410E-05  0.2099952E+04  0.7818609E-02  0.8561264E-01
       -1   -1    0    0    0  501  0.00000000000E+00  0.00000000000E+00  0.55704315554E+03  0.55704315556E+03  0.50400001928E-02 0. -1.
        1   -1    0    0  501    0  0.00000000000E+00  0.00000000000E+00 -0.19791101119E+04  0.19791101119E+04  0.50400001928E-02 0.  1.
    10030    2    1    2    0    0  0.00000000000E+00  0.00000000000E+00 -0.14220669563E+04  0.25361532674E+04  0.20999521346E+04 0.  0.
        2    1    3    3  502    0 -0.74208886077E+03  0.10342001554E+03  0.17732464450E+03  0.76995818487E+03  0.25500000920E-02 0. -1.
       -2    1    3    3    0  502  0.74208886077E+03 -0.10342001554E+03 -0.15993916008E+04  0.17661950826E+04  0.25500000920E-02 0.  1.
</event>
<event>
 5   0  0.3130517E-05  0.2115224E+04  0.7818609E-02  0.8554567E-01
        2   -1    0    0  501    0  0.00000000000E+00  0.00000000000E+00  0.17014843202E+04  0.17014843202E+04  0.25500000920E-02 0. -1.
       -2   -1    0    0    0  501  0.00000000000E+00  0.00000000000E+00 -0.65739248599E+03  0.65739248599E+03  0.25500000920E-02 0.  1.
    10030    2    1    2    0    0  0.00000000000E+00  0.00000000000E+00  0.10440918342E+04  0.23588768062E+04  0.21152238720E+04 0.  0.
        1    1    3    3  502    0  0.18239521737E+03  0.37111995431E+03 -0.56350159549E+03  0.69895070209E+03  0.50400001928E-02 0.  1.
       -1    1    3    3    0  502 -0.18239521737E+03 -0.37111995431E+03  0.16075934297E+04  0.16599261041E+04  0.50400001928E-02 0. -1.
</event>
<event>
 5   0  0.1466480E-05  0.2103430E+04  0.7818609E-02  0.8559734E-01
        1   -1    0    0  501    0  0.00000000000E+00  0.00000000000E+00  0.88232997031E+03  0.88232997032E+03  0.50400001928E-02 0. -1.
       -1   -1    0    0    0  501  0.00000000000E+00  0.00000000000E+00 -0.12536177635E+04  0.12536177635E+04  0.50400001928E-02 0.  1.
    10030    2    1    2    0    0  0.00000000000E+00  0.00000000000E+00 -0.37128779321E+03  0.21359477338E+04  0.21034300788E+04 0.  0.
        3    1    3    3  502    0 -0.14761597025E+03 -0.27391642617E+03 -0.12058060300E+04  0.12453067395E+04  0.10100000352E+00 0.  1.
       -3    1    3    3    0  502  0.14761597025E+03  0.27391642617E+03  0.83451823677E+03  0.89064099439E+03  0.10100000352E+00 0. -1.
</event>
<event>
 5   0  0.1513292E-05  0.2100525E+04  0.7818609E-02  0.8561012E-01
       -1   -1    0    0    0  501  0.00000000000E+00  0.00000000000E+00  0.85376676817E+03  0.85376676819E+03  0.50400001928E-02 0. -1.
        1   -1    0    0  501    0  0.00000000000E+00  0.00000000000E+00 -0.12919822539E+04  0.12919822539E+04  0.50400001928E-02 0.  1.
    10030    2    1    2    0    0  0.00000000000E+00  0.00000000000E+00 -0.43821548574E+03  0.21457490221E+04  0.21005251853E+04 0.  0.
        1    1    3    3  502    0 -0.70684025587E+02 -0.73601581383E+03  0.54283022184E+03  0.91726776867E+03  0.50400001928E-02 0. -1.
       -1    1    3    3    0  502  0.70684025587E+02  0.73601581383E+03 -0.98104570758E+03  0.12284812534E+04  0.50400001928E-02 0.  1.
</event>
<event>
 5   0  0.1466480E-05  0.2104710E+04  0.7818609E-02  0.8559172E-01
       -1   -1    0    0    0  501  0.00000000000E+00  0.00000000000E+00  0.47893307943E+03  0.47893307946E+03  0.50400001928E-02 0.  1.
        1   -1    0    0  501    0  0.00000000000E+00  0.00000000000E+00 -0.23123287631E+04  0.23123287631E+04  0.50400001928E-02 0. -1.
    10030    2    1    2    0    0  0.00000000000E+00  0.00000000000E+00 -0.18333956836E+04  0.27912618425E+04  0.21047097046E+04 0.  0.
        3    1    3    3  502    0 -0.39710063225E+03  0.84556888861E+03 -0.15592884327E+04  0.18177062700E+04  0.10100000352E+00 0. -1.
       -3    1    3    3    0  502  0.39710063225E+03 -0.84556888861E+03 -0.27410725090E+03  0.97355557248E+03  0.10100000352E+00 0.  1.
</event>
<event>
 5   0  0.3257130E-05  0.2101354E+04  0.7818609E-02  0.8560647E-01
       -2   -1    0    0    0  501  0.00000000000E+00  0.00000000000E+00  0.77957716716E+03  0.77957716716E+03  0.25500000920E-02 0.  1.
        2   -1    0    0  501    0  0.00000000000E+00  0.00000000000E+00 -0.14160521580E+04  0.14160521580E+04  0.25500000920E-02 0. -1.
    10030    2    1    2    0    0  0.00000000000E+00  0.00000000000E+00 -0.63647499083E+03  0.21956293251E+04  0.21013537826E+04 0.  0.
        3    1    3    3  502    0 -0.50095151567E+03  0.26634373056E+03 -0.12422369111E+04  0.13656661222E+04  0.10100000352E+00 0. -1.
       -3    1    3    3    0  502  0.50095151567E+03 -0.26634373056E+03  0.60576192031E+03  0.82996320290E+03  0.10100000352E+00 0.  1.
</event>
<event>
 5   0  0.3279789E-05  0.2102915E+04  0.7818609E-02  0.8559960E-01
       -2   -1    0    0    0  501  0.00000000000E+00  0.00000000000E+00  0.10997520612E+04  0.10997520612E+04  0.25500000920E-02 0. -1.
        2   -1    0    0  501    0  0.00000000000E+00  0.00000000000E+00 -0.10052836102E+04  0.10052836103E+04  0.25500000920E-02 0.  1.
    10030    2    1    2    0    0  0.00000000000E+00  0.00000000000E+00  0.94468450919E+02  0.21050356714E+04  0.21029148556E+04 0.  0.
        2    1    3    3  502    0  0.69806860214E+03  0.68363238598E+03  0.43609699317E+03  0.10699689715E+04  0.25500000920E-02 0. -1.
       -2    1    3    3    0  502 -0.69806860214E+03 -0.68363238598E+03 -0.34162854225E+03  0.10350666999E+04  0.25500000920E-02 0.  1.
</event>
<event>
 5   0  0.1492552E-05  0.2098574E+04  0.7818609E-02  0.8561872E-01
        1   -1    0    0  501    0  0.00000000000E+00  0.00000000000E+00  0.15552417059E+04  0.15552417059E+04  0.50400001928E-02 0.  1.
       -1   -1    0    0    0  501  0.00000000000E+00  0.00000000000E+00 -0.70793073926E+03  0.70793073928E+03  0.50400001928E-02 0. -1.
    10030    2    1    2    0    0  0.00000000000E+00  0.00000000000E+00  0.84731096662E+03  0.22631724452E+04  0.20985741927E+04 0.  0.
        4    1    3    3  502    0  0.89597419399E+02  0.77836809550E+02 -0.70066783061E+03  0.71064990553E+03  0.12699999809E+01 0. -1.
       -4    1    3    3    0  502 -0.89597419399E+02 -0.77836809550E+02  0.15479787972E+04  0.15525225396E+04  0.12699999809E+01 0.  1.
</event>
<event>
 5   0  0.3130517E-05  0.2096466E+04  0.7818609E-02  0.8562802E-01
        2   -1    0    0  501    0  0.00000000000E+00  0.00000000000E+00  0.77117501974E+03  0.77117501974E+03  0.25500000920E-02 0. -1.
       -2   -1    0    0    0  501  0.00000000000E+00  0.00000000000E+00 -0.14248287266E+04  0.14248287266E+04  0.25500000920E-02 0.  1.
    10030    2    1    2    0    0  0.00000000000E+00  0.00000000000E+00 -0.65365370682E+03  0.21960037463E+04  0.20964659037E+04 0.  0.
        1    1    3    3  502    0 -0.12466544724E+02  0.19439893391E+03  0.75204890952E+03  0.77686802134E+03  0.50400001928E-02 0. -1.
       -1    1    3    3    0  502  0.12466544724E+02 -0.19439893391E+03 -0.14057026163E+04  0.14191357250E+04  0.50400001928E-02 0.  1.
</event>
<event>
 5   0  0.3108326E-05  0.2099598E+04  0.7818609E-02  0.8561420E-01
        2   -1    0    0  501    0  0.00000000000E+00  0.00000000000E+00  0.16372467115E+04  0.16372467115E+04  0.25500000920E-02 0. -1.
       -2   -1    0    0    0  501  0.00000000000E+00  0.00000000000E+00 -0.67312893142E+03  0.67312893143E+03  0.25500000920E-02 0.  1.
    10030    2    1    2    0    0  0.00000000000E+00  0.00000000000E+00  0.96411778010E+03  0.23103756430E+04  0.20995981800E+04 0.  0.
        5    1    3    3  502    0  0.23409651502E+03 -0.37028269839E+03  0.15318474674E+04  0.15932636971E+04  0.46999998093E+01 0. -1.
       -5    1    3    3    0  502 -0.23409651502E+03  0.37028269839E+03 -0.56772968730E+03  0.71711194587E+03  0.46999998093E+01 0.  1.
</event>
<event>
 5   0  0.1492552E-05  0.2096566E+04  0.7818609E-02  0.8562758E-01
       -1   -1    0    0    0  501  0.00000000000E+00  0.00000000000E+00  0.82173741921E+03  0.82173741922E+03  0.50400001928E-02 0. -1.
        1   -1    0    0  501    0  0.00000000000E+00  0.00000000000E+00 -0.13372850937E+04  0.13372850937E+04  0.50400001928E-02 0.  1.
    10030    2    1    2    0    0  0.00000000000E+00  0.00000000000E+00 -0.51554767451E+03  0.21590225129E+04  0.20965659557E+04 0.  0.
        4    1    3    3  502    0  0.54148175275E+03 -0.87675830583E+03 -0.45582569009E+03  0.11268035712E+04  0.12699999809E+01 0.  1.
       -4    1    3    3    0  502 -0.54148175275E+03  0.87675830583E+03 -0.59721984416E+02  0.10322189418E+04  0.12699999809E+01 0. -1.
</event>
<event>
 5   0  0.3130517E-05  0.2101527E+04  0.7818609E-02  0.8560571E-01
        2   -1    0    0  501    0  0.00000000000E+00  0.00000000000E+00  0.19323607590E+04  0.19323607590E+04  0.25500000920E-02 0. -1.
       -2   -1    0    0    0  501  0.00000000000E+00  0.00000000000E+00 -0.57137572273E+03  0.57137572273E+03  0.25500000920E-02 0.  1.
    10030    2    1    2    0    0  0.00000000000E+00  0.00000000000E+00  0.13609850363E+04  0.25037364818E+04  0.21015270879E+04 0.  0.
        1    1    3    3  502    0  0.34846983134E+02  0.95685366860E+03  0.16485252705E+03  0.97157583906E+03  0.50400001928E-02 0.  1.
       -1    1    3    3    0  502 -0.34846983134E+02 -0.95685366860E+03  0.11961325092E+04  0.15321606427E+04  0.50400001928E-02 0. -1.
</event>
<event>
 5   0  0.1513292E-05  0.2164696E+04  0.7818609E-02  0.8533268E-01
       -1   -1    0    0    0  501  0.00000000000E+00  0.00000000000E+00  0.63378402449E+03  0.63378402451E+03  0.50400001928E-02 0.  1.
        1   -1    0    0  501    0  0.00000000000E+00  0.00000000000E+00 -0.18483851245E+04  0.18483851246E+04  0.50400001928E-02 0. -1.
    10030    2    1    2    0    0  0.00000000000E+00  0.00000000000E+00 -0.12146011000E+04  0.24821691491E+04  0.21646957875E+04 0.  0.
        1    1    3    3  502    0 -0.79370025151E+03 -0.23950852184E+03 -0.14051585602E+04  0.16315008430E+04  0.50400001928E-02 0. -1.
       -1    1    3    3    0  502  0.79370025151E+03  0.23950852184E+03  0.19055746019E+03  0.85066830606E+03  0.50400001928E-02 0.  1.
</event>
<event>
 5   0  0.3130517E-05  0.2104014E+04  0.7818609E-02  0.8559477E-01
       -2   -1    0    0    0  501  0.00000000000E+00  0.00000000000E+00  0.78153721177E+03  0.78153721178E+03  0.25500000920E-02 0.  1.
        2   -1    0    0  501    0  0.00000000000E+00  0.00000000000E+00 -0.14160788960E+04  0.14160788960E+04  0.25500000920E-02 0. -1.
    10030    2    1    2    0    0  0.00000000000E+00  0.00000000000E+00 -0.63454168422E+03  0.21976161078E+04  0.21040136426E+04 0.  0.
        1    1    3    3  502    0  0.68826905140E+03  0.54191031830E+03  0.29117098261E+03  0.92312600512E+03  0.50400001928E-02 0.  1.
       -1    1    3    3    0  502 -0.68826905140E+03 -0.54191031830E+03 -0.92571266683E+03  0.12744901027E+04  0.50400001928E-02 0. -1.
</event>
<event>
 5   0  0.1492552E-05  0.2101024E+04  0.7818609E-02  0.8560792E-01
        1   -1    0    0  501    0  0.00000000000E+00  0.00000000000E+00  0.10252901416E+04  0.10252901417E+04  0.50400001928E-02 0.  1.
       -1   -1    0    0    0  501  0.00000000000E+00  0.00000000000E+00 -0.10763541813E+04  0.10763541813E+04  0.50400001928E-02 0. -1.
    10030    2    1    2    0    0  0.00000000000E+00  0.00000000000E+00 -0.51064039612E+02  0.21016443229E+04  0.21010238751E+04 0.  0.
        4    1    3    3  502    0  0.43798137945E+03  0.15460802267E+03  0.91700012226E+03  0.10279212842E+04  0.12699999809E+01 0.  1.
       -4    1    3    3    0  502 -0.43798137945E+03 -0.15460802267E+03 -0.96806416187E+03  0.10737230387E+04  0.12699999809E+01 0. -1.
</event>
<event>
 5   0  0.3279789E-05  0.2077937E+04  0.7818609E-02  0.8571025E-01
        2   -1    0    0  501    0  0.00000000000E+00  0.00000000000E+00  0.10443722532E+04  0.10443722533E+04  0.25500000920E-02 0. -1.
       -2   -1    0    0    0  501  0.00000000000E+00  0.00000000000E+00 -0.10335931835E+04  0.10335931835E+04  0.25500000920E-02 0.  1.
    10030    2    1    2    0    0  0.00000000000E+00  0.00000000000E+00  0.10779069742E+02  0.20779654368E+04  0.20779374793E+04 0.  0.
        2    1    3    3  502    0  0.36597880202E+03 -0.79978234917E+03 -0.54766740878E+03  0.10361138355E+04  0.25500000920E-02 0.  1.
       -2    1    3    3    0  502 -0.36597880202E+03  0.79978234917E+03  0.55844647852E+03  0.10418516012E+04  0.25500000920E-02 0. -1.
</event>
<event>
 5   0  0.3279789E-05  0.2100671E+04  0.7818609E-02  0.8560948E-01
       -2   -1    0    0    0  501  0.00000000000E+00  0.00000000000E+00  0.10582520344E+04  0.10582520344E+04  0.25500000920E-02 0.  1.
        2   -1    0    0  501    0  0.00000000000E+00  0.00000000000E+00 -0.10424786160E+04  0.10424786160E+04  0.25500000920E-02 0. -1.
    10030    2    1    2    0    0  0.00000000000E+00  0.00000000000E+00  0.15773418395E+02  0.21007306505E+04  0.21006714320E+04 0.  0.
        2    1    3    3  502    0  0.10227714539E+04  0.11282165254E+03  0.21864118286E+03  0.10519477835E+04  0.25500000920E-02 0.  1.
       -2    1    3    3    0  502 -0.10227714539E+04 -0.11282165254E+03 -0.20286776446E+03  0.10487828670E+04  0.25500000920E-02 0. -1.
</event>
<event>
 5   0  0.1492552E-05  0.2099042E+04  0.7818609E-02  0.8561665E-01
        1   -1    0    0  501    0  0.00000000000E+00  0.00000000000E+00  0.10361962591E+04  0.10361962592E+04  0.50400001928E-02 0. -1.
       -1   -1    0    0    0  501  0.00000000000E+00  0.00000000000E+00 -0.10630171568E+04  0.10630171568E+04  0.50400001928E-02 0.  1.
    10030    2    1    2    0    0  0.00000000000E+00  0.00000000000E+00 -0.26820897660E+02  0.20992134160E+04  0.20990420685E+04 0.  0.
        4    1    3    3  502    0 -0.14199942628E+03  0.68525800075E+03  0.76879815747E+03  0.10396127089E+04  0.12699999809E+01 0. -1.
       -4    1    3    3    0  502  0.14199942628E+03 -0.68525800075E+03 -0.79561905513E+03  0.10596007071E+04  0.12699999809E+01 0.  1.
</event>
<event>
 5   0  0.1453430E-05  0.2097443E+04  0.7818609E-02  0.8562371E-01
       -1   -1    0    0    0  501  0.00000000000E+00  0.00000000000E+00  0.38780007388E+03  0.38780007391E+03  0.50400001928E-02 0. -1.
        1   -1    0    0  501    0  0.00000000000E+00  0.00000000000E+00 -0.28360407406E+04  0.28360407406E+04  0.50400001928E-02 0.  1.
    10030    2    1    2    0    0  0.00000000000E+00  0.00000000000E+00 -0.24482406668E+04  0.32238408145E+04  0.20974430231E+04 0.  0.
        5    1    3    3  502    0 -0.36235895280E+03  0.10749892952E+03 -0.27276934984E+04  0.27537599644E+04  0.46999998093E+01 0.  1.
       -5    1    3    3    0  502  0.36235895280E+03 -0.10749892952E+03  0.27945283165E+03  0.47008085010E+03  0.46999998093E+01 0. -1.
</event>
<event>
 5   0  0.1435410E-05  0.2065984E+04  0.7818609E-02  0.8576378E-01
        1   -1    0    0  501    0  0.00000000000E+00  0.00000000000E+00  0.14434255822E+04  0.14434255822E+04  0.50400001928E-02 0. -1.
       -1   -1    0    0    0  501  0.00000000000E+00  0.00000000000E+00 -0.73926369620E+03  0.73926369622E+03  0.50400001928E-02 0.  1.
    10030    2    1    2    0    0  0.00000000000E+00  0.00000000000E+00  0.70416188601E+03  0.21826892784E+04  0.20659836700E+04 0.  0.
        2    1    3    3  502    0  0.71892891197E+03 -0.49007950261E+03 -0.23618092176E+03  0.90156426679E+03  0.25500000920E-02 0.  1.
       -2    1    3    3    0  502 -0.71892891197E+03  0.49007950261E+03  0.94034280777E+03  0.12811250117E+04  0.25500000920E-02 0. -1.
</event>
<event>
 5   0  0.3257130E-05  0.2105221E+04  0.7818609E-02  0.8558947E-01
        2   -1    0    0  501    0  0.00000000000E+00  0.00000000000E+00  0.15850759120E+04  0.15850759120E+04  0.25500000920E-02 0. -1.
       -2   -1    0    0    0  501  0.00000000000E+00  0.00000000000E+00 -0.69901303926E+03  0.69901303926E+03  0.25500000920E-02 0.  1.
    10030    2    1    2    0    0  0.00000000000E+00  0.00000000000E+00  0.88606287279E+03  0.22840889513E+04  0.21052208727E+04 0.  0.
        3    1    3    3  502    0  0.18971325216E+03 -0.46986417803E+02  0.15652167694E+04  0.15773719875E+04  0.10100000352E+00 0. -1.
       -3    1    3    3    0  502 -0.18971325216E+03  0.46986417803E+02 -0.67915389660E+03  0.70671696383E+03  0.10100000352E+00 0.  1.
</event>
<event>
 5   0  0.1435410E-05  0.2104674E+04  0.7818609E-02  0.8559187E-01
       -1   -1    0    0    0  501  0.00000000000E+00  0.00000000000E+00  0.85525802525E+03  0.85525802526E+03  0.50400001928E-02 0.  1.
        1   -1    0    0  501    0  0.00000000000E+00  0.00000000000E+00 -0.12948298093E+04  0.12948298093E+04  0.50400001928E-02 0. -1.
    10030    2    1    2    0    0  0.00000000000E+00  0.00000000000E+00 -0.43957178408E+03  0.21500878346E+04  0.21046744031E+04 0.  0.
        2    1    3    3  502    0  0.14041648282E+03 -0.35220608587E+02 -0.12846088722E+04  0.12927402037E+04  0.25500000920E-02 0. -1.
       -2    1    3    3    0  502 -0.14041648282E+03  0.35220608587E+02  0.84503708808E+03  0.85734763086E+03  0.25500000920E-02 0.  1.
</event>
<event>
 5   0  0.1513292E-05  0.2107067E+04  0.7818609E-02  0.8558137E-01
       -1   -1    0    0    0  501  0.00000000000E+00  0.00000000000E+00  0.99408974926E+03  0.99408974928E+03  0.50400001928E-02 0. -1.
        1   -1    0    0  501    0  0.00000000000E+00  0.00000000000E+00 -0.11165313709E+04  0.11165313709E+04  0.50400001928E-02 0.  1.
    10030    2    1    2    0    0  0.00000000000E+00  0.00000000000E+00 -0.12244162167E+03  0.21106211202E+04  0.21070665776E+04 0.  0.
        1    1    3    3  502    0  0.70713925509E+02 -0.89489382102E+03  0.49115935384E+03  0.10232658115E+04  0.50400001928E-02 0. -1.
       -1    1    3    3    0  502 -0.70713925509E+02  0.89489382102E+03 -0.61360097550E+03  0.10873553087E+04  0.50400001928E-02 0.  1.
</event>
<event>
 5   0  0.3130517E-05  0.2106923E+04  0.7818609E-02  0.8558200E-01
       -2   -1    0    0    0  501  0.00000000000E+00  0.00000000000E+00  0.11404591348E+04  0.11404591348E+04  0.25500000920E-02 0. -1.
        2   -1    0    0  501    0  0.00000000000E+00  0.00000000000E+00 -0.97310062331E+03  0.97310062331E+03  0.25500000920E-02 0.  1.
    10030    2    1    2    0    0  0.00000000000E+00  0.00000000000E+00  0.16735851150E+03  0.21135597581E+04  0.21069233445E+04 0.  0.
        1    1    3    3  502    0  0.38830486852E+03 -0.36178652418E+03  0.99655183274E+03  0.11290640882E+04  0.50400001928E-02 0. -1.
       -1    1    3    3    0  502 -0.38830486852E+03  0.36178652418E+03 -0.82919332124E+03  0.98449566988E+03  0.50400001928E-02 0.  1.
</event>
<event>
 5   0  0.1453430E-05  0.2094747E+04  0.7818609E-02  0.8563561E-01
       -1   -1    0    0    0  501  0.00000000000E+00  0.00000000000E+00  0.53848716423E+03  0.53848716425E+03  0.50400001928E-02 0.  1.
        1   -1    0    0  501    0  0.00000000000E+00  0.00000000000E+00 -0.20371720841E+04  0.20371720841E+04  0.50400001928E-02 0. -1.
    10030    2    1    2    0    0  0.00000000000E+00  0.00000000000E+00 -0.14986849198E+04  0.25756592483E+04  0.20947467805E+04 0.  0.
        5    1    3    3  502    0 -0.61432829516E+03 -0.82699946515E+03 -0.51721034859E+03  0.11527601677E+04  0.46999998093E+01 0.  1.
       -5    1    3    3    0  502  0.61432829516E+03  0.82699946515E+03 -0.98147457124E+03  0.14228990806E+04  0.46999998093E+01 0. -1.
</event>
<event>
 5   0  0.1453430E-05  0.2103574E+04  0.7818609E-02  0.8559671E-01
       -1   -1    0    0    0  501  0.00000000000E+00  0.00000000000E+00  0.66880095497E+03  0.66880095499E+03  0.50400001928E-02 0. -1.
        1   -1    0    0  501    0  0.00000000000E+00  0.00000000000E+00 -0.16540888628E+04  0.16540888628E+04  0.50400001928E-02 0.  1.
    10030    2    1    2    0    0  0.00000000000E+00  0.00000000000E+00 -0.98528790780E+03  0.23228898178E+04  0.21035743021E+04 0.  0.
        5    1    3    3  502    0  0.84805145710E+02  0.24005739669E+03  0.63424882499E+03  0.68345674951E+03  0.46999998093E+01 0. -1.
       -5    1    3    3    0  502 -0.84805145710E+02 -0.24005739669E+03 -0.16195367328E+04  0.16394330683E+04  0.46999998093E+01 0.  1.
</event>
<event>
 5   0  0.3279789E-05  0.2104156E+04  0.7818609E-02  0.8559415E-01
        2   -1    0    0  501    0  0.00000000000E+00  0.00000000000E+00  0.18473153270E+04  0.18473153270E+04  0.25500000920E-02 0. -1.
       -2   -1    0    0    0  501  0.00000000000E+00  0.00000000000E+00 -0.59917662452E+03  0.59917662453E+03  0.25500000920E-02 0.  1.
    10030    2    1    2    0    0  0.00000000000E+00  0.00000000000E+00  0.12481387025E+04  0.24464919515E+04  0.21041560418E+04 0.  0.
        2    1    3    3  502    0  0.95927021551E+03  0.26950412085E+03  0.23143572450E+03  0.10229341680E+04  0.25500000920E-02 0.  1.
       -2    1    3    3    0  502 -0.95927021551E+03 -0.26950412085E+03  0.10167029780E+04  0.14235577835E+04  0.25500000920E-02 0. -1.
</event>
<event>
 5   0  0.3279789E-05  0.2098875E+04  0.7818609E-02  0.8561739E-01
       -2   -1    0    0    0  501  0.00000000000E+00  0.00000000000E+00  0.72312937984E+03  0.72312937984E+03  0.25500000920E-02 0.  1.
        2   -1    0    0  501    0  0.00000000000E+00  0.00000000000E+00 -0.15229909298E+04  0.15229909298E+04  0.25500000920E-02 0. -1.
    10030    2    1    2    0    0  0.00000000000E+00  0.00000000000E+00 -0.79986154993E+03  0.22461203096E+04  0.20988754004E+04 0.  0.
        2    1    3    3  502    0  0.28658910996E+01  0.27468303687E+03  0.68397245839E+03  0.73707347525E+03  0.25500000920E-02 0.  1.
       -2    1    3    3    0  502 -0.28658910996E+01 -0.27468303687E+03 -0.14838340083E+04  0.15090468344E+04  0.25500000920E-02 0. -1.
</event>
<event>
 5   0  0.1466480E-05  0.2081318E+04  0.7818609E-02  0.8569518E-01
        1   -1    0    0  501    0  0.00000000000E+00  0.00000000000E+00  0.13368036402E+04  0.13368036402E+04  0.50400001928E-02 0. -1.
       -1   -1    0    0    0  501  0.00000000000E+00  0.00000000000E+00 -0.81012013318E+03  0.81012013320E+03  0.50400001928E-02 0.  1.
    10030    2    1    2    0    0  0.00000000000E+00  0.00000000000E+00  0.52668350702E+03  0.21469237734E+04  0.20813183736E+04 0.  0.
        3    1    3    3  502    0  0.67572632187E+02  0.81924163172E+03 -0.39493408991E+03  0.91197360562E+03  0.10100000352E+00 0.  1.
       -3    1    3    3    0  502 -0.67572632187E+02 -0.81924163172E+03  0.92161759693E+03  0.12349501678E+04  0.10100000352E+00 0. -1.
</event>
<event>
 5   0  0.3108326E-05  0.2105075E+04  0.7818609E-02  0.8559011E-01
        2   -1    0    0  501    0  0.00000000000E+00  0.00000000000E+00  0.14562176844E+04  0.14562176844E+04  0.25500000920E-02 0. -1.
       -2   -1    0    0    0  501  0.00000000000E+00  0.00000000000E+00 -0.76076175708E+03  0.76076175708E+03  0.25500000920E-02 0.  1.
    10030    2    1    2    0    0  0.00000000000E+00  0.00000000000E+00  0.69545592729E+03  0.22169794415E+04  0.21050745585E+04 0.  0.
        5    1    3    3  502    0  0.97885112188E+03 -0.35597283896E+03  0.50726149123E+03  0.11585346311E+04  0.46999998093E+01 0.  1.
       -5    1    3    3    0  502 -0.97885112188E+03  0.35597283896E+03  0.18819443606E+03  0.10584448104E+04  0.46999998093E+01 0. -1.
</event>
<event>
 5   0  0.1492552E-05  0.2098241E+04  0.7818609E-02  0.8562018E-01
        1   -1    0    0  501    0  0.00000000000E+00  0.00000000000E+00  0.13453313360E+04  0.13453313360E+04  0.50400001928E-02 0.  1.
       -1   -1    0    0    0  501  0.00000000000E+00  0.00000000000E+00 -0.81812880443E+03  0.81812880445E+03  0.50400001928E-02 0. -1.
    10030    2    1    2    0    0  0.00000000000E+00  0.00000000000E+00  0.52720253156E+03  0.21634601404E+04  0.20982414709E+04 0.  0.
        4    1    3    3  502    0 -0.72099699840E+02 -0.37629070021E+03 -0.74341310875E+03  0.83633589002E+03  0.12699999809E+01 0. -1.
       -4    1    3    3    0  502  0.72099699840E+02  0.37629070021E+03  0.12706156403E+04  0.13271242504E+04  0.12699999809E+01 0.  1.
</event>
<event>
 5   0  0.3279789E-05  0.2095204E+04  0.7818609E-02  0.8563359E-01
        2   -1    0    0  501    0  0.00000000000E+00  0.00000000000E+00  0.18789032784E+04  0.18789032784E+04  0.25500000920E-02 0. -1.
       -2   -1    0    0    0  501  0.00000000000E+00  0.00000000000E+00 -0.58410158968E+03  0.58410158968E+03  0.25500000920E-02 0.  1.
    10030    2    1    2    0    0  0.00000000000E+00  0.00000000000E+00  0.12948016887E+04  0.24630048681E+04  0.20952044213E+04 0.  0.
        2    1    3    3  502    0 -0.85349162575E+03  0.24570809588E+03  0.13004892693E+04  0.15748310268E+04  0.25500000920E-02 0. -1.
       -2    1    3    3    0  502  0.85349162575E+03 -0.24570809588E+03 -0.56875805899E+01  0.88817384120E+03  0.25500000920E-02 0.  1.
</event>
<event>
 5   0  0.1453430E-05  0.2111994E+04  0.7818609E-02  0.8555978E-01
        1   -1    0    0  501    0  0.00000000000E+00  0.00000000000E+00  0.14711787946E+04  0.14711787947E+04  0.50400001928E-02 0. -1.
       -1   -1    0    0    0  501  0.00000000000E+00  0.00000000000E+00 -0.75798357602E+03  0.75798357603E+03  0.50400001928E-02 0.  1.
    10030    2    1    2    0    0  0.00000000000E+00  0.00000000000E+00  0.71319521863E+03  0.22291623707E+04  0.21119937157E+04 0.  0.
        5    1    3    3  502    0 -0.70093191885E+03  0.58266204809E+03  0.91938271587E+03  0.12946378974E+04  0.46999998093E+01 0.  1.
       -5    1    3    3    0  502  0.70093191885E+03 -0.58266204809E+03 -0.20618749723E+03  0.93452447329E+03  0.46999998093E+01 0. -1.
</event>
<event>
 5   0  0.1453430E-05  0.2098607E+04  0.7818609E-02  0.8561857E-01
       -1   -1    0    0    0  501  0.00000000000E+00  0.00000000000E+00  0.99489823856E+03  0.99489823857E+03  0.50400001928E-02 0. -1.
        1   -1    0    0  501    0  0.00000000000E+00  0.00000000000E+00 -0.11066834114E+04  0.11066834114E+04  0.50400001928E-02 0.  1.
    10030    2    1    2    0    0  0.00000000000E+00  0.00000000000E+00 -0.11178517288E+03  0.21015816500E+04  0.20986065631E+04 0.  0.
        5    1    3    3  502    0 -0.28830942007E+03  0.99578081506E+03  0.10655184387E+03  0.10421502477E+04  0.46999998093E+01 0. -1.
       -5    1    3    3    0  502  0.28830942007E+03 -0.99578081506E+03 -0.21833701675E+03  0.10594314023E+04  0.46999998093E+01 0.  1.
</event>
<event>
 5   0  0.1435410E-05  0.2097739E+04  0.7818609E-02  0.8562240E-01
        1   -1    0    0  501    0  0.00000000000E+00  0.00000000000E+00  0.14547362299E+04  0.14547362299E+04  0.50400001928E-02 0. -1.
       -1   -1    0    0    0  501  0.00000000000E+00  0.00000000000E+00 -0.75623852789E+03  0.75623852790E+03  0.50400001928E-02 0.  1.
    10030    2    1    2    0    0  0.00000000000E+00  0.00000000000E+00  0.69849770205E+03  0.22109747578E+04  0.20977393404E+04 0.  0.
        2    1    3    3  502    0  0.91483972536E+02 -0.45218805052E+03  0.13420531384E+04  0.14191370535E+04  0.25500000920E-02 0. -1.
       -2    1    3    3    0  502 -0.91483972536E+02  0.45218805052E+03 -0.64355543640E+03  0.79183770433E+03  0.25500000920E-02 0.  1.
</event>
<event>
 5   0  0.1453430E-05  0.2099156E+04  0.7818609E-02  0.8561615E-01
        1   -1    0    0  501    0  0.00000000000E+00  0.00000000000E+00  0.13944803918E+04  0.13944803918E+04  0.50400001928E-02 0. -1.
       -1   -1    0    0    0  501  0.00000000000E+00  0.00000000000E+00 -0.78998201587E+03  0.78998201589E+03  0.50400001928E-02 0.  1.
    10030    2    1    2    0    0  0.00000000000E+00  0.00000000000E+00  0.60449837591E+03  0.21844624077E+04  0.20991564315E+04 0.  0.
        5    1    3    3  502    0  0.10174153165E+04 -0.25377469930E+03  0.25505401502E+03  0.10791710544E+04  0.46999998093E+01 0.  1.
       -5    1    3    3    0  502 -0.10174153165E+04  0.25377469930E+03  0.34944436089E+03  0.11052913532E+04  0.46999998093E+01 0. -1.
</event>
<event>
 5   0  0.3279789E-05  0.2091081E+04  0.7818609E-02  0.8565183E-01
        2   -1    0    0  501    0  0.00000000000E+00  0.00000000000E+00  0.10888367265E+04  0.10888367265E+04  0.25500000920E-02 0. -1.
       -2   -1    0    0    0  501  0.00000000000E+00  0.00000000000E+00 -0.10039657187E+04  0.10039657187E+04  0.25500000920E-02 0.  1.
    10030    2    1    2    0    0  0.00000000000E+00  0.00000000000E+00  0.84871007847E+02  0.20928024452E+04  0.20910808178E+04 0.  0.
        2    1    3    3  502    0  0.76250251005E+03  0.10788034868E+03  0.75019982414E+03  0.10751037269E+04  0.25500000920E-02 0. -1.
       -2    1    3    3    0  502 -0.76250251005E+03 -0.10788034868E+03 -0.66532881629E+03  0.10176987183E+04  0.25500000920E-02 0.  1.
</event>
<event>
 5   0  0.3279789E-05  0.2099947E+04  0.7818609E-02  0.8561267E-01
        2   -1    0    0  501    0  0.00000000000E+00  0.00000000000E+00  0.89782469951E+03  0.89782469951E+03  0.25500000920E-02 0.  1.
       -2   -1    0    0    0  501  0.00000000000E+00  0.00000000000E+00 -0.12279065226E+04  0.12279065226E+04  0.25500000920E-02 0. -1.
    10030    2    1    2    0    0  0.00000000000E+00  0.00000000000E+00 -0.33008182309E+03  0.21257312221E+04  0.20999474324E+04 0.  0.
        2    1    3    3  502    0  0.42050960460E+03  0.17791706896E+03  0.79206380371E+03  0.91424716579E+03  0.25500000920E-02 0.  1.
       -2    1    3    3    0  502 -0.42050960460E+03 -0.17791706896E+03 -0.11221456268E+04  0.12114840563E+04  0.25500000920E-02 0. -1.
</event>
<event>
 5   0  0.1492552E-05  0.2123000E+04  0.7818609E-02  0.8551179E-01
        1   -1    0    0  501    0  0.00000000000E+00  0.00000000000E+00  0.12898823543E+04  0.12898823543E+04  0.50400001928E-02 0. -1.
       -1   -1    0    0    0  501  0.00000000000E+00  0.00000000000E+00 -0.87355459896E+03  0.87355459897E+03  0.50400001928E-02 0.  1.
    10030    2    1    2    0    0  0.00000000000E+00  0.00000000000E+00  0.41632775536E+03  0.21634369533E+04  0.21230003888E+04 0.  0.
        4    1    3    3  502    0 -0.74348505878E+03 -0.65423321140E+03  0.59752771069E+03  0.11566469234E+04  0.12699999809E+01 0. -1.
       -4    1    3    3    0  502  0.74348505878E+03  0.65423321140E+03 -0.18119995533E+03  0.10067900299E+04  0.12699999809E+01 0.  1.
</event>
<event>
 5   0  0.3242231E-05  0.2094013E+04  0.7818609E-02  0.8563885E-01
       -2   -1    0    0    0  501  0.00000000000E+00  0.00000000000E+00  0.53703638034E+03  0.53703638035E+03  0.25500000920E-02 0.  1.
        2   -1    0    0  501    0  0.00000000000E+00  0.00000000000E+00 -0.20412439581E+04  0.20412439581E+04  0.25500000920E-02 0. -1.
    10030    2    1    2    0    0  0.00000000000E+00  0.00000000000E+00 -0.15042075778E+04  0.25782803385E+04  0.20940126711E+04 0.  0.
        4    1    3    3  502    0  0.53245257195E+03  0.20045498690E+03 -0.18343081261E+04  0.19205144773E+04  0.12699999809E+01 0. -1.
       -4    1    3    3    0  502 -0.53245257195E+03 -0.20045498690E+03  0.33010054836E+03  0.65776586114E+03  0.12699999809E+01 0.  1.
</event>
<event>
 5   0  0.1129987E-05  0.2103348E+04  0.7818609E-02  0.8559770E-01
        3   -1    0    0  501    0  0.00000000000E+00  0.00000000000E+00  0.82926951684E+03  0.82926952299E+03  0.10100000352E+00 0. -1.
       -3   -1    0    0    0  501  0.00000000000E+00  0.00000000000E+00 -0.13337261176E+04  0.13337261214E+04  0.10100000352E+00 0.  1.
    10030    2    1    2    0    0  0.00000000000E+00  0.00000000000E+00 -0.50445660072E+03  0.21629956444E+04  0.21033482107E+04 0.  0.
        4    1    3    3  502    0 -0.10327709704E+02  0.61100008025E+03  0.62795815341E+03  0.87621961573E+03  0.12699999809E+01 0. -1.
       -4    1    3    3    0  502  0.10327709704E+02 -0.61100008025E+03 -0.11324147541E+04  0.12867760287E+04  0.12699999809E+01 0.  1.
</event>
<event>
 5   0  0.1453430E-05  0.2143604E+04  0.7818609E-02  0.8542275E-01
       -1   -1    0    0    0  501  0.00000000000E+00  0.00000000000E+00  0.70511467359E+03  0.70511467361E+03  0.50400001928E-02 0. -1.
        1   -1    0    0  501    0  0.00000000000E+00  0.00000000000E+00 -0.16291809725E+04  0.16291809725E+04  0.50400001928E-02 0.  1.
    10030    2    1    2    0    0  0.00000000000E+00  0.00000000000E+00 -0.92406629886E+03  0.23342956461E+04  0.21436038903E+04 0.  0.
        5    1    3    3  502    0  0.12264083951E+03 -0.52992689030E+03  0.54363285600E+03  0.76903969774E+03  0.46999998093E+01 0. -1.
       -5    1    3    3    0  502 -0.12264083951E+03  0.52992689030E+03 -0.14676991549E+04  0.15652559483E+04  0.46999998093E+01 0.  1.
</event>
<event>
 5   0  0.1466480E-05  0.2079448E+04  0.7818609E-02  0.8570351E-01
        1   -1    0    0  501    0  0.00000000000E+00  0.00000000000E+00  0.68147714171E+03  0.68147714173E+03  0.50400001928E-02 0.  1.
       -1   -1    0    0    0  501  0.00000000000E+00  0.00000000000E+00 -0.15862983493E+04  0.15862983493E+04  0.50400001928E-02 0. -1.
    10030    2    1    2    0    0  0.00000000000E+00  0.00000000000E+00 -0.90482120763E+03  0.22677754911E+04  0.20794480662E+04 0.  0.
        3    1    3    3  502    0  0.85164308980E+03  0.19102816532E+03  0.16377209858E+03  0.88803661120E+03  0.10100000352E+00 0.  1.
       -3    1    3    3    0  502 -0.85164308980E+03 -0.19102816532E+03 -0.10685933062E+04  0.13797388799E+04  0.10100000352E+00 0. -1.
</event>
<event>
 5   0  0.3279789E-05  0.2089966E+04  0.7818609E-02  0.8565676E-01
        2   -1    0    0  501    0  0.00000000000E+00  0.00000000000E+00  0.11686006614E+04  0.11686006614E+04  0.25500000920E-02 0.  1.
       -2   -1    0    0    0  501  0.00000000000E+00  0.00000000000E+00 -0.93444224723E+03  0.93444224724E+03  0.25500000920E-02 0. -1.
    10030    2    1    2    0    0  0.00000000000E+00  0.00000000000E+00  0.23415841419E+03  0.21030429087E+04  0.20899663425E+04 0.  0.
        2    1    3    3  502    0  0.91580301412E+03 -0.38448046930E+03 -0.20971334793E+03  0.10151354985E+04  0.25500000920E-02 0. -1.
       -2    1    3    3    0  502 -0.91580301412E+03  0.38448046930E+03  0.44387176211E+03  0.10879074102E+04  0.25500000920E-02 0.  1.
</event>
<event>
 5   0  0.1513292E-05  0.2105199E+04  0.7818609E-02  0.8558957E-01
        1   -1    0    0  501    0  0.00000000000E+00  0.00000000000E+00  0.99255938604E+03  0.99255938605E+03  0.50400001928E-02 0. -1.
       -1   -1    0    0    0  501  0.00000000000E+00  0.00000000000E+00 -0.11162716327E+04  0.11162716327E+04  0.50400001928E-02 0.  1.
    10030    2    1    2    0    0  0.00000000000E+00  0.00000000000E+00 -0.12371224668E+03  0.21088310188E+04  0.21051991701E+04 0.  0.
        1    1    3    3  502    0 -0.92457682337E+02 -0.67746301305E+03  0.73981279735E+03  0.10073864860E+04  0.50400001928E-02 0. -1.
       -1    1    3    3    0  502  0.92457682337E+02  0.67746301305E+03 -0.86352504403E+03  0.11014445328E+04  0.50400001928E-02 0.  1.
</event>
<event>
 5   0  0.3279789E-05  0.2077337E+04  0.7818609E-02  0.8571293E-01
       -2   -1    0    0    0  501  0.00000000000E+00  0.00000000000E+00  0.92083772607E+03  0.92083772607E+03  0.25500000920E-02 0. -1.
        2   -1    0    0  501    0  0.00000000000E+00  0.00000000000E+00 -0.11715770580E+04  0.11715770580E+04  0.25500000920E-02 0.  1.
    10030    2    1    2    0    0  0.00000000000E+00  0.00000000000E+00 -0.25073933189E+03  0.20924147840E+04  0.20773370973E+04 0.  0.
        2    1    3    3  502    0 -0.59420345398E+03  0.58504240888E+03  0.49838262853E+03  0.97146158407E+03  0.25500000920E-02 0. -1.
       -2    1    3    3    0  502  0.59420345398E+03 -0.58504240888E+03 -0.74912196042E+03  0.11209532000E+04  0.25500000920E-02 0.  1.
</event>
<event>
 5   0  0.3279789E-05  0.2113225E+04  0.7818609E-02  0.8555440E-01
       -2   -1    0    0    0  501  0.00000000000E+00  0.00000000000E+00  0.10615295758E+04  0.10615295758E+04  0.25500000920E-02 0.  1.
        2   -1    0    0  501    0  0.00000000000E+00  0.00000000000E+00 -0.10517186246E+04  0.10517186246E+04  0.25500000920E-02 0. -1.
    10030    2    1    2    0    0  0.00000000000E+00  0.00000000000E+00  0.98109512136E+01  0.21132482003E+04  0.21132254261E+04 0.  0.
        2    1    3    3  502    0 -0.12594748544E+03  0.78807399699E+03  0.69737740059E+03  0.10598389654E+04  0.25500000920E-02 0.  1.
       -2    1    3    3    0  502  0.12594748544E+03 -0.78807399699E+03 -0.68756644937E+03  0.10534092349E+04  0.25500000920E-02 0. -1.
</event>
<event>
 5   0  0.1466480E-05  0.2104651E+04  0.7818609E-02  0.8559197E-01
       -1   -1    0    0    0  501  0.00000000000E+00  0.00000000000E+00  0.54392636000E+03  0.54392636002E+03  0.50400001928E-02 0.  1.
        1   -1    0    0  501    0  0.00000000000E+00  0.00000000000E+00 -0.20359166803E+04  0.20359166803E+04  0.50400001928E-02 0. -1.
    10030    2    1    2    0    0  0.00000000000E+00  0.00000000000E+00 -0.14919903203E+04  0.25798430403E+04  0.21046508016E+04 0.  0.
        3    1    3    3  502    0  0.19730245847E+03  0.37212240134E+03  0.43609689785E+03  0.60628694214E+03  0.10100000352E+00 0.  1.
       -3    1    3    3    0  502 -0.19730245847E+03 -0.37212240134E+03 -0.19280872181E+04  0.19735560982E+04  0.10100000352E+00 0. -1.
</event>
<event>
 5   0  0.1513292E-05  0.2094114E+04  0.7818609E-02  0.8563841E-01
        1   -1    0    0  501    0  0.00000000000E+00  0.00000000000E+00  0.11628607552E+04  0.11628607552E+04  0.50400001928E-02 0. -1.
       -1   -1    0    0    0  501  0.00000000000E+00  0.00000000000E+00 -0.94278518837E+03  0.94278518839E+03  0.50400001928E-02 0.  1.
    10030    2    1    2    0    0  0.00000000000E+00  0.00000000000E+00  0.22007556682E+03  0.21056459436E+04  0.20941135558E+04 0.  0.
        1    1    3    3  502    0 -0.92761197829E+03 -0.32608905736E+03  0.47192232777E+03  0.10906460191E+04  0.50400001928E-02 0. -1.
       -1    1    3    3    0  502  0.92761197829E+03  0.32608905736E+03 -0.25184676095E+03  0.10149999244E+04  0.50400001928E-02 0.  1.
</event>
<event>
 5   0  0.1466480E-05  0.2103214E+04  0.7818609E-02  0.8559829E-01
       -1   -1    0    0    0  501  0.00000000000E+00  0.00000000000E+00  0.94392484333E+03  0.94392484334E+03  0.50400001928E-02 0.  1.
        1   -1    0    0  501    0  0.00000000000E+00  0.00000000000E+00 -0.11715730983E+04  0.11715730983E+04  0.50400001928E-02 0. -1.
    10030    2    1    2    0    0  0.00000000000E+00  0.00000000000E+00 -0.22764825497E+03  0.21154979416E+04  0.21032136870E+04 0.  0.
        3    1    3    3  502    0  0.23085772292E+03 -0.12312462428E+03 -0.11383122571E+04  0.11679939067E+04  0.10100000352E+00 0. -1.
       -3    1    3    3    0  502 -0.23085772292E+03  0.12312462428E+03  0.91066400209E+03  0.94750403494E+03  0.10100000352E+00 0.  1.
</event>
<event>
 5   0  0.1129987E-05  0.2100260E+04  0.7818609E-02  0.8561129E-01
        3   -1    0    0  501    0  0.00000000000E+00  0.00000000000E+00  0.11704200217E+04  0.11704200261E+04  0.10100000352E+00 0.  1.
       -3   -1    0    0    0  501  0.00000000000E+00  0.00000000000E+00 -0.94220273431E+03  0.94220273972E+03  0.10100000352E+00 0. -1.
    10030    2    1    2    0    0  0.00000000000E+00  0.00000000000E+00  0.22821728741E+03  0.21126227658E+04  0.21002599411E+04 0.  0.
        4    1    3    3  502    0 -0.78762644261E+03  0.19121252624E+03  0.78576185176E+03  0.11288671064E+04  0.12699999809E+01 0.  1.
       -4    1    3    3    0  502  0.78762644261E+03 -0.19121252624E+03 -0.55754456435E+03  0.98375565941E+03  0.12699999809E+01 0. -1.
</event>
<event>
 5   0  0.1492552E-05  0.2078764E+04  0.7818609E-02  0.8570656E-01
       -1   -1    0    0    0  501  0.00000000000E+00  0.00000000000E+00  0.14292202606E+04  0.14292202607E+04  0.50400001928E-02 0. -1.
        1   -1    0    0  501    0  0.00000000000E+00  0.00000000000E+00 -0.75587695082E+03  0.75587695083E+03  0.50400001928E-02 0.  1.
    10030    2    1    2    0    0  0.00000000000E+00  0.00000000000E+00  0.67334330983E+03  0.21850972115E+04  0.20787637217E+04 0.  0.
        4    1    3    3  502    0 -0.48996953136E+03 -0.42854122745E+03 -0.51508301521E+03  0.83007821965E+03  0.12699999809E+01 0.  1.
       -4    1    3    3    0  502  0.48996953136E+03  0.42854122745E+03  0.11884263250E+04  0.13550189918E+04  0.12699999809E+01 0. -1.
</event>
<event>
 5   0  0.1492552E-05  0.2043859E+04  0.7818609E-02  0.8586385E-01
       -1   -1    0    0    0  501  0.00000000000E+00  0.00000000000E+00  0.62747215679E+03  0.62747215681E+03  0.50400001928E-02 0.  1.
        1   -1    0    0  501    0  0.00000000000E+00  0.00000000000E+00 -0.16643608530E+04  0.16643608531E+04  0.50400001928E-02 0. -1.
    10030    2    1    2    0    0  0.00000000000E+00  0.00000000000E+00 -0.10368886963E+04  0.22918330099E+04  0.20438591871E+04 0.  0.
        4    1    3    3  502    0 -0.39103242980E+03  0.58641950484E+03 -0.13481835779E+04  0.15213135013E+04  0.12699999809E+01 0. -1.
       -4    1    3    3    0  502  0.39103242980E+03 -0.58641950484E+03  0.31129488160E+03  0.77051950853E+03  0.12699999809E+01 0.  1.
</event>
<event>
 5   0  0.3130517E-05  0.2114795E+04  0.7818609E-02  0.8554754E-01
        2   -1    0    0  501    0  0.00000000000E+00  0.00000000000E+00  0.30592284415E+04  0.30592284415E+04  0.25500000920E-02 0.  1.
       -2   -1    0    0    0  501  0.00000000000E+00  0.00000000000E+00 -0.36548102866E+03  0.36548102867E+03  0.25500000920E-02 0. -1.
    10030    2    1    2    0    0  0.00000000000E+00  0.00000000000E+00  0.26937474129E+04  0.34247094702E+04  0.21147954584E+04 0.  0.
        1    1    3    3  502    0 -0.53637242165E+03 -0.68653557630E+03  0.37649560597E+03  0.94909188890E+03  0.50400001928E-02 0. -1.
       -1    1    3    3    0  502  0.53637242165E+03  0.68653557630E+03  0.23172518069E+04  0.24756175813E+04  0.50400001928E-02 0.  1.
</event>
<event>
 5   0  0.3257130E-05  0.2096985E+04  0.7818609E-02  0.8562573E-01
       -2   -1    0    0    0  501  0.00000000000E+00  0.00000000000E+00  0.14838696050E+04  0.14838696050E+04  0.25500000920E-02 0. -1.
        2   -1    0    0  501    0  0.00000000000E+00  0.00000000000E+00 -0.74085803476E+03  0.74085803476E+03  0.25500000920E-02 0.  1.
    10030    2    1    2    0    0  0.00000000000E+00  0.00000000000E+00  0.74301157024E+03  0.22247276398E+04  0.20969851877E+04 0.  0.
        3    1    3    3  502    0  0.71932894806E+02 -0.73793088979E+03 -0.41501987817E+03  0.84968102776E+03  0.10100000352E+00 0.  1.
       -3    1    3    3    0  502 -0.71932894806E+02  0.73793088979E+03  0.11580314484E+04  0.13750466120E+04  0.10100000352E+00 0. -1.
</event>
<event>
 5   0  0.1453430E-05  0.2098077E+04  0.7818609E-02  0.8562091E-01
       -1   -1    0    0    0  501  0.00000000000E+00  0.00000000000E+00  0.95561078500E+03  0.95561078501E+03  0.50400001928E-02 0.  1.
        1   -1    0    0  501    0  0.00000000000E+00  0.00000000000E+00 -0.11516008243E+04  0.11516008244E+04  0.50400001928E-02 0. -1.
    10030    2    1    2    0    0  0.00000000000E+00  0.00000000000E+00 -0.19599003935E+03  0.21072116094E+04  0.20980773749E+04 0.  0.
        5    1    3    3  502    0  0.10023844144E+03  0.37671427970E+02 -0.11460866020E+04  0.11510879510E+04  0.46999998093E+01 0. -1.
       -5    1    3    3    0  502 -0.10023844144E+03 -0.37671427970E+02  0.95009656269E+03  0.95612365835E+03  0.46999998093E+01 0.  1.
</event>
<event>
 5   0  0.3279789E-05  0.2099509E+04  0.7818609E-02  0.8561460E-01
       -2   -1    0    0    0  501  0.00000000000E+00  0.00000000000E+00  0.89336249336E+03  0.89336249336E+03  0.25500000920E-02 0.  1.
        2   -1    0    0  501    0  0.00000000000E+00  0.00000000000E+00 -0.12335242804E+04  0.12335242804E+04  0.25500000920E-02 0. -1.
    10030    2    1    2    0    0  0.00000000000E+00  0.00000000000E+00 -0.34016178703E+03  0.21268867737E+04  0.20995088252E+04 0.  0.
        2    1    3    3  502    0 -0.53589234019E+03  0.66961137515E+03  0.44314264787E+03  0.96536801292E+03  0.25500000920E-02 0.  1.
       -2    1    3    3    0  502  0.53589234019E+03 -0.66961137515E+03 -0.78330443490E+03  0.11615187608E+04  0.25500000920E-02 0. -1.
</event>
<event>
 5   0  0.3242231E-05  0.2106028E+04  0.7818609E-02  0.8558593E-01
        2   -1    0    0  501    0  0.00000000000E+00  0.00000000000E+00  0.11884007730E+04  0.11884007730E+04  0.25500000920E-02 0.  1.
       -2   -1    0    0    0  501  0.00000000000E+00  0.00000000000E+00 -0.93305120710E+03  0.93305120710E+03  0.25500000920E-02 0. -1.
    10030    2    1    2    0    0  0.00000000000E+00  0.00000000000E+00  0.25534956586E+03  0.21214519801E+04  0.21060282769E+04 0.  0.
        4    1    3    3  502    0 -0.15124621101E+02  0.75873435868E+03  0.86304210846E+03  0.11492388242E+04  0.12699999809E+01 0.  1.
       -4    1    3    3    0  502  0.15124621101E+02 -0.75873435868E+03 -0.60769254259E+03  0.97221315586E+03  0.12699999809E+01 0. -1.
</event>
<event>
 5   0  0.1492552E-05  0.2105265E+04  0.7818609E-02  0.8558928E-01
       -1   -1    0    0    0  501  0.00000000000E+00  0.00000000000E+00  0.10032063692E+04  0.10032063692E+04  0.50400001928E-02 0. -1.
        1   -1    0    0  501    0  0.00000000000E+00  0.00000000000E+00 -0.11044940318E+04  0.11044940318E+04  0.50400001928E-02 0.  1.
    10030    2    1    2    0    0  0.00000000000E+00  0.00000000000E+00 -0.10128766257E+03  0.21077004010E+04  0.21052652540E+04 0.  0.
        4    1    3    3  502    0  0.76718008838E+03 -0.47966470620E+02  0.66933176934E+03  0.10192510489E+04  0.12699999809E+01 0. -1.
       -4    1    3    3    0  502 -0.76718008838E+03  0.47966470620E+02 -0.77061943191E+03  0.10884493521E+04  0.12699999809E+01 0.  1.
</event>
<event>
 5   0  0.3108326E-05  0.2098677E+04  0.7818609E-02  0.8561826E-01
       -2   -1    0    0    0  501  0.00000000000E+00  0.00000000000E+00  0.37322712447E+03  0.37322712448E+03  0.25500000920E-02 0.  1.
        2   -1    0    0  501    0  0.00000000000E+00  0.00000000000E+00 -0.29502458301E+04  0.29502458301E+04  0.25500000920E-02 0. -1.
    10030    2    1    2    0    0  0.00000000000E+00  0.00000000000E+00 -0.25770187056E+04  0.33234729545E+04  0.20986774575E+04 0.  0.
        5    1    3    3  502    0 -0.28400502199E+03 -0.46385926481E+03 -0.27095809943E+04  0.27636344774E+04  0.46999998093E+01 0. -1.
       -5    1    3    3    0  502  0.28400502199E+03  0.46385926481E+03  0.13256228873E+03  0.55983847711E+03  0.46999998093E+01 0.  1.
</event>
<event>
 5   0  0.3257130E-05  0.1950128E+04  0.7818609E-02  0.8630299E-01
        2   -1    0    0  501    0  0.00000000000E+00  0.00000000000E+00  0.17326224781E+04  0.17326224781E+04  0.25500000920E-02 0.  1.
       -2   -1    0    0    0  501  0.00000000000E+00  0.00000000000E+00 -0.54873462162E+03  0.54873462163E+03  0.25500000920E-02 0. -1.
    10030    2    1    2    0    0  0.00000000000E+00  0.00000000000E+00  0.11838878565E+04  0.22813570997E+04  0.19501281393E+04 0.  0.
        3    1    3    3  502    0  0.37977686288E+03 -0.53383670363E+03  0.14367811363E+04  0.15790985199E+04  0.10100000352E+00 0.  1.
       -3    1    3    3    0  502 -0.37977686288E+03  0.53383670363E+03 -0.25289327985E+03  0.70225857981E+03  0.10100000352E+00 0. -1.
</event>
<event>
 5   0  0.1492552E-05  0.2103106E+04  0.7818609E-02  0.8559876E-01
       -1   -1    0    0    0  501  0.00000000000E+00  0.00000000000E+00  0.75706308911E+03  0.75706308913E+03  0.50400001928E-02 0. -1.
        1   -1    0    0  501    0  0.00000000000E+00  0.00000000000E+00 -0.14605967383E+04  0.14605967383E+04  0.50400001928E-02 0.  1.
    10030    2    1    2    0    0  0.00000000000E+00  0.00000000000E+00 -0.70353364915E+03  0.22176598274E+04  0.21031061586E+04 0.  0.
        4    1    3    3  502    0  0.76642192541E+03 -0.48360507781E+03 -0.91419109212E+03  0.12872542114E+04  0.12699999809E+01 0.  1.
       -4    1    3    3    0  502 -0.76642192541E+03  0.48360507781E+03  0.21065744297E+03  0.93040561596E+03  0.12699999809E+01 0. -1.
</event>
<event>
 5   0  0.1466480E-05  0.2084346E+04  0.7818609E-02  0.8568170E-01
        1   -1    0    0  501    0  0.00000000000E+00  0.00000000000E+00  0.14580606587E+04  0.14580606587E+04  0.50400001928E-02 0.  1.
       -1   -1    0    0    0  501  0.00000000000E+00  0.00000000000E+00 -0.74491068660E+03  0.74491068662E+03  0.50400001928E-02 0. -1.
    10030    2    1    2    0    0  0.00000000000E+00  0.00000000000E+00  0.71314997211E+03  0.22029713453E+04  0.20843463881E+04 0.  0.
        3    1    3    3  502    0 -0.10156726869E+04 -0.99899015555E+02  0.57966645733E+03  0.11737052578E+04  0.10100000352E+00 0.  1.
       -3    1    3    3    0  502  0.10156726869E+04  0.99899015555E+02  0.13348351479E+03  0.10292660876E+04  0.10100000352E+00 0. -1.
</event>
<event>
 5   0  0.3242231E-05  0.2098785E+04  0.7818609E-02  0.8561779E-01
       -2   -1    0    0    0  501  0.00000000000E+00  0.00000000000E+00  0.10317092666E+04  0.10317092666E+04  0.25500000920E-02 0.  1.
        2   -1    0    0  501    0  0.00000000000E+00  0.00000000000E+00 -0.10673789840E+04  0.10673789840E+04  0.25500000920E-02 0. -1.
    10030    2    1    2    0    0  0.00000000000E+00  0.00000000000E+00 -0.35669717405E+02  0.20990882505E+04  0.20987851617E+04 0.  0.
        4    1    3    3  502    0  0.71816263197E+03 -0.73499781798E+03 -0.23057151708E+03  0.10531591503E+04  0.12699999809E+01 0.  1.
       -4    1    3    3    0  502 -0.71816263197E+03  0.73499781798E+03  0.19490179967E+03  0.10459291003E+04  0.12699999809E+01 0. -1.
</event>
<event>
 5   0  0.3257130E-05  0.2092363E+04  0.7818609E-02  0.8564615E-01
        2   -1    0    0  501    0  0.00000000000E+00  0.00000000000E+00  0.12971739849E+04  0.12971739849E+04  0.25500000920E-02 0. -1.
       -2   -1    0    0    0  501  0.00000000000E+00  0.00000000000E+00 -0.84375433387E+03  0.84375433387E+03  0.25500000920E-02 0.  1.
    10030    2    1    2    0    0  0.00000000000E+00  0.00000000000E+00  0.45341965099E+03  0.21409283187E+04  0.20923634211E+04 0.  0.
        3    1    3    3  502    0 -0.30198723306E+03  0.25756476920E+03 -0.76372429590E+03  0.86070361310E+03  0.10100000352E+00 0.  1.
       -3    1    3    3    0  502  0.30198723306E+03 -0.25756476920E+03  0.12171439469E+04  0.12802247056E+04  0.10100000352E+00 0. -1.
</event>
<event>
 5   0  0.3279789E-05  0.2108321E+04  0.7818609E-02  0.8557587E-01
        2   -1    0    0  501    0  0.00000000000E+00  0.00000000000E+00  0.10432983441E+04  0.10432983441E+04  0.25500000920E-02 0.  1.
       -2   -1    0    0    0  501  0.00000000000E+00  0.00000000000E+00 -0.10651359868E+04  0.10651359868E+04  0.25500000920E-02 0. -1.
    10030    2    1    2    0    0  0.00000000000E+00  0.00000000000E+00 -0.21837642653E+02  0.21084343309E+04  0.21083212385E+04 0.  0.
        2    1    3    3  502    0 -0.80678739774E+03  0.39906173117E+03 -0.55967263137E+03  0.10599007618E+04  0.25500000920E-02 0. -1.
       -2    1    3    3    0  502  0.80678739774E+03 -0.39906173117E+03  0.53783498872E+03  0.10485335691E+04  0.25500000920E-02 0.  1.
</event>
<event>
 5   0  0.3279789E-05  0.2100168E+04  0.7818609E-02  0.8561169E-01
       -2   -1    0    0    0  501  0.00000000000E+00  0.00000000000E+00  0.73693103742E+03  0.73693103742E+03  0.25500000920E-02 0.  1.
        2   -1    0    0  501    0  0.00000000000E+00  0.00000000000E+00 -0.14963086625E+04  0.14963086625E+04  0.25500000920E-02 0. -1.
    10030    2    1    2    0    0  0.00000000000E+00  0.00000000000E+00 -0.75937762510E+03  0.22332396999E+04  0.21001678933E+04 0.  0.
        2    1    3    3  502    0  0.72962906238E+03  0.47235740413E+03 -0.10062576799E+04  0.13296746235E+04  0.25500000920E-02 0. -1.
       -2    1    3    3    0  502 -0.72962906238E+03 -0.47235740413E+03  0.24688005484E+03  0.90356507646E+03  0.25500000920E-02 0.  1.
</event>
<event>
 5   0  0.3242231E-05  0.2105410E+04  0.7818609E-02  0.8558864E-01
        2   -1    0    0  501    0  0.00000000000E+00  0.00000000000E+00  0.24533147384E+04  0.24533147384E+04  0.25500000920E-02 0.  1.
       -2   -1    0    0    0  501  0.00000000000E+00  0.00000000000E+00 -0.45171061406E+03  0.45171061407E+03  0.25500000920E-02 0. -1.
    10030    2    1    2    0    0  0.00000000000E+00  0.00000000000E+00  0.20016041243E+04  0.29050253525E+04  0.21054104654E+04 0.  0.
        4    1    3    3  502    0  0.20599656055E+03 -0.33398197276E+03 -0.34702667261E+03  0.52383935084E+03  0.12699999809E+01 0. -1.
       -4    1    3    3    0  502 -0.20599656055E+03  0.33398197276E+03  0.23486307969E+04  0.23811860016E+04  0.12699999809E+01 0.  1.
</event>
<event>
 5   0  0.3108326E-05  0.2096163E+04  0.7818609E-02  0.8562936E-01
        2   -1    0    0  501    0  0.00000000000E+00  0.00000000000E+00  0.10456067812E+04  0.10456067812E+04  0.25500000920E-02 0. -1.
       -2   -1    0    0    0  501  0.00000000000E+00  0.00000000000E+00 -0.10505616324E+04  0.10505616324E+04  0.25500000920E-02 0.  1.
    10030    2    1    2    0    0  0.00000000000E+00  0.00000000000E+00 -0.49548511995E+01  0.20961684136E+04  0.20961625575E+04 0.  0.
        5    1    3    3  502    0 -0.52583979400E+03  0.90611146506E+03  0.27635792165E+02  0.10480130262E+04  0.46999998093E+01 0.  1.
       -5    1    3    3    0  502  0.52583979400E+03 -0.90611146506E+03 -0.32590643365E+02  0.10481553874E+04  0.46999998093E+01 0. -1.
</event>
<event>
 5   0  0.3108326E-05  0.2103609E+04  0.7818609E-02  0.8559655E-01
        2   -1    0    0  501    0  0.00000000000E+00  0.00000000000E+00  0.13156547663E+04  0.13156547663E+04  0.25500000920E-02 0.  1.
       -2   -1    0    0    0  501  0.00000000000E+00  0.00000000000E+00 -0.84086876730E+03  0.84086876730E+03  0.25500000920E-02 0. -1.
    10030    2    1    2    0    0  0.00000000000E+00  0.00000000000E+00  0.47478599897E+03  0.21565235336E+04  0.21036092807E+04 0.  0.
        5    1    3    3  502    0  0.86046229653E+03  0.28976747034E+03 -0.30691490652E+03  0.95842547987E+03  0.46999998093E+01 0. -1.
       -5    1    3    3    0  502 -0.86046229653E+03 -0.28976747034E+03  0.78170090549E+03  0.11980980537E+04  0.46999998093E+01 0.  1.
</event>
<event>
 5   0  0.3257130E-05  0.2102008E+04  0.7818609E-02  0.8560359E-01
       -2   -1    0    0    0  501  0.00000000000E+00  0.00000000000E+00  0.86994301794E+03  0.86994301794E+03  0.25500000920E-02 0. -1.
        2   -1    0    0  501    0  0.00000000000E+00  0.00000000000E+00 -0.12697489740E+04  0.12697489740E+04  0.25500000920E-02 0.  1.
    10030    2    1    2    0    0  0.00000000000E+00  0.00000000000E+00 -0.39980595605E+03  0.21396919919E+04  0.21020078539E+04 0.  0.
        3    1    3    3  502    0  0.39135769199E+03 -0.22384350302E+03  0.76650798623E+03  0.88927007151E+03  0.10100000352E+00 0. -1.
       -3    1    3    3    0  502 -0.39135769199E+03  0.22384350302E+03 -0.11663139423E+04  0.12504219204E+04  0.10100000352E+00 0.  1.
</event>
<event>
 5   0  0.1513292E-05  0.2106125E+04  0.7818609E-02  0.8558550E-01
       -1   -1    0    0    0  501  0.00000000000E+00  0.00000000000E+00  0.12589305675E+04  0.12589305675E+04  0.50400001928E-02 0. -1.
        1   -1    0    0  501    0  0.00000000000E+00  0.00000000000E+00 -0.88085893746E+03  0.88085893747E+03  0.50400001928E-02 0.  1.
    10030    2    1    2    0    0  0.00000000000E+00  0.00000000000E+00  0.37807163000E+03  0.21397895049E+04  0.21061246326E+04 0.  0.
        1    1    3    3  502    0  0.55071318892E+03  0.74603688048E+03  0.69609665821E+03  0.11594854898E+04  0.50400001928E-02 0. -1.
       -1    1    3    3    0  502 -0.55071318892E+03 -0.74603688048E+03 -0.31802502821E+03  0.98030401513E+03  0.50400001928E-02 0.  1.
</event>
<event>
 5   0  0.1513292E-05  0.2105367E+04  0.7818609E-02  0.8558883E-01
        1   -1    0    0  501    0  0.00000000000E+00  0.00000000000E+00  0.14463277571E+04  0.14463277571E+04  0.50400001928E-02 0. -1.
       -1   -1    0    0    0  501  0.00000000000E+00  0.00000000000E+00 -0.76617693359E+03  0.76617693361E+03  0.50400001928E-02 0.  1.
    10030    2    1    2    0    0  0.00000000000E+00  0.00000000000E+00  0.68015082350E+03  0.22125046907E+04  0.21053673940E+04 0.  0.
        1    1    3    3  502    0  0.78593998769E+03 -0.25779117316E+03 -0.34420098526E+03  0.89589746706E+03  0.50400001928E-02 0.  1.
       -1    1    3    3    0  502 -0.78593998769E+03  0.25779117316E+03  0.10243518088E+04  0.13166072236E+04  0.50400001928E-02 0. -1.
</event>
<event>
 5   0  0.3279789E-05  0.2099558E+04  0.7818609E-02  0.8561438E-01
       -2   -1    0    0    0  501  0.00000000000E+00  0.00000000000E+00  0.12234946684E+04  0.12234946684E+04  0.25500000920E-02 0.  1.
        2   -1    0    0  501    0  0.00000000000E+00  0.00000000000E+00 -0.90072828649E+03  0.90072828650E+03  0.25500000920E-02 0. -1.
    10030    2    1    2    0    0  0.00000000000E+00  0.00000000000E+00  0.32276638187E+03  0.21242229549E+04  0.20995582928E+04 0.  0.
        2    1    3    3  502    0  0.74109114571E+03 -0.41310119260E+03 -0.46407614391E+03  0.96707566867E+03  0.25500000920E-02 0. -1.
       -2    1    3    3    0  502 -0.74109114571E+03  0.41310119260E+03  0.78684252578E+03  0.11571472862E+04  0.25500000920E-02 0.  1.
</event>
<event>
 5   0  0.3242231E-05  0.2096484E+04  0.7818609E-02  0.8562794E-01
        2   -1    0    0  501    0  0.00000000000E+00  0.00000000000E+00  0.16178082207E+04  0.16178082207E+04  0.25500000920E-02 0.  1.
       -2   -1    0    0    0  501  0.00000000000E+00  0.00000000000E+00 -0.67919740572E+03  0.67919740573E+03  0.25500000920E-02 0. -1.
    10030    2    1    2    0    0  0.00000000000E+00  0.00000000000E+00  0.93861081500E+03  0.22970056265E+04  0.20964838625E+04 0.  0.
        4    1    3    3  502    0 -0.29824639419E+03  0.54567231715E+01  0.15703234131E+04  0.15984048055E+04  0.12699999809E+01 0.  1.
       -4    1    3    3    0  502  0.29824639419E+03 -0.54567231715E+01 -0.63171259815E+03  0.69860082095E+03  0.12699999809E+01 0. -1.
</event>
<event>
 5   0  0.1453430E-05  0.2103388E+04  0.7818609E-02  0.8559753E-01
       -1   -1    0    0    0  501  0.00000000000E+00  0.00000000000E+00  0.11272752209E+04  0.11272752209E+04  0.50400001928E-02 0.  1.
        1   -1    0    0  501    0  0.00000000000E+00  0.00000000000E+00 -0.98117986344E+03  0.98117986345E+03  0.50400001928E-02 0. -1.
    10030    2    1    2    0    0  0.00000000000E+00  0.00000000000E+00  0.14609535744E+03  0.21084550843E+04  0.21033875033E+04 0.  0.
        5    1    3    3  502    0  0.10178967437E+04 -0.24550884443E+03 -0.25419751904E+02  0.10474047103E+04  0.46999998093E+01 0. -1.
       -5    1    3    3    0  502 -0.10178967437E+04  0.24550884443E+03  0.17151510934E+03  0.10610503740E+04  0.46999998093E+01 0.  1.
</event>
<event>
 5   0  0.3130517E-05  0.2061091E+04  0.7818609E-02  0.8578579E-01
       -2   -1    0    0    0  501  0.00000000000E+00  0.00000000000E+00  0.13663844606E+04  0.13663844606E+04  0.25500000920E-02 0. -1.
        2   -1    0    0  501    0  0.00000000000E+00  0.00000000000E+00 -0.77725143053E+03  0.77725143053E+03  0.25500000920E-02 0.  1.
    10030    2    1    2    0    0  0.00000000000E+00  0.00000000000E+00  0.58913303006E+03  0.21436358911E+04  0.20610912417E+04 0.  0.
        1    1    3    3  502    0  0.84422593178E+03 -0.48271385963E+03 -0.60110297643E+02  0.97434251785E+03  0.50400001928E-02 0.  1.
       -1    1    3    3    0  502 -0.84422593178E+03  0.48271385963E+03  0.64924332770E+03  0.11692933733E+04  0.50400001928E-02 0. -1.
</event>
<event>
 5   0  0.1453430E-05  0.2060610E+04  0.7818609E-02  0.8578796E-01
       -1   -1    0    0    0  501  0.00000000000E+00  0.00000000000E+00  0.79601069533E+03  0.79601069535E+03  0.50400001928E-02 0.  1.
        1   -1    0    0  501    0  0.00000000000E+00  0.00000000000E+00 -0.13335608596E+04  0.13335608596E+04  0.50400001928E-02 0. -1.
    10030    2    1    2    0    0  0.00000000000E+00  0.00000000000E+00 -0.53755016423E+03  0.21295715549E+04  0.20606103049E+04 0.  0.
        5    1    3    3  502    0  0.73273225943E+02 -0.57927873024E+03  0.60849961774E+03  0.84334256843E+03  0.46999998093E+01 0.  1.
       -5    1    3    3    0  502 -0.73273225943E+02  0.57927873024E+03 -0.11460497820E+04  0.12862289865E+04  0.46999998093E+01 0. -1.
</event>
<event>
 5   0  0.1492552E-05  0.2099944E+04  0.7818609E-02  0.8561268E-01
        1   -1    0    0  501    0  0.00000000000E+00  0.00000000000E+00  0.29686735974E+04  0.29686735974E+04  0.50400001928E-02 0. -1.
       -1   -1    0    0    0  501  0.00000000000E+00  0.00000000000E+00 -0.37135823668E+03  0.37135823672E+03  0.50400001928E-02 0.  1.
    10030    2    1    2    0    0  0.00000000000E+00  0.00000000000E+00  0.25973153608E+04  0.33400318342E+04  0.20999441826E+04 0.  0.
        4    1    3    3  502    0  0.92624650763E+03  0.27031692792E+03  0.64010003182E+03  0.11579004698E+04  0.12699999809E+01 0.  1.
       -4    1    3    3    0  502 -0.92624650763E+03 -0.27031692792E+03  0.19572153289E+04  0.21821313643E+04  0.12699999809E+01 0. -1.
</event>
<event>
 5   0  0.1513292E-05  0.2094331E+04  0.7818609E-02  0.8563745E-01
       -1   -1    0    0    0  501  0.00000000000E+00  0.00000000000E+00  0.69086636066E+03  0.69086636068E+03  0.50400001928E-02 0. -1.
        1   -1    0    0  501    0  0.00000000000E+00  0.00000000000E+00 -0.15872183214E+04  0.15872183214E+04  0.50400001928E-02 0.  1.
    10030    2    1    2    0    0  0.00000000000E+00  0.00000000000E+00 -0.89635196077E+03  0.22780846821E+04  0.20943311537E+04 0.  0.
        1    1    3    3  502    0 -0.33929540093E+03  0.64148237077E+03 -0.12693535486E+04  0.14621489091E+04  0.50400001928E-02 0.  1.
       -1    1    3    3    0  502  0.33929540093E+03 -0.64148237077E+03  0.37300158783E+03  0.81593577299E+03  0.50400001928E-02 0. -1.
</event>
<event>
 5   0  0.1513292E-05  0.2085321E+04  0.7818609E-02  0.8567737E-01
        1   -1    0    0  501    0  0.00000000000E+00  0.00000000000E+00  0.11851766590E+04  0.11851766590E+04  0.50400001928E-02 0.  1.
       -1   -1    0    0    0  501  0.00000000000E+00  0.00000000000E+00 -0.91728188568E+03  0.91728188569E+03  0.50400001928E-02 0. -1.
    10030    2    1    2    0    0  0.00000000000E+00  0.00000000000E+00  0.26789477336E+03  0.21024585447E+04  0.20853211558E+04 0.  0.
        1    1    3    3  502    0  0.20207796401E+03  0.53252138605E+03  0.10144667773E+04  0.11634248461E+04  0.50400001928E-02 0.  1.
       -1    1    3    3    0  502 -0.20207796401E+03 -0.53252138605E+03 -0.74657200396E+03  0.93903369868E+03  0.50400001928E-02 0. -1.
</event>
<event>
 5   0  0.1513292E-05  0.2106815E+04  0.7818609E-02  0.8558247E-01
       -1   -1    0    0    0  501  0.00000000000E+00  0.00000000000E+00  0.88268095808E+03  0.88268095809E+03  0.50400001928E-02 0. -1.
        1   -1    0    0  501    0  0.00000000000E+00  0.00000000000E+00 -0.12571556919E+04  0.12571556919E+04  0.50400001928E-02 0.  1.
    10030    2    1    2    0    0  0.00000000000E+00  0.00000000000E+00 -0.37447473386E+03  0.21398366500E+04  0.21068150281E+04 0.  0.
        1    1    3    3  502    0  0.30451521171E+03  0.33998839670E+03 -0.11515101875E+04  0.12386675647E+04  0.50400001928E-02 0.  1.
       -1    1    3    3    0  502 -0.30451521171E+03 -0.33998839670E+03  0.77703545363E+03  0.90116908528E+03  0.50400001928E-02 0. -1.
</event>
<event>
 5   0  0.1435410E-05  0.2092612E+04  0.7818609E-02  0.8564505E-01
        1   -1    0    0  501    0  0.00000000000E+00  0.00000000000E+00  0.20735065184E+04  0.20735065184E+04  0.50400001928E-02 0. -1.
       -1   -1    0    0    0  501  0.00000000000E+00  0.00000000000E+00 -0.52797356747E+03  0.52797356750E+03  0.50400001928E-02 0.  1.
    10030    2    1    2    0    0  0.00000000000E+00  0.00000000000E+00  0.15455329510E+04  0.26014800859E+04  0.20926123709E+04 0.  0.
        2    1    3    3  502    0  0.18448396095E+03 -0.11860171213E+03 -0.49907706242E+03  0.54514091041E+03  0.25500000920E-02 0.  1.
       -2    1    3    3    0  502 -0.18448396095E+03  0.11860171213E+03  0.20446100134E+04  0.20563391755E+04  0.25500000920E-02 0. -1.
</event>
<event>
 5   0  0.1453430E-05  0.2104173E+04  0.7818609E-02  0.8559407E-01
       -1   -1    0    0    0  501  0.00000000000E+00  0.00000000000E+00  0.13741383181E+04  0.13741383181E+04  0.50400001928E-02 0.  1.
        1   -1    0    0  501    0  0.00000000000E+00  0.00000000000E+00 -0.80551256704E+03  0.80551256706E+03  0.50400001928E-02 0. -1.
    10030    2    1    2    0    0  0.00000000000E+00  0.00000000000E+00  0.56862575107E+03  0.21796508852E+04  0.21041726964E+04 0.  0.
        5    1    3    3  502    0  0.22955114353E+03  0.81341875152E+03  0.93330039106E+03  0.12591328376E+04  0.46999998093E+01 0.  1.
       -5    1    3    3    0  502 -0.22955114353E+03 -0.81341875152E+03 -0.36467463999E+03  0.92051804756E+03  0.46999998093E+01 0. -1.
</event>
<event>
 5   0  0.3257130E-05  0.2107708E+04  0.7818609E-02  0.8557855E-01
       -2   -1    0    0    0  501  0.00000000000E+00  0.00000000000E+00  0.16234015938E+04  0.16234015938E+04  0.25500000920E-02 0.  1.
        2   -1    0    0  501    0  0.00000000000E+00  0.00000000000E+00 -0.68412433795E+03  0.68412433796E+03  0.25500000920E-02 0. -1.
    10030    2    1    2    0    0  0.00000000000E+00  0.00000000000E+00  0.93927725586E+03  0.23075259318E+04  0.21077082726E+04 0.  0.
        3    1    3    3  502    0  0.19337770653E+03  0.76038565022E+03 -0.30064496239E+03  0.84021942256E+03  0.10100000352E+00 0. -1.
       -3    1    3    3    0  502 -0.19337770653E+03 -0.76038565022E+03  0.12399222182E+04  0.14673065092E+04  0.10100000352E+00 0.  1.
</event>
<event>
 5   0  0.1466480E-05  0.2180271E+04  0.7818609E-02  0.8526685E-01
        1   -1    0    0  501    0  0.00000000000E+00  0.00000000000E+00  0.20884921150E+04  0.20884921150E+04  0.50400001928E-02 0.  1.
       -1   -1    0    0    0  501  0.00000000000E+00  0.00000000000E+00 -0.56902079835E+03  0.56902079838E+03  0.50400001928E-02 0. -1.
    10030    2    1    2    0    0  0.00000000000E+00  0.00000000000E+00  0.15194713167E+04  0.26575129134E+04  0.21802710388E+04 0.  0.
        3    1    3    3  502    0  0.73159570527E+03  0.65158748024E+03  0.13425095472E+04  0.16619658284E+04  0.10100000352E+00 0.  1.
       -3    1    3    3    0  502 -0.73159570527E+03 -0.65158748024E+03  0.17696176950E+03  0.99554708499E+03  0.10100000352E+00 0. -1.
</event>
<event>
 5   0  0.1435410E-05  0.2096968E+04  0.7818609E-02  0.8562580E-01
        1   -1    0    0  501    0  0.00000000000E+00  0.00000000000E+00  0.14693464423E+04  0.14693464423E+04  0.50400001928E-02 0. -1.
       -1   -1    0    0    0  501  0.00000000000E+00  0.00000000000E+00 -0.74816869078E+03  0.74816869080E+03  0.50400001928E-02 0.  1.
    10030    2    1    2    0    0  0.00000000000E+00  0.00000000000E+00  0.72117775149E+03  0.22175151331E+04  0.20969682916E+04 0.  0.
        2    1    3    3  502    0 -0.17059709398E+03 -0.63394003673E+03  0.12251029094E+04  0.13899138381E+04  0.25500000920E-02 0. -1.
       -2    1    3    3    0  502  0.17059709398E+03  0.63394003673E+03 -0.50392515794E+03  0.82760129498E+03  0.25500000920E-02 0.  1.
</event>
<event>
 5   0  0.3108326E-05  0.2090792E+04  0.7818609E-02  0.8565311E-01
       -2   -1    0    0    0  501  0.00000000000E+00  0.00000000000E+00  0.10873102291E+04  0.10873102291E+04  0.25500000920E-02 0.  1.
        2   -1    0    0  501    0  0.00000000000E+00  0.00000000000E+00 -0.10050972432E+04  0.10050972432E+04  0.25500000920E-02 0. -1.
    10030    2    1    2    0    0  0.00000000000E+00  0.00000000000E+00  0.82212985930E+02  0.20924074723E+04  0.20907917293E+04 0.  0.
        5    1    3    3  502    0 -0.10128484572E+04  0.25408110412E+03  0.90248605162E+02  0.10481345837E+04  0.46999998093E+01 0.  1.
       -5    1    3    3    0  502  0.10128484572E+04 -0.25408110412E+03 -0.80356192329E+01  0.10442728886E+04  0.46999998093E+01 0. -1.
</event>
<event>
 5   0  0.3257130E-05  0.2092092E+04  0.7818609E-02  0.8564735E-01
       -2   -1    0    0    0  501  0.00000000000E+00  0.00000000000E+00  0.83328577691E+03  0.83328577691E+03  0.25500000920E-02 0. -1.
        2   -1    0    0  501    0  0.00000000000E+00  0.00000000000E+00 -0.13131301734E+04  0.13131301734E+04  0.25500000920E-02 0.  1.
    10030    2    1    2    0    0  0.00000000000E+00  0.00000000000E+00 -0.47984439653E+03  0.21464159504E+04  0.20920924423E+04 0.  0.
        3    1    3    3  502    0 -0.97221591326E+03 -0.25882480065E+03 -0.53374754966E+03  0.11388944272E+04  0.10100000352E+00 0. -1.
       -3    1    3    3    0  502  0.97221591326E+03  0.25882480065E+03  0.53903153130E+02  0.10075215231E+04  0.10100000352E+00 0.  1.
</event>
<event>
 5   0  0.1513292E-05  0.2162288E+04  0.7818609E-02  0.8534290E-01
       -1   -1    0    0    0  501  0.00000000000E+00  0.00000000000E+00  0.52995615690E+03  0.52995615693E+03  0.50400001928E-02 0. -1.
        1   -1    0    0  501    0  0.00000000000E+00  0.00000000000E+00 -0.22056028390E+04  0.22056028390E+04  0.50400001928E-02 0.  1.
    10030    2    1    2    0    0  0.00000000000E+00  0.00000000000E+00 -0.16756466821E+04  0.27355589959E+04  0.21622884213E+04 0.  0.
        1    1    3    3  502    0  0.99426545611E+03  0.42442409318E+03 -0.82117382675E+03  0.13575809596E+04  0.50400001928E-02 0.  1.
       -1    1    3    3    0  502 -0.99426545611E+03 -0.42442409318E+03 -0.85447285536E+03  0.13779780363E+04  0.50400001928E-02 0. -1.
</event>
<event>
 5   0  0.3242231E-05  0.2122591E+04  0.7818609E-02  0.8551357E-01
        2   -1    0    0  501    0  0.00000000000E+00  0.00000000000E+00  0.15386231803E+04  0.15386231803E+04  0.25500000920E-02 0.  1.
       -2   -1    0    0    0  501  0.00000000000E+00  0.00000000000E+00 -0.73204924416E+03  0.73204924416E+03  0.25500000920E-02 0. -1.
    10030    2    1    2    0    0  0.00000000000E+00  0.00000000000E+00  0.80657393618E+03  0.22706724245E+04  0.21225908096E+04 0.  0.
        4    1    3    3  502    0 -0.65863969990E+03  0.82251582024E+03  0.26793830933E+03  0.10872585154E+04  0.12699999809E+01 0. -1.
       -4    1    3    3    0  502  0.65863969990E+03 -0.82251582024E+03  0.53863562685E+03  0.11834139091E+04  0.12699999809E+01 0.  1.
</event>
<event>
 5   0  0.3130517E-05  0.2080842E+04  0.7818609E-02  0.8569730E-01
       -2   -1    0    0    0  501  0.00000000000E+00  0.00000000000E+00  0.12764396061E+04  0.12764396061E+04  0.25500000920E-02 0. -1.
        2   -1    0    0  501    0  0.00000000000E+00  0.00000000000E+00 -0.84804310769E+03  0.84804310770E+03  0.25500000920E-02 0.  1.
    10030    2    1    2    0    0  0.00000000000E+00  0.00000000000E+00  0.42839649837E+03  0.21244827138E+04  0.20808419549E+04 0.  0.
        1    1    3    3  502    0  0.32766244664E+03 -0.92005980145E+03  0.58033204080E+03  0.11360712983E+04  0.50400001928E-02 0. -1.
       -1    1    3    3    0  502 -0.32766244664E+03  0.92005980145E+03 -0.15193554243E+03  0.98841141548E+03  0.50400001928E-02 0.  1.
</event>
<event>
 5   0  0.3257130E-05  0.2105472E+04  0.7818609E-02  0.8558837E-01
        2   -1    0    0  501    0  0.00000000000E+00  0.00000000000E+00  0.11950141474E+04  0.11950141474E+04  0.25500000920E-02 0.  1.
       -2   -1    0    0    0  501  0.00000000000E+00  0.00000000000E+00 -0.92739770780E+03  0.92739770780E+03  0.25500000920E-02 0. -1.
    10030    2    1    2    0    0  0.00000000000E+00  0.00000000000E+00  0.26761643963E+03  0.21224118552E+04  0.21054722806E+04 0.  0.
        3    1    3    3  502    0  0.78309258472E+03 -0.92903979669E+02  0.83683466377E+03  0.11498510383E+04  0.10100000352E+00 0. -1.
       -3    1    3    3    0  502 -0.78309258472E+03  0.92903979669E+02 -0.56921822414E+03  0.97256081690E+03  0.10100000352E+00 0.  1.
</event>
<event>
 5   0  0.1453430E-05  0.2097410E+04  0.7818609E-02  0.8562385E-01
       -1   -1    0    0    0  501  0.00000000000E+00  0.00000000000E+00  0.62519075073E+03  0.62519075075E+03  0.50400001928E-02 0.  1.
        1   -1    0    0  501    0  0.00000000000E+00  0.00000000000E+00 -0.17591140773E+04  0.17591140773E+04  0.50400001928E-02 0. -1.
    10030    2    1    2    0    0  0.00000000000E+00  0.00000000000E+00 -0.11339233266E+04  0.23843048280E+04  0.20974096888E+04 0.  0.
        5    1    3    3  502    0 -0.73567326479E+03 -0.70514198596E+03 -0.84846102428E+03  0.13260273650E+04  0.46999998093E+01 0. -1.
       -5    1    3    3    0  502  0.73567326479E+03  0.70514198596E+03 -0.28546230228E+03  0.10582774631E+04  0.46999998093E+01 0.  1.
</event>
<event>
 5   0  0.1435410E-05  0.2096905E+04  0.7818609E-02  0.8562608E-01
       -1   -1    0    0    0  501  0.00000000000E+00  0.00000000000E+00  0.88945380640E+03  0.88945380641E+03  0.50400001928E-02 0. -1.
        1   -1    0    0  501    0  0.00000000000E+00  0.00000000000E+00 -0.12358741848E+04  0.12358741848E+04  0.50400001928E-02 0.  1.
    10030    2    1    2    0    0  0.00000000000E+00  0.00000000000E+00 -0.34642037843E+03  0.21253279913E+04  0.20969053369E+04 0.  0.
        2    1    3    3  502    0  0.69893737436E+03 -0.16277293637E+03  0.60150926048E+03  0.93638767214E+03  0.25500000920E-02 0. -1.
       -2    1    3    3    0  502 -0.69893737436E+03  0.16277293637E+03 -0.94792963891E+03  0.11889403191E+04  0.25500000920E-02 0.  1.
</event>
<event>
 5   0  0.1513292E-05  0.2066488E+04  0.7818609E-02  0.8576151E-01
       -1   -1    0    0    0  501  0.00000000000E+00  0.00000000000E+00  0.58959096372E+03  0.58959096374E+03  0.50400001928E-02 0. -1.
        1   -1    0    0  501    0  0.00000000000E+00  0.00000000000E+00 -0.18107345360E+04  0.18107345360E+04  0.50400001928E-02 0.  1.
    10030    2    1    2    0    0  0.00000000000E+00  0.00000000000E+00 -0.12211435723E+04  0.24003254998E+04  0.20664875709E+04 0.  0.
        1    1    3    3  502    0  0.46250982251E+03  0.32654183064E+03  0.39337696049E+03  0.68941303740E+03  0.50400001928E-02 0. -1.
       -1    1    3    3    0  502 -0.46250982251E+03 -0.32654183064E+03 -0.16145205328E+04  0.17109124624E+04  0.50400001928E-02 0.  1.
</event>
<event>
 5   0  0.3279789E-05  0.2108505E+04  0.7818609E-02  0.8557506E-01
       -2   -1    0    0    0  501  0.00000000000E+00  0.00000000000E+00  0.74223472907E+03  0.74223472907E+03  0.25500000920E-02 0.  1.
        2   -1    0    0  501    0  0.00000000000E+00  0.00000000000E+00 -0.14974346177E+04  0.14974346177E+04  0.25500000920E-02 0. -1.
    10030    2    1    2    0    0  0.00000000000E+00  0.00000000000E+00 -0.75519988862E+03  0.22396693468E+04  0.21085046623E+04 0.  0.
        2    1    3    3  502    0 -0.27526410293E+03 -0.30963375913E+03 -0.14073412185E+04  0.14670557918E+04  0.25500000920E-02 0. -1.
       -2    1    3    3    0  502  0.27526410293E+03  0.30963375913E+03  0.65214132984E+03  0.77261355492E+03  0.25500000920E-02 0.  1.
</event>
<event>
 5   0  0.3242231E-05  0.2098315E+04  0.7818609E-02  0.8561986E-01
       -2   -1    0    0    0  501  0.00000000000E+00  0.00000000000E+00  0.61019152906E+03  0.61019152907E+03  0.25500000920E-02 0.  1.
        2   -1    0    0  501    0  0.00000000000E+00  0.00000000000E+00 -0.18039111403E+04  0.18039111403E+04  0.25500000920E-02 0. -1.
    10030    2    1    2    0    0  0.00000000000E+00  0.00000000000E+00 -0.11937196113E+04  0.24141026694E+04  0.20983148448E+04 0.  0.
        4    1    3    3  502    0 -0.88535153152E+03  0.55255407280E+03 -0.72059213263E+03  0.12682341946E+04  0.12699999809E+01 0.  1.
       -4    1    3    3    0  502  0.88535153152E+03 -0.55255407280E+03 -0.47312747866E+03  0.11458684749E+04  0.12699999809E+01 0. -1.
</event>
<event>
 5   0  0.1435410E-05  0.2102848E+04  0.7818609E-02  0.8559990E-01
       -1   -1    0    0    0  501  0.00000000000E+00  0.00000000000E+00  0.11063817397E+04  0.11063817397E+04  0.50400001928E-02 0.  1.
        1   -1    0    0  501    0  0.00000000000E+00  0.00000000000E+00 -0.99919616299E+03  0.99919616300E+03  0.50400001928E-02 0. -1.
    10030    2    1    2    0    0  0.00000000000E+00  0.00000000000E+00  0.10718557674E+03  0.21055779027E+04  0.21028479633E+04 0.  0.
        2    1    3    3  502    0 -0.48909038427E+03 -0.27137769052E+03 -0.83786472040E+03  0.10074088269E+04  0.25500000920E-02 0. -1.
       -2    1    3    3    0  502  0.48909038427E+03  0.27137769052E+03  0.94505029714E+03  0.10981690758E+04  0.25500000920E-02 0.  1.
</event>
<event>
 5   0  0.1453430E-05  0.2097943E+04  0.7818609E-02  0.8562150E-01
       -1   -1    0    0    0  501  0.00000000000E+00  0.00000000000E+00  0.91023818122E+03  0.91023818123E+03  0.50400001928E-02 0.  1.
        1   -1    0    0  501    0  0.00000000000E+00  0.00000000000E+00 -0.12088493942E+04  0.12088493942E+04  0.50400001928E-02 0. -1.
    10030    2    1    2    0    0  0.00000000000E+00  0.00000000000E+00 -0.29861121302E+03  0.21190875755E+04  0.20979426818E+04 0.  0.
        5    1    3    3  502    0 -0.53116676139E+03  0.21514932184E+01  0.76434187544E+03  0.93079715829E+03  0.46999998093E+01 0.  1.
       -5    1    3    3    0  502  0.53116676139E+03 -0.21514932184E+01 -0.10629530885E+04  0.11882904172E+04  0.46999998093E+01 0. -1.
</event>
<event>
 5   0  0.1435410E-05  0.2091082E+04  0.7818609E-02  0.8565182E-01
        1   -1    0    0  501    0  0.00000000000E+00  0.00000000000E+00  0.69437884920E+03  0.69437884922E+03  0.50400001928E-02 0.  1.
       -1   -1    0    0    0  501  0.00000000000E+00  0.00000000000E+00 -0.15742929846E+04  0.15742929846E+04  0.50400001928E-02 0. -1.
    10030    2    1    2    0    0  0.00000000000E+00  0.00000000000E+00 -0.87991413541E+03  0.22686718338E+04  0.20910817784E+04 0.  0.
        2    1    3    3  502    0  0.62863413509E+03 -0.65812983525E+03  0.11837483930E+03  0.91778448365E+03  0.25500000920E-02 0.  1.
       -2    1    3    3    0  502 -0.62863413509E+03  0.65812983525E+03 -0.99828897471E+03  0.13508873502E+04  0.25500000920E-02 0. -1.
</event>
<event>
 5   0  0.1129987E-05  0.2107013E+04  0.7818609E-02  0.8558161E-01
       -3   -1    0    0    0  501  0.00000000000E+00  0.00000000000E+00  0.24968286609E+04  0.24968286630E+04  0.10100000352E+00 0. -1.
        3   -1    0    0  501    0  0.00000000000E+00  0.00000000000E+00 -0.44451411369E+03  0.44451412516E+03  0.10100000352E+00 0.  1.
    10030    2    1    2    0    0  0.00000000000E+00  0.00000000000E+00  0.20523145472E+04  0.29413427881E+04  0.21070126712E+04 0.  0.
        5    1    3    3  502    0 -0.10384927366E+04  0.13174573251E+03  0.86080957551E+03  0.13553004528E+04  0.46999998093E+01 0.  1.
       -5    1    3    3    0  502  0.10384927366E+04 -0.13174573251E+03  0.11915049717E+04  0.15860423354E+04  0.46999998093E+01 0. -1.
</event>
<event>
 5   0  0.3279789E-05  0.2101657E+04  0.7818609E-02  0.8560514E-01
       -2   -1    0    0    0  501  0.00000000000E+00  0.00000000000E+00  0.82203929922E+03  0.82203929922E+03  0.25500000920E-02 0.  1.
        2   -1    0    0  501    0  0.00000000000E+00  0.00000000000E+00 -0.13432943174E+04  0.13432943174E+04  0.25500000920E-02 0. -1.
    10030    2    1    2    0    0  0.00000000000E+00  0.00000000000E+00 -0.52125501814E+03  0.21653336166E+04  0.21016571740E+04 0.  0.
        2    1    3    3  502    0  0.18467278295E+03  0.80586460899E+03  0.40765325789E+03  0.92179335182E+03  0.25500000920E-02 0.  1.
       -2    1    3    3    0  502 -0.18467278295E+03 -0.80586460899E+03 -0.92890827603E+03  0.12435402648E+04  0.25500000920E-02 0. -1.
</event>
<event>
 5   0  0.3257130E-05  0.2098666E+04  0.7818609E-02  0.8561831E-01
       -2   -1    0    0    0  501  0.00000000000E+00  0.00000000000E+00  0.58582547487E+03  0.58582547488E+03  0.25500000920E-02 0. -1.
        2   -1    0    0  501    0  0.00000000000E+00  0.00000000000E+00 -0.18795689330E+04  0.18795689330E+04  0.25500000920E-02 0.  1.
    10030    2    1    2    0    0  0.00000000000E+00  0.00000000000E+00 -0.12937434581E+04  0.24653944079E+04  0.20986656358E+04 0.  0.
        3    1    3    3  502    0  0.31627770667E+02 -0.14749046907E+02  0.58514357977E+03  0.58618330700E+03  0.10100000352E+00 0. -1.
       -3    1    3    3    0  502 -0.31627770667E+02  0.14749046907E+02 -0.18788870379E+04  0.18792111009E+04  0.10100000352E+00 0.  1.
</event>
<event>
 5   0  0.3279789E-05  0.2102996E+04  0.7818609E-02  0.8559925E-01
       -2   -1    0    0    0  501  0.00000000000E+00  0.00000000000E+00  0.10636820706E+04  0.10636820706E+04  0.25500000920E-02 0. -1.
        2   -1    0    0  501    0  0.00000000000E+00  0.00000000000E+00 -0.10394533162E+04  0.10394533162E+04  0.25500000920E-02 0.  1.
    10030    2    1    2    0    0  0.00000000000E+00  0.00000000000E+00  0.24228754432E+02  0.21031353869E+04  0.21029958209E+04 0.  0.
        2    1    3    3  502    0 -0.13685718065E+03 -0.93515557828E+03  0.47301589102E+03  0.10568774180E+04  0.25500000920E-02 0. -1.
       -2    1    3    3    0  502  0.13685718065E+03  0.93515557828E+03 -0.44878713658E+03  0.10462579689E+04  0.25500000920E-02 0.  1.
</event>
<event>
 5   0  0.1466480E-05  0.2099970E+04  0.7818609E-02  0.8561256E-01
        1   -1    0    0  501    0  0.00000000000E+00  0.00000000000E+00  0.13914365623E+04  0.13914365623E+04  0.50400001928E-02 0. -1.
       -1   -1    0    0    0  501  0.00000000000E+00  0.00000000000E+00 -0.79232417828E+03  0.79232417830E+03  0.50400001928E-02 0.  1.
    10030    2    1    2    0    0  0.00000000000E+00  0.00000000000E+00  0.59911238405E+03  0.21837607406E+04  0.20999703149E+04 0.  0.
        3    1    3    3  502    0 -0.63274067598E+03  0.32351338827E+03 -0.50423204006E+03  0.87136194308E+03  0.10100000352E+00 0.  1.
       -3    1    3    3    0  502  0.63274067598E+03 -0.32351338827E+03  0.11033444241E+04  0.13123987976E+04  0.10100000352E+00 0. -1.
</event>
<event>
 5   0  0.1453430E-05  0.2098358E+04  0.7818609E-02  0.8561967E-01
       -1   -1    0    0    0  501  0.00000000000E+00  0.00000000000E+00  0.71942678208E+03  0.71942678209E+03  0.50400001928E-02 0. -1.
        1   -1    0    0  501    0  0.00000000000E+00  0.00000000000E+00 -0.15300743365E+04  0.15300743365E+04  0.50400001928E-02 0.  1.
    10030    2    1    2    0    0  0.00000000000E+00  0.00000000000E+00 -0.81064755441E+03  0.22495011186E+04  0.20983578877E+04 0.  0.
        5    1    3    3  502    0 -0.59613511252E+03  0.57391247500E+03  0.28611580615E+03  0.87557806383E+03  0.46999998093E+01 0. -1.
       -5    1    3    3    0  502  0.59613511252E+03 -0.57391247500E+03 -0.10967633606E+04  0.13739230548E+04  0.46999998093E+01 0.  1.
</event>
<event>
 5   0  0.3108326E-05  0.2099276E+04  0.7818609E-02  0.8561562E-01
       -2   -1    0    0    0  501  0.00000000000E+00  0.00000000000E+00  0.81612878755E+03  0.81612878756E+03  0.25500000920E-02 0.  1.
        2   -1    0    0  501    0  0.00000000000E+00  0.00000000000E+00 -0.13499581160E+04  0.13499581160E+04  0.25500000920E-02 0. -1.
    10030    2    1    2    0    0  0.00000000000E+00  0.00000000000E+00 -0.53382932840E+03  0.21660869035E+04  0.20992757612E+04 0.  0.
        5    1    3    3  502    0  0.52022437859E+03 -0.79776079975E+02 -0.12039579192E+04  0.13139765555E+04  0.46999998093E+01 0. -1.
       -5    1    3    3    0  502 -0.52022437859E+03  0.79776079975E+02  0.67012859083E+03  0.85211034805E+03  0.46999998093E+01 0.  1.
</event>
<event>
 5   0  0.1453430E-05  0.2101712E+04  0.7818609E-02  0.8560490E-01
       -1   -1    0    0    0  501  0.00000000000E+00  0.00000000000E+00  0.86459325330E+03  0.86459325331E+03  0.50400001928E-02 0.  1.
        1   -1    0    0  501    0  0.00000000000E+00  0.00000000000E+00 -0.12772460791E+04  0.12772460791E+04  0.50400001928E-02 0. -1.
    10030    2    1    2    0    0  0.00000000000E+00  0.00000000000E+00 -0.41265282575E+03  0.21418393324E+04  0.21017120096E+04 0.  0.
        5    1    3    3  502    0  0.23870939355E+03  0.67608012835E+03 -0.98924547865E+03  0.12217590685E+04  0.46999998093E+01 0. -1.
       -5    1    3    3    0  502 -0.23870939355E+03 -0.67608012835E+03  0.57659265290E+03  0.92008026383E+03  0.46999998093E+01 0.  1.
</event>
<event>
 5   0  0.1435410E-05  0.2102533E+04  0.7818609E-02  0.8560129E-01
        1   -1    0    0  501    0  0.00000000000E+00  0.00000000000E+00  0.22795685668E+04  0.22795685668E+04  0.50400001928E-02 0. -1.
       -1   -1    0    0    0  501  0.00000000000E+00  0.00000000000E+00 -0.48481140626E+03  0.48481140629E+03  0.50400001928E-02 0.  1.
    10030    2    1    2    0    0  0.00000000000E+00  0.00000000000E+00  0.17947571605E+04  0.27643799731E+04  0.21025326086E+04 0.  0.
        2    1    3    3  502    0 -0.90203682490E+02  0.20778410630E+03 -0.45234357872E+03  0.50589094910E+03  0.25500000920E-02 0.  1.
       -2    1    3    3    0  502  0.90203682490E+02 -0.20778410630E+03  0.22471007392E+04  0.22584890240E+04  0.25500000920E-02 0. -1.
</event>
<event>
 5   0  0.3108326E-05  0.2064036E+04  0.7818609E-02  0.8577253E-01
       -2   -1    0    0    0  501  0.00000000000E+00  0.00000000000E+00  0.86244940461E+03  0.86244940462E+03  0.25500000920E-02 0.  1.
        2   -1    0    0  501    0  0.00000000000E+00  0.00000000000E+00 -0.12349263793E+04  0.12349263793E+04  0.25500000920E-02 0. -1.
    10030    2    1    2    0    0  0.00000000000E+00  0.00000000000E+00 -0.37247697471E+03  0.20973757839E+04  0.20640363568E+04 0.  0.
        5    1    3    3  502    0  0.10225554679E+03  0.24640978688E+03  0.82679243761E+03  0.86878179355E+03  0.46999998093E+01 0.  1.
       -5    1    3    3    0  502 -0.10225554679E+03 -0.24640978688E+03 -0.11992694123E+04  0.12285939904E+04  0.46999998093E+01 0. -1.
</event>
<event>
 5   0  0.1513292E-05  0.2090229E+04  0.7818609E-02  0.8565560E-01
        1   -1    0    0  501    0  0.00000000000E+00  0.00000000000E+00  0.11553415076E+04  0.11553415076E+04  0.50400001928E-02 0. -1.
       -1   -1    0    0    0  501  0.00000000000E+00  0.00000000000E+00 -0.94540353212E+03  0.94540353213E+03  0.50400001928E-02 0.  1.
    10030    2    1    2    0    0  0.00000000000E+00  0.00000000000E+00  0.20993797545E+03  0.21007450397E+04  0.20902286402E+04 0.  0.
        1    1    3    3  502    0 -0.74760861633E+02 -0.10418807586E+04  0.13918791016E+03  0.10537921882E+04  0.50400001928E-02 0. -1.
       -1    1    3    3    0  502  0.74760861633E+02  0.10418807586E+04  0.70750065287E+02  0.10469528515E+04  0.50400001928E-02 0.  1.
</event>
<event>
 5   0  0.3257130E-05  0.2012753E+04  0.7818609E-02  0.8600681E-01
       -2   -1    0    0    0  501  0.00000000000E+00  0.00000000000E+00  0.87542238459E+03  0.87542238459E+03  0.25500000920E-02 0.  1.
        2   -1    0    0  501    0  0.00000000000E+00  0.00000000000E+00 -0.11569202279E+04  0.11569202279E+04  0.25500000920E-02 0. -1.
    10030    2    1    2    0    0  0.00000000000E+00  0.00000000000E+00 -0.28149784334E+03  0.20323426125E+04  0.20127532037E+04 0.  0.
        3    1    3    3  502    0  0.43240483966E+03 -0.31757216538E+03  0.71898836815E+03  0.89708991151E+03  0.10100000352E+00 0.  1.
       -3    1    3    3    0  502 -0.43240483966E+03  0.31757216538E+03 -0.10004862115E+04  0.11352527010E+04  0.10100000352E+00 0. -1.
</event>
<event>
 5   0  0.3130517E-05  0.2099609E+04  0.7818609E-02  0.8561416E-01
        2   -1    0    0  501    0  0.00000000000E+00  0.00000000000E+00  0.10754260470E+04  0.10754260470E+04  0.25500000920E-02 0. -1.
       -2   -1    0    0    0  501  0.00000000000E+00  0.00000000000E+00 -0.10247929813E+04  0.10247929813E+04  0.25500000920E-02 0.  1.
    10030    2    1    2    0    0  0.00000000000E+00  0.00000000000E+00  0.50633065618E+02  0.21002190283E+04  0.20996085967E+04 0.  0.
        1    1    3    3  502    0  0.86516715824E+03  0.40180447685E+03 -0.41313500249E+03  0.10395391188E+04  0.50400001928E-02 0.  1.
       -1    1    3    3    0  502 -0.86516715824E+03 -0.40180447685E+03  0.46376806811E+03  0.10606799095E+04  0.50400001928E-02 0. -1.
</event>
<event>
 5   0  0.3257130E-05  0.2095693E+04  0.7818609E-02  0.8563143E-01
        2   -1    0    0  501    0  0.00000000000E+00  0.00000000000E+00  0.97366745813E+03  0.97366745814E+03  0.25500000920E-02 0.  1.
       -2   -1    0    0    0  501  0.00000000000E+00  0.00000000000E+00 -0.11276772732E+04  0.11276772732E+04  0.25500000920E-02 0. -1.
    10030    2    1    2    0    0  0.00000000000E+00  0.00000000000E+00 -0.15400981508E+03  0.21013447314E+04  0.20956933594E+04 0.  0.
        3    1    3    3  502    0 -0.97907204060E+02 -0.99168666165E+03  0.24783538296E+03  0.10268644715E+04  0.10100000352E+00 0.  1.
       -3    1    3    3    0  502  0.97907204060E+02  0.99168666165E+03 -0.40184519804E+03  0.10744802599E+04  0.10100000352E+00 0. -1.
</event>
<event>
 5   0  0.1435410E-05  0.2106706E+04  0.7818609E-02  0.8558295E-01
        1   -1    0    0  501    0  0.00000000000E+00  0.00000000000E+00  0.16215768300E+04  0.16215768300E+04  0.50400001928E-02 0. -1.
       -1   -1    0    0    0  501  0.00000000000E+00  0.00000000000E+00 -0.68424275458E+03  0.68424275460E+03  0.50400001928E-02 0.  1.
    10030    2    1    2    0    0  0.00000000000E+00  0.00000000000E+00  0.93733407541E+03  0.23058195846E+04  0.21067056719E+04 0.  0.
        2    1    3    3  502    0 -0.11276918007E+03  0.10331812539E+04  0.28108692971E+03  0.10766569804E+04  0.25500000920E-02 0. -1.
       -2    1    3    3    0  502  0.11276918007E+03 -0.10331812539E+04  0.65624714571E+03  0.12291626042E+04  0.25500000920E-02 0.  1.
</event>
<event>
 5   0  0.3242231E-05  0.2089672E+04  0.7818609E-02  0.8565807E-01
       -2   -1    0    0    0  501  0.00000000000E+00  0.00000000000E+00  0.90388241291E+03  0.90388241291E+03  0.25500000920E-02 0. -1.
        2   -1    0    0  501    0  0.00000000000E+00  0.00000000000E+00 -0.12077699546E+04  0.12077699546E+04  0.25500000920E-02 0.  1.
    10030    2    1    2    0    0  0.00000000000E+00  0.00000000000E+00 -0.30388754169E+03  0.21116523675E+04  0.20896717645E+04 0.  0.
        4    1    3    3  502    0 -0.11563014460E+03  0.37515702069E+03 -0.11304093941E+04  0.11966370092E+04  0.12699999809E+01 0.  1.
       -4    1    3    3    0  502  0.11563014460E+03 -0.37515702069E+03  0.82652185244E+03  0.91501535833E+03  0.12699999809E+01 0. -1.
</event>
<event>
 5   0  0.1453430E-05  0.2051245E+04  0.7818609E-02  0.8583030E-01
       -1   -1    0    0    0  501  0.00000000000E+00  0.00000000000E+00  0.55167607491E+03  0.55167607493E+03  0.50400001928E-02 0.  1.
        1   -1    0    0  501    0  0.00000000000E+00  0.00000000000E+00 -0.19067372125E+04  0.19067372125E+04  0.50400001928E-02 0. -1.
    10030    2    1    2    0    0  0.00000000000E+00  0.00000000000E+00 -0.13550611376E+04  0.24584132874E+04  0.20512447941E+04 0.  0.
        5    1    3    3  502    0 -0.11669242343E+03 -0.58199593771E+03 -0.16799386377E+04  0.17817273387E+04  0.46999998093E+01 0. -1.
       -5    1    3    3    0  502  0.11669242343E+03  0.58199593771E+03  0.32487750005E+03  0.67668594875E+03  0.46999998093E+01 0.  1.
</event>
<event>
 5   0  0.1435410E-05  0.2099311E+04  0.7818609E-02  0.8561547E-01
        1   -1    0    0  501    0  0.00000000000E+00  0.00000000000E+00  0.21689465789E+04  0.21689465789E+04  0.50400001928E-02 0. -1.
       -1   -1    0    0    0  501  0.00000000000E+00  0.00000000000E+00 -0.50797770029E+03  0.50797770031E+03  0.50400001928E-02 0.  1.
    10030    2    1    2    0    0  0.00000000000E+00  0.00000000000E+00  0.16609688786E+04  0.26769242792E+04  0.20993108348E+04 0.  0.
        2    1    3    3  502    0 -0.33352529132E+03 -0.86187237041E+03  0.14651341450E+04  0.17322474320E+04  0.25500000920E-02 0. -1.
       -2    1    3    3    0  502  0.33352529132E+03  0.86187237041E+03  0.19583473365E+03  0.94467684725E+03  0.25500000920E-02 0.  1.
</event>
<event>
 5   0  0.1129987E-05  0.2072278E+04  0.7818609E-02  0.8573554E-01
        3   -1    0    0  501    0  0.00000000000E+00  0.00000000000E+00  0.10980659039E+04  0.10980659085E+04  0.10100000352E+00 0.  1.
       -3   -1    0    0    0  501  0.00000000000E+00  0.00000000000E+00 -0.97770491579E+03  0.97770492101E+03  0.10100000352E+00 0. -1.
    10030    2    1    2    0    0  0.00000000000E+00  0.00000000000E+00  0.12036098806E+03  0.20757708295E+04  0.20722784005E+04 0.  0.
        3    1    3    3  502    0  0.45032109040E+03 -0.12996523161E+03  0.98580730688E+03  0.10915567335E+04  0.10100000352E+00 0.  1.
       -3    1    3    3    0  502 -0.45032109040E+03  0.12996523161E+03 -0.86544631882E+03  0.98421409604E+03  0.10100000352E+00 0. -1.
</event>
<event>
 5   0  0.1435410E-05  0.2096914E+04  0.7818609E-02  0.8562604E-01
        1   -1    0    0  501    0  0.00000000000E+00  0.00000000000E+00  0.60275248534E+03  0.60275248536E+03  0.50400001928E-02 0.  1.
       -1   -1    0    0    0  501  0.00000000000E+00  0.00000000000E+00 -0.18237379495E+04  0.18237379495E+04  0.50400001928E-02 0. -1.
    10030    2    1    2    0    0  0.00000000000E+00  0.00000000000E+00 -0.12209854641E+04  0.24264904348E+04  0.20969144777E+04 0.  0.
        2    1    3    3  502    0 -0.10462350587E+04 -0.60868418155E+01 -0.53185837861E+03  0.11736772055E+04  0.25500000920E-02 0. -1.
       -2    1    3    3    0  502  0.10462350587E+04  0.60868418155E+01 -0.68912708552E+03  0.12528132294E+04  0.25500000920E-02 0.  1.
</event>
<event>
 5   0  0.1466480E-05  0.2099971E+04  0.7818609E-02  0.8561256E-01
        1   -1    0    0  501    0  0.00000000000E+00  0.00000000000E+00  0.75295914203E+03  0.75295914205E+03  0.50400001928E-02 0.  1.
       -1   -1    0    0    0  501  0.00000000000E+00  0.00000000000E+00 -0.14641827700E+04  0.14641827700E+04  0.50400001928E-02 0. -1.
    10030    2    1    2    0    0  0.00000000000E+00  0.00000000000E+00 -0.71122362795E+03  0.22171419120E+04  0.20999712401E+04 0.  0.
        3    1    3    3  502    0 -0.88021203998E+03 -0.23784733349E+03  0.19413799828E+03  0.93222001799E+03  0.10100000352E+00 0.  1.
       -3    1    3    3    0  502  0.88021203998E+03  0.23784733349E+03 -0.90536162622E+03  0.12849218941E+04  0.10100000352E+00 0. -1.
</event>
<event>
 5   0  0.1453430E-05  0.2104476E+04  0.7818609E-02  0.8559274E-01
       -1   -1    0    0    0  501  0.00000000000E+00  0.00000000000E+00  0.52584506795E+03  0.52584506797E+03  0.50400001928E-02 0.  1.
        1   -1    0    0  501    0  0.00000000000E+00  0.00000000000E+00 -0.21055717077E+04  0.21055717078E+04  0.50400001928E-02 0. -1.
    10030    2    1    2    0    0  0.00000000000E+00  0.00000000000E+00 -0.15797266398E+04  0.26314167757E+04  0.21044757046E+04 0.  0.
        5    1    3    3  502    0  0.71818543494E+03 -0.71384219727E+03 -0.11475305837E+04  0.15304278918E+04  0.46999998093E+01 0. -1.
       -5    1    3    3    0  502 -0.71818543494E+03  0.71384219727E+03 -0.43219605613E+03  0.11009888839E+04  0.46999998093E+01 0.  1.
</event>
<event>
 5   0  0.3108326E-05  0.2112295E+04  0.7818609E-02  0.8555847E-01
        2   -1    0    0  501    0  0.00000000000E+00  0.00000000000E+00  0.10108826990E+04  0.10108826990E+04  0.25500000920E-02 0. -1.
       -2   -1    0    0    0  501  0.00000000000E+00  0.00000000000E+00 -0.11034388322E+04  0.11034388322E+04  0.25500000920E-02 0.  1.
    10030    2    1    2    0    0  0.00000000000E+00  0.00000000000E+00 -0.92556133254E+02  0.21143215312E+04  0.21122947000E+04 0.  0.
        5    1    3    3  502    0 -0.10781379095E+03 -0.10313983999E+04  0.15396053608E+03  0.10483951590E+04  0.46999998093E+01 0. -1.
       -5    1    3    3    0  502  0.10781379095E+03  0.10313983999E+04 -0.24651666934E+03  0.10659263722E+04  0.46999998093E+01 0.  1.
</event>
<event>
 5   0  0.1513292E-05  0.2104032E+04  0.7818609E-02  0.8559469E-01
        1   -1    0    0  501    0  0.00000000000E+00  0.00000000000E+00  0.16558063989E+04  0.16558063989E+04  0.50400001928E-02 0.  1.
       -1   -1    0    0    0  501  0.00000000000E+00  0.00000000000E+00 -0.66839813168E+03  0.66839813169E+03  0.50400001928E-02 0. -1.
    10030    2    1    2    0    0  0.00000000000E+00  0.00000000000E+00  0.98740826720E+03  0.23242045306E+04  0.21040322274E+04 0.  0.
        1    1    3    3  502    0 -0.22101464969E+03  0.10107252216E+04  0.28316904106E+03  0.10726591512E+04  0.50400001928E-02 0. -1.
       -1    1    3    3    0  502  0.22101464969E+03 -0.10107252216E+04  0.70423922614E+03  0.12515453793E+04  0.50400001928E-02 0.  1.
</event>
<event>
 5   0  0.1453430E-05  0.2068473E+04  0.7818609E-02  0.8575260E-01
        1   -1    0    0  501    0  0.00000000000E+00  0.00000000000E+00  0.15262101751E+04  0.15262101751E+04  0.50400001928E-02 0.  1.
       -1   -1    0    0    0  501  0.00000000000E+00  0.00000000000E+00 -0.70085029813E+03  0.70085029815E+03  0.50400001928E-02 0. -1.
    10030    2    1    2    0    0  0.00000000000E+00  0.00000000000E+00  0.82535987696E+03  0.22270604733E+04  0.20684727277E+04 0.  0.
        5    1    3    3  502    0 -0.86309444640E+03  0.12822308314E+03  0.10104490365E+04  0.13350664882E+04  0.46999998093E+01 0.  1.
       -5    1    3    3    0  502  0.86309444640E+03 -0.12822308314E+03 -0.18508915954E+03  0.89199398509E+03  0.46999998093E+01 0. -1.
</event>
<event>
 5   0  0.1492552E-05  0.2102156E+04  0.7818609E-02  0.8560294E-01
        1   -1    0    0  501    0  0.00000000000E+00  0.00000000000E+00  0.23033562733E+04  0.23033562733E+04  0.50400001928E-02 0. -1.
       -1   -1    0    0    0  501  0.00000000000E+00  0.00000000000E+00 -0.47963265359E+03  0.47963265362E+03  0.50400001928E-02 0.  1.
    10030    2    1    2    0    0  0.00000000000E+00  0.00000000000E+00  0.18237236198E+04  0.27829889270E+04  0.21021559234E+04 0.  0.
        4    1    3    3  502    0  0.93344403272E+03  0.46284115084E+03  0.10954157186E+04  0.15117793829E+04  0.12699999809E+01 0. -1.
       -4    1    3    3    0  502 -0.93344403272E+03 -0.46284115084E+03  0.72830790116E+03  0.12712095441E+04  0.12699999809E+01 0.  1.
</event>
<event>
 5   0  0.1435410E-05  0.2107126E+04  0.7818609E-02  0.8558111E-01
        1   -1    0    0  501    0  0.00000000000E+00  0.00000000000E+00  0.12467666946E+04  0.12467666946E+04  0.50400001928E-02 0.  1.
       -1   -1    0    0    0  501  0.00000000000E+00  0.00000000000E+00 -0.89029869562E+03  0.89029869563E+03  0.50400001928E-02 0. -1.
    10030    2    1    2    0    0  0.00000000000E+00  0.00000000000E+00  0.35646799901E+03  0.21370653903E+04  0.21071257789E+04 0.  0.
        2    1    3    3  502    0 -0.76808017657E+03 -0.13320017066E+03  0.89703924725E+03  0.11884312577E+04  0.25500000920E-02 0.  1.
       -2    1    3    3    0  502  0.76808017657E+03  0.13320017066E+03 -0.54057124824E+03  0.94863413260E+03  0.25500000920E-02 0. -1.
</event>
<event>
 5   0  0.3279789E-05  0.2083422E+04  0.7818609E-02  0.8568581E-01
        2   -1    0    0  501    0  0.00000000000E+00  0.00000000000E+00  0.11206780153E+04  0.11206780153E+04  0.25500000920E-02 0. -1.
       -2   -1    0    0    0  501  0.00000000000E+00  0.00000000000E+00 -0.96830836795E+03  0.96830836795E+03  0.25500000920E-02 0.  1.
    10030    2    1    2    0    0  0.00000000000E+00  0.00000000000E+00  0.15236964740E+03  0.20889863833E+04  0.20834220888E+04 0.  0.
        2    1    3    3  502    0  0.31858059425E+03  0.61045107553E+03  0.85994875261E+03  0.11016605502E+04  0.25500000920E-02 0. -1.
       -2    1    3    3    0  502 -0.31858059425E+03 -0.61045107553E+03 -0.70757910522E+03  0.98732583314E+03  0.25500000920E-02 0.  1.
</event>
<event>
 5   0  0.3257130E-05  0.2097545E+04  0.7818609E-02  0.8562326E-01
        2   -1    0    0  501    0  0.00000000000E+00  0.00000000000E+00  0.57110658441E+03  0.57110658441E+03  0.25500000920E-02 0. -1.
       -2   -1    0    0    0  501  0.00000000000E+00  0.00000000000E+00 -0.19259511753E+04  0.19259511753E+04  0.25500000920E-02 0.  1.
    10030    2    1    2    0    0  0.00000000000E+00  0.00000000000E+00 -0.13548445909E+04  0.24970577597E+04  0.20975446574E+04 0.  0.
        3    1    3    3  502    0 -0.10428346572E+04  0.11020778573E+03 -0.69711036684E+03  0.12592111626E+04  0.10100000352E+00 0.  1.
       -3    1    3    3    0  502  0.10428346572E+04 -0.11020778573E+03 -0.65773422404E+03  0.12378465971E+04  0.10100000352E+00 0. -1.
</event>
<event>
 5   0  0.3242231E-05  0.2088911E+04  0.7818609E-02  0.8566144E-01
        2   -1    0    0  501    0  0.00000000000E+00  0.00000000000E+00  0.11245267884E+04  0.11245267884E+04  0.25500000920E-02 0.  1.
       -2   -1    0    0    0  501  0.00000000000E+00  0.00000000000E+00 -0.97008561357E+03  0.97008561358E+03  0.25500000920E-02 0. -1.
    10030    2    1    2    0    0  0.00000000000E+00  0.00000000000E+00  0.15444117480E+03  0.20946124020E+04  0.20889109694E+04 0.  0.
        4    1    3    3  502    0  0.59108225521E+03  0.25645532021E+03  0.90149712433E+03  0.11080822360E+04  0.12699999809E+01 0.  1.
       -4    1    3    3    0  502 -0.59108225521E+03 -0.25645532021E+03 -0.74705594953E+03  0.98653016594E+03  0.12699999809E+01 0. -1.
</event>
<event>
 5   0  0.1453430E-05  0.2094823E+04  0.7818609E-02  0.8563527E-01
       -1   -1    0    0    0  501  0.00000000000E+00  0.00000000000E+00  0.76584930114E+03  0.76584930115E+03  0.50400001928E-02 0.  1.
        1   -1    0    0  501    0  0.00000000000E+00  0.00000000000E+00 -0.14324896795E+04  0.14324896795E+04  0.50400001928E-02 0. -1.
    10030    2    1    2    0    0  0.00000000000E+00  0.00000000000E+00 -0.66664037836E+03  0.21983389807E+04  0.20948233529E+04 0.  0.
        5    1    3    3  502    0  0.35518971735E+03 -0.41350965407E+03 -0.12718863123E+04  0.13837871407E+04  0.46999998093E+01 0. -1.
       -5    1    3    3    0  502 -0.35518971735E+03  0.41350965407E+03  0.60524593399E+03  0.81455183993E+03  0.46999998093E+01 0.  1.
</event>
<event>
 5   0  0.3130517E-05  0.2092971E+04  0.7818609E-02  0.8564346E-01
        2   -1    0    0  501    0  0.00000000000E+00  0.00000000000E+00  0.16984434804E+04  0.16984434804E+04  0.25500000920E-02 0.  1.
       -2   -1    0    0    0  501  0.00000000000E+00  0.00000000000E+00 -0.64478565904E+03  0.64478565905E+03  0.25500000920E-02 0. -1.
    10030    2    1    2    0    0  0.00000000000E+00  0.00000000000E+00  0.10536578213E+04  0.23432291394E+04  0.20929710928E+04 0.  0.
        1    1    3    3  502    0  0.26403947667E+03 -0.98647883027E+03  0.78280369365E+03  0.12867163443E+04  0.50400001928E-02 0.  1.
       -1    1    3    3    0  502 -0.26403947667E+03  0.98647883027E+03  0.27085412770E+03  0.10565127952E+04  0.50400001928E-02 0. -1.
</event>
<event>
 5   0  0.3108326E-05  0.2104249E+04  0.7818609E-02  0.8559374E-01
       -2   -1    0    0    0  501  0.00000000000E+00  0.00000000000E+00  0.79575116306E+03  0.79575116306E+03  0.25500000920E-02 0.  1.
        2   -1    0    0  501    0  0.00000000000E+00  0.00000000000E+00 -0.13910953966E+04  0.13910953966E+04  0.25500000920E-02 0. -1.
    10030    2    1    2    0    0  0.00000000000E+00  0.00000000000E+00 -0.59534423351E+03  0.21868465596E+04  0.21042488253E+04 0.  0.
        5    1    3    3  502    0  0.13806977788E+03  0.61195868372E+03  0.58010410605E+03  0.85445863446E+03  0.46999998093E+01 0.  1.
       -5    1    3    3    0  502 -0.13806977788E+03 -0.61195868372E+03 -0.11754483396E+04  0.13323879252E+04  0.46999998093E+01 0. -1.
</event>
<event>
 5   0  0.1492552E-05  0.2100850E+04  0.7818609E-02  0.8560869E-01
        1   -1    0    0  501    0  0.00000000000E+00  0.00000000000E+00  0.10829801884E+04  0.10829801884E+04  0.50400001928E-02 0.  1.
       -1   -1    0    0    0  501  0.00000000000E+00  0.00000000000E+00 -0.10188487110E+04  0.10188487110E+04  0.50400001928E-02 0. -1.
    10030    2    1    2    0    0  0.00000000000E+00  0.00000000000E+00  0.64131477421E+02  0.21018288994E+04  0.21008502745E+04 0.  0.
        4    1    3    3  502    0 -0.44807094033E+03 -0.46970362669E+02 -0.91727963564E+03  0.10219478095E+04  0.12699999809E+01 0. -1.
       -4    1    3    3    0  502  0.44807094033E+03  0.46970362669E+02  0.98141111306E+03  0.10798810899E+04  0.12699999809E+01 0.  1.
</event>
<event>
 5   0  0.1435410E-05  0.2097274E+04  0.7818609E-02  0.8562445E-01
       -1   -1    0    0    0  501  0.00000000000E+00  0.00000000000E+00  0.14983022231E+04  0.14983022232E+04  0.50400001928E-02 0.  1.
        1   -1    0    0  501    0  0.00000000000E+00  0.00000000000E+00 -0.73392397920E+03  0.73392397922E+03  0.50400001928E-02 0. -1.
    10030    2    1    2    0    0  0.00000000000E+00  0.00000000000E+00  0.76437824394E+03  0.22322262024E+04  0.20972743547E+04 0.  0.
        2    1    3    3  502    0 -0.21622666153E+03 -0.10237847404E+04  0.45555004109E+03  0.11412339830E+04  0.25500000920E-02 0. -1.
       -2    1    3    3    0  502  0.21622666153E+03  0.10237847404E+04  0.30882820285E+03  0.10909922194E+04  0.25500000920E-02 0.  1.
</event>
<event>
 5   0  0.1435410E-05  0.2111244E+04  0.7818609E-02  0.8556306E-01
       -1   -1    0    0    0  501  0.00000000000E+00  0.00000000000E+00  0.67754830418E+03  0.67754830420E+03  0.50400001928E-02 0. -1.
        1   -1    0    0  501    0  0.00000000000E+00  0.00000000000E+00 -0.16446618591E+04  0.16446618592E+04  0.50400001928E-02 0.  1.
    10030    2    1    2    0    0  0.00000000000E+00  0.00000000000E+00 -0.96711355497E+03  0.23222101634E+04  0.21112440443E+04 0.  0.
        2    1    3    3  502    0 -0.34124534965E+03 -0.52400580059E+03  0.45190174056E+03  0.77152164638E+03  0.25500000920E-02 0. -1.
       -2    1    3    3    0  502  0.34124534965E+03  0.52400580059E+03 -0.14190152955E+04  0.15506885170E+04  0.25500000920E-02 0.  1.
</event>
<event>
 5   0  0.1453430E-05  0.2103715E+04  0.7818609E-02  0.8559609E-01
        1   -1    0    0  501    0  0.00000000000E+00  0.00000000000E+00  0.95381630726E+03  0.95381630728E+03  0.50400001928E-02 0. -1.
       -1   -1    0    0    0  501  0.00000000000E+00  0.00000000000E+00 -0.11599760380E+04  0.11599760380E+04  0.50400001928E-02 0.  1.
    10030    2    1    2    0    0  0.00000000000E+00  0.00000000000E+00 -0.20615973071E+03  0.21137923453E+04  0.21037148676E+04 0.  0.
        5    1    3    3  502    0 -0.67430415364E+03  0.57930090298E+03  0.46184676809E+03  0.10017984603E+04  0.46999998093E+01 0. -1.
       -5    1    3    3    0  502  0.67430415364E+03 -0.57930090298E+03 -0.66800649879E+03  0.11119938850E+04  0.46999998093E+01 0.  1.
</event>
<event>
 5   0  0.1435410E-05  0.2101321E+04  0.7818609E-02  0.8560662E-01
        1   -1    0    0  501    0  0.00000000000E+00  0.00000000000E+00  0.95396663819E+03  0.95396663820E+03  0.50400001928E-02 0. -1.
       -1   -1    0    0    0  501  0.00000000000E+00  0.00000000000E+00 -0.11571556805E+04  0.11571556805E+04  0.50400001928E-02 0.  1.
    10030    2    1    2    0    0  0.00000000000E+00  0.00000000000E+00 -0.20318904226E+03  0.21111223187E+04  0.21013214075E+04 0.  0.
        2    1    3    3  502    0  0.10453438073E+04  0.88152646267E+02 -0.15994596509E+03  0.10611773067E+04  0.25500000920E-02 0.  1.
       -2    1    3    3    0  502 -0.10453438073E+04 -0.88152646267E+02 -0.43243077170E+02  0.10499450120E+04  0.25500000920E-02 0. -1.
</event>
<event>
 5   0  0.3279789E-05  0.2093391E+04  0.7818609E-02  0.8564160E-01
        2   -1    0    0  501    0  0.00000000000E+00  0.00000000000E+00  0.12930512330E+04  0.12930512330E+04  0.25500000920E-02 0. -1.
       -2   -1    0    0    0  501  0.00000000000E+00  0.00000000000E+00 -0.84727616866E+03  0.84727616867E+03  0.25500000920E-02 0.  1.
    10030    2    1    2    0    0  0.00000000000E+00  0.00000000000E+00  0.44577506432E+03  0.21403274016E+04  0.20933910237E+04 0.  0.
        2    1    3    3  502    0  0.33622926412E+03 -0.71405143082E+03  0.92579890821E+03  0.12165620339E+04  0.25500000920E-02 0. -1.
       -2    1    3    3    0  502 -0.33622926412E+03  0.71405143082E+03 -0.48002384389E+03  0.92376536773E+03  0.25500000920E-02 0.  1.
</event>
<event>
 5   0  0.3279789E-05  0.2119509E+04  0.7818609E-02  0.8552698E-01
       -2   -1    0    0    0  501  0.00000000000E+00  0.00000000000E+00  0.12034508420E+04  0.12034508420E+04  0.25500000920E-02 0. -1.
        2   -1    0    0  501    0  0.00000000000E+00  0.00000000000E+00 -0.93321642807E+03  0.93321642807E+03  0.25500000920E-02 0.  1.
    10030    2    1    2    0    0  0.00000000000E+00  0.00000000000E+00  0.27023441389E+03  0.21366672700E+04  0.21195094679E+04 0.  0.
        2    1    3    3  502    0  0.39289614084E+02  0.70708769802E+03 -0.65965790101E+03  0.96781466864E+03  0.25500000920E-02 0.  1.
       -2    1    3    3    0  502 -0.39289614084E+02 -0.70708769802E+03  0.92989231490E+03  0.11688526014E+04  0.25500000920E-02 0. -1.
</event>
<event>
 5   0  0.3257130E-05  0.2101199E+04  0.7818609E-02  0.8560715E-01
       -2   -1    0    0    0  501  0.00000000000E+00  0.00000000000E+00  0.73675764912E+03  0.73675764912E+03  0.25500000920E-02 0.  1.
        2   -1    0    0  501    0  0.00000000000E+00  0.00000000000E+00 -0.14981308428E+04  0.14981308428E+04  0.25500000920E-02 0. -1.
    10030    2    1    2    0    0  0.00000000000E+00  0.00000000000E+00 -0.76137319364E+03  0.22348884919E+04  0.21011990461E+04 0.  0.
        3    1    3    3  502    0  0.88075694604E+02  0.58367131756E+03 -0.13050802979E+04  0.14323631276E+04  0.10100000352E+00 0. -1.
       -3    1    3    3    0  502 -0.88075694604E+02 -0.58367131756E+03  0.54370710430E+03  0.80252536433E+03  0.10100000352E+00 0.  1.
</event>
<event>
 5   0  0.1513292E-05  0.2092444E+04  0.7818609E-02  0.8564579E-01
        1   -1    0    0  501    0  0.00000000000E+00  0.00000000000E+00  0.14295035399E+04  0.14295035400E+04  0.50400001928E-02 0. -1.
       -1   -1    0    0    0  501  0.00000000000E+00  0.00000000000E+00 -0.76570698755E+03  0.76570698757E+03  0.50400001928E-02 0.  1.
    10030    2    1    2    0    0  0.00000000000E+00  0.00000000000E+00  0.66379655240E+03  0.21952105275E+04  0.20924443594E+04 0.  0.
        1    1    3    3  502    0  0.78078902301E+03 -0.32369018727E+03  0.97876300637E+03  0.12932068119E+04  0.50400001928E-02 0. -1.
       -1    1    3    3    0  502 -0.78078902301E+03  0.32369018727E+03 -0.31496645398E+03  0.90200371559E+03  0.50400001928E-02 0.  1.
</event>
<event>
 5   0  0.1435410E-05  0.2096111E+04  0.7818609E-02  0.8562958E-01
        1   -1    0    0  501    0  0.00000000000E+00  0.00000000000E+00  0.97371069150E+03  0.97371069151E+03  0.50400001928E-02 0. -1.
       -1   -1    0    0    0  501  0.00000000000E+00  0.00000000000E+00 -0.11280769226E+04  0.11280769226E+04  0.50400001928E-02 0.  1.
    10030    2    1    2    0    0  0.00000000000E+00  0.00000000000E+00 -0.15436623113E+03  0.21017876141E+04  0.20961112188E+04 0.  0.
        2    1    3    3  502    0 -0.93734009478E+03  0.45119286136E+02 -0.54511416608E+03  0.10852611010E+04  0.25500000920E-02 0.  1.
       -2    1    3    3    0  502  0.93734009478E+03 -0.45119286136E+02  0.39074793495E+03  0.10165265132E+04  0.25500000920E-02 0. -1.
</event>
<event>
 5   0  0.1435410E-05  0.2099711E+04  0.7818609E-02  0.8561371E-01
       -1   -1    0    0    0  501  0.00000000000E+00  0.00000000000E+00  0.60140544389E+03  0.60140544391E+03  0.50400001928E-02 0.  1.
        1   -1    0    0  501    0  0.00000000000E+00  0.00000000000E+00 -0.18327008440E+04  0.18327008440E+04  0.50400001928E-02 0. -1.
    10030    2    1    2    0    0  0.00000000000E+00  0.00000000000E+00 -0.12312954001E+04  0.24341062879E+04  0.20997107083E+04 0.  0.
        2    1    3    3  502    0  0.74015905551E+03 -0.36887277381E+02 -0.14777180455E+04  0.16531323966E+04  0.25500000920E-02 0. -1.
       -2    1    3    3    0  502 -0.74015905551E+03  0.36887277381E+02  0.24642264542E+03  0.78097389128E+03  0.25500000920E-02 0.  1.
</event>
<event>
 5   0  0.3257130E-05  0.2099809E+04  0.7818609E-02  0.8561328E-01
       -2   -1    0    0    0  501  0.00000000000E+00  0.00000000000E+00  0.75180556112E+03  0.75180556112E+03  0.25500000920E-02 0. -1.
        2   -1    0    0  501    0  0.00000000000E+00  0.00000000000E+00 -0.14662024289E+04  0.14662024289E+04  0.25500000920E-02 0.  1.
    10030    2    1    2    0    0  0.00000000000E+00  0.00000000000E+00 -0.71439686781E+03  0.22180079900E+04  0.20998086959E+04 0.  0.
        3    1    3    3  502    0  0.74105312047E+03  0.14209055089E+02 -0.11426536003E+04  0.13619907801E+04  0.10100000352E+00 0.  1.
       -3    1    3    3    0  502 -0.74105312047E+03 -0.14209055089E+02  0.42825673249E+03  0.85601720995E+03  0.10100000352E+00 0. -1.
</event>
<event>
 5   0  0.3279789E-05  0.2094707E+04  0.7818609E-02  0.8563579E-01
       -2   -1    0    0    0  501  0.00000000000E+00  0.00000000000E+00  0.87013595710E+03  0.87013595711E+03  0.25500000920E-02 0.  1.
        2   -1    0    0  501    0  0.00000000000E+00  0.00000000000E+00 -0.12606640606E+04  0.12606640606E+04  0.25500000920E-02 0. -1.
    10030    2    1    2    0    0  0.00000000000E+00  0.00000000000E+00 -0.39052810352E+03  0.21308000177E+04  0.20947067852E+04 0.  0.
        2    1    3    3  502    0 -0.36144408475E+03 -0.54012757429E+03  0.64020968964E+03  0.91227631211E+03  0.25500000920E-02 0.  1.
       -2    1    3    3    0  502  0.36144408475E+03  0.54012757429E+03 -0.10307377932E+04  0.12185237056E+04  0.25500000920E-02 0. -1.
</event>
<event>
 5   0  0.3279789E-05  0.2103037E+04  0.7818609E-02  0.8559907E-01
        2   -1    0    0  501    0  0.00000000000E+00  0.00000000000E+00  0.79437763906E+03  0.79437763906E+03  0.25500000920E-02 0.  1.
       -2   -1    0    0    0  501  0.00000000000E+00  0.00000000000E+00 -0.13918962348E+04  0.13918962348E+04  0.25500000920E-02 0. -1.
    10030    2    1    2    0    0  0.00000000000E+00  0.00000000000E+00 -0.59751859575E+03  0.21862738739E+04  0.21030370846E+04 0.  0.
        2    1    3    3  502    0 -0.55017757842E+03  0.29161231503E+03  0.58210132110E+03  0.85239372247E+03  0.25500000920E-02 0.  1.
       -2    1    3    3    0  502  0.55017757842E+03 -0.29161231503E+03 -0.11796199168E+04  0.13338801514E+04  0.25500000920E-02 0. -1.
</event>
<event>
 5   0  0.1492552E-05  0.2095068E+04  0.7818609E-02  0.8563419E-01
       -1   -1    0    0    0  501  0.00000000000E+00  0.00000000000E+00  0.72304383346E+03  0.72304383348E+03  0.50400001928E-02 0.  1.
        1   -1    0    0  501    0  0.00000000000E+00  0.00000000000E+00 -0.15176494623E+04  0.15176494623E+04  0.50400001928E-02 0. -1.
    10030    2    1    2    0    0  0.00000000000E+00  0.00000000000E+00 -0.79460562887E+03  0.22406932958E+04  0.20950676219E+04 0.  0.
        4    1    3    3  502    0 -0.43680463667E+03 -0.19549747494E+03 -0.13939036581E+04  0.14737661193E+04  0.12699999809E+01 0. -1.
       -4    1    3    3    0  502  0.43680463667E+03  0.19549747494E+03  0.59929802926E+03  0.76692717653E+03  0.12699999809E+01 0.  1.
</event>
<event>
 5   0  0.1129987E-05  0.2100645E+04  0.7818609E-02  0.8560959E-01
       -3   -1    0    0    0  501  0.00000000000E+00  0.00000000000E+00  0.77341471699E+03  0.77341472359E+03  0.10100000352E+00 0. -1.
        3   -1    0    0  501    0  0.00000000000E+00  0.00000000000E+00 -0.14263721997E+04  0.14263722033E+04  0.10100000352E+00 0.  1.
    10030    2    1    2    0    0  0.00000000000E+00  0.00000000000E+00 -0.65295748272E+03  0.21997869269E+04  0.21006449127E+04 0.  0.
        4    1    3    3  502    0 -0.30664992226E+03 -0.15625777824E+03  0.71268850069E+03  0.79143994087E+03  0.12699999809E+01 0. -1.
       -4    1    3    3    0  502  0.30664992226E+03  0.15625777824E+03 -0.13656459834E+04  0.14083469860E+04  0.12699999809E+01 0.  1.
</event>
<event>
 5   0  0.3130517E-05  0.2108897E+04  0.7818609E-02  0.8557334E-01
        2   -1    0    0  501    0  0.00000000000E+00  0.00000000000E+00  0.12945905745E+04  0.12945905745E+04  0.25500000920E-02 0.  1.
       -2   -1    0    0    0  501  0.00000000000E+00  0.00000000000E+00 -0.85885226233E+03  0.85885226233E+03  0.25500000920E-02 0. -1.
    10030    2    1    2    0    0  0.00000000000E+00  0.00000000000E+00  0.43573831219E+03  0.21534428368E+04  0.21088973837E+04 0.  0.
        1    1    3    3  502    0 -0.99835791633E+03  0.26786724629E+03  0.43057332044E+03  0.11197610348E+04  0.50400001928E-02 0.  1.
       -1    1    3    3    0  502  0.99835791633E+03 -0.26786724629E+03  0.51649917473E+01  0.10336818021E+04  0.50400001928E-02 0. -1.
</event>
<event>
 5   0  0.3257130E-05  0.2102766E+04  0.7818609E-02  0.8560026E-01
       -2   -1    0    0    0  501  0.00000000000E+00  0.00000000000E+00  0.18121089744E+04  0.18121089744E+04  0.25500000920E-02 0.  1.
        2   -1    0    0  501    0  0.00000000000E+00  0.00000000000E+00 -0.61001111929E+03  0.61001111929E+03  0.25500000920E-02 0. -1.
    10030    2    1    2    0    0  0.00000000000E+00  0.00000000000E+00  0.12020978551E+04  0.24221200937E+04  0.21027663910E+04 0.  0.
        3    1    3    3  502    0  0.48746592915E+03 -0.91908378751E+03  0.42609849891E+03  0.11242321742E+04  0.10100000352E+00 0. -1.
       -3    1    3    3    0  502 -0.48746592915E+03  0.91908378751E+03  0.77599935623E+03  0.12978879195E+04  0.10100000352E+00 0.  1.
</event>
<event>
 5   0  0.1435410E-05  0.2103552E+04  0.7818609E-02  0.8559680E-01
       -1   -1    0    0    0  501  0.00000000000E+00  0.00000000000E+00  0.92691166346E+03  0.92691166348E+03  0.50400001928E-02 0. -1.
        1   -1    0    0  501    0  0.00000000000E+00  0.00000000000E+00 -0.11934604630E+04  0.11934604630E+04  0.50400001928E-02 0.  1.
    10030    2    1    2    0    0  0.00000000000E+00  0.00000000000E+00 -0.26654879949E+03  0.21203721264E+04  0.21035516851E+04 0.  0.
        2    1    3    3  502    0  0.89155300561E+02 -0.12276919007E+02  0.92302340464E+03  0.92740045066E+03  0.25500000920E-02 0. -1.
       -2    1    3    3    0  502 -0.89155300561E+02  0.12276919007E+02 -0.11895722041E+04  0.11929716758E+04  0.25500000920E-02 0.  1.
</event>
<event>
 5   0  0.3257130E-05  0.2095584E+04  0.7818609E-02  0.8563191E-01
       -2   -1    0    0    0  501  0.00000000000E+00  0.00000000000E+00  0.59154760760E+03  0.59154760761E+03  0.25500000920E-02 0.  1.
        2   -1    0    0  501    0  0.00000000000E+00  0.00000000000E+00 -0.18559247967E+04  0.18559247967E+04  0.25500000920E-02 0. -1.
    10030    2    1    2    0    0  0.00000000000E+00  0.00000000000E+00 -0.12643771891E+04  0.24474724043E+04  0.20955838073E+04 0.  0.
        3    1    3    3  502    0 -0.31539862589E+03 -0.99726611833E+03 -0.55970362338E+03  0.11862900827E+04  0.10100000352E+00 0. -1.
       -3    1    3    3    0  502  0.31539862589E+03  0.99726611833E+03 -0.70467356568E+03  0.12611823216E+04  0.10100000352E+00 0.  1.
</event>
<event>
 5   0  0.3279789E-05  0.2102830E+04  0.7818609E-02  0.8559998E-01
        2   -1    0    0  501    0  0.00000000000E+00  0.00000000000E+00  0.16330128531E+04  0.16330128531E+04  0.25500000920E-02 0. -1.
       -2   -1    0    0    0  501  0.00000000000E+00  0.00000000000E+00 -0.67695357561E+03  0.67695357562E+03  0.25500000920E-02 0.  1.
    10030    2    1    2    0    0  0.00000000000E+00  0.00000000000E+00  0.95605927748E+03  0.23099664287E+04  0.21028303687E+04 0.  0.
        2    1    3    3  502    0 -0.28797470029E+03  0.97401277509E+03  0.77653888471E+03  0.12785315614E+04  0.25500000920E-02 0.  1.
       -2    1    3    3    0  502  0.28797470029E+03 -0.97401277509E+03  0.17952039277E+03  0.10314348673E+04  0.25500000920E-02 0. -1.
</event>
<event>
 5   0  0.3108326E-05  0.2099500E+04  0.7818609E-02  0.8561464E-01
       -2   -1    0    0    0  501  0.00000000000E+00  0.00000000000E+00  0.74686031473E+03  0.74686031474E+03  0.25500000920E-02 0. -1.
        2   -1    0    0  501    0  0.00000000000E+00  0.00000000000E+00 -0.14754762795E+04  0.14754762795E+04  0.25500000920E-02 0.  1.
    10030    2    1    2    0    0  0.00000000000E+00  0.00000000000E+00 -0.72861596477E+03  0.22223365942E+04  0.20994996342E+04 0.  0.
        5    1    3    3  502    0 -0.54200612668E+03  0.31556504347E+03  0.52672710822E+03  0.81903325607E+03  0.46999998093E+01 0. -1.
       -5    1    3    3    0  502  0.54200612668E+03 -0.31556504347E+03 -0.12553430730E+04  0.14033033382E+04  0.46999998093E+01 0.  1.
</event>
<event>
 5   0  0.1453430E-05  0.2088250E+04  0.7818609E-02  0.8566437E-01
        1   -1    0    0  501    0  0.00000000000E+00  0.00000000000E+00  0.13412613785E+04  0.13412613785E+04  0.50400001928E-02 0. -1.
       -1   -1    0    0    0  501  0.00000000000E+00  0.00000000000E+00 -0.81281510226E+03  0.81281510227E+03  0.50400001928E-02 0.  1.
    10030    2    1    2    0    0  0.00000000000E+00  0.00000000000E+00  0.52844627626E+03  0.21540764808E+04  0.20882504683E+04 0.  0.
        5    1    3    3  502    0  0.98854955503E+03 -0.32723854941E+03  0.34318764355E+03  0.10964101147E+04  0.46999998093E+01 0.  1.
       -5    1    3    3    0  502 -0.98854955503E+03  0.32723854941E+03  0.18525863271E+03  0.10576663661E+04  0.46999998093E+01 0. -1.
</event>
<event>
 5   0  0.1453430E-05  0.2107385E+04  0.7818609E-02  0.8557997E-01
       -1   -1    0    0    0  501  0.00000000000E+00  0.00000000000E+00  0.74168870618E+03  0.74168870620E+03  0.50400001928E-02 0. -1.
        1   -1    0    0  501    0  0.00000000000E+00  0.00000000000E+00 -0.14969455809E+04  0.14969455809E+04  0.50400001928E-02 0.  1.
    10030    2    1    2    0    0  0.00000000000E+00  0.00000000000E+00 -0.75525687470E+03  0.22386342871E+04  0.21073847595E+04 0.  0.
        5    1    3    3  502    0  0.33890146629E+01  0.90435441503E+02 -0.14927983581E+04  0.14955464160E+04  0.46999998093E+01 0.  1.
       -5    1    3    3    0  502 -0.33890146629E+01 -0.90435441503E+02  0.73754148337E+03  0.74308787111E+03  0.46999998093E+01 0. -1.
</event>
<event>
 5   0  0.3130517E-05  0.2098799E+04  0.7818609E-02  0.8561773E-01
        2   -1    0    0  501    0  0.00000000000E+00  0.00000000000E+00  0.69014617090E+03  0.69014617090E+03  0.25500000920E-02 0. -1.
       -2   -1    0    0    0  501  0.00000000000E+00  0.00000000000E+00 -0.15956609807E+04  0.15956609807E+04  0.25500000920E-02 0.  1.
    10030    2    1    2    0    0  0.00000000000E+00  0.00000000000E+00 -0.90551480979E+03  0.22858071516E+04  0.20987990050E+04 0.  0.
        1    1    3    3  502    0  0.28313938163E+03  0.50683546625E+03 -0.14048280832E+04  0.15200631706E+04  0.50400001928E-02 0.  1.
       -1    1    3    3    0  502 -0.28313938163E+03 -0.50683546625E+03  0.49931327345E+03  0.76574398094E+03  0.50400001928E-02 0. -1.
</event>
<event>
 5   0  0.1435410E-05  0.2098411E+04  0.7818609E-02  0.8561944E-01
       -1   -1    0    0    0  501  0.00000000000E+00  0.00000000000E+00  0.14620678254E+04  0.14620678254E+04  0.50400001928E-02 0.  1.
        1   -1    0    0  501    0  0.00000000000E+00  0.00000000000E+00 -0.75292798279E+03  0.75292798281E+03  0.50400001928E-02 0. -1.
    10030    2    1    2    0    0  0.00000000000E+00  0.00000000000E+00  0.70913984260E+03  0.22149958082E+04  0.20984106162E+04 0.  0.
        2    1    3    3  502    0 -0.43378369462E+03  0.15659081596E+03  0.13493425656E+04  0.14259783788E+04  0.25500000920E-02 0.  1.
       -2    1    3    3    0  502  0.43378369462E+03 -0.15659081596E+03 -0.64020272302E+03  0.78901742942E+03  0.25500000920E-02 0. -1.
</event>
<event>
 5   0  0.3279789E-05  0.2099952E+04  0.7818609E-02  0.8561265E-01
        2   -1    0    0  501    0  0.00000000000E+00  0.00000000000E+00  0.17028855515E+04  0.17028855515E+04  0.25500000920E-02 0.  1.
       -2   -1    0    0    0  501  0.00000000000E+00  0.00000000000E+00 -0.64740083465E+03  0.64740083465E+03  0.25500000920E-02 0. -1.
    10030    2    1    2    0    0  0.00000000000E+00  0.00000000000E+00  0.10554847169E+04  0.23502863862E+04  0.20999519303E+04 0.  0.
        2    1    3    3  502    0 -0.14673576316E+03  0.52507236806E+03  0.15320527122E+04  0.16261666240E+04  0.25500000920E-02 0.  1.
       -2    1    3    3    0  502  0.14673576316E+03 -0.52507236806E+03 -0.47656799532E+03  0.72411976224E+03  0.25500000920E-02 0. -1.
</event>
<event>
 5   0  0.1513292E-05  0.2101201E+04  0.7818609E-02  0.8560714E-01
       -1   -1    0    0    0  501  0.00000000000E+00  0.00000000000E+00  0.46936315042E+03  0.46936315044E+03  0.50400001928E-02 0.  1.
        1   -1    0    0  501    0  0.00000000000E+00  0.00000000000E+00 -0.23516150345E+04  0.23516150345E+04  0.50400001928E-02 0. -1.
    10030    2    1    2    0    0  0.00000000000E+00  0.00000000000E+00 -0.18822518841E+04  0.28209781850E+04  0.21012010291E+04 0.  0.
        1    1    3    3  502    0 -0.73370562970E+03  0.68505625568E+03 -0.52485717240E+03  0.11327405157E+04  0.50400001928E-02 0.  1.
       -1    1    3    3    0  502  0.73370562970E+03 -0.68505625568E+03 -0.13573947117E+04  0.16882376693E+04  0.50400001928E-02 0. -1.
</event>
<event>
 5   0  0.3242231E-05  0.2100731E+04  0.7818609E-02  0.8560922E-01
        2   -1    0    0  501    0  0.00000000000E+00  0.00000000000E+00  0.22694739094E+04  0.22694739094E+04  0.25500000920E-02 0. -1.
       -2   -1    0    0    0  501  0.00000000000E+00  0.00000000000E+00 -0.48613358561E+03  0.48613358561E+03  0.25500000920E-02 0.  1.
    10030    2    1    2    0    0  0.00000000000E+00  0.00000000000E+00  0.17833403237E+04  0.27556074950E+04  0.21007308147E+04 0.  0.
        4    1    3    3  502    0 -0.26811001446E+03  0.56536899277E+03  0.19983140298E+04  0.20939879781E+04  0.12699999809E+01 0. -1.
       -4    1    3    3    0  502  0.26811001446E+03 -0.56536899277E+03 -0.21497370609E+03  0.66161951683E+03  0.12699999809E+01 0.  1.
</event>
<event>
 5   0  0.1492552E-05  0.2099311E+04  0.7818609E-02  0.8561547E-01
       -1   -1    0    0    0  501  0.00000000000E+00  0.00000000000E+00  0.84432362500E+03  0.84432362502E+03  0.50400001928E-02 0.  1.
        1   -1    0    0  501    0  0.00000000000E+00  0.00000000000E+00 -0.13049217463E+04  0.13049217463E+04  0.50400001928E-02 0. -1.
    10030    2    1    2    0    0  0.00000000000E+00  0.00000000000E+00 -0.46059812131E+03  0.21492453713E+04  0.20993106099E+04 0.  0.
        4    1    3    3  502    0  0.76409368106E+02  0.31479277659E+03  0.79186924722E+03  0.85556496032E+03  0.12699999809E+01 0.  1.
       -4    1    3    3    0  502 -0.76409368106E+02 -0.31479277659E+03 -0.12524673685E+04  0.12936804110E+04  0.12699999809E+01 0. -1.
</event>
<event>
 5   0  0.3108326E-05  0.2099412E+04  0.7818609E-02  0.8561502E-01
        2   -1    0    0  501    0  0.00000000000E+00  0.00000000000E+00  0.11831510847E+04  0.11831510847E+04  0.25500000920E-02 0.  1.
       -2   -1    0    0    0  501  0.00000000000E+00  0.00000000000E+00 -0.93131215973E+03  0.93131215973E+03  0.25500000920E-02 0. -1.
    10030    2    1    2    0    0  0.00000000000E+00  0.00000000000E+00  0.25183892497E+03  0.21144632444E+04  0.20994122911E+04 0.  0.
        5    1    3    3  502    0 -0.98207871056E+03  0.37064044724E+03  0.12876230517E+03  0.10575702133E+04  0.46999998093E+01 0. -1.
       -5    1    3    3    0  502  0.98207871056E+03 -0.37064044724E+03  0.12307661980E+03  0.10568930311E+04  0.46999998093E+01 0.  1.
</event>
<event>
 5   0  0.1492552E-05  0.2105162E+04  0.7818609E-02  0.8558973E-01
        1   -1    0    0  501    0  0.00000000000E+00  0.00000000000E+00  0.20916039560E+04  0.20916039560E+04  0.50400001928E-02 0. -1.
       -1   -1    0    0    0  501  0.00000000000E+00  0.00000000000E+00 -0.52970213374E+03  0.52970213376E+03  0.50400001928E-02 0.  1.
    10030    2    1    2    0    0  0.00000000000E+00  0.00000000000E+00  0.15619018223E+04  0.26213060898E+04  0.21051623011E+04 0.  0.
        4    1    3    3  502    0  0.13318327764E+03 -0.97463549181E+03  0.31459260250E+03  0.10327740536E+04  0.12699999809E+01 0.  1.
       -4    1    3    3    0  502 -0.13318327764E+03  0.97463549181E+03  0.12473092198E+04  0.15885320362E+04  0.12699999809E+01 0. -1.
</event>
<event>
 5   0  0.1453430E-05  0.2096281E+04  0.7818609E-02  0.8562883E-01
        1   -1    0    0  501    0  0.00000000000E+00  0.00000000000E+00  0.14587832679E+04  0.14587832679E+04  0.50400001928E-02 0. -1.
       -1   -1    0    0    0  501  0.00000000000E+00  0.00000000000E+00 -0.75309253373E+03  0.75309253374E+03  0.50400001928E-02 0.  1.
    10030    2    1    2    0    0  0.00000000000E+00  0.00000000000E+00  0.70569073418E+03  0.22118758017E+04  0.20962812668E+04 0.  0.
        5    1    3    3  502    0 -0.15883528325E+03 -0.10269390281E+04  0.49730469750E+03  0.11520271120E+04  0.46999998093E+01 0. -1.
       -5    1    3    3    0  502  0.15883528325E+03  0.10269390281E+04  0.20838603669E+03  0.10598486896E+04  0.46999998093E+01 0.  1.
</event>
<event>
 5   0  0.3130517E-05  0.2144285E+04  0.7818609E-02  0.8541983E-01
        2   -1    0    0  501    0  0.00000000000E+00  0.00000000000E+00  0.22774021827E+04  0.22774021827E+04  0.25500000920E-02 0. -1.
       -2   -1    0    0    0  501  0.00000000000E+00  0.00000000000E+00 -0.50473718208E+03  0.50473718209E+03  0.25500000920E-02 0.  1.
    10030    2    1    2    0    0  0.00000000000E+00  0.00000000000E+00  0.17726650006E+04  0.27821393648E+04  0.21442850185E+04 0.  0.
        1    1    3    3  502    0  0.17719608500E+03 -0.81295341913E+03  0.17636331635E+04  0.19500496531E+04  0.50400001928E-02 0. -1.
       -1    1    3    3    0  502 -0.17719608500E+03  0.81295341913E+03  0.90318371491E+01  0.83208971170E+03  0.50400001928E-02 0.  1.
</event>
<event>
 5   0  0.1466480E-05  0.2154856E+04  0.7818609E-02  0.8537456E-01
        1   -1    0    0  501    0  0.00000000000E+00  0.00000000000E+00  0.12951645039E+04  0.12951645039E+04  0.50400001928E-02 0. -1.
       -1   -1    0    0    0  501  0.00000000000E+00  0.00000000000E+00 -0.89629632346E+03  0.89629632347E+03  0.50400001928E-02 0.  1.
    10030    2    1    2    0    0  0.00000000000E+00  0.00000000000E+00  0.39886818045E+03  0.21914608274E+04  0.21548560816E+04 0.  0.
        3    1    3    3  502    0 -0.76864458405E+03  0.40854067944E+03  0.84514577017E+03  0.12132565130E+04  0.10100000352E+00 0. -1.
       -3    1    3    3    0  502  0.76864458405E+03 -0.40854067944E+03 -0.44627758972E+03  0.97820431437E+03  0.10100000352E+00 0.  1.
</event>
<event>
 5   0  0.3130517E-05  0.2093038E+04  0.7818609E-02  0.8564317E-01
        2   -1    0    0  501    0  0.00000000000E+00  0.00000000000E+00  0.28002568397E+04  0.28002568397E+04  0.25500000920E-02 0. -1.
       -2   -1    0    0    0  501  0.00000000000E+00  0.00000000000E+00 -0.39110753074E+03  0.39110753075E+03  0.25500000920E-02 0.  1.
    10030    2    1    2    0    0  0.00000000000E+00  0.00000000000E+00  0.24091493090E+04  0.31913643705E+04  0.20930375420E+04 0.  0.
        1    1    3    3  502    0 -0.14816891062E+03 -0.33277285704E+03  0.27004725110E+04  0.27249300144E+04  0.50400001928E-02 0. -1.
       -1    1    3    3    0  502  0.14816891062E+03  0.33277285704E+03 -0.29132320205E+03  0.46643435609E+03  0.50400001928E-02 0.  1.
</event>
<event>
 5   0  0.1466480E-05  0.2121121E+04  0.7818609E-02  0.8551996E-01
       -1   -1    0    0    0  501  0.00000000000E+00  0.00000000000E+00  0.97796083984E+03  0.97796083986E+03  0.50400001928E-02 0. -1.
        1   -1    0    0  501    0  0.00000000000E+00  0.00000000000E+00 -0.11501362060E+04  0.11501362060E+04  0.50400001928E-02 0.  1.
    10030    2    1    2    0    0  0.00000000000E+00  0.00000000000E+00 -0.17217536615E+03  0.21280970459E+04  0.21211206189E+04 0.  0.
        3    1    3    3  502    0  0.46432533075E+03 -0.83467342697E+03 -0.54859240952E+03  0.11014678318E+04  0.10100000352E+00 0.  1.
       -3    1    3    3    0  502 -0.46432533075E+03  0.83467342697E+03  0.37641704338E+03  0.10266292141E+04  0.10100000352E+00 0. -1.
</event>
<event>
 5   0  0.1453430E-05  0.2100125E+04  0.7818609E-02  0.8561188E-01
       -1   -1    0    0    0  501  0.00000000000E+00  0.00000000000E+00  0.58912716834E+03  0.58912716836E+03  0.50400001928E-02 0.  1.
        1   -1    0    0  501    0  0.00000000000E+00  0.00000000000E+00 -0.18716347367E+04  0.18716347367E+04  0.50400001928E-02 0. -1.
    10030    2    1    2    0    0  0.00000000000E+00  0.00000000000E+00 -0.12825075684E+04  0.24607619051E+04  0.21001246369E+04 0.  0.
        5    1    3    3  502    0 -0.94553337167E+03 -0.44160129259E+03 -0.50479107205E+03  0.11592588904E+04  0.46999998093E+01 0.  1.
       -5    1    3    3    0  502  0.94553337167E+03  0.44160129259E+03 -0.77771649630E+03  0.13015030147E+04  0.46999998093E+01 0. -1.
</event>
<event>
 5   0  0.3242231E-05  0.2099714E+04  0.7818609E-02  0.8561369E-01
        2   -1    0    0  501    0  0.00000000000E+00  0.00000000000E+00  0.19579116192E+04  0.19579116192E+04  0.25500000920E-02 0.  1.
       -2   -1    0    0    0  501  0.00000000000E+00  0.00000000000E+00 -0.56294681250E+03  0.56294681250E+03  0.25500000920E-02 0. -1.
    10030    2    1    2    0    0  0.00000000000E+00  0.00000000000E+00  0.13949648067E+04  0.25208584317E+04  0.20997143665E+04 0.  0.
        4    1    3    3  502    0  0.74440175080E+03  0.72990500957E+03  0.84600050965E+03  0.13426145258E+04  0.12699999809E+01 0.  1.
       -4    1    3    3    0  502 -0.74440175080E+03 -0.72990500957E+03  0.54896429710E+03  0.11782439060E+04  0.12699999809E+01 0. -1.
</event>
<event>
 5   0  0.3279789E-05  0.2097171E+04  0.7818609E-02  0.8562491E-01
        2   -1    0    0  501    0  0.00000000000E+00  0.00000000000E+00  0.21309728828E+04  0.21309728828E+04  0.25500000920E-02 0.  1.
       -2   -1    0    0    0  501  0.00000000000E+00  0.00000000000E+00 -0.51597624991E+03  0.51597624992E+03  0.25500000920E-02 0. -1.
    10030    2    1    2    0    0  0.00000000000E+00  0.00000000000E+00  0.16149966329E+04  0.26469491327E+04  0.20971708531E+04 0.  0.
        2    1    3    3  502    0  0.96446464447E+03  0.35806418124E+03  0.55152900035E+03  0.11672986964E+04  0.25500000920E-02 0. -1.
       -2    1    3    3    0  502 -0.96446464447E+03 -0.35806418124E+03  0.10634676325E+04  0.14796504363E+04  0.25500000920E-02 0.  1.
</event>
<event>
 5   0  0.1492552E-05  0.2098175E+04  0.7818609E-02  0.8562048E-01
       -1   -1    0    0    0  501  0.00000000000E+00  0.00000000000E+00  0.12310002352E+04  0.12310002352E+04  0.50400001928E-02 0.  1.
        1   -1    0    0  501    0  0.00000000000E+00  0.00000000000E+00 -0.89405739122E+03  0.89405739123E+03  0.50400001928E-02 0. -1.
    10030    2    1    2    0    0  0.00000000000E+00  0.00000000000E+00  0.33694284397E+03  0.21250576264E+04  0.20981752633E+04 0.  0.
        4    1    3    3  502    0 -0.22849086321E+03  0.22056606982E+03  0.11811448041E+04  0.12230953057E+04  0.12699999809E+01 0.  1.
       -4    1    3    3    0  502  0.22849086321E+03 -0.22056606982E+03 -0.84420196009E+03  0.90196232075E+03  0.12699999809E+01 0. -1.
</event>
<event>
 5   0  0.3108326E-05  0.2097006E+04  0.7818609E-02  0.8562563E-01
       -2   -1    0    0    0  501  0.00000000000E+00  0.00000000000E+00  0.15857100647E+04  0.15857100647E+04  0.25500000920E-02 0.  1.
        2   -1    0    0  501    0  0.00000000000E+00  0.00000000000E+00 -0.69329120047E+03  0.69329120047E+03  0.25500000920E-02 0. -1.
    10030    2    1    2    0    0  0.00000000000E+00  0.00000000000E+00  0.89241886422E+03  0.22790012652E+04  0.20970062798E+04 0.  0.
        5    1    3    3  502    0 -0.10281132656E+04  0.19981260342E+03  0.49939303219E+03  0.11603264429E+04  0.46999998093E+01 0. -1.
       -5    1    3    3    0  502  0.10281132656E+04 -0.19981260342E+03  0.39302583203E+03  0.11186748223E+04  0.46999998093E+01 0.  1.
</event>
<event>
 5   0  0.1513292E-05  0.2094741E+04  0.7818609E-02  0.8563564E-01
        1   -1    0    0  501    0  0.00000000000E+00  0.00000000000E+00  0.78130312698E+03  0.78130312700E+03  0.50400001928E-02 0. -1.
       -1   -1    0    0    0  501  0.00000000000E+00  0.00000000000E+00 -0.14040453570E+04  0.14040453570E+04  0.50400001928E-02 0.  1.
    10030    2    1    2    0    0  0.00000000000E+00  0.00000000000E+00 -0.62274223001E+03  0.21853484840E+04  0.20947410607E+04 0.  0.
        1    1    3    3  502    0  0.34811255585E+03 -0.82891841566E+03  0.24917512402E+03  0.93293961959E+03  0.50400001928E-02 0. -1.
       -1    1    3    3    0  502 -0.34811255585E+03  0.82891841566E+03 -0.87191735403E+03  0.12524088644E+04  0.50400001928E-02 0.  1.
</event>
<event>
 5   0  0.3242231E-05  0.2101973E+04  0.7818609E-02  0.8560375E-01
       -2   -1    0    0    0  501  0.00000000000E+00  0.00000000000E+00  0.95508732389E+03  0.95508732389E+03  0.25500000920E-02 0. -1.
        2   -1    0    0  501    0  0.00000000000E+00  0.00000000000E+00 -0.11565148466E+04  0.11565148466E+04  0.25500000920E-02 0.  1.
    10030    2    1    2    0    0  0.00000000000E+00  0.00000000000E+00 -0.20142752274E+03  0.21116021705E+04  0.21019730445E+04 0.  0.
        4    1    3    3  502    0 -0.31147056250E+02  0.10122251554E+04  0.18164526226E+03  0.10288666184E+04  0.12699999809E+01 0. -1.
       -4    1    3    3    0  502  0.31147056250E+02 -0.10122251554E+04 -0.38307278500E+03  0.10827355521E+04  0.12699999809E+01 0.  1.
</event>
<event>
 5   0  0.1435410E-05  0.2095652E+04  0.7818609E-02  0.8563161E-01
       -1   -1    0    0    0  501  0.00000000000E+00  0.00000000000E+00  0.90784634086E+03  0.90784634088E+03  0.50400001928E-02 0.  1.
        1   -1    0    0  501    0  0.00000000000E+00  0.00000000000E+00 -0.12093888904E+04  0.12093888905E+04  0.50400001928E-02 0. -1.
    10030    2    1    2    0    0  0.00000000000E+00  0.00000000000E+00 -0.30154254959E+03  0.21172352313E+04  0.20956519548E+04 0.  0.
        2    1    3    3  502    0  0.44004057050E+03 -0.88875220542E+02  0.80576630038E+03  0.92238486509E+03  0.25500000920E-02 0.  1.
       -2    1    3    3    0  502 -0.44004057050E+03  0.88875220542E+02 -0.11073088500E+04  0.11948503662E+04  0.25500000920E-02 0. -1.
</event>
<event>
 5   0  0.1435410E-05  0.2101675E+04  0.7818609E-02  0.8560506E-01
        1   -1    0    0  501    0  0.00000000000E+00  0.00000000000E+00  0.11849723042E+04  0.11849723042E+04  0.50400001928E-02 0. -1.
       -1   -1    0    0    0  501  0.00000000000E+00  0.00000000000E+00 -0.93188638263E+03  0.93188638265E+03  0.50400001928E-02 0.  1.
    10030    2    1    2    0    0  0.00000000000E+00  0.00000000000E+00  0.25308592155E+03  0.21168586868E+04  0.21016750977E+04 0.  0.
        2    1    3    3  502    0 -0.90323374493E+03  0.35320523869E+03 -0.28094678839E+03  0.10097109668E+04  0.25500000920E-02 0.  1.
       -2    1    3    3    0  502  0.90323374493E+03 -0.35320523869E+03  0.53403270994E+03  0.11071477200E+04  0.25500000920E-02 0. -1.
</event>
<event>
 5   0  0.3279789E-05  0.2103830E+04  0.7818609E-02  0.8559558E-01
        2   -1    0    0  501    0  0.00000000000E+00  0.00000000000E+00  0.17484809917E+04  0.17484809917E+04  0.25500000920E-02 0. -1.
       -2   -1    0    0    0  501  0.00000000000E+00  0.00000000000E+00 -0.63284951965E+03  0.63284951965E+03  0.25500000920E-02 0.  1.
    10030    2    1    2    0    0  0.00000000000E+00  0.00000000000E+00  0.11156314721E+04  0.23813305114E+04  0.21038301792E+04 0.  0.
        2    1    3    3  502    0  0.17622755176E+03 -0.10161043486E+04  0.32309628878E+03  0.10807013505E+04  0.25500000920E-02 0. -1.
       -2    1    3    3    0  502 -0.17622755176E+03  0.10161043486E+04  0.79253518330E+03  0.13006291608E+04  0.25500000920E-02 0.  1.
</event>
<event>
 5   0  0.1453430E-05  0.2100697E+04  0.7818609E-02  0.8560936E-01
       -1   -1    0    0    0  501  0.00000000000E+00  0.00000000000E+00  0.92944609734E+03  0.92944609735E+03  0.50400001928E-02 0. -1.
        1   -1    0    0  501    0  0.00000000000E+00  0.00000000000E+00 -0.11869777148E+04  0.11869777148E+04  0.50400001928E-02 0.  1.
    10030    2    1    2    0    0  0.00000000000E+00  0.00000000000E+00 -0.25753161749E+03  0.21164238122E+04  0.21006968412E+04 0.  0.
        5    1    3    3  502    0 -0.70538149408E+03 -0.18553613316E+03 -0.89021705512E+03  0.11508671531E+04  0.46999998093E+01 0.  1.
       -5    1    3    3    0  502  0.70538149408E+03  0.18553613316E+03  0.63268543763E+03  0.96555665908E+03  0.46999998093E+01 0. -1.
</event>
<event>
 5   0  0.1492552E-05  0.2119871E+04  0.7818609E-02  0.8552540E-01
       -1   -1    0    0    0  501  0.00000000000E+00  0.00000000000E+00  0.10752954470E+04  0.10752954470E+04  0.50400001928E-02 0. -1.
        1   -1    0    0  501    0  0.00000000000E+00  0.00000000000E+00 -0.10447949687E+04  0.10447949687E+04  0.50400001928E-02 0.  1.
    10030    2    1    2    0    0  0.00000000000E+00  0.00000000000E+00  0.30500478289E+02  0.21200904157E+04  0.21198710082E+04 0.  0.
        4    1    3    3  502    0  0.29750348737E+03  0.57211711705E+03 -0.82604746561E+03  0.10479419588E+04  0.12699999809E+01 0.  1.
       -4    1    3    3    0  502 -0.29750348737E+03 -0.57211711705E+03  0.85654794390E+03  0.10721484569E+04  0.12699999809E+01 0. -1.
</event>
<event>
 5   0  0.1453430E-05  0.2107934E+04  0.7818609E-02  0.8557756E-01
        1   -1    0    0  501    0  0.00000000000E+00  0.00000000000E+00  0.14491470479E+04  0.14491470479E+04  0.50400001928E-02 0. -1.
       -1   -1    0    0    0  501  0.00000000000E+00  0.00000000000E+00 -0.76655179342E+03  0.76655179344E+03  0.50400001928E-02 0.  1.
    10030    2    1    2    0    0  0.00000000000E+00  0.00000000000E+00  0.68259525449E+03  0.22156988414E+04  0.21079338401E+04 0.  0.
        5    1    3    3  502    0 -0.19135752706E+03 -0.33334216610E+03  0.13728400023E+04  0.14256389672E+04  0.46999998093E+01 0. -1.
       -5    1    3    3    0  502  0.19135752706E+03  0.33334216610E+03 -0.69024474782E+03  0.79005987416E+03  0.46999998093E+01 0.  1.
</event>
<event>
 5   0  0.3279789E-05  0.2105414E+04  0.7818609E-02  0.8558862E-01
       -2   -1    0    0    0  501  0.00000000000E+00  0.00000000000E+00  0.93734177486E+03  0.93734177486E+03  0.25500000920E-02 0.  1.
        2   -1    0    0  501    0  0.00000000000E+00  0.00000000000E+00 -0.11822711997E+04  0.11822711997E+04  0.25500000920E-02 0. -1.
    10030    2    1    2    0    0  0.00000000000E+00  0.00000000000E+00 -0.24492942485E+03  0.21196129746E+04  0.21054141490E+04 0.  0.
        2    1    3    3  502    0  0.89493564738E+03  0.47848693883E+03 -0.40423186389E+03  0.10923657645E+04  0.25500000920E-02 0.  1.
       -2    1    3    3    0  502 -0.89493564738E+03 -0.47848693883E+03  0.15930243904E+03  0.10272472101E+04  0.25500000920E-02 0. -1.
</event>
<event>
 5   0  0.3279789E-05  0.2096966E+04  0.7818609E-02  0.8562581E-01
        2   -1    0    0  501    0  0.00000000000E+00  0.00000000000E+00  0.80544140059E+03  0.80544140060E+03  0.25500000920E-02 0.  1.
       -2   -1    0    0    0  501  0.00000000000E+00  0.00000000000E+00 -0.13648617615E+04  0.13648617615E+04  0.25500000920E-02 0. -1.
    10030    2    1    2    0    0  0.00000000000E+00  0.00000000000E+00 -0.55942036095E+03  0.21703031621E+04  0.20969655875E+04 0.  0.
        2    1    3    3  502    0  0.60722506406E+03 -0.32298839978E+03 -0.10987607761E+04  0.12962712015E+04  0.25500000920E-02 0. -1.
       -2    1    3    3    0  502 -0.60722506406E+03  0.32298839978E+03  0.53934041512E+03  0.87403196063E+03  0.25500000920E-02 0.  1.
</event>
<event>
 5   0  0.1513292E-05  0.2101449E+04  0.7818609E-02  0.8560605E-01
        1   -1    0    0  501    0  0.00000000000E+00  0.00000000000E+00  0.13488905638E+04  0.13488905638E+04  0.50400001928E-02 0.  1.
       -1   -1    0    0    0  501  0.00000000000E+00  0.00000000000E+00 -0.81846655631E+03  0.81846655632E+03  0.50400001928E-02 0. -1.
    10030    2    1    2    0    0  0.00000000000E+00  0.00000000000E+00  0.53042400746E+03  0.21673571201E+04  0.21014488474E+04 0.  0.
        1    1    3    3  502    0  0.54083669324E+03 -0.89959612361E+03  0.21635215412E+03  0.10717209380E+04  0.50400001928E-02 0.  1.
       -1    1    3    3    0  502 -0.54083669324E+03  0.89959612361E+03  0.31407185333E+03  0.10956361821E+04  0.50400001928E-02 0. -1.
</event>
<event>
 5   0  0.3257130E-05  0.2090132E+04  0.7818609E-02  0.8565603E-01
       -2   -1    0    0    0  501  0.00000000000E+00  0.00000000000E+00  0.15561608348E+04  0.15561608348E+04  0.25500000920E-02 0.  1.
        2   -1    0    0  501    0  0.00000000000E+00  0.00000000000E+00 -0.70183142659E+03  0.70183142660E+03  0.25500000920E-02 0. -1.
    10030    2    1    2    0    0  0.00000000000E+00  0.00000000000E+00  0.85432940819E+03  0.22579922614E+04  0.20901316501E+04 0.  0.
        3    1    3    3  502    0 -0.40681248495E+03  0.81291702640E+03 -0.12983184079E+03  0.91825203883E+03  0.10100000352E+00 0. -1.
       -3    1    3    3    0  502  0.40681248495E+03 -0.81291702640E+03  0.98416124898E+03  0.13397402226E+04  0.10100000352E+00 0.  1.
</event>
<event>
 5   0  0.3257130E-05  0.2105444E+04  0.7818609E-02  0.8558849E-01
        2   -1    0    0  501    0  0.00000000000E+00  0.00000000000E+00  0.11844863618E+04  0.11844863618E+04  0.25500000920E-02 0. -1.
       -2   -1    0    0    0  501  0.00000000000E+00  0.00000000000E+00 -0.93561535106E+03  0.93561535106E+03  0.25500000920E-02 0.  1.
    10030    2    1    2    0    0  0.00000000000E+00  0.00000000000E+00  0.24887101076E+03  0.21201017129E+04  0.21054440133E+04 0.  0.
        3    1    3    3  502    0  0.79847547008E+03 -0.63729312504E+03 -0.13133677740E+03  0.10300266806E+04  0.10100000352E+00 0.  1.
       -3    1    3    3    0  502 -0.79847547008E+03  0.63729312504E+03  0.38020778816E+03  0.10900750322E+04  0.10100000352E+00 0. -1.
</event>
<event>
 5   0  0.3242231E-05  0.2096410E+04  0.7818609E-02  0.8562826E-01
        2   -1    0    0  501    0  0.00000000000E+00  0.00000000000E+00  0.19706768232E+04  0.19706768232E+04  0.25500000920E-02 0. -1.
       -2   -1    0    0    0  501  0.00000000000E+00  0.00000000000E+00 -0.55754144148E+03  0.55754144148E+03  0.25500000920E-02 0.  1.
    10030    2    1    2    0    0  0.00000000000E+00  0.00000000000E+00  0.14131353817E+04  0.25282182647E+04  0.20964102620E+04 0.  0.
        4    1    3    3  502    0  0.86739685079E+03  0.69774098571E+02  0.14113015867E+04  0.16580167379E+04  0.12699999809E+01 0. -1.
       -4    1    3    3    0  502 -0.86739685079E+03 -0.69774098571E+02  0.18337950527E+01  0.87020152682E+03  0.12699999809E+01 0.  1.
</event>
<event>
 5   0  0.1492552E-05  0.2106239E+04  0.7818609E-02  0.8558500E-01
        1   -1    0    0  501    0  0.00000000000E+00  0.00000000000E+00  0.97197503336E+03  0.97197503337E+03  0.50400001928E-02 0.  1.
       -1   -1    0    0    0  501  0.00000000000E+00  0.00000000000E+00 -0.11410380438E+04  0.11410380438E+04  0.50400001928E-02 0. -1.
    10030    2    1    2    0    0  0.00000000000E+00  0.00000000000E+00 -0.16906301048E+03  0.21130130772E+04  0.21062388191E+04 0.  0.
        4    1    3    3  502    0 -0.48184028533E+03 -0.93199378007E+03 -0.17579888905E+03  0.10638088780E+04  0.12699999809E+01 0. -1.
       -4    1    3    3    0  502  0.48184028533E+03  0.93199378007E+03  0.67358785694E+01  0.10492041992E+04  0.12699999809E+01 0.  1.
</event>
<event>
 5   0  0.1492552E-05  0.2091859E+04  0.7818609E-02  0.8564838E-01
        1   -1    0    0  501    0  0.00000000000E+00  0.00000000000E+00  0.82708159031E+03  0.82708159033E+03  0.50400001928E-02 0. -1.
       -1   -1    0    0    0  501  0.00000000000E+00  0.00000000000E+00 -0.13226850319E+04  0.13226850319E+04  0.50400001928E-02 0.  1.
    10030    2    1    2    0    0  0.00000000000E+00  0.00000000000E+00 -0.49560344158E+03  0.21497666222E+04  0.20918589242E+04 0.  0.
        4    1    3    3  502    0 -0.41397109149E+03  0.28395274587E+03 -0.11907895718E+04  0.12922780829E+04  0.12699999809E+01 0.  1.
       -4    1    3    3    0  502  0.41397109149E+03 -0.28395274587E+03  0.69518613021E+03  0.85748853929E+03  0.12699999809E+01 0. -1.
</event>
<event>
 5   0  0.3108326E-05  0.2083067E+04  0.7818609E-02  0.8568740E-01
        2   -1    0    0  501    0  0.00000000000E+00  0.00000000000E+00  0.66392887706E+03  0.66392887706E+03  0.25500000920E-02 0.  1.
       -2   -1    0    0    0  501  0.00000000000E+00  0.00000000000E+00 -0.16338974609E+04  0.16338974609E+04  0.25500000920E-02 0. -1.
    10030    2    1    2    0    0  0.00000000000E+00  0.00000000000E+00 -0.96996858384E+03  0.22978263380E+04  0.20830666878E+04 0.  0.
        5    1    3    3  502    0 -0.82137331207E+03  0.84452274343E+01 -0.11913495873E+04  0.14470872015E+04  0.46999998093E+01 0. -1.
       -5    1    3    3    0  502  0.82137331207E+03 -0.84452274343E+01  0.22138100342E+03  0.85073913647E+03  0.46999998093E+01 0.  1.
</event>
<event>
 5   0  0.1492552E-05  0.2096123E+04  0.7818609E-02  0.8562953E-01
       -1   -1    0    0    0  501  0.00000000000E+00  0.00000000000E+00  0.71311871882E+03  0.71311871884E+03  0.50400001928E-02 0. -1.
        1   -1    0    0  501    0  0.00000000000E+00  0.00000000000E+00 -0.15403225606E+04  0.15403225606E+04  0.50400001928E-02 0.  1.
    10030    2    1    2    0    0  0.00000000000E+00  0.00000000000E+00 -0.82720384182E+03  0.22534412795E+04  0.20961229459E+04 0.  0.
        4    1    3    3  502    0 -0.22214147270E+03 -0.52975235419E+03 -0.13560043788E+04  0.14726621741E+04  0.12699999809E+01 0.  1.
       -4    1    3    3    0  502  0.22214147270E+03  0.52975235419E+03  0.52880053698E+03  0.78077910543E+03  0.12699999809E+01 0. -1.
</event>
<event>
 5   0  0.3257130E-05  0.2095467E+04  0.7818609E-02  0.8563243E-01
        2   -1    0    0  501    0  0.00000000000E+00  0.00000000000E+00  0.53439787575E+03  0.53439787576E+03  0.25500000920E-02 0.  1.
       -2   -1    0    0    0  501  0.00000000000E+00  0.00000000000E+00 -0.20541731308E+04  0.20541731308E+04  0.25500000920E-02 0. -1.
    10030    2    1    2    0    0  0.00000000000E+00  0.00000000000E+00 -0.15197752550E+04  0.25885710065E+04  0.20954672582E+04 0.  0.
        3    1    3    3  502    0  0.32685329842E+03 -0.37781009372E+03  0.37779524642E+03  0.62634080501E+03  0.10100000352E+00 0.  1.
       -3    1    3    3    0  502 -0.32685329842E+03  0.37781009372E+03 -0.18975705015E+04  0.19622302015E+04  0.10100000352E+00 0. -1.
</event>
<event>
 5   0  0.3108326E-05  0.2098505E+04  0.7818609E-02  0.8561902E-01
        2   -1    0    0  501    0  0.00000000000E+00  0.00000000000E+00  0.12620355896E+04  0.12620355896E+04  0.25500000920E-02 0.  1.
       -2   -1    0    0    0  501  0.00000000000E+00  0.00000000000E+00 -0.87234518644E+03  0.87234518644E+03  0.25500000920E-02 0. -1.
    10030    2    1    2    0    0  0.00000000000E+00  0.00000000000E+00  0.38969040315E+03  0.21343807760E+04  0.20985048694E+04 0.  0.
        5    1    3    3  502    0 -0.66664561933E+03 -0.39790635938E+03 -0.52302765954E+03  0.93612278855E+03  0.46999998093E+01 0. -1.
       -5    1    3    3    0  502  0.66664561933E+03  0.39790635938E+03  0.91271806270E+03  0.11982579875E+04  0.46999998093E+01 0.  1.
</event>
<event>
 5   0  0.1492552E-05  0.2104579E+04  0.7818609E-02  0.8559229E-01
        1   -1    0    0  501    0  0.00000000000E+00  0.00000000000E+00  0.16791317767E+04  0.16791317767E+04  0.50400001928E-02 0.  1.
       -1   -1    0    0    0  501  0.00000000000E+00  0.00000000000E+00 -0.65945594389E+03  0.65945594391E+03  0.50400001928E-02 0. -1.
    10030    2    1    2    0    0  0.00000000000E+00  0.00000000000E+00  0.10196758328E+04  0.23385877206E+04  0.21045792271E+04 0.  0.
        4    1    3    3  502    0 -0.72515629285E+03  0.19884721801E+03  0.13278429126E+04  0.15259620829E+04  0.12699999809E+01 0.  1.
       -4    1    3    3    0  502  0.72515629285E+03 -0.19884721801E+03 -0.30816707972E+03  0.81262563773E+03  0.12699999809E+01 0. -1.
</event>
<event>
 5   0  0.1466480E-05  0.2100163E+04  0.7818609E-02  0.8561171E-01
        1   -1    0    0  501    0  0.00000000000E+00  0.00000000000E+00  0.18363601051E+04  0.18363601051E+04  0.50400001928E-02 0.  1.
       -1   -1    0    0    0  501  0.00000000000E+00  0.00000000000E+00 -0.60046581430E+03  0.60046581432E+03  0.50400001928E-02 0. -1.
    10030    2    1    2    0    0  0.00000000000E+00  0.00000000000E+00  0.12358942908E+04  0.24368259194E+04  0.21001632945E+04 0.  0.
        3    1    3    3  502    0  0.81085803197E+03  0.55316753492E+03  0.10508294377E+04  0.14379595221E+04  0.10100000352E+00 0.  1.
       -3    1    3    3    0  502 -0.81085803197E+03 -0.55316753492E+03  0.18506485306E+03  0.99886639734E+03  0.10100000352E+00 0. -1.
</event>
<event>
 5   0  0.1492552E-05  0.2016095E+04  0.7818609E-02  0.8599133E-01
        1   -1    0    0  501    0  0.00000000000E+00  0.00000000000E+00  0.12005165005E+04  0.12005165005E+04  0.50400001928E-02 0. -1.
       -1   -1    0    0    0  501  0.00000000000E+00  0.00000000000E+00 -0.84643515521E+03  0.84643515522E+03  0.50400001928E-02 0.  1.
    10030    2    1    2    0    0  0.00000000000E+00  0.00000000000E+00  0.35408134528E+03  0.20469516557E+04  0.20160946113E+04 0.  0.
        4    1    3    3  502    0 -0.58284793453E+03 -0.78713428461E+02  0.10082591059E+04  0.11672598495E+04  0.12699999809E+01 0. -1.
       -4    1    3    3    0  502  0.58284793453E+03  0.78713428461E+02 -0.65417776062E+03  0.87969180626E+03  0.12699999809E+01 0.  1.
</event>
<event>
 5   0  0.3108326E-05  0.2094475E+04  0.7818609E-02  0.8563681E-01
        2   -1    0    0  501    0  0.00000000000E+00  0.00000000000E+00  0.99618376373E+03  0.99618376373E+03  0.25500000920E-02 0.  1.
       -2   -1    0    0    0  501  0.00000000000E+00  0.00000000000E+00 -0.11009075074E+04  0.11009075074E+04  0.25500000920E-02 0. -1.
    10030    2    1    2    0    0  0.00000000000E+00  0.00000000000E+00 -0.10472374371E+03  0.20970912712E+04  0.20944748118E+04 0.  0.
        5    1    3    3  502    0 -0.36102396263E+03  0.75504877050E+03  0.57790613842E+03  0.10170715522E+04  0.46999998093E+01 0.  1.
       -5    1    3    3    0  502  0.36102396263E+03 -0.75504877050E+03 -0.68262988213E+03  0.10800197190E+04  0.46999998093E+01 0. -1.
</event>
<event>
 5   0  0.1492552E-05  0.2104856E+04  0.7818609E-02  0.8559107E-01
       -1   -1    0    0    0  501  0.00000000000E+00  0.00000000000E+00  0.74481956199E+03  0.74481956201E+03  0.50400001928E-02 0. -1.
        1   -1    0    0  501    0  0.00000000000E+00  0.00000000000E+00 -0.14870785240E+04  0.14870785240E+04  0.50400001928E-02 0.  1.
    10030    2    1    2    0    0  0.00000000000E+00  0.00000000000E+00 -0.74225896200E+03  0.22318980860E+04  0.21048564558E+04 0.  0.
        4    1    3    3  502    0 -0.63770582485E+03  0.17322409783E+03 -0.12396696660E+04  0.14047981353E+04  0.12699999809E+01 0.  1.
       -4    1    3    3    0  502  0.63770582485E+03 -0.17322409783E+03  0.49741070403E+03  0.82709995073E+03  0.12699999809E+01 0. -1.
</event>
<event>
 5   0  0.1435410E-05  0.1991169E+04  0.7818609E-02  0.8610761E-01
       -1   -1    0    0    0  501  0.00000000000E+00  0.00000000000E+00  0.77504715395E+03  0.77504715397E+03  0.50400001928E-02 0. -1.
        1   -1    0    0  501    0  0.00000000000E+00  0.00000000000E+00 -0.12788752595E+04  0.12788752595E+04  0.50400001928E-02 0.  1.
    10030    2    1    2    0    0  0.00000000000E+00  0.00000000000E+00 -0.50382810551E+03  0.20539224134E+04  0.19911691341E+04 0.  0.
        2    1    3    3  502    0  0.82830206874E+02 -0.86685849544E+03  0.24587556602E+03  0.90485318603E+03  0.25500000920E-02 0. -1.
       -2    1    3    3    0  502 -0.82830206874E+02  0.86685849544E+03 -0.74970367153E+03  0.11490692274E+04  0.25500000920E-02 0.  1.
</event>
<event>
 5   0  0.1453430E-05  0.2108185E+04  0.7818609E-02  0.8557646E-01
        1   -1    0    0  501    0  0.00000000000E+00  0.00000000000E+00  0.88618124639E+03  0.88618124640E+03  0.50400001928E-02 0.  1.
       -1   -1    0    0    0  501  0.00000000000E+00  0.00000000000E+00 -0.12538191884E+04  0.12538191884E+04  0.50400001928E-02 0. -1.
    10030    2    1    2    0    0  0.00000000000E+00  0.00000000000E+00 -0.36763794197E+03  0.21400004348E+04  0.21081850499E+04 0.  0.
        5    1    3    3  502    0 -0.56692091909E+03 -0.40000643608E+03 -0.98932098062E+03  0.12083801430E+04  0.46999998093E+01 0. -1.
       -5    1    3    3    0  502  0.56692091909E+03  0.40000643608E+03  0.62168303865E+03  0.93162029173E+03  0.46999998093E+01 0.  1.
</event>
<event>
 5   0  0.3279789E-05  0.2118023E+04  0.7818609E-02  0.8553346E-01
       -2   -1    0    0    0  501  0.00000000000E+00  0.00000000000E+00  0.41352537827E+03  0.41352537828E+03  0.25500000920E-02 0.  1.
        2   -1    0    0  501    0  0.00000000000E+00  0.00000000000E+00 -0.27120581486E+04  0.27120581486E+04  0.25500000920E-02 0. -1.
    10030    2    1    2    0    0  0.00000000000E+00  0.00000000000E+00 -0.22985327703E+04  0.31255835269E+04  0.21180225417E+04 0.  0.
        2    1    3    3  502    0 -0.42064794329E+03 -0.49324888806E+03 -0.23850482978E+04  0.24715773386E+04  0.25500000920E-02 0. -1.
       -2    1    3    3    0  502  0.42064794329E+03  0.49324888806E+03  0.86515527507E+02  0.65400618825E+03  0.25500000920E-02 0.  1.
</event>
<event>
 5   0  0.3242231E-05  0.2100272E+04  0.7818609E-02  0.8561123E-01
        2   -1    0    0  501    0  0.00000000000E+00  0.00000000000E+00  0.15199868397E+04  0.15199868397E+04  0.25500000920E-02 0. -1.
       -2   -1    0    0    0  501  0.00000000000E+00  0.00000000000E+00 -0.72552328106E+03  0.72552328106E+03  0.25500000920E-02 0.  1.
    10030    2    1    2    0    0  0.00000000000E+00  0.00000000000E+00  0.79446355864E+03  0.22455101208E+04  0.21002722101E+04 0.  0.
        4    1    3    3  502    0 -0.10231892827E+04  0.19429450445E+03  0.25332232506E+03  0.10718397623E+04  0.12699999809E+01 0.  1.
       -4    1    3    3    0  502  0.10231892827E+04 -0.19429450445E+03  0.54114123359E+03  0.11736703585E+04  0.12699999809E+01 0. -1.
</event>
<event>
 5   0  0.3257130E-05  0.2096535E+04  0.7818609E-02  0.8562771E-01
       -2   -1    0    0    0  501  0.00000000000E+00  0.00000000000E+00  0.11813196508E+04  0.11813196508E+04  0.25500000920E-02 0.  1.
        2   -1    0    0  501    0  0.00000000000E+00  0.00000000000E+00 -0.93020077820E+03  0.93020077820E+03  0.25500000920E-02 0. -1.
    10030    2    1    2    0    0  0.00000000000E+00  0.00000000000E+00  0.25111887264E+03  0.21115204290E+04  0.20965347205E+04 0.  0.
        3    1    3    3  502    0 -0.25749885753E+03  0.56953304069E+03 -0.72199655877E+03  0.95496208676E+03  0.10100000352E+00 0. -1.
       -3    1    3    3    0  502  0.25749885753E+03 -0.56953304069E+03  0.97311543141E+03  0.11565583423E+04  0.10100000352E+00 0.  1.
</event>
<event>
 5   0  0.1513292E-05  0.2201619E+04  0.7818609E-02  0.8517755E-01
        1   -1    0    0  501    0  0.00000000000E+00  0.00000000000E+00  0.12575430129E+04  0.12575430129E+04  0.50400001928E-02 0. -1.
       -1   -1    0    0    0  501  0.00000000000E+00  0.00000000000E+00 -0.96361028705E+03  0.96361028706E+03  0.50400001928E-02 0.  1.
    10030    2    1    2    0    0  0.00000000000E+00  0.00000000000E+00  0.29393272586E+03  0.22211533000E+04  0.22016188441E+04 0.  0.
        1    1    3    3  502    0 -0.21402270658E+02 -0.50322378074E+03 -0.84053876991E+03  0.97989675703E+03  0.50400001928E-02 0.  1.
       -1    1    3    3    0  502  0.21402270658E+02  0.50322378074E+03  0.11344714958E+04  0.12412565430E+04  0.50400001928E-02 0. -1.
</event>
<event>
 5   0  0.1466480E-05  0.2101754E+04  0.7818609E-02  0.8560471E-01
        1   -1    0    0  501    0  0.00000000000E+00  0.00000000000E+00  0.94107954057E+03  0.94107954058E+03  0.50400001928E-02 0.  1.
       -1   -1    0    0    0  501  0.00000000000E+00  0.00000000000E+00 -0.11734841712E+04  0.11734841712E+04  0.50400001928E-02 0. -1.
    10030    2    1    2    0    0  0.00000000000E+00  0.00000000000E+00 -0.23240463061E+03  0.21145637118E+04  0.21017535010E+04 0.  0.
        3    1    3    3  502    0 -0.97306513214E+03 -0.88532398503E+02 -0.50540402607E+03  0.11000577152E+04  0.10100000352E+00 0. -1.
       -3    1    3    3    0  502  0.97306513214E+03  0.88532398503E+02  0.27299939547E+03  0.10145059966E+04  0.10100000352E+00 0.  1.
</event>
<event>
 5   0  0.1453430E-05  0.2095765E+04  0.7818609E-02  0.8563111E-01
       -1   -1    0    0    0  501  0.00000000000E+00  0.00000000000E+00  0.11622884296E+04  0.11622884296E+04  0.50400001928E-02 0. -1.
        1   -1    0    0  501    0  0.00000000000E+00  0.00000000000E+00 -0.94473741414E+03  0.94473741415E+03  0.50400001928E-02 0.  1.
    10030    2    1    2    0    0  0.00000000000E+00  0.00000000000E+00  0.21755101548E+03  0.21070258438E+04  0.20957646485E+04 0.  0.
        5    1    3    3  502    0 -0.66772726819E+02 -0.22879389907E+03  0.11346652672E+04  0.11594363303E+04  0.46999998093E+01 0. -1.
       -5    1    3    3    0  502  0.66772726819E+02  0.22879389907E+03 -0.91711425177E+03  0.94758951350E+03  0.46999998093E+01 0.  1.
</event>
<event>
 5   0  0.1453430E-05  0.2096956E+04  0.7818609E-02  0.8562585E-01
       -1   -1    0    0    0  501  0.00000000000E+00  0.00000000000E+00  0.12971188107E+04  0.12971188108E+04  0.50400001928E-02 0.  1.
        1   -1    0    0  501    0  0.00000000000E+00  0.00000000000E+00 -0.84749860358E+03  0.84749860359E+03  0.50400001928E-02 0. -1.
    10030    2    1    2    0    0  0.00000000000E+00  0.00000000000E+00  0.44962020717E+03  0.21446174143E+04  0.20969562521E+04 0.  0.
        5    1    3    3  502    0  0.40505579865E+03  0.90466584167E+03  0.57432876070E+03  0.11455854837E+04  0.46999998093E+01 0. -1.
       -5    1    3    3    0  502 -0.40505579865E+03 -0.90466584167E+03 -0.12470855353E+03  0.99903193064E+03  0.46999998093E+01 0.  1.
</event>
<event>
 5   0  0.3279789E-05  0.2109797E+04  0.7818609E-02  0.8556940E-01
        2   -1    0    0  501    0  0.00000000000E+00  0.00000000000E+00  0.26656004687E+04  0.26656004687E+04  0.25500000920E-02 0.  1.
       -2   -1    0    0    0  501  0.00000000000E+00  0.00000000000E+00 -0.41747101769E+03  0.41747101769E+03  0.25500000920E-02 0. -1.
    10030    2    1    2    0    0  0.00000000000E+00  0.00000000000E+00  0.22481294511E+04  0.30830714864E+04  0.21097970902E+04 0.  0.
        2    1    3    3  502    0  0.72984417683E+03 -0.13678655004E+03  0.22190036244E+04  0.23399487533E+04  0.25500000920E-02 0.  1.
       -2    1    3    3    0  502 -0.72984417683E+03  0.13678655004E+03  0.29125826608E+02  0.74312273314E+03  0.25500000920E-02 0. -1.
</event>
<event>
 5   0  0.3279789E-05  0.2125247E+04  0.7818609E-02  0.8550203E-01
       -2   -1    0    0    0  501  0.00000000000E+00  0.00000000000E+00  0.43516025634E+03  0.43516025634E+03  0.25500000920E-02 0.  1.
        2   -1    0    0  501    0  0.00000000000E+00  0.00000000000E+00 -0.25948349110E+04  0.25948349110E+04  0.25500000920E-02 0. -1.
    10030    2    1    2    0    0  0.00000000000E+00  0.00000000000E+00 -0.21596746547E+04  0.30299951674E+04  0.21252473033E+04 0.  0.
        2    1    3    3  502    0 -0.83323901716E+03  0.23044674281E+03 -0.19607580171E+04  0.21428870625E+04  0.25500000920E-02 0. -1.
       -2    1    3    3    0  502  0.83323901716E+03 -0.23044674281E+03 -0.19891663756E+03  0.88710810485E+03  0.25500000920E-02 0.  1.
</event>
<event>
 5   0  0.1466480E-05  0.2070393E+04  0.7818609E-02  0.8574399E-01
       -1   -1    0    0    0  501  0.00000000000E+00  0.00000000000E+00  0.94045011438E+03  0.94045011439E+03  0.50400001928E-02 0. -1.
        1   -1    0    0  501    0  0.00000000000E+00  0.00000000000E+00 -0.11394880651E+04  0.11394880651E+04  0.50400001928E-02 0.  1.
    10030    2    1    2    0    0  0.00000000000E+00  0.00000000000E+00 -0.19903795069E+03  0.20799381795E+04  0.20703928914E+04 0.  0.
        3    1    3    3  502    0  0.79420429867E+03 -0.49961620173E+03 -0.53886215830E+03  0.10820116695E+04  0.10100000352E+00 0. -1.
       -3    1    3    3    0  502 -0.79420429867E+03  0.49961620173E+03  0.33982420761E+03  0.99792650998E+03  0.10100000352E+00 0.  1.
</event>
<event>
 5   0  0.1513292E-05  0.2102353E+04  0.7818609E-02  0.8560208E-01
       -1   -1    0    0    0  501  0.00000000000E+00  0.00000000000E+00  0.37472453048E+03  0.37472453051E+03  0.50400001928E-02 0. -1.
        1   -1    0    0  501    0  0.00000000000E+00  0.00000000000E+00 -0.29487569176E+04  0.29487569176E+04  0.50400001928E-02 0.  1.
    10030    2    1    2    0    0  0.00000000000E+00  0.00000000000E+00 -0.25740323872E+04  0.33234814481E+04  0.21023525409E+04 0.  0.
        1    1    3    3  502    0  0.16908877642E+02 -0.59928997804E+03 -0.26519838582E+04  0.27189065398E+04  0.50400001928E-02 0.  1.
       -1    1    3    3    0  502 -0.16908877642E+02  0.59928997804E+03  0.77951471069E+02  0.60457490833E+03  0.50400001928E-02 0. -1.
</event>
<event>
 5   0  0.3130517E-05  0.2094198E+04  0.7818609E-02  0.8563804E-01
        2   -1    0    0  501    0  0.00000000000E+00  0.00000000000E+00  0.10434200266E+04  0.10434200266E+04  0.25500000920E-02 0. -1.
       -2   -1    0    0    0  501  0.00000000000E+00  0.00000000000E+00 -0.10507906313E+04  0.10507906313E+04  0.25500000920E-02 0.  1.
    10030    2    1    2    0    0  0.00000000000E+00  0.00000000000E+00 -0.73706047023E+01  0.20942106580E+04  0.20941976875E+04 0.  0.
        1    1    3    3  502    0 -0.37720715730E+03 -0.50284724973E+03 -0.84111236139E+03  0.10500526656E+04  0.50400001928E-02 0.  1.
       -1    1    3    3    0  502  0.37720715730E+03  0.50284724973E+03  0.83374175669E+03  0.10441579923E+04  0.50400001928E-02 0. -1.
</event>
<event>
 5   0  0.3108326E-05  0.2098315E+04  0.7818609E-02  0.8561986E-01
       -2   -1    0    0    0  501  0.00000000000E+00  0.00000000000E+00  0.68494268092E+03  0.68494268092E+03  0.25500000920E-02 0.  1.
        2   -1    0    0  501    0  0.00000000000E+00  0.00000000000E+00 -0.16070412988E+04  0.16070412988E+04  0.25500000920E-02 0. -1.
    10030    2    1    2    0    0  0.00000000000E+00  0.00000000000E+00 -0.92209861793E+03  0.22919839798E+04  0.20983147291E+04 0.  0.
        5    1    3    3  502    0  0.78439382368E+02 -0.10416147110E+04 -0.56804509332E+03  0.11890379561E+04  0.46999998093E+01 0. -1.
       -5    1    3    3    0  502 -0.78439382368E+02  0.10416147110E+04 -0.35405352460E+03  0.11029460237E+04  0.46999998093E+01 0.  1.
</event>
<event>
 5   0  0.1435410E-05  0.2096882E+04  0.7818609E-02  0.8562618E-01
       -1   -1    0    0    0  501  0.00000000000E+00  0.00000000000E+00  0.12416449669E+04  0.12416449669E+04  0.50400001928E-02 0.  1.
        1   -1    0    0  501    0  0.00000000000E+00  0.00000000000E+00 -0.88530042565E+03  0.88530042567E+03  0.50400001928E-02 0. -1.
    10030    2    1    2    0    0  0.00000000000E+00  0.00000000000E+00  0.35634454124E+03  0.21269453926E+04  0.20968822740E+04 0.  0.
        2    1    3    3  502    0 -0.19701972325E+03  0.33342111257E+03  0.11664314518E+04  0.12290438321E+04  0.25500000920E-02 0.  1.
       -2    1    3    3    0  502  0.19701972325E+03 -0.33342111257E+03 -0.81008691051E+03  0.89790156044E+03  0.25500000920E-02 0. -1.
</event>
<event>
 5   0  0.1435410E-05  0.2097725E+04  0.7818609E-02  0.8562246E-01
        1   -1    0    0  501    0  0.00000000000E+00  0.00000000000E+00  0.10434173261E+04  0.10434173262E+04  0.50400001928E-02 0. -1.
       -1   -1    0    0    0  501  0.00000000000E+00  0.00000000000E+00 -0.10543356317E+04  0.10543356318E+04  0.50400001928E-02 0.  1.
    10030    2    1    2    0    0  0.00000000000E+00  0.00000000000E+00 -0.10918305609E+02  0.20977529579E+04  0.20977245441E+04 0.  0.
        2    1    3    3  502    0 -0.92636305661E+03  0.40877216244E+03 -0.27908462776E+03  0.10503006345E+04  0.25500000920E-02 0. -1.
       -2    1    3    3    0  502  0.92636305661E+03 -0.40877216244E+03  0.26816632215E+03  0.10474523234E+04  0.25500000920E-02 0.  1.
</event>
<event>
 5   0  0.1466480E-05  0.2114835E+04  0.7818609E-02  0.8554736E-01
        1   -1    0    0  501    0  0.00000000000E+00  0.00000000000E+00  0.10849476497E+04  0.10849476497E+04  0.50400001928E-02 0.  1.
       -1   -1    0    0    0  501  0.00000000000E+00  0.00000000000E+00 -0.10305862386E+04  0.10305862386E+04  0.50400001928E-02 0. -1.
    10030    2    1    2    0    0  0.00000000000E+00  0.00000000000E+00  0.54361411155E+02  0.21155338883E+04  0.21148353292E+04 0.  0.
        3    1    3    3  502    0 -0.22598585636E+03 -0.42524013609E+03  0.96889132639E+03  0.10819654307E+04  0.10100000352E+00 0.  1.
       -3    1    3    3    0  502  0.22598585636E+03  0.42524013609E+03 -0.91452991524E+03  0.10335684577E+04  0.10100000352E+00 0. -1.
</event>
<event>
 5   0  0.3257130E-05  0.2102566E+04  0.7818609E-02  0.8560114E-01
        2   -1    0    0  501    0  0.00000000000E+00  0.00000000000E+00  0.92679276284E+03  0.92679276284E+03  0.25500000920E-02 0.  1.
       -2   -1    0    0    0  501  0.00000000000E+00  0.00000000000E+00 -0.11924957541E+04  0.11924957541E+04  0.25500000920E-02 0. -1.
    10030    2    1    2    0    0  0.00000000000E+00  0.00000000000E+00 -0.26570299124E+03  0.21192885169E+04  0.21025664647E+04 0.  0.
        3    1    3    3  502    0  0.38971237296E+03  0.95030211575E+03 -0.35879174478E+03  0.10879712180E+04  0.10100000352E+00 0. -1.
       -3    1    3    3    0  502 -0.38971237296E+03 -0.95030211575E+03  0.93088753540E+02  0.10313172989E+04  0.10100000352E+00 0.  1.
</event>
<event>
 5   0  0.1453430E-05  0.2131853E+04  0.7818609E-02  0.8547340E-01
       -1   -1    0    0    0  501  0.00000000000E+00  0.00000000000E+00  0.74088320425E+03  0.74088320427E+03  0.50400001928E-02 0. -1.
        1   -1    0    0  501    0  0.00000000000E+00  0.00000000000E+00 -0.15335739186E+04  0.15335739186E+04  0.50400001928E-02 0.  1.
    10030    2    1    2    0    0  0.00000000000E+00  0.00000000000E+00 -0.79269071438E+03  0.22744571229E+04  0.21318528644E+04 0.  0.
        5    1    3    3  502    0  0.23349747363E+03 -0.71871335725E+03  0.40567596057E+03  0.85770917860E+03  0.46999998093E+01 0. -1.
       -5    1    3    3    0  502 -0.23349747363E+03  0.71871335725E+03 -0.11983666749E+04  0.14167479443E+04  0.46999998093E+01 0.  1.
</event>
<event>
 5   0  0.1435410E-05  0.2096513E+04  0.7818609E-02  0.8562781E-01
       -1   -1    0    0    0  501  0.00000000000E+00  0.00000000000E+00  0.90282736315E+03  0.90282736316E+03  0.50400001928E-02 0.  1.
        1   -1    0    0  501    0  0.00000000000E+00  0.00000000000E+00 -0.12171116958E+04  0.12171116958E+04  0.50400001928E-02 0. -1.
    10030    2    1    2    0    0  0.00000000000E+00  0.00000000000E+00 -0.31428433264E+03  0.21199390590E+04  0.20965130507E+04 0.  0.
        2    1    3    3  502    0  0.26600049297E+03 -0.93033341884E+03  0.25055680135E+03  0.99952750997E+03  0.25500000920E-02 0.  1.
       -2    1    3    3    0  502 -0.26600049297E+03  0.93033341884E+03 -0.56484113399E+03  0.11204115490E+04  0.25500000920E-02 0. -1.
</event>
<event>
 5   0  0.3257130E-05  0.1961547E+04  0.7818609E-02  0.8624813E-01
       -2   -1    0    0    0  501  0.00000000000E+00  0.00000000000E+00  0.60369681180E+03  0.60369681181E+03  0.25500000920E-02 0.  1.
        2   -1    0    0  501    0  0.00000000000E+00  0.00000000000E+00 -0.15933765736E+04  0.15933765736E+04  0.25500000920E-02 0. -1.
    10030    2    1    2    0    0  0.00000000000E+00  0.00000000000E+00 -0.98967976183E+03  0.21970733854E+04  0.19615466933E+04 0.  0.
        3    1    3    3  502    0  0.90235053490E+03 -0.23167825574E+03 -0.15142311496E+03  0.94384335139E+03  0.10100000352E+00 0. -1.
       -3    1    3    3    0  502 -0.90235053490E+03  0.23167825574E+03 -0.83825664687E+03  0.12532300340E+04  0.10100000352E+00 0.  1.
</event>
<event>
 5   0  0.3108326E-05  0.2083791E+04  0.7818609E-02  0.8568417E-01
       -2   -1    0    0    0  501  0.00000000000E+00  0.00000000000E+00  0.52842269247E+03  0.52842269248E+03  0.25500000920E-02 0. -1.
        2   -1    0    0  501    0  0.00000000000E+00  0.00000000000E+00 -0.20543136329E+04  0.20543136329E+04  0.25500000920E-02 0.  1.
    10030    2    1    2    0    0  0.00000000000E+00  0.00000000000E+00 -0.15258909404E+04  0.25827363254E+04  0.20837907199E+04 0.  0.
        5    1    3    3  502    0  0.10674063947E+03  0.84344558161E+03 -0.16466440201E+02  0.85034536919E+03  0.46999998093E+01 0. -1.
       -5    1    3    3    0  502 -0.10674063947E+03 -0.84344558161E+03 -0.15094245002E+04  0.17323909562E+04  0.46999998093E+01 0.  1.
</event>
<event>
 5   0  0.3108326E-05  0.2087401E+04  0.7818609E-02  0.8566814E-01
        2   -1    0    0  501    0  0.00000000000E+00  0.00000000000E+00  0.12839892497E+04  0.12839892497E+04  0.25500000920E-02 0. -1.
       -2   -1    0    0    0  501  0.00000000000E+00  0.00000000000E+00 -0.84838006132E+03  0.84838006132E+03  0.25500000920E-02 0.  1.
    10030    2    1    2    0    0  0.00000000000E+00  0.00000000000E+00  0.43560918838E+03  0.21323693110E+04  0.20874011386E+04 0.  0.
        5    1    3    3  502    0 -0.51549075434E+03 -0.55742840391E+02 -0.70749587121E+03  0.87716046413E+03  0.46999998093E+01 0.  1.
       -5    1    3    3    0  502  0.51549075434E+03  0.55742840391E+02  0.11431050596E+04  0.12552088469E+04  0.46999998093E+01 0. -1.
</event>
<event>
 5   0  0.3108326E-05  0.2095203E+04  0.7818609E-02  0.8563359E-01
       -2   -1    0    0    0  501  0.00000000000E+00  0.00000000000E+00  0.17081260154E+04  0.17081260154E+04  0.25500000920E-02 0. -1.
        2   -1    0    0  501    0  0.00000000000E+00  0.00000000000E+00 -0.64249891159E+03  0.64249891160E+03  0.25500000920E-02 0.  1.
    10030    2    1    2    0    0  0.00000000000E+00  0.00000000000E+00  0.10656271038E+04  0.23506249270E+04  0.20952031937E+04 0.  0.
        5    1    3    3  502    0 -0.58033232582E+03  0.23281254890E+03  0.14757901037E+04  0.16027993672E+04  0.46999998093E+01 0. -1.
       -5    1    3    3    0  502  0.58033232582E+03 -0.23281254890E+03 -0.41016299994E+03  0.74782555976E+03  0.46999998093E+01 0.  1.
</event>
<event>
 5   0  0.3279789E-05  0.2103797E+04  0.7818609E-02  0.8559573E-01
       -2   -1    0    0    0  501  0.00000000000E+00  0.00000000000E+00  0.97758676209E+03  0.97758676210E+03  0.25500000920E-02 0.  1.
        2   -1    0    0  501    0  0.00000000000E+00  0.00000000000E+00 -0.11318587749E+04  0.11318587749E+04  0.25500000920E-02 0. -1.
    10030    2    1    2    0    0  0.00000000000E+00  0.00000000000E+00 -0.15427201283E+03  0.21094455370E+04  0.21037967154E+04 0.  0.
        2    1    3    3  502    0  0.88469658609E+03  0.45895657106E+03  0.26016130356E+03  0.10300548954E+04  0.25500000920E-02 0.  1.
       -2    1    3    3    0  502 -0.88469658609E+03 -0.45895657106E+03 -0.41443331639E+03  0.10793906417E+04  0.25500000920E-02 0. -1.
</event>
<event>
 5   0  0.3242231E-05  0.2101475E+04  0.7818609E-02  0.8560594E-01
       -2   -1    0    0    0  501  0.00000000000E+00  0.00000000000E+00  0.73224134410E+03  0.73224134411E+03  0.25500000920E-02 0.  1.
        2   -1    0    0  501    0  0.00000000000E+00  0.00000000000E+00 -0.15077672493E+04  0.15077672493E+04  0.25500000920E-02 0. -1.
    10030    2    1    2    0    0  0.00000000000E+00  0.00000000000E+00 -0.77552590524E+03  0.22400085935E+04  0.21014752126E+04 0.  0.
        4    1    3    3  502    0 -0.23680432971E+03  0.80190164230E+03  0.29052313055E+03  0.88517107769E+03  0.12699999809E+01 0.  1.
       -4    1    3    3    0  502  0.23680432971E+03 -0.80190164230E+03 -0.10660490358E+04  0.13548375158E+04  0.12699999809E+01 0. -1.
</event>
<event>
 5   0  0.3108326E-05  0.2086285E+04  0.7818609E-02  0.8567309E-01
        2   -1    0    0  501    0  0.00000000000E+00  0.00000000000E+00  0.16331342466E+04  0.16331342466E+04  0.25500000920E-02 0. -1.
       -2   -1    0    0    0  501  0.00000000000E+00  0.00000000000E+00 -0.66629296845E+03  0.66629296846E+03  0.25500000920E-02 0.  1.
    10030    2    1    2    0    0  0.00000000000E+00  0.00000000000E+00  0.96684127815E+03  0.22994272151E+04  0.20862846067E+04 0.  0.
        5    1    3    3  502    0 -0.11868207807E+03 -0.10193662837E+04  0.68941241238E+03  0.12363270685E+04  0.46999998093E+01 0. -1.
       -5    1    3    3    0  502  0.11868207807E+03  0.10193662837E+04  0.27742886577E+03  0.10631001465E+04  0.46999998093E+01 0.  1.
</event>
<event>
 5   0  0.3108326E-05  0.2048237E+04  0.7818609E-02  0.8584395E-01
       -2   -1    0    0    0  501  0.00000000000E+00  0.00000000000E+00  0.65902368259E+03  0.65902368260E+03  0.25500000920E-02 0. -1.
        2   -1    0    0  501    0  0.00000000000E+00  0.00000000000E+00 -0.15914728172E+04  0.15914728172E+04  0.25500000920E-02 0.  1.
    10030    2    1    2    0    0  0.00000000000E+00  0.00000000000E+00 -0.93244913464E+03  0.22504964998E+04  0.20482365847E+04 0.  0.
        5    1    3    3  502    0 -0.37298718660E+03  0.95320011333E+03 -0.43001102714E+03  0.11102438790E+04  0.46999998093E+01 0.  1.
       -5    1    3    3    0  502  0.37298718660E+03 -0.95320011333E+03 -0.50243810750E+03  0.11402526208E+04  0.46999998093E+01 0. -1.
</event>
<event>
 5   0  0.3130517E-05  0.2097770E+04  0.7818609E-02  0.8562226E-01
       -2   -1    0    0    0  501  0.00000000000E+00  0.00000000000E+00  0.10720774525E+04  0.10720774525E+04  0.25500000920E-02 0. -1.
        2   -1    0    0  501    0  0.00000000000E+00  0.00000000000E+00 -0.10261939658E+04  0.10261939658E+04  0.25500000920E-02 0.  1.
    10030    2    1    2    0    0  0.00000000000E+00  0.00000000000E+00  0.45883486661E+02  0.20982714183E+04  0.20977696848E+04 0.  0.
        1    1    3    3  502    0 -0.20057235916E+02  0.96074107567E+03 -0.39755588561E+03  0.10399405701E+04  0.50400001928E-02 0.  1.
       -1    1    3    3    0  502  0.20057235916E+02 -0.96074107567E+03  0.44343937227E+03  0.10583308481E+04  0.50400001928E-02 0. -1.
</event>
<event>
 5   0  0.1129987E-05  0.2104198E+04  0.7818609E-02  0.8559396E-01
       -3   -1    0    0    0  501  0.00000000000E+00  0.00000000000E+00  0.47514883686E+03  0.47514884760E+03  0.10100000352E+00 0.  1.
        3   -1    0    0  501    0  0.00000000000E+00  0.00000000000E+00 -0.23296126438E+04  0.23296126459E+04  0.10100000352E+00 0. -1.
    10030    2    1    2    0    0  0.00000000000E+00  0.00000000000E+00 -0.18544638069E+04  0.28047614935E+04  0.21041984280E+04 0.  0.
        3    1    3    3  502    0  0.64545291549E+03 -0.68113729669E+03 -0.29306358366E+03  0.98307871370E+03  0.10100000352E+00 0.  1.
       -3    1    3    3    0  502 -0.64545291549E+03  0.68113729669E+03 -0.15614002232E+04  0.18216827798E+04  0.10100000352E+00 0. -1.
</event>
<event>
 5   0  0.3130517E-05  0.2099521E+04  0.7818609E-02  0.8561455E-01
       -2   -1    0    0    0  501  0.00000000000E+00  0.00000000000E+00  0.77009514202E+03  0.77009514202E+03  0.25500000920E-02 0. -1.
        2   -1    0    0  501    0  0.00000000000E+00  0.00000000000E+00 -0.14309878660E+04  0.14309878660E+04  0.25500000920E-02 0.  1.
    10030    2    1    2    0    0  0.00000000000E+00  0.00000000000E+00 -0.66089272396E+03  0.22010830080E+04  0.20995207109E+04 0.  0.
        1    1    3    3  502    0 -0.61614907948E+03 -0.26248326108E+03  0.51702620149E+03  0.84608110932E+03  0.50400001928E-02 0. -1.
       -1    1    3    3    0  502  0.61614907948E+03  0.26248326108E+03 -0.11779189254E+04  0.13550018987E+04  0.50400001928E-02 0.  1.
</event>
<event>
 5   0  0.1435410E-05  0.2023309E+04  0.7818609E-02  0.8595800E-01
        1   -1    0    0  501    0  0.00000000000E+00  0.00000000000E+00  0.17393314210E+04  0.17393314210E+04  0.50400001928E-02 0.  1.
       -1   -1    0    0    0  501  0.00000000000E+00  0.00000000000E+00 -0.58841281017E+03  0.58841281019E+03  0.50400001928E-02 0. -1.
    10030    2    1    2    0    0  0.00000000000E+00  0.00000000000E+00  0.11509186109E+04  0.23277442312E+04  0.20233090612E+04 0.  0.
        2    1    3    3  502    0  0.59444049828E+03  0.17075285459E+03  0.14964981389E+04  0.16192661063E+04  0.25500000920E-02 0.  1.
       -2    1    3    3    0  502 -0.59444049828E+03 -0.17075285459E+03 -0.34557952800E+03  0.70847812494E+03  0.25500000920E-02 0. -1.
</event>
<event>
 5   0  0.3257130E-05  0.2105514E+04  0.7818609E-02  0.8558818E-01
        2   -1    0    0  501    0  0.00000000000E+00  0.00000000000E+00  0.17516457730E+04  0.17516457730E+04  0.25500000920E-02 0. -1.
       -2   -1    0    0    0  501  0.00000000000E+00  0.00000000000E+00 -0.63271783473E+03  0.63271783473E+03  0.25500000920E-02 0.  1.
    10030    2    1    2    0    0  0.00000000000E+00  0.00000000000E+00  0.11189279383E+04  0.23843636077E+04  0.21055142087E+04 0.  0.
        3    1    3    3  502    0 -0.13834424260E+03 -0.15268156446E+03 -0.60966301613E+03  0.64353693991E+03  0.10100000352E+00 0.  1.
       -3    1    3    3    0  502  0.13834424260E+03  0.15268156446E+03  0.17285909544E+04  0.17408266678E+04  0.10100000352E+00 0. -1.
</event>
<event>
 5   0  0.1492552E-05  0.2102380E+04  0.7818609E-02  0.8560196E-01
       -1   -1    0    0    0  501  0.00000000000E+00  0.00000000000E+00  0.74003361405E+03  0.74003361406E+03  0.50400001928E-02 0. -1.
        1   -1    0    0  501    0  0.00000000000E+00  0.00000000000E+00 -0.14931765400E+04  0.14931765400E+04  0.50400001928E-02 0.  1.
    10030    2    1    2    0    0  0.00000000000E+00  0.00000000000E+00 -0.75314292592E+03  0.22332101540E+04  0.21023803950E+04 0.  0.
        4    1    3    3  502    0 -0.32957601143E+03  0.54033574265E+03  0.51495235432E+03  0.81594154338E+03  0.12699999809E+01 0. -1.
       -4    1    3    3    0  502  0.32957601143E+03 -0.54033574265E+03 -0.12680952802E+04  0.14172686107E+04  0.12699999809E+01 0.  1.
</event>
<event>
 5   0  0.1513292E-05  0.2110435E+04  0.7818609E-02  0.8556661E-01
       -1   -1    0    0    0  501  0.00000000000E+00  0.00000000000E+00  0.96187745897E+03  0.96187745898E+03  0.50400001928E-02 0. -1.
        1   -1    0    0  501    0  0.00000000000E+00  0.00000000000E+00 -0.11576147253E+04  0.11576147253E+04  0.50400001928E-02 0.  1.
    10030    2    1    2    0    0  0.00000000000E+00  0.00000000000E+00 -0.19573726629E+03  0.21194921843E+04  0.21104345623E+04 0.  0.
        1    1    3    3  502    0  0.85680072503E+03 -0.31773349553E+03  0.43205254610E+03  0.10108073304E+04  0.50400001928E-02 0. -1.
       -1    1    3    3    0  502 -0.85680072503E+03  0.31773349553E+03 -0.62778981239E+03  0.11086848538E+04  0.50400001928E-02 0.  1.
</event>
<event>
 5   0  0.1453430E-05  0.2100222E+04  0.7818609E-02  0.8561145E-01
       -1   -1    0    0    0  501  0.00000000000E+00  0.00000000000E+00  0.30495121979E+04  0.30495121979E+04  0.50400001928E-02 0. -1.
        1   -1    0    0  501    0  0.00000000000E+00  0.00000000000E+00 -0.36160980451E+03  0.36160980455E+03  0.50400001928E-02 0.  1.
    10030    2    1    2    0    0  0.00000000000E+00  0.00000000000E+00  0.26879023934E+04  0.34111220025E+04  0.21002223785E+04 0.  0.
        5    1    3    3  502    0  0.89433232330E+03 -0.20492907767E+02  0.22371883419E+04  0.24094157032E+04  0.46999998093E+01 0.  1.
       -5    1    3    3    0  502 -0.89433232330E+03  0.20492907767E+02  0.45071405152E+03  0.10017062993E+04  0.46999998093E+01 0. -1.
</event>
<event>
 5   0  0.3242231E-05  0.2101237E+04  0.7818609E-02  0.8560699E-01
       -2   -1    0    0    0  501  0.00000000000E+00  0.00000000000E+00  0.76078830633E+03  0.76078830634E+03  0.25500000920E-02 0. -1.
        2   -1    0    0  501    0  0.00000000000E+00  0.00000000000E+00 -0.14508624883E+04  0.14508624883E+04  0.25500000920E-02 0.  1.
    10030    2    1    2    0    0  0.00000000000E+00  0.00000000000E+00 -0.69007418201E+03  0.22116507947E+04  0.21012369835E+04 0.  0.
        4    1    3    3  502    0 -0.50785732507E+02  0.68080629267E+03  0.49550012681E+03  0.84356291249E+03  0.12699999809E+01 0. -1.
       -4    1    3    3    0  502  0.50785732507E+02 -0.68080629267E+03 -0.11855743088E+04  0.13680878822E+04  0.12699999809E+01 0.  1.
</event>
<event>
 5   0  0.1435410E-05  0.2098626E+04  0.7818609E-02  0.8561849E-01
       -1   -1    0    0    0  501  0.00000000000E+00  0.00000000000E+00  0.12832210172E+04  0.12832210172E+04  0.50400001928E-02 0. -1.
        1   -1    0    0  501    0  0.00000000000E+00  0.00000000000E+00 -0.85804206092E+03  0.85804206094E+03  0.50400001928E-02 0.  1.
    10030    2    1    2    0    0  0.00000000000E+00  0.00000000000E+00  0.42517895629E+03  0.21412630782E+04  0.20986258421E+04 0.  0.
        2    1    3    3  502    0 -0.58051856727E+03  0.74718695171E+03  0.67542145751E+03  0.11625335664E+04  0.25500000920E-02 0. -1.
       -2    1    3    3    0  502  0.58051856727E+03 -0.74718695171E+03 -0.25024250122E+03  0.97872951175E+03  0.25500000920E-02 0.  1.
</event>
<event>
 5   0  0.3279789E-05  0.2110019E+04  0.7818609E-02  0.8556843E-01
       -2   -1    0    0    0  501  0.00000000000E+00  0.00000000000E+00  0.63631375345E+03  0.63631375345E+03  0.25500000920E-02 0. -1.
        2   -1    0    0  501    0  0.00000000000E+00  0.00000000000E+00 -0.17492081655E+04  0.17492081655E+04  0.25500000920E-02 0.  1.
    10030    2    1    2    0    0  0.00000000000E+00  0.00000000000E+00 -0.11128944120E+04  0.23855219189E+04  0.21100191595E+04 0.  0.
        2    1    3    3  502    0  0.87530793423E+03 -0.57439266743E+03 -0.40923734298E+03  0.11240845693E+04  0.25500000920E-02 0. -1.
       -2    1    3    3    0  502 -0.87530793423E+03  0.57439266743E+03 -0.70365706905E+03  0.12614373496E+04  0.25500000920E-02 0.  1.
</event>
<event>
 5   0  0.3130517E-05  0.2106360E+04  0.7818609E-02  0.8558447E-01
        2   -1    0    0  501    0  0.00000000000E+00  0.00000000000E+00  0.22251340377E+04  0.22251340377E+04  0.25500000920E-02 0.  1.
       -2   -1    0    0    0  501  0.00000000000E+00  0.00000000000E+00 -0.49848165432E+03  0.49848165433E+03  0.25500000920E-02 0. -1.
    10030    2    1    2    0    0  0.00000000000E+00  0.00000000000E+00  0.17266523834E+04  0.27236156921E+04  0.21063603645E+04 0.  0.
        1    1    3    3  502    0 -0.54089585222E+03 -0.25587774775E+03 -0.25733814218E+03  0.65135601954E+03  0.50400001928E-02 0. -1.
       -1    1    3    3    0  502  0.54089585222E+03  0.25587774775E+03  0.19839905256E+04  0.20722596725E+04  0.50400001928E-02 0.  1.
</event>
<event>
 5   0  0.3108326E-05  0.2108975E+04  0.7818609E-02  0.8557300E-01
       -2   -1    0    0    0  501  0.00000000000E+00  0.00000000000E+00  0.10741544151E+04  0.10741544151E+04  0.25500000920E-02 0.  1.
        2   -1    0    0  501    0  0.00000000000E+00  0.00000000000E+00 -0.10351807528E+04  0.10351807528E+04  0.25500000920E-02 0. -1.
    10030    2    1    2    0    0  0.00000000000E+00  0.00000000000E+00  0.38973662333E+02  0.21093351679E+04  0.21089750838E+04 0.  0.
        5    1    3    3  502    0 -0.35090098531E+03 -0.74579992958E+02  0.10112347772E+04  0.10729918646E+04  0.46999998093E+01 0.  1.
       -5    1    3    3    0  502  0.35090098531E+03  0.74579992958E+02 -0.97226111488E+03  0.10363433033E+04  0.46999998093E+01 0. -1.
</event>
<event>
 5   0  0.1435410E-05  0.2098787E+04  0.7818609E-02  0.8561778E-01
       -1   -1    0    0    0  501  0.00000000000E+00  0.00000000000E+00  0.85264921722E+03  0.85264921724E+03  0.50400001928E-02 0. -1.
        1   -1    0    0  501    0  0.00000000000E+00  0.00000000000E+00 -0.12915350252E+04  0.12915350253E+04  0.50400001928E-02 0.  1.
    10030    2    1    2    0    0  0.00000000000E+00  0.00000000000E+00 -0.43888580803E+03  0.21441842425E+04  0.20987866288E+04 0.  0.
        2    1    3    3  502    0  0.82809691700E+03  0.62280755371E+03 -0.38914606450E+03  0.11068280862E+04  0.25500000920E-02 0. -1.
       -2    1    3    3    0  502 -0.82809691700E+03 -0.62280755371E+03 -0.49739743531E+02  0.10373561563E+04  0.25500000920E-02 0.  1.
</event>
<event>
 5   0  0.1492552E-05  0.2096094E+04  0.7818609E-02  0.8562966E-01
        1   -1    0    0  501    0  0.00000000000E+00  0.00000000000E+00  0.17633967386E+04  0.17633967386E+04  0.50400001928E-02 0. -1.
       -1   -1    0    0    0  501  0.00000000000E+00  0.00000000000E+00 -0.62289034324E+03  0.62289034326E+03  0.50400001928E-02 0.  1.
    10030    2    1    2    0    0  0.00000000000E+00  0.00000000000E+00  0.11405063954E+04  0.23862870819E+04  0.20960942725E+04 0.  0.
        4    1    3    3  502    0  0.62833520563E+03  0.56364567076E+03 -0.13695787391E+03  0.85513779295E+03  0.12699999809E+01 0.  1.
       -4    1    3    3    0  502 -0.62833520563E+03 -0.56364567076E+03  0.12774642693E+04  0.15311492889E+04  0.12699999809E+01 0. -1.
</event>
<event>
 5   0  0.3242231E-05  0.2104028E+04  0.7818609E-02  0.8559471E-01
        2   -1    0    0  501    0  0.00000000000E+00  0.00000000000E+00  0.11941013287E+04  0.11941013287E+04  0.25500000920E-02 0. -1.
       -2   -1    0    0    0  501  0.00000000000E+00  0.00000000000E+00 -0.92683377902E+03  0.92683377903E+03  0.25500000920E-02 0.  1.
    10030    2    1    2    0    0  0.00000000000E+00  0.00000000000E+00  0.26726754965E+03  0.21209351077E+04  0.21040279913E+04 0.  0.
        4    1    3    3  502    0  0.78785887964E+03 -0.15239590794E+02 -0.56894459929E+03  0.97193283169E+03  0.12699999809E+01 0.  1.
       -4    1    3    3    0  502 -0.78785887964E+03  0.15239590794E+02  0.83621214894E+03  0.11490022760E+04  0.12699999809E+01 0. -1.
</event>
<event>
 5   0  0.3257130E-05  0.2075891E+04  0.7818609E-02  0.8571939E-01
        2   -1    0    0  501    0  0.00000000000E+00  0.00000000000E+00  0.99730266447E+03  0.99730266447E+03  0.25500000920E-02 0.  1.
       -2   -1    0    0    0  501  0.00000000000E+00  0.00000000000E+00 -0.10802444401E+04  0.10802444401E+04  0.25500000920E-02 0. -1.
    10030    2    1    2    0    0  0.00000000000E+00  0.00000000000E+00 -0.82941775643E+02  0.20775471046E+04  0.20758908048E+04 0.  0.
        3    1    3    3  502    0  0.82791553101E+03 -0.26215220662E+03  0.52745673010E+03  0.10160602926E+04  0.10100000352E+00 0.  1.
       -3    1    3    3    0  502 -0.82791553101E+03  0.26215220662E+03 -0.61039850575E+03  0.10614868120E+04  0.10100000352E+00 0. -1.
</event>
<event>
 5   0  0.1513292E-05  0.2106074E+04  0.7818609E-02  0.8558572E-01
       -1   -1    0    0    0  501  0.00000000000E+00  0.00000000000E+00  0.89010207171E+03  0.89010207172E+03  0.50400001928E-02 0. -1.
        1   -1    0    0  501    0  0.00000000000E+00  0.00000000000E+00 -0.12457975808E+04  0.12457975808E+04  0.50400001928E-02 0.  1.
    10030    2    1    2    0    0  0.00000000000E+00  0.00000000000E+00 -0.35569550911E+03  0.21358996526E+04  0.21060740800E+04 0.  0.
        1    1    3    3  502    0 -0.95268691407E+03  0.43818746211E+03 -0.80222380688E+02  0.10516920835E+04  0.50400001928E-02 0. -1.
       -1    1    3    3    0  502  0.95268691407E+03 -0.43818746211E+03 -0.27547312842E+03  0.10842075690E+04  0.50400001928E-02 0.  1.
</event>
<event>
 5   0  0.1466480E-05  0.2101688E+04  0.7818609E-02  0.8560500E-01
       -1   -1    0    0    0  501  0.00000000000E+00  0.00000000000E+00  0.75976705066E+03  0.75976705067E+03  0.50400001928E-02 0. -1.
        1   -1    0    0  501    0  0.00000000000E+00  0.00000000000E+00 -0.14534362537E+04  0.14534362537E+04  0.50400001928E-02 0.  1.
    10030    2    1    2    0    0  0.00000000000E+00  0.00000000000E+00 -0.69366920308E+03  0.22132033044E+04  0.21016878701E+04 0.  0.
        3    1    3    3  502    0 -0.16017603850E+03  0.60066995220E+03 -0.12390269888E+04  0.13862354215E+04  0.10100000352E+00 0.  1.
       -3    1    3    3    0  502  0.16017603850E+03 -0.60066995220E+03  0.54535778567E+03  0.82696788291E+03  0.10100000352E+00 0. -1.
</event>
<event>
 5   0  0.1435410E-05  0.2065479E+04  0.7818609E-02  0.8576605E-01
        1   -1    0    0  501    0  0.00000000000E+00  0.00000000000E+00  0.17316719178E+04  0.17316719178E+04  0.50400001928E-02 0.  1.
       -1   -1    0    0    0  501  0.00000000000E+00  0.00000000000E+00 -0.61590801602E+03  0.61590801604E+03  0.50400001928E-02 0. -1.
    10030    2    1    2    0    0  0.00000000000E+00  0.00000000000E+00  0.11157639018E+04  0.23475799339E+04  0.20654787487E+04 0.  0.
        2    1    3    3  502    0  0.39744420377E+03 -0.92759052833E+03  0.80732036116E+03  0.12923437039E+04  0.25500000920E-02 0.  1.
       -2    1    3    3    0  502 -0.39744420377E+03  0.92759052833E+03  0.30844354065E+03  0.10552362300E+04  0.25500000920E-02 0. -1.
</event>
<event>
 5   0  0.1435410E-05  0.2104263E+04  0.7818609E-02  0.8559368E-01
        1   -1    0    0  501    0  0.00000000000E+00  0.00000000000E+00  0.19022788443E+04  0.19022788443E+04  0.50400001928E-02 0.  1.
       -1   -1    0    0    0  501  0.00000000000E+00  0.00000000000E+00 -0.58192353271E+03  0.58192353273E+03  0.50400001928E-02 0. -1.
    10030    2    1    2    0    0  0.00000000000E+00  0.00000000000E+00  0.13203553116E+04  0.24842023770E+04  0.21042631255E+04 0.  0.
        2    1    3    3  502    0  0.17653825797E+03  0.16166254482E+03  0.18697043273E+04  0.18849654656E+04  0.25500000920E-02 0.  1.
       -2    1    3    3    0  502 -0.17653825797E+03 -0.16166254482E+03 -0.54934901574E+03  0.59923691143E+03  0.25500000920E-02 0. -1.
</event>
<event>
 5   0  0.3108326E-05  0.2102500E+04  0.7818609E-02  0.8560143E-01
       -2   -1    0    0    0  501  0.00000000000E+00  0.00000000000E+00  0.94401473167E+03  0.94401473167E+03  0.25500000920E-02 0.  1.
        2   -1    0    0  501    0  0.00000000000E+00  0.00000000000E+00 -0.11706664383E+04  0.11706664383E+04  0.25500000920E-02 0. -1.
    10030    2    1    2    0    0  0.00000000000E+00  0.00000000000E+00 -0.22665170662E+03  0.21146811700E+04  0.21024998108E+04 0.  0.
        5    1    3    3  502    0 -0.52242208883E+03  0.83096513579E+03  0.26525413651E+03  0.10167643497E+04  0.46999998093E+01 0. -1.
       -5    1    3    3    0  502  0.52242208883E+03 -0.83096513579E+03 -0.49190584313E+03  0.10979168203E+04  0.46999998093E+01 0.  1.
</event>
<event>
 5   0  0.1453430E-05  0.2094166E+04  0.7818609E-02  0.8563818E-01
        1   -1    0    0  501    0  0.00000000000E+00  0.00000000000E+00  0.10554104996E+04  0.10554104996E+04  0.50400001928E-02 0. -1.
       -1   -1    0    0    0  501  0.00000000000E+00  0.00000000000E+00 -0.10388209677E+04  0.10388209677E+04  0.50400001928E-02 0.  1.
    10030    2    1    2    0    0  0.00000000000E+00  0.00000000000E+00  0.16589531942E+02  0.20942314673E+04  0.20941657590E+04 0.  0.
        5    1    3    3  502    0  0.75863810571E+03 -0.40070357923E+03 -0.59194513693E+03  0.10423609111E+04  0.46999998093E+01 0.  1.
       -5    1    3    3    0  502 -0.75863810571E+03  0.40070357923E+03  0.60853466887E+03  0.10518705562E+04  0.46999998093E+01 0. -1.
</event>
<event>
 5   0  0.1466480E-05  0.2105049E+04  0.7818609E-02  0.8559023E-01
       -1   -1    0    0    0  501  0.00000000000E+00  0.00000000000E+00  0.81291206977E+03  0.81291206979E+03  0.50400001928E-02 0. -1.
        1   -1    0    0  501    0  0.00000000000E+00  0.00000000000E+00 -0.13627641321E+04  0.13627641321E+04  0.50400001928E-02 0.  1.
    10030    2    1    2    0    0  0.00000000000E+00  0.00000000000E+00 -0.54985206228E+03  0.21756762018E+04  0.21050486087E+04 0.  0.
        3    1    3    3  502    0 -0.60799231551E+03  0.39275153662E+03 -0.10646966795E+04  0.12874344468E+04  0.10100000352E+00 0.  1.
       -3    1    3    3    0  502  0.60799231551E+03 -0.39275153662E+03  0.51484461726E+03  0.88824175502E+03  0.10100000352E+00 0. -1.
</event>
<event>
 5   0  0.1453430E-05  0.2105171E+04  0.7818609E-02  0.8558969E-01
       -1   -1    0    0    0  501  0.00000000000E+00  0.00000000000E+00  0.73068353531E+03  0.73068353533E+03  0.50400001928E-02 0. -1.
        1   -1    0    0  501    0  0.00000000000E+00  0.00000000000E+00 -0.15163013701E+04  0.15163013701E+04  0.50400001928E-02 0.  1.
    10030    2    1    2    0    0  0.00000000000E+00  0.00000000000E+00 -0.78561783482E+03  0.22469849055E+04  0.21051712004E+04 0.  0.
        5    1    3    3  502    0  0.93942942167E+03  0.41839258808E+03 -0.63227555108E+03  0.12072176517E+04  0.46999998093E+01 0. -1.
       -5    1    3    3    0  502 -0.93942942167E+03 -0.41839258808E+03 -0.15334228374E+03  0.10397672538E+04  0.46999998093E+01 0.  1.
</event>
<event>
 5   0  0.1513292E-05  0.2081542E+04  0.7818609E-02  0.8569418E-01
        1   -1    0    0  501    0  0.00000000000E+00  0.00000000000E+00  0.93655654000E+03  0.93655654002E+03  0.50400001928E-02 0.  1.
       -1   -1    0    0    0  501  0.00000000000E+00  0.00000000000E+00 -0.11565814321E+04  0.11565814321E+04  0.50400001928E-02 0. -1.
    10030    2    1    2    0    0  0.00000000000E+00  0.00000000000E+00 -0.22002489205E+03  0.20931379721E+04  0.20815416443E+04 0.  0.
        1    1    3    3  502    0 -0.45742096309E+03 -0.68394606804E+03 -0.75089162053E+03  0.11139364377E+04  0.50400001928E-02 0. -1.
       -1    1    3    3    0  502  0.45742096309E+03  0.68394606804E+03  0.53086672848E+03  0.97920153436E+03  0.50400001928E-02 0.  1.
</event>
<event>
 5   0  0.3279789E-05  0.2106621E+04  0.7818609E-02  0.8558332E-01
        2   -1    0    0  501    0  0.00000000000E+00  0.00000000000E+00  0.99824641005E+03  0.99824641005E+03  0.25500000920E-02 0.  1.
       -2   -1    0    0    0  501  0.00000000000E+00  0.00000000000E+00 -0.11114118669E+04  0.11114118669E+04  0.25500000920E-02 0. -1.
    10030    2    1    2    0    0  0.00000000000E+00  0.00000000000E+00 -0.11316545688E+03  0.21096582770E+04  0.21066209021E+04 0.  0.
        2    1    3    3  502    0 -0.53021999149E+03  0.37887699509E+03  0.77212589459E+03  0.10103758775E+04  0.25500000920E-02 0.  1.
       -2    1    3    3    0  502  0.53021999149E+03 -0.37887699509E+03 -0.88529135147E+03  0.10992823995E+04  0.25500000920E-02 0. -1.
</event>
<event>
 5   0  0.3130517E-05  0.2103187E+04  0.7818609E-02  0.8559841E-01
       -2   -1    0    0    0  501  0.00000000000E+00  0.00000000000E+00  0.10326690091E+04  0.10326690091E+04  0.25500000920E-02 0. -1.
        2   -1    0    0  501    0  0.00000000000E+00  0.00000000000E+00 -0.10708650810E+04  0.10708650810E+04  0.25500000920E-02 0.  1.
    10030    2    1    2    0    0  0.00000000000E+00  0.00000000000E+00 -0.38196071938E+02  0.21035340901E+04  0.21031872784E+04 0.  0.
        1    1    3    3  502    0 -0.10457946110E+04  0.31117367206E+02 -0.12491965654E+03  0.10536885590E+04  0.50400001928E-02 0.  1.
       -1    1    3    3    0  502  0.10457946110E+04 -0.31117367206E+02  0.86723584601E+02  0.10498455310E+04  0.50400001928E-02 0. -1.
</event>
<event>
 5   0  0.1453430E-05  0.2103671E+04  0.7818609E-02  0.8559628E-01
        1   -1    0    0  501    0  0.00000000000E+00  0.00000000000E+00  0.10701674322E+04  0.10701674322E+04  0.50400001928E-02 0. -1.
       -1   -1    0    0    0  501  0.00000000000E+00  0.00000000000E+00 -0.10338179462E+04  0.10338179462E+04  0.50400001928E-02 0.  1.
    10030    2    1    2    0    0  0.00000000000E+00  0.00000000000E+00  0.36349485961E+02  0.21039853784E+04  0.21036713592E+04 0.  0.
        5    1    3    3  502    0 -0.46122463367E+03 -0.63451115536E+03 -0.68264637185E+03  0.10398849590E+04  0.46999998093E+01 0.  1.
       -5    1    3    3    0  502  0.46122463367E+03  0.63451115536E+03  0.71899585781E+03  0.10641004194E+04  0.46999998093E+01 0. -1.
</event>
<event>
 5   0  0.1435410E-05  0.2098350E+04  0.7818609E-02  0.8561971E-01
       -1   -1    0    0    0  501  0.00000000000E+00  0.00000000000E+00  0.12570420870E+04  0.12570420870E+04  0.50400001928E-02 0. -1.
        1   -1    0    0  501    0  0.00000000000E+00  0.00000000000E+00 -0.87568116491E+03  0.87568116492E+03  0.50400001928E-02 0.  1.
    10030    2    1    2    0    0  0.00000000000E+00  0.00000000000E+00  0.38136092208E+03  0.21327232519E+04  0.20983499032E+04 0.  0.
        2    1    3    3  502    0 -0.38747348056E+03  0.25059091465E+03  0.11483663990E+04  0.12376093451E+04  0.25500000920E-02 0. -1.
       -2    1    3    3    0  502  0.38747348056E+03 -0.25059091465E+03 -0.76700547691E+03  0.89511390686E+03  0.25500000920E-02 0.  1.
</event>
<event>
 5   0  0.1466480E-05  0.2104990E+04  0.7818609E-02  0.8559049E-01
       -1   -1    0    0    0  501  0.00000000000E+00  0.00000000000E+00  0.86901006579E+03  0.86901006581E+03  0.50400001928E-02 0. -1.
        1   -1    0    0  501    0  0.00000000000E+00  0.00000000000E+00 -0.12747208098E+04  0.12747208098E+04  0.50400001928E-02 0.  1.
    10030    2    1    2    0    0  0.00000000000E+00  0.00000000000E+00 -0.40571074397E+03  0.21437308756E+04  0.21049895152E+04 0.  0.
        3    1    3    3  502    0 -0.79332294010E+03  0.68850576456E+03 -0.26997533524E+03  0.10845681938E+04  0.10100000352E+00 0. -1.
       -3    1    3    3    0  502  0.79332294010E+03 -0.68850576456E+03 -0.13573540872E+03  0.10591626818E+04  0.10100000352E+00 0.  1.
</event>
<event>
 5   0  0.3279789E-05  0.2097063E+04  0.7818609E-02  0.8562538E-01
        2   -1    0    0  501    0  0.00000000000E+00  0.00000000000E+00  0.18689623539E+04  0.18689623539E+04  0.25500000920E-02 0. -1.
       -2   -1    0    0    0  501  0.00000000000E+00  0.00000000000E+00 -0.58825070592E+03  0.58825070592E+03  0.25500000920E-02 0.  1.
    10030    2    1    2    0    0  0.00000000000E+00  0.00000000000E+00  0.12807116479E+04  0.24572130598E+04  0.20970631121E+04 0.  0.
        2    1    3    3  502    0 -0.19360106875E+03  0.10082383656E+04  0.89000096535E+03  0.13587228172E+04  0.25500000920E-02 0. -1.
       -2    1    3    3    0  502  0.19360106875E+03 -0.10082383656E+04  0.39071068259E+03  0.10984902426E+04  0.25500000920E-02 0.  1.
</event>
<event>
 5   0  0.3130517E-05  0.2115858E+04  0.7818609E-02  0.8554290E-01
        2   -1    0    0  501    0  0.00000000000E+00  0.00000000000E+00  0.12620805865E+04  0.12620805865E+04  0.25500000920E-02 0.  1.
       -2   -1    0    0    0  501  0.00000000000E+00  0.00000000000E+00 -0.88680083051E+03  0.88680083051E+03  0.25500000920E-02 0. -1.
    10030    2    1    2    0    0  0.00000000000E+00  0.00000000000E+00  0.37527975595E+03  0.21488814170E+04  0.21158583244E+04 0.  0.
        1    1    3    3  502    0  0.49389742633E+03 -0.14351781314E+03 -0.75127920376E+03  0.91046827098E+03  0.50400001928E-02 0. -1.
       -1    1    3    3    0  502 -0.49389742633E+03  0.14351781314E+03  0.11265589597E+04  0.12384131460E+04  0.50400001928E-02 0.  1.
</event>
<event>
 5   0  0.1513292E-05  0.2091972E+04  0.7818609E-02  0.8564788E-01
        1   -1    0    0  501    0  0.00000000000E+00  0.00000000000E+00  0.25417959376E+04  0.25417959376E+04  0.50400001928E-02 0.  1.
       -1   -1    0    0    0  501  0.00000000000E+00  0.00000000000E+00 -0.43043827457E+03  0.43043827460E+03  0.50400001928E-02 0. -1.
    10030    2    1    2    0    0  0.00000000000E+00  0.00000000000E+00  0.21113576630E+04  0.29722342122E+04  0.20919715655E+04 0.  0.
        1    1    3    3  502    0 -0.69136963555E+03  0.38221564943E+03  0.20297231408E+04  0.21780396700E+04  0.50400001928E-02 0.  1.
       -1    1    3    3    0  502  0.69136963555E+03 -0.38221564943E+03  0.81634522199E+02  0.79419454221E+03  0.50400001928E-02 0. -1.
</event>
<event>
 5   0  0.3279789E-05  0.2099626E+04  0.7818609E-02  0.8561408E-01
       -2   -1    0    0    0  501  0.00000000000E+00  0.00000000000E+00  0.58822101529E+03  0.58822101530E+03  0.25500000920E-02 0.  1.
        2   -1    0    0  501    0  0.00000000000E+00  0.00000000000E+00 -0.18736288388E+04  0.18736288388E+04  0.25500000920E-02 0. -1.
    10030    2    1    2    0    0  0.00000000000E+00  0.00000000000E+00 -0.12854078235E+04  0.24618498541E+04  0.20996264981E+04 0.  0.
        2    1    3    3  502    0  0.42786006170E+03  0.94301367426E+03 -0.84500603504E+03  0.13365531121E+04  0.25500000920E-02 0.  1.
       -2    1    3    3    0  502 -0.42786006170E+03 -0.94301367426E+03 -0.44040178847E+03  0.11252967420E+04  0.25500000920E-02 0. -1.
</event>
<event>
 5   0  0.1492552E-05  0.2111183E+04  0.7818609E-02  0.8556333E-01
       -1   -1    0    0    0  501  0.00000000000E+00  0.00000000000E+00  0.15477960506E+04  0.15477960506E+04  0.50400001928E-02 0.  1.
        1   -1    0    0  501    0  0.00000000000E+00  0.00000000000E+00 -0.71990940561E+03  0.71990940563E+03  0.50400001928E-02 0. -1.
    10030    2    1    2    0    0  0.00000000000E+00  0.00000000000E+00  0.82788664494E+03  0.22677054562E+04  0.21111825452E+04 0.  0.
        4    1    3    3  502    0  0.28065760556E+02 -0.15491215394E+03 -0.70722716512E+03  0.72453939737E+03  0.12699999809E+01 0. -1.
       -4    1    3    3    0  502 -0.28065760556E+02  0.15491215394E+03  0.15351138101E+04  0.15431660588E+04  0.12699999809E+01 0.  1.
</event>
<event>
 5   0  0.1466480E-05  0.1980590E+04  0.7818609E-02  0.8615750E-01
        1   -1    0    0  501    0  0.00000000000E+00  0.00000000000E+00  0.15116710622E+04  0.15116710622E+04  0.50400001928E-02 0.  1.
       -1   -1    0    0    0  501  0.00000000000E+00  0.00000000000E+00 -0.64874177823E+03  0.64874177825E+03  0.50400001928E-02 0. -1.
    10030    2    1    2    0    0  0.00000000000E+00  0.00000000000E+00  0.86292928397E+03  0.21604128405E+04  0.19805899858E+04 0.  0.
        3    1    3    3  502    0 -0.29649972208E+03  0.73773955470E+02 -0.59604197296E+03  0.66979155372E+03  0.10100000352E+00 0. -1.
       -3    1    3    3    0  502  0.29649972208E+03 -0.73773955470E+02  0.14589712569E+04  0.14906212867E+04  0.10100000352E+00 0.  1.
</event>
<event>
 5   0  0.3108326E-05  0.2092805E+04  0.7818609E-02  0.8564420E-01
        2   -1    0    0  501    0  0.00000000000E+00  0.00000000000E+00  0.19798342912E+04  0.19798342912E+04  0.25500000920E-02 0. -1.
       -2   -1    0    0    0  501  0.00000000000E+00  0.00000000000E+00 -0.55305542781E+03  0.55305542782E+03  0.25500000920E-02 0.  1.
    10030    2    1    2    0    0  0.00000000000E+00  0.00000000000E+00  0.14267788634E+04  0.25328897190E+04  0.20928049130E+04 0.  0.
        5    1    3    3  502    0 -0.63003354447E+03  0.15266043160E+03  0.17075103232E+04  0.18264339759E+04  0.46999998093E+01 0. -1.
       -5    1    3    3    0  502  0.63003354447E+03 -0.15266043160E+03 -0.28073145976E+03  0.70645574315E+03  0.46999998093E+01 0.  1.
</event>
<event>
 5   0  0.3279789E-05  0.2082334E+04  0.7818609E-02  0.8569066E-01
        2   -1    0    0  501    0  0.00000000000E+00  0.00000000000E+00  0.21283530368E+04  0.21283530368E+04  0.25500000920E-02 0. -1.
       -2   -1    0    0    0  501  0.00000000000E+00  0.00000000000E+00 -0.50932751636E+03  0.50932751637E+03  0.25500000920E-02 0.  1.
    10030    2    1    2    0    0  0.00000000000E+00  0.00000000000E+00  0.16190255205E+04  0.26376805532E+04  0.20823340426E+04 0.  0.
        2    1    3    3  502    0  0.80989595844E+03 -0.48754248084E+03  0.13622323416E+04  0.16581031592E+04  0.25500000920E-02 0. -1.
       -2    1    3    3    0  502 -0.80989595844E+03  0.48754248084E+03  0.25679317892E+03  0.97957739402E+03  0.25500000920E-02 0.  1.
</event>
<event>
 5   0  0.1129987E-05  0.2076232E+04  0.7818609E-02  0.8571786E-01
       -3   -1    0    0    0  501  0.00000000000E+00  0.00000000000E+00  0.22689594640E+04  0.22689594662E+04  0.10100000352E+00 0.  1.
        3   -1    0    0  501    0  0.00000000000E+00  0.00000000000E+00 -0.47496886060E+03  0.47496887134E+03  0.10100000352E+00 0. -1.
    10030    2    1    2    0    0  0.00000000000E+00  0.00000000000E+00  0.17939906034E+04  0.27439283376E+04  0.20762322694E+04 0.  0.
        4    1    3    3  502    0  0.94127439431E+03 -0.38394148928E+03  0.61891140725E+03  0.11901518792E+04  0.12699999809E+01 0. -1.
       -4    1    3    3    0  502 -0.94127439431E+03  0.38394148928E+03  0.11750791961E+04  0.15537764584E+04  0.12699999809E+01 0.  1.
</event>
<event>
 5   0  0.1453430E-05  0.2104731E+04  0.7818609E-02  0.8559162E-01
        1   -1    0    0  501    0  0.00000000000E+00  0.00000000000E+00  0.14342189238E+04  0.14342189238E+04  0.50400001928E-02 0. -1.
       -1   -1    0    0    0  501  0.00000000000E+00  0.00000000000E+00 -0.77217878933E+03  0.77217878935E+03  0.50400001928E-02 0.  1.
    10030    2    1    2    0    0  0.00000000000E+00  0.00000000000E+00  0.66204013446E+03  0.22063977131E+04  0.21047312724E+04 0.  0.
        5    1    3    3  502    0  0.44182868875E+03 -0.55658937763E+02 -0.66852579852E+03  0.80328036254E+03  0.46999998093E+01 0.  1.
       -5    1    3    3    0  502 -0.44182868875E+03  0.55658937763E+02  0.13305659330E+04  0.14031173506E+04  0.46999998093E+01 0. -1.
</event>
<event>
 5   0  0.1435410E-05  0.2087538E+04  0.7818609E-02  0.8566753E-01
        1   -1    0    0  501    0  0.00000000000E+00  0.00000000000E+00  0.14366839161E+04  0.14366839161E+04  0.50400001928E-02 0. -1.
       -1   -1    0    0    0  501  0.00000000000E+00  0.00000000000E+00 -0.75831129221E+03  0.75831129223E+03  0.50400001928E-02 0.  1.
    10030    2    1    2    0    0  0.00000000000E+00  0.00000000000E+00  0.67837262386E+03  0.21949952083E+04  0.20875379153E+04 0.  0.
        2    1    3    3  502    0 -0.11085685606E+03 -0.47896067834E+03 -0.62894872432E+03  0.79829134516E+03  0.25500000920E-02 0.  1.
       -2    1    3    3    0  502  0.11085685606E+03  0.47896067834E+03  0.13073213482E+04  0.13967038632E+04  0.25500000920E-02 0. -1.
</event>
<event>
 5   0  0.1513292E-05  0.2097331E+04  0.7818609E-02  0.8562420E-01
       -1   -1    0    0    0  501  0.00000000000E+00  0.00000000000E+00  0.90366351904E+03  0.90366351905E+03  0.50400001928E-02 0.  1.
        1   -1    0    0  501    0  0.00000000000E+00  0.00000000000E+00 -0.12169340354E+04  0.12169340354E+04  0.50400001928E-02 0. -1.
    10030    2    1    2    0    0  0.00000000000E+00  0.00000000000E+00 -0.31327051634E+03  0.21205975544E+04  0.20973305823E+04 0.  0.
        1    1    3    3  502    0  0.97903209151E+03 -0.37565834055E+03 -0.14782841669E+03  0.10589977648E+04  0.50400001928E-02 0.  1.
       -1    1    3    3    0  502 -0.97903209151E+03  0.37565834055E+03 -0.16544209965E+03  0.10615997896E+04  0.50400001928E-02 0. -1.
</event>
<event>
 5   0  0.3279789E-05  0.2148902E+04  0.7818609E-02  0.8540003E-01
        2   -1    0    0  501    0  0.00000000000E+00  0.00000000000E+00  0.18879284856E+04  0.18879284856E+04  0.25500000920E-02 0. -1.
       -2   -1    0    0    0  501  0.00000000000E+00  0.00000000000E+00 -0.61148737016E+03  0.61148737017E+03  0.25500000920E-02 0.  1.
    10030    2    1    2    0    0  0.00000000000E+00  0.00000000000E+00  0.12764411155E+04  0.24994158558E+04  0.21489015098E+04 0.  0.
        2    1    3    3  502    0  0.71790072958E+03  0.76503100464E+02 -0.28732110971E+03  0.77703770951E+03  0.25500000920E-02 0.  1.
       -2    1    3    3    0  502 -0.71790072958E+03 -0.76503100464E+02  0.15637622252E+04  0.17223781463E+04  0.25500000920E-02 0. -1.
</event>
<event>
 5   0  0.1513292E-05  0.2099913E+04  0.7818609E-02  0.8561282E-01
        1   -1    0    0  501    0  0.00000000000E+00  0.00000000000E+00  0.18607460025E+04  0.18607460025E+04  0.50400001928E-02 0. -1.
       -1   -1    0    0    0  501  0.00000000000E+00  0.00000000000E+00 -0.59245541464E+03  0.59245541466E+03  0.50400001928E-02 0.  1.
    10030    2    1    2    0    0  0.00000000000E+00  0.00000000000E+00  0.12682905878E+04  0.24532014171E+04  0.20999133739E+04 0.  0.
        1    1    3    3  502    0 -0.55921722643E+03  0.43930293264E+03 -0.26827560510E+03  0.76005445416E+03  0.50400001928E-02 0.  1.
       -1    1    3    3    0  502  0.55921722643E+03 -0.43930293264E+03  0.15365661929E+04  0.16931469630E+04  0.50400001928E-02 0. -1.
</event>
<event>
 5   0  0.3108326E-05  0.2119710E+04  0.7818609E-02  0.8552610E-01
        2   -1    0    0  501    0  0.00000000000E+00  0.00000000000E+00  0.27917341604E+04  0.27917341604E+04  0.25500000920E-02 0.  1.
       -2   -1    0    0    0  501  0.00000000000E+00  0.00000000000E+00 -0.40236380564E+03  0.40236380565E+03  0.25500000920E-02 0. -1.
    10030    2    1    2    0    0  0.00000000000E+00  0.00000000000E+00  0.23893703548E+04  0.31940979661E+04  0.21197101511E+04 0.  0.
        5    1    3    3  502    0 -0.49434583292E+03  0.67450573868E+03  0.21758033876E+04  0.23309822534E+04  0.46999998093E+01 0.  1.
       -5    1    3    3    0  502  0.49434583292E+03 -0.67450573868E+03  0.21356696717E+03  0.86311571269E+03  0.46999998093E+01 0. -1.
</event>
<event>
 5   0  0.1466480E-05  0.2105013E+04  0.7818609E-02  0.8559038E-01
       -1   -1    0    0    0  501  0.00000000000E+00  0.00000000000E+00  0.11947475594E+04  0.11947475594E+04  0.50400001928E-02 0. -1.
        1   -1    0    0  501    0  0.00000000000E+00  0.00000000000E+00 -0.92720016826E+03  0.92720016827E+03  0.50400001928E-02 0.  1.
    10030    2    1    2    0    0  0.00000000000E+00  0.00000000000E+00  0.26754739118E+03  0.21219477277E+04  0.21050131954E+04 0.  0.
        3    1    3    3  502    0 -0.55520006940E+03 -0.61598747963E+03 -0.51957814730E+03  0.97859550043E+03  0.10100000352E+00 0. -1.
       -3    1    3    3    0  502  0.55520006940E+03  0.61598747963E+03  0.78712553847E+03  0.11433522273E+04  0.10100000352E+00 0.  1.
</event>
<event>
 5   0  0.1129987E-05  0.2104327E+04  0.7818609E-02  0.8559340E-01
       -3   -1    0    0    0  501  0.00000000000E+00  0.00000000000E+00  0.11003275412E+04  0.11003275458E+04  0.10100000352E+00 0.  1.
        3   -1    0    0  501    0  0.00000000000E+00  0.00000000000E+00 -0.10061075613E+04  0.10061075663E+04  0.10100000352E+00 0. -1.
    10030    2    1    2    0    0  0.00000000000E+00  0.00000000000E+00  0.94219979894E+02  0.21064351122E+04  0.21043268466E+04 0.  0.
        4    1    3    3  502    0  0.10516203022E+04 -0.32279567160E+02  0.37148846362E+02  0.10527719982E+04  0.12699999809E+01 0.  1.
       -4    1    3    3    0  502 -0.10516203022E+04  0.32279567160E+02  0.57071133532E+02  0.10536631140E+04  0.12699999809E+01 0. -1.
</event>
<event>
 5   0  0.1453430E-05  0.2093624E+04  0.7818609E-02  0.8564057E-01
       -1   -1    0    0    0  501  0.00000000000E+00  0.00000000000E+00  0.10294514592E+04  0.10294514592E+04  0.50400001928E-02 0.  1.
        1   -1    0    0  501    0  0.00000000000E+00  0.00000000000E+00 -0.10644654206E+04  0.10644654207E+04  0.50400001928E-02 0. -1.
    10030    2    1    2    0    0  0.00000000000E+00  0.00000000000E+00 -0.35013961412E+02  0.20939168799E+04  0.20936241120E+04 0.  0.
        5    1    3    3  502    0 -0.23610565875E+03  0.93312320109E+03  0.39404612707E+03  0.10400765504E+04  0.46999998093E+01 0.  1.
       -5    1    3    3    0  502  0.23610565875E+03 -0.93312320109E+03 -0.42906008848E+03  0.10538403295E+04  0.46999998093E+01 0. -1.
</event>
<event>
 5   0  0.3279789E-05  0.2092717E+04  0.7818609E-02  0.8564458E-01
        2   -1    0    0  501    0  0.00000000000E+00  0.00000000000E+00  0.81667689666E+03  0.81667689666E+03  0.25500000920E-02 0.  1.
       -2   -1    0    0    0  501  0.00000000000E+00  0.00000000000E+00 -0.13406355594E+04  0.13406355594E+04  0.25500000920E-02 0. -1.
    10030    2    1    2    0    0  0.00000000000E+00  0.00000000000E+00 -0.52395866276E+03  0.21573124561E+04  0.20927169787E+04 0.  0.
        2    1    3    3  502    0 -0.75680292536E+03  0.72106160185E+03 -0.31017262130E+03  0.10903612046E+04  0.25500000920E-02 0. -1.
       -2    1    3    3    0  502  0.75680292536E+03 -0.72106160185E+03 -0.21378604146E+03  0.10669512515E+04  0.25500000920E-02 0.  1.
</event>
<event>
 5   0  0.1129987E-05  0.2102440E+04  0.7818609E-02  0.8560169E-01
        3   -1    0    0  501    0  0.00000000000E+00  0.00000000000E+00  0.13940393593E+04  0.13940393629E+04  0.10100000352E+00 0.  1.
       -3   -1    0    0    0  501  0.00000000000E+00  0.00000000000E+00 -0.79270611527E+03  0.79270612170E+03  0.10100000352E+00 0. -1.
    10030    2    1    2    0    0  0.00000000000E+00  0.00000000000E+00  0.60133324399E+03  0.21867454846E+04  0.21024400453E+04 0.  0.
        4    1    3    3  502    0 -0.37626355912E+02 -0.91115251242E+03 -0.24322381392E+03  0.94380828567E+03  0.12699999809E+01 0. -1.
       -4    1    3    3    0  502  0.37626355912E+02  0.91115251242E+03  0.84455705791E+03  0.12429371989E+04  0.12699999809E+01 0.  1.
</event>
<event>
 5   0  0.1513292E-05  0.2101585E+04  0.7818609E-02  0.8560545E-01
        1   -1    0    0  501    0  0.00000000000E+00  0.00000000000E+00  0.16482077182E+04  0.16482077182E+04  0.50400001928E-02 0. -1.
       -1   -1    0    0    0  501  0.00000000000E+00  0.00000000000E+00 -0.66991871041E+03  0.66991871042E+03  0.50400001928E-02 0.  1.
    10030    2    1    2    0    0  0.00000000000E+00  0.00000000000E+00  0.97828900781E+03  0.23181264287E+04  0.21015852960E+04 0.  0.
        1    1    3    3  502    0  0.73449651831E+03  0.68792297312E+03  0.82269611483E+03  0.12998277000E+04  0.50400001928E-02 0. -1.
       -1    1    3    3    0  502 -0.73449651831E+03 -0.68792297312E+03  0.15559289298E+03  0.10182987286E+04  0.50400001928E-02 0.  1.
</event>
<event>
 5   0  0.3279789E-05  0.2113829E+04  0.7818609E-02  0.8555176E-01
        2   -1    0    0  501    0  0.00000000000E+00  0.00000000000E+00  0.75119348172E+03  0.75119348172E+03  0.25500000920E-02 0. -1.
       -2   -1    0    0    0  501  0.00000000000E+00  0.00000000000E+00 -0.14870579760E+04  0.14870579760E+04  0.25500000920E-02 0.  1.
    10030    2    1    2    0    0  0.00000000000E+00  0.00000000000E+00 -0.73586449427E+03  0.22382514577E+04  0.21138289983E+04 0.  0.
        2    1    3    3  502    0 -0.54255896864E+03  0.60391378340E+03  0.34864861408E+03  0.88353717994E+03  0.25500000920E-02 0. -1.
       -2    1    3    3    0  502  0.54255896864E+03 -0.60391378340E+03 -0.10845131083E+04  0.13547142778E+04  0.25500000920E-02 0.  1.
</event>
<event>
 5   0  0.1435410E-05  0.1965306E+04  0.7818609E-02  0.8623015E-01
        1   -1    0    0  501    0  0.00000000000E+00  0.00000000000E+00  0.10884613176E+04  0.10884613176E+04  0.50400001928E-02 0.  1.
       -1   -1    0    0    0  501  0.00000000000E+00  0.00000000000E+00 -0.88712990722E+03  0.88712990723E+03  0.50400001928E-02 0. -1.
    10030    2    1    2    0    0  0.00000000000E+00  0.00000000000E+00  0.20133141038E+03  0.19755912248E+04  0.19653056635E+04 0.  0.
        2    1    3    3  502    0 -0.98418064567E+02  0.55686857771E+03  0.90849948282E+03  0.10701215064E+04  0.25500000920E-02 0.  1.
       -2    1    3    3    0  502  0.98418064567E+02 -0.55686857771E+03 -0.70716807243E+03  0.90546971840E+03  0.25500000920E-02 0. -1.
</event>
<event>
 5   0  0.1435410E-05  0.2133536E+04  0.7818609E-02  0.8546613E-01
       -1   -1    0    0    0  501  0.00000000000E+00  0.00000000000E+00  0.55298941129E+03  0.55298941131E+03  0.50400001928E-02 0.  1.
        1   -1    0    0  501    0  0.00000000000E+00  0.00000000000E+00 -0.20578951663E+04  0.20578951663E+04  0.50400001928E-02 0. -1.
    10030    2    1    2    0    0  0.00000000000E+00  0.00000000000E+00 -0.15049057550E+04  0.26108845776E+04  0.21335362538E+04 0.  0.
        2    1    3    3  502    0 -0.22392519841E+03  0.10541728718E+03  0.51736914632E+03  0.57352082132E+03  0.25500000920E-02 0.  1.
       -2    1    3    3    0  502  0.22392519841E+03 -0.10541728718E+03 -0.20222749013E+04  0.20373637563E+04  0.25500000920E-02 0. -1.
</event>
<event>
 5   0  0.1492552E-05  0.2100769E+04  0.7818609E-02  0.8560905E-01
        1   -1    0    0  501    0  0.00000000000E+00  0.00000000000E+00  0.90121566950E+03  0.90121566952E+03  0.50400001928E-02 0. -1.
       -1   -1    0    0    0  501  0.00000000000E+00  0.00000000000E+00 -0.12242432849E+04  0.12242432849E+04  0.50400001928E-02 0.  1.
    10030    2    1    2    0    0  0.00000000000E+00  0.00000000000E+00 -0.32302761541E+03  0.21254589544E+04  0.21007686514E+04 0.  0.
        4    1    3    3  502    0 -0.12609720355E+03  0.98954929524E+03 -0.49431334888E+03  0.11133084084E+04  0.12699999809E+01 0.  1.
       -4    1    3    3    0  502  0.12609720355E+03 -0.98954929524E+03  0.17128573348E+03  0.10121505460E+04  0.12699999809E+01 0. -1.
</event>
<event>
 5   0  0.1492552E-05  0.2066973E+04  0.7818609E-02  0.8575933E-01
        1   -1    0    0  501    0  0.00000000000E+00  0.00000000000E+00  0.12044706583E+04  0.12044706583E+04  0.50400001928E-02 0.  1.
       -1   -1    0    0    0  501  0.00000000000E+00  0.00000000000E+00 -0.88677487027E+03  0.88677487029E+03  0.50400001928E-02 0. -1.
    10030    2    1    2    0    0  0.00000000000E+00  0.00000000000E+00  0.31769578801E+03  0.20912455286E+04  0.20669729672E+04 0.  0.
        4    1    3    3  502    0 -0.91597437763E+03  0.32358955488E+03  0.51565545518E+03  0.10998279056E+04  0.12699999809E+01 0.  1.
       -4    1    3    3    0  502  0.91597437763E+03 -0.32358955488E+03 -0.19795966717E+03  0.99141762301E+03  0.12699999809E+01 0. -1.
</event>
<event>
 5   0  0.1453430E-05  0.2090977E+04  0.7818609E-02  0.8565228E-01
        1   -1    0    0  501    0  0.00000000000E+00  0.00000000000E+00  0.10312728315E+04  0.10312728315E+04  0.50400001928E-02 0.  1.
       -1   -1    0    0    0  501  0.00000000000E+00  0.00000000000E+00 -0.10599003202E+04  0.10599003203E+04  0.50400001928E-02 0. -1.
    10030    2    1    2    0    0  0.00000000000E+00  0.00000000000E+00 -0.28627488798E+02  0.20911731517E+04  0.20909771920E+04 0.  0.
        5    1    3    3  502    0 -0.84874023811E+03 -0.46755306733E+03 -0.40685333332E+03  0.10509603168E+04  0.46999998093E+01 0.  1.
       -5    1    3    3    0  502  0.84874023811E+03  0.46755306733E+03  0.37822584452E+03  0.10402128350E+04  0.46999998093E+01 0. -1.
</event>
<event>
 5   0  0.1466480E-05  0.2122118E+04  0.7818609E-02  0.8551562E-01
        1   -1    0    0  501    0  0.00000000000E+00  0.00000000000E+00  0.11064820864E+04  0.11064820864E+04  0.50400001928E-02 0.  1.
       -1   -1    0    0    0  501  0.00000000000E+00  0.00000000000E+00 -0.10175010908E+04  0.10175010908E+04  0.50400001928E-02 0. -1.
    10030    2    1    2    0    0  0.00000000000E+00  0.00000000000E+00  0.88980995575E+02  0.21239831772E+04  0.21221184980E+04 0.  0.
        3    1    3    3  502    0  0.29404345255E+03 -0.83256588562E+03 -0.54443048006E+03  0.10373196536E+04  0.10100000352E+00 0. -1.
       -3    1    3    3    0  502 -0.29404345255E+03  0.83256588562E+03  0.63341147563E+03  0.10866635236E+04  0.10100000352E+00 0.  1.
</event>
<event>
 5   0  0.3108326E-05  0.2104153E+04  0.7818609E-02  0.8559416E-01
       -2   -1    0    0    0  501  0.00000000000E+00  0.00000000000E+00  0.13422934099E+04  0.13422934099E+04  0.25500000920E-02 0. -1.
        2   -1    0    0  501    0  0.00000000000E+00  0.00000000000E+00 -0.82460740384E+03  0.82460740384E+03  0.25500000920E-02 0.  1.
    10030    2    1    2    0    0  0.00000000000E+00  0.00000000000E+00  0.51768600603E+03  0.21669008137E+04  0.21041531160E+04 0.  0.
        5    1    3    3  502    0 -0.10238655114E+04 -0.44440875093E+01  0.97143290210E+01  0.10239320259E+04  0.46999998093E+01 0. -1.
       -5    1    3    3    0  502  0.10238655114E+04  0.44440875093E+01  0.50797167701E+03  0.11429687879E+04  0.46999998093E+01 0.  1.
</event>
<event>
 5   0  0.1453430E-05  0.2091113E+04  0.7818609E-02  0.8565168E-01
        1   -1    0    0  501    0  0.00000000000E+00  0.00000000000E+00  0.15816619299E+04  0.15816619299E+04  0.50400001928E-02 0. -1.
       -1   -1    0    0    0  501  0.00000000000E+00  0.00000000000E+00 -0.69116410404E+03  0.69116410406E+03  0.50400001928E-02 0.  1.
    10030    2    1    2    0    0  0.00000000000E+00  0.00000000000E+00  0.89049782583E+03  0.22728260339E+04  0.20911125753E+04 0.  0.
        5    1    3    3  502    0 -0.66707968845E+03 -0.13108954986E+03 -0.41812450024E+03  0.79814157173E+03  0.46999998093E+01 0.  1.
       -5    1    3    3    0  502  0.66707968845E+03  0.13108954986E+03  0.13086223261E+04  0.14746844622E+04  0.46999998093E+01 0. -1.
</event>
<event>
 5   0  0.3130517E-05  0.2100944E+04  0.7818609E-02  0.8560828E-01
       -2   -1    0    0    0  501  0.00000000000E+00  0.00000000000E+00  0.71417396400E+03  0.71417396401E+03  0.25500000920E-02 0. -1.
        2   -1    0    0  501    0  0.00000000000E+00  0.00000000000E+00 -0.15451293807E+04  0.15451293807E+04  0.25500000920E-02 0.  1.
    10030    2    1    2    0    0  0.00000000000E+00  0.00000000000E+00 -0.83095541667E+03  0.22593033447E+04  0.21009437638E+04 0.  0.
        1    1    3    3  502    0  0.79228267358E+02  0.10402787170E+04 -0.54733403181E+03  0.11781474737E+04  0.50400001928E-02 0.  1.
       -1    1    3    3    0  502 -0.79228267358E+02 -0.10402787170E+04 -0.28362138486E+03  0.10811558710E+04  0.50400001928E-02 0. -1.
</event>
<event>
 5   0  0.1466480E-05  0.2098351E+04  0.7818609E-02  0.8561970E-01
       -1   -1    0    0    0  501  0.00000000000E+00  0.00000000000E+00  0.66844982802E+03  0.66844982804E+03  0.50400001928E-02 0. -1.
        1   -1    0    0  501    0  0.00000000000E+00  0.00000000000E+00 -0.16467488798E+04  0.16467488798E+04  0.50400001928E-02 0.  1.
    10030    2    1    2    0    0  0.00000000000E+00  0.00000000000E+00 -0.97829905173E+03  0.23151987078E+04  0.20983507862E+04 0.  0.
        3    1    3    3  502    0 -0.18476255313E+02  0.48537790041E+03 -0.15152196401E+04  0.15911705270E+04  0.10100000352E+00 0.  1.
       -3    1    3    3    0  502  0.18476255313E+02 -0.48537790041E+03  0.53692058833E+03  0.72402818079E+03  0.10100000352E+00 0. -1.
</event>
<event>
 5   0  0.1435410E-05  0.2068296E+04  0.7818609E-02  0.8575339E-01
        1   -1    0    0  501    0  0.00000000000E+00  0.00000000000E+00  0.17097048527E+04  0.17097048527E+04  0.50400001928E-02 0. -1.
       -1   -1    0    0    0  501  0.00000000000E+00  0.00000000000E+00 -0.62552447351E+03  0.62552447353E+03  0.50400001928E-02 0.  1.
    10030    2    1    2    0    0  0.00000000000E+00  0.00000000000E+00  0.10841803792E+04  0.23352293262E+04  0.20682961373E+04 0.  0.
        2    1    3    3  502    0 -0.53527616017E+02 -0.10272941090E+04  0.42226173226E+03  0.11119817277E+04  0.25500000920E-02 0.  1.
       -2    1    3    3    0  502  0.53527616017E+02  0.10272941090E+04  0.66191864690E+03  0.12232475985E+04  0.25500000920E-02 0. -1.
</event>
<event>
 5   0  0.3130517E-05  0.2116767E+04  0.7818609E-02  0.8553893E-01
        2   -1    0    0  501    0  0.00000000000E+00  0.00000000000E+00  0.22898730413E+04  0.22898730413E+04  0.25500000920E-02 0.  1.
       -2   -1    0    0    0  501  0.00000000000E+00  0.00000000000E+00 -0.48918700833E+03  0.48918700834E+03  0.25500000920E-02 0. -1.
    10030    2    1    2    0    0  0.00000000000E+00  0.00000000000E+00  0.18006860329E+04  0.27790600496E+04  0.21167674814E+04 0.  0.
        1    1    3    3  502    0 -0.98191139351E+03 -0.12319707989E+03  0.13930640485E+04  0.17087875668E+04  0.50400001928E-02 0.  1.
       -1    1    3    3    0  502  0.98191139351E+03  0.12319707989E+03  0.40762198441E+03  0.10702724828E+04  0.50400001928E-02 0. -1.
</event>
<event>
 5   0  0.3257130E-05  0.2106730E+04  0.7818609E-02  0.8558285E-01
        2   -1    0    0  501    0  0.00000000000E+00  0.00000000000E+00  0.10248453350E+04  0.10248453350E+04  0.25500000920E-02 0.  1.
       -2   -1    0    0    0  501  0.00000000000E+00  0.00000000000E+00 -0.10826778473E+04  0.10826778473E+04  0.25500000920E-02 0. -1.
    10030    2    1    2    0    0  0.00000000000E+00  0.00000000000E+00 -0.57832512312E+02  0.21075231823E+04  0.21067295423E+04 0.  0.
        3    1    3    3  502    0 -0.73431974378E+03  0.51650561666E+03 -0.58009912816E+03  0.10688865921E+04  0.10100000352E+00 0. -1.
       -3    1    3    3    0  502  0.73431974378E+03 -0.51650561666E+03  0.52226661585E+03  0.10386365901E+04  0.10100000352E+00 0.  1.
</event>
<event>
 5   0  0.3130517E-05  0.2111964E+04  0.7818609E-02  0.8555991E-01
        2   -1    0    0  501    0  0.00000000000E+00  0.00000000000E+00  0.19911142757E+04  0.19911142757E+04  0.25500000920E-02 0.  1.
       -2   -1    0    0    0  501  0.00000000000E+00  0.00000000000E+00 -0.56003706352E+03  0.56003706353E+03  0.25500000920E-02 0. -1.
    10030    2    1    2    0    0  0.00000000000E+00  0.00000000000E+00  0.14310772122E+04  0.25511513392E+04  0.21119638180E+04 0.  0.
        1    1    3    3  502    0 -0.69496449820E+03 -0.55267445648E+03  0.25129636658E+02  0.88828835818E+03  0.50400001928E-02 0. -1.
       -1    1    3    3    0  502  0.69496449820E+03  0.55267445648E+03  0.14059475755E+04  0.16628629811E+04  0.50400001928E-02 0.  1.
</event>
<event>
 5   0  0.3257130E-05  0.2099993E+04  0.7818609E-02  0.8561246E-01
        2   -1    0    0  501    0  0.00000000000E+00  0.00000000000E+00  0.41278432702E+03  0.41278432703E+03  0.25500000920E-02 0. -1.
       -2   -1    0    0    0  501  0.00000000000E+00  0.00000000000E+00 -0.26708683029E+04  0.26708683029E+04  0.25500000920E-02 0.  1.
    10030    2    1    2    0    0  0.00000000000E+00  0.00000000000E+00 -0.22580839758E+04  0.30836526299E+04  0.20999929285E+04 0.  0.
        3    1    3    3  502    0  0.36600252256E+03  0.79878789159E+03 -0.19731836992E+04  0.21599708015E+04  0.10100000352E+00 0.  1.
       -3    1    3    3    0  502 -0.36600252256E+03 -0.79878789159E+03 -0.28490027662E+03  0.92368182838E+03  0.10100000352E+00 0. -1.
</event>
<event>
 5   0  0.3279789E-05  0.2082308E+04  0.7818609E-02  0.8569077E-01
       -2   -1    0    0    0  501  0.00000000000E+00  0.00000000000E+00  0.95431901067E+03  0.95431901068E+03  0.25500000920E-02 0. -1.
        2   -1    0    0  501    0  0.00000000000E+00  0.00000000000E+00 -0.11358903102E+04  0.11358903102E+04  0.25500000920E-02 0.  1.
    10030    2    1    2    0    0  0.00000000000E+00  0.00000000000E+00 -0.18157129949E+03  0.20902093208E+04  0.20823080627E+04 0.  0.
        2    1    3    3  502    0  0.32341201400E+03  0.96115158727E+03  0.14589285101E+03  0.10245449861E+04  0.25500000920E-02 0.  1.
       -2    1    3    3    0  502 -0.32341201400E+03 -0.96115158727E+03 -0.32746415050E+03  0.10656643348E+04  0.25500000920E-02 0. -1.
</event>
<event>
 5   0  0.3130517E-05  0.2099758E+04  0.7818609E-02  0.8561350E-01
        2   -1    0    0  501    0  0.00000000000E+00  0.00000000000E+00  0.12081313108E+04  0.12081313108E+04  0.25500000920E-02 0.  1.
       -2   -1    0    0    0  501  0.00000000000E+00  0.00000000000E+00 -0.91235628074E+03  0.91235628074E+03  0.25500000920E-02 0. -1.
    10030    2    1    2    0    0  0.00000000000E+00  0.00000000000E+00  0.29577503002E+03  0.21204875915E+04  0.20997582616E+04 0.  0.
        1    1    3    3  502    0 -0.71871210565E+03  0.68130213233E+03  0.49993556022E+03  0.11093490212E+04  0.50400001928E-02 0.  1.
       -1    1    3    3    0  502  0.71871210565E+03 -0.68130213233E+03 -0.20416053020E+03  0.10111385704E+04  0.50400001928E-02 0. -1.
</event>
<event>
 5   0  0.1453430E-05  0.2102802E+04  0.7818609E-02  0.8560010E-01
        1   -1    0    0  501    0  0.00000000000E+00  0.00000000000E+00  0.13861880292E+04  0.13861880292E+04  0.50400001928E-02 0. -1.
       -1   -1    0    0    0  501  0.00000000000E+00  0.00000000000E+00 -0.79747049568E+03  0.79747049569E+03  0.50400001928E-02 0.  1.
    10030    2    1    2    0    0  0.00000000000E+00  0.00000000000E+00  0.58871753353E+03  0.21836585249E+04  0.21028019924E+04 0.  0.
        5    1    3    3  502    0 -0.48304429405E+03 -0.93238636367E+03  0.34877446988E+03  0.11064998156E+04  0.46999998093E+01 0.  1.
       -5    1    3    3    0  502  0.48304429405E+03  0.93238636367E+03  0.23994306365E+03  0.10771587093E+04  0.46999998093E+01 0. -1.
</event>
<event>
 5   0  0.1453430E-05  0.2083814E+04  0.7818609E-02  0.8568407E-01
        1   -1    0    0  501    0  0.00000000000E+00  0.00000000000E+00  0.92949213635E+03  0.92949213636E+03  0.50400001928E-02 0.  1.
       -1   -1    0    0    0  501  0.00000000000E+00  0.00000000000E+00 -0.11679176053E+04  0.11679176053E+04  0.50400001928E-02 0. -1.
    10030    2    1    2    0    0  0.00000000000E+00  0.00000000000E+00 -0.23842546892E+03  0.20974097416E+04  0.20838140320E+04 0.  0.
        5    1    3    3  502    0  0.90920101815E+03  0.37492318740E+03 -0.46545458312E+03  0.10880643119E+04  0.46999998093E+01 0. -1.
       -5    1    3    3    0  502 -0.90920101815E+03 -0.37492318740E+03  0.22702911420E+03  0.10093454297E+04  0.46999998093E+01 0.  1.
</event>
<event>
 5   0  0.3279789E-05  0.2098199E+04  0.7818609E-02  0.8562037E-01
        2   -1    0    0  501    0  0.00000000000E+00  0.00000000000E+00  0.14170140792E+04  0.14170140792E+04  0.25500000920E-02 0.  1.
       -2   -1    0    0    0  501  0.00000000000E+00  0.00000000000E+00 -0.77671049838E+03  0.77671049839E+03  0.25500000920E-02 0. -1.
    10030    2    1    2    0    0  0.00000000000E+00  0.00000000000E+00  0.64030358077E+03  0.21937245775E+04  0.20981989530E+04 0.  0.
        2    1    3    3  502    0 -0.70435995095E+02 -0.56131492413E+03  0.12438763407E+04  0.13664786951E+04  0.25500000920E-02 0.  1.
       -2    1    3    3    0  502  0.70435995095E+02  0.56131492413E+03 -0.60357275989E+03  0.82724588239E+03  0.25500000920E-02 0. -1.
</event>
<event>
 5   0  0.1466480E-05  0.2085124E+04  0.7818609E-02  0.8567825E-01
       -1   -1    0    0    0  501  0.00000000000E+00  0.00000000000E+00  0.78980340810E+03  0.78980340811E+03  0.50400001928E-02 0.  1.
        1   -1    0    0  501    0  0.00000000000E+00  0.00000000000E+00 -0.13762099830E+04  0.13762099830E+04  0.50400001928E-02 0. -1.
    10030    2    1    2    0    0  0.00000000000E+00  0.00000000000E+00 -0.58640657494E+03  0.21660133912E+04  0.20851238188E+04 0.  0.
        3    1    3    3  502    0  0.68515314821E+03 -0.78478490583E+03 -0.33492530356E+03  0.10943021311E+04  0.10100000352E+00 0.  1.
       -3    1    3    3    0  502 -0.68515314821E+03  0.78478490583E+03 -0.25148127138E+03  0.10717112601E+04  0.10100000352E+00 0. -1.
</event>
<event>
 5   0  0.1453430E-05  0.2103046E+04  0.7818609E-02  0.8559903E-01
       -1   -1    0    0    0  501  0.00000000000E+00  0.00000000000E+00  0.65162237160E+03  0.65162237161E+03  0.50400001928E-02 0. -1.
        1   -1    0    0  501    0  0.00000000000E+00  0.00000000000E+00 -0.16968421670E+04  0.16968421670E+04  0.50400001928E-02 0.  1.
    10030    2    1    2    0    0  0.00000000000E+00  0.00000000000E+00 -0.10452197954E+04  0.23484645386E+04  0.21030457124E+04 0.  0.
        5    1    3    3  502    0  0.65227079339E+03 -0.28815053011E+03 -0.13855718945E+04  0.15583066068E+04  0.46999998093E+01 0.  1.
       -5    1    3    3    0  502 -0.65227079339E+03  0.28815053011E+03  0.34035209909E+03  0.79015793185E+03  0.46999998093E+01 0. -1.
</event>
<event>
 5   0  0.1129987E-05  0.2097484E+04  0.7818609E-02  0.8562353E-01
       -4   -1    0    0    0  501  0.00000000000E+00  0.00000000000E+00  0.10101852740E+04  0.10101860724E+04  0.12699999809E+01 0. -1.
        4   -1    0    0  501    0  0.00000000000E+00  0.00000000000E+00 -0.10887682860E+04  0.10887690267E+04  0.12699999809E+01 0.  1.
    10030    2    1    2    0    0  0.00000000000E+00  0.00000000000E+00 -0.78583011959E+02  0.20989550991E+04  0.20974835442E+04 0.  0.
        2    1    3    3  502    0  0.94195240235E+02  0.64169885196E+03  0.78542815522E+03  0.10186007790E+04  0.25500000920E-02 0. -1.
       -2    1    3    3    0  502 -0.94195240235E+02 -0.64169885196E+03 -0.86401116718E+03  0.10803543201E+04  0.25500000920E-02 0.  1.
</event>
<event>
 5   0  0.3257130E-05  0.2103459E+04  0.7818609E-02  0.8559721E-01
       -2   -1    0    0    0  501  0.00000000000E+00  0.00000000000E+00  0.65128063687E+03  0.65128063687E+03  0.25500000920E-02 0. -1.
        2   -1    0    0  501    0  0.00000000000E+00  0.00000000000E+00 -0.16984005446E+04  0.16984005446E+04  0.25500000920E-02 0.  1.
    10030    2    1    2    0    0  0.00000000000E+00  0.00000000000E+00 -0.10471199077E+04  0.23496811815E+04  0.21034594252E+04 0.  0.
        3    1    3    3  502    0 -0.10276445559E+04 -0.14714772089E+03 -0.71190756707E+03  0.12587764612E+04  0.10100000352E+00 0. -1.
       -3    1    3    3    0  502  0.10276445559E+04  0.14714772089E+03 -0.33521234066E+03  0.10909047202E+04  0.10100000352E+00 0.  1.
</event>
<event>
 5   0  0.1453430E-05  0.2108468E+04  0.7818609E-02  0.8557522E-01
        1   -1    0    0  501    0  0.00000000000E+00  0.00000000000E+00  0.18097371179E+04  0.18097371179E+04  0.50400001928E-02 0.  1.
       -1   -1    0    0    0  501  0.00000000000E+00  0.00000000000E+00 -0.61412737582E+03  0.61412737584E+03  0.50400001928E-02 0. -1.
    10030    2    1    2    0    0  0.00000000000E+00  0.00000000000E+00  0.11956097421E+04  0.24238644937E+04  0.21084677917E+04 0.  0.
        5    1    3    3  502    0 -0.88937046104E+03  0.56494441859E+03  0.63836756182E+03  0.12319404397E+04  0.46999998093E+01 0. -1.
       -5    1    3    3    0  502  0.88937046104E+03 -0.56494441859E+03  0.55724218026E+03  0.11919240540E+04  0.46999998093E+01 0.  1.
</event>
<event>
 5   0  0.3279789E-05  0.2102905E+04  0.7818609E-02  0.8559965E-01
        2   -1    0    0  501    0  0.00000000000E+00  0.00000000000E+00  0.73841786895E+03  0.73841786896E+03  0.25500000920E-02 0.  1.
       -2   -1    0    0    0  501  0.00000000000E+00  0.00000000000E+00 -0.14971904804E+04  0.14971904804E+04  0.25500000920E-02 0. -1.
    10030    2    1    2    0    0  0.00000000000E+00  0.00000000000E+00 -0.75877261144E+03  0.22356083494E+04  0.21029048518E+04 0.  0.
        2    1    3    3  502    0 -0.87266630195E+03  0.53399319718E+03 -0.12147217237E+03  0.10302672944E+04  0.25500000920E-02 0.  1.
       -2    1    3    3    0  502  0.87266630195E+03 -0.53399319718E+03 -0.63730043907E+03  0.12053410550E+04  0.25500000920E-02 0. -1.
</event>
<event>
 5   0  0.1513292E-05  0.2095722E+04  0.7818609E-02  0.8563130E-01
       -1   -1    0    0    0  501  0.00000000000E+00  0.00000000000E+00  0.59904951322E+03  0.59904951324E+03  0.50400001928E-02 0.  1.
        1   -1    0    0  501    0  0.00000000000E+00  0.00000000000E+00 -0.18329250817E+04  0.18329250817E+04  0.50400001928E-02 0. -1.
    10030    2    1    2    0    0  0.00000000000E+00  0.00000000000E+00 -0.12338755684E+04  0.24319745949E+04  0.20957221934E+04 0.  0.
        1    1    3    3  502    0 -0.43245050405E+03  0.88612070591E+03 -0.20536412172E+03  0.10071731561E+04  0.50400001928E-02 0. -1.
       -1    1    3    3    0  502  0.43245050405E+03 -0.88612070591E+03 -0.10285114467E+04  0.14248014388E+04  0.50400001928E-02 0.  1.
</event>
<event>
 5   0  0.3257130E-05  0.2089989E+04  0.7818609E-02  0.8565666E-01
       -2   -1    0    0    0  501  0.00000000000E+00  0.00000000000E+00  0.54516929760E+03  0.54516929761E+03  0.25500000920E-02 0. -1.
        2   -1    0    0  501    0  0.00000000000E+00  0.00000000000E+00 -0.20030722397E+04  0.20030722397E+04  0.25500000920E-02 0.  1.
    10030    2    1    2    0    0  0.00000000000E+00  0.00000000000E+00 -0.14579029421E+04  0.25482415373E+04  0.20899889818E+04 0.  0.
        3    1    3    3  502    0 -0.56152982772E+03  0.43614939259E+03  0.20477576347E+03  0.73991564626E+03  0.10100000352E+00 0. -1.
       -3    1    3    3    0  502  0.56152982772E+03 -0.43614939259E+03 -0.16626787056E+04  0.18083258910E+04  0.10100000352E+00 0.  1.
</event>
<event>
 5   0  0.1435410E-05  0.2098258E+04  0.7818609E-02  0.8562011E-01
       -1   -1    0    0    0  501  0.00000000000E+00  0.00000000000E+00  0.53791431742E+03  0.53791431745E+03  0.50400001928E-02 0.  1.
        1   -1    0    0  501    0  0.00000000000E+00  0.00000000000E+00 -0.20461846740E+04  0.20461846740E+04  0.50400001928E-02 0. -1.
    10030    2    1    2    0    0  0.00000000000E+00  0.00000000000E+00 -0.15082703566E+04  0.25840989915E+04  0.20982583562E+04 0.  0.
        2    1    3    3  502    0 -0.70210529757E+03  0.32535483061E+03 -0.16265908852E+04  0.18012788575E+04  0.25500000920E-02 0. -1.
       -2    1    3    3    0  502  0.70210529757E+03 -0.32535483061E+03  0.11832052859E+03  0.78282013398E+03  0.25500000920E-02 0.  1.
</event>
<event>
 5   0  0.1466480E-05  0.2099828E+04  0.7818609E-02  0.8561319E-01
        1   -1    0    0  501    0  0.00000000000E+00  0.00000000000E+00  0.10426898514E+04  0.10426898514E+04  0.50400001928E-02 0. -1.
       -1   -1    0    0    0  501  0.00000000000E+00  0.00000000000E+00 -0.10571881636E+04  0.10571881636E+04  0.50400001928E-02 0.  1.
    10030    2    1    2    0    0  0.00000000000E+00  0.00000000000E+00 -0.14498312188E+02  0.20998780151E+04  0.20998279637E+04 0.  0.
        3    1    3    3  502    0 -0.85205174673E+03  0.22604357461E+03  0.56305513718E+03  0.10460014218E+04  0.10100000352E+00 0. -1.
       -3    1    3    3    0  502  0.85205174673E+03 -0.22604357461E+03 -0.57755344937E+03  0.10538765933E+04  0.10100000352E+00 0.  1.
</event>
<event>
 5   0  0.1453430E-05  0.2103708E+04  0.7818609E-02  0.8559612E-01
       -1   -1    0    0    0  501  0.00000000000E+00  0.00000000000E+00  0.11167437228E+04  0.11167437228E+04  0.50400001928E-02 0. -1.
        1   -1    0    0  501    0  0.00000000000E+00  0.00000000000E+00 -0.99073461744E+03  0.99073461745E+03  0.50400001928E-02 0.  1.
    10030    2    1    2    0    0  0.00000000000E+00  0.00000000000E+00  0.12600910539E+03  0.21074783403E+04  0.21037078362E+04 0.  0.
        5    1    3    3  502    0 -0.19404334090E+03 -0.27969324875E+03 -0.93401459206E+03  0.99412598785E+03  0.46999998093E+01 0.  1.
       -5    1    3    3    0  502  0.19404334090E+03  0.27969324875E+03  0.10600236974E+04  0.11133523524E+04  0.46999998093E+01 0. -1.
</event>
<event>
 5   0  0.1435410E-05  0.2107071E+04  0.7818609E-02  0.8558135E-01
        1   -1    0    0  501    0  0.00000000000E+00  0.00000000000E+00  0.19211995014E+04  0.19211995014E+04  0.50400001928E-02 0. -1.
       -1   -1    0    0    0  501  0.00000000000E+00  0.00000000000E+00 -0.57773111390E+03  0.57773111393E+03  0.50400001928E-02 0.  1.
    10030    2    1    2    0    0  0.00000000000E+00  0.00000000000E+00  0.13434683875E+04  0.24989306153E+04  0.21070706946E+04 0.  0.
        2    1    3    3  502    0 -0.42020278263E+03  0.92376637747E+03  0.10072244190E+04  0.14298306644E+04  0.25500000920E-02 0. -1.
       -2    1    3    3    0  502  0.42020278263E+03 -0.92376637747E+03  0.33624396850E+03  0.10690999509E+04  0.25500000920E-02 0.  1.
</event>
<event>
 5   0  0.3242231E-05  0.2111145E+04  0.7818609E-02  0.8556350E-01
       -2   -1    0    0    0  501  0.00000000000E+00  0.00000000000E+00  0.65746725270E+03  0.65746725270E+03  0.25500000920E-02 0.  1.
        2   -1    0    0  501    0  0.00000000000E+00  0.00000000000E+00 -0.16947355691E+04  0.16947355691E+04  0.25500000920E-02 0. -1.
    10030    2    1    2    0    0  0.00000000000E+00  0.00000000000E+00 -0.10372683164E+04  0.23522028218E+04  0.21111448446E+04 0.  0.
        4    1    3    3  502    0 -0.92949170424E+03  0.37027096033E+03 -0.14380434753E+03  0.10108099305E+04  0.12699999809E+01 0.  1.
       -4    1    3    3    0  502  0.92949170424E+03 -0.37027096033E+03 -0.89346396890E+03  0.13413928913E+04  0.12699999809E+01 0. -1.
</event>
<event>
 5   0  0.1492552E-05  0.2088143E+04  0.7818609E-02  0.8566484E-01
        1   -1    0    0  501    0  0.00000000000E+00  0.00000000000E+00  0.16578207252E+04  0.16578207252E+04  0.50400001928E-02 0.  1.
       -1   -1    0    0    0  501  0.00000000000E+00  0.00000000000E+00 -0.65754131536E+03  0.65754131538E+03  0.50400001928E-02 0. -1.
    10030    2    1    2    0    0  0.00000000000E+00  0.00000000000E+00  0.10002794098E+04  0.23153620406E+04  0.20881433096E+04 0.  0.
        4    1    3    3  502    0 -0.94780113157E+03 -0.28338447651E+03  0.87030794365E+03  0.13176005754E+04  0.12699999809E+01 0.  1.
       -4    1    3    3    0  502  0.94780113157E+03  0.28338447651E+03  0.12997146617E+03  0.99776146521E+03  0.12699999809E+01 0. -1.
</event>
<event>
 5   0  0.1453430E-05  0.2094353E+04  0.7818609E-02  0.8563735E-01
       -1   -1    0    0    0  501  0.00000000000E+00  0.00000000000E+00  0.15423929402E+04  0.15423929402E+04  0.50400001928E-02 0. -1.
        1   -1    0    0  501    0  0.00000000000E+00  0.00000000000E+00 -0.71095903462E+03  0.71095903463E+03  0.50400001928E-02 0.  1.
    10030    2    1    2    0    0  0.00000000000E+00  0.00000000000E+00  0.83143390555E+03  0.22533519748E+04  0.20943525928E+04 0.  0.
        5    1    3    3  502    0 -0.72720609433E+03  0.12321266145E+03 -0.38405003110E+03  0.83158077176E+03  0.46999998093E+01 0.  1.
       -5    1    3    3    0  502  0.72720609433E+03 -0.12321266145E+03  0.12154839367E+04  0.14217712031E+04  0.46999998093E+01 0. -1.
</event>
<event>
 5   0  0.1435410E-05  0.2105113E+04  0.7818609E-02  0.8558994E-01
       -1   -1    0    0    0  501  0.00000000000E+00  0.00000000000E+00  0.16113224827E+04  0.16113224827E+04  0.50400001928E-02 0.  1.
        1   -1    0    0  501    0  0.00000000000E+00  0.00000000000E+00 -0.68755639593E+03  0.68755639595E+03  0.50400001928E-02 0. -1.
    10030    2    1    2    0    0  0.00000000000E+00  0.00000000000E+00  0.92376608675E+03  0.22988788786E+04  0.21051128985E+04 0.  0.
        2    1    3    3  502    0  0.65485608980E+03 -0.66121394531E+03  0.99891484617E+03  0.13652367010E+04  0.25500000920E-02 0.  1.
       -2    1    3    3    0  502 -0.65485608980E+03  0.66121394531E+03 -0.75148759426E+02  0.93364217764E+03  0.25500000920E-02 0. -1.
</event>
<event>
 5   0  0.3130517E-05  0.2093087E+04  0.7818609E-02  0.8564295E-01
        2   -1    0    0  501    0  0.00000000000E+00  0.00000000000E+00  0.14445791231E+04  0.14445791231E+04  0.25500000920E-02 0. -1.
       -2   -1    0    0    0  501  0.00000000000E+00  0.00000000000E+00 -0.75818174588E+03  0.75818174588E+03  0.25500000920E-02 0.  1.
    10030    2    1    2    0    0  0.00000000000E+00  0.00000000000E+00  0.68639737722E+03  0.22027608690E+04  0.20930872143E+04 0.  0.
        1    1    3    3  502    0 -0.29762558273E+03 -0.86946632260E+02 -0.70873240696E+03  0.77359054355E+03  0.50400001928E-02 0.  1.
       -1    1    3    3    0  502  0.29762558273E+03  0.86946632260E+02  0.13951297842E+04  0.14291703254E+04  0.50400001928E-02 0. -1.
</event>
<event>
 5   0  0.3257130E-05  0.2103097E+04  0.7818609E-02  0.8559880E-01
        2   -1    0    0  501    0  0.00000000000E+00  0.00000000000E+00  0.15092217264E+04  0.15092217264E+04  0.25500000920E-02 0. -1.
       -2   -1    0    0    0  501  0.00000000000E+00  0.00000000000E+00 -0.73266513156E+03  0.73266513156E+03  0.25500000920E-02 0.  1.
    10030    2    1    2    0    0  0.00000000000E+00  0.00000000000E+00  0.77655659488E+03  0.22418868580E+04  0.21030968924E+04 0.  0.
        3    1    3    3  502    0 -0.90197634322E+03  0.17554243336E+03 -0.15671183376E+03  0.93216687276E+03  0.10100000352E+00 0. -1.
       -3    1    3    3    0  502  0.90197634322E+03 -0.17554243336E+03  0.93326842863E+03  0.13097199852E+04  0.10100000352E+00 0.  1.
</event>
<event>
 5   0  0.3257130E-05  0.2097488E+04  0.7818609E-02  0.8562351E-01
        2   -1    0    0  501    0  0.00000000000E+00  0.00000000000E+00  0.10884974706E+04  0.10884974706E+04  0.25500000920E-02 0.  1.
       -2   -1    0    0    0  501  0.00000000000E+00  0.00000000000E+00 -0.10104428334E+04  0.10104428334E+04  0.25500000920E-02 0. -1.
    10030    2    1    2    0    0  0.00000000000E+00  0.00000000000E+00  0.78054637226E+02  0.20989403040E+04  0.20974884680E+04 0.  0.
        3    1    3    3  502    0 -0.84972593418E+03 -0.59638153781E+03 -0.10993590940E+03  0.10439305610E+04  0.10100000352E+00 0.  1.
       -3    1    3    3    0  502  0.84972593418E+03  0.59638153781E+03  0.18799054663E+03  0.10550097429E+04  0.10100000352E+00 0. -1.
</event>
<event>
 5   0  0.1492552E-05  0.2104902E+04  0.7818609E-02  0.8559087E-01
        1   -1    0    0  501    0  0.00000000000E+00  0.00000000000E+00  0.10187767374E+04  0.10187767375E+04  0.50400001928E-02 0.  1.
       -1   -1    0    0    0  501  0.00000000000E+00  0.00000000000E+00 -0.10872380616E+04  0.10872380616E+04  0.50400001928E-02 0. -1.
    10030    2    1    2    0    0  0.00000000000E+00  0.00000000000E+00 -0.68461324147E+02  0.21060147991E+04  0.21049017509E+04 0.  0.
        4    1    3    3  502    0  0.70666419923E+03 -0.40889321923E+03  0.63026153511E+03  0.10314064043E+04  0.12699999809E+01 0.  1.
       -4    1    3    3    0  502 -0.70666419923E+03  0.40889321923E+03 -0.69872285926E+03  0.10746083948E+04  0.12699999809E+01 0. -1.
</event>
<event>
 5   0  0.3130517E-05  0.2103409E+04  0.7818609E-02  0.8559743E-01
       -2   -1    0    0    0  501  0.00000000000E+00  0.00000000000E+00  0.91546956134E+03  0.91546956134E+03  0.25500000920E-02 0.  1.
        2   -1    0    0  501    0  0.00000000000E+00  0.00000000000E+00 -0.12082135491E+04  0.12082135491E+04  0.25500000920E-02 0. -1.
    10030    2    1    2    0    0  0.00000000000E+00  0.00000000000E+00 -0.29274398772E+03  0.21236831104E+04  0.21034093541E+04 0.  0.
        1    1    3    3  502    0  0.79523661845E+03  0.60939308915E+03  0.17658848867E+03  0.10173223239E+04  0.50400001928E-02 0.  1.
       -1    1    3    3    0  502 -0.79523661845E+03 -0.60939308915E+03 -0.46933247639E+03  0.11063607865E+04  0.50400001928E-02 0. -1.
</event>
<event>
 5   0  0.1435410E-05  0.2101114E+04  0.7818609E-02  0.8560753E-01
        1   -1    0    0  501    0  0.00000000000E+00  0.00000000000E+00  0.83122681938E+03  0.83122681939E+03  0.50400001928E-02 0.  1.
       -1   -1    0    0    0  501  0.00000000000E+00  0.00000000000E+00 -0.13277602999E+04  0.13277603000E+04  0.50400001928E-02 0. -1.
    10030    2    1    2    0    0  0.00000000000E+00  0.00000000000E+00 -0.49653348057E+03  0.21589871193E+04  0.21011139627E+04 0.  0.
        2    1    3    3  502    0 -0.18231974191E+03  0.33350715265E+03  0.75809840031E+03  0.84804521915E+03  0.25500000920E-02 0.  1.
       -2    1    3    3    0  502  0.18231974191E+03 -0.33350715265E+03 -0.12546318809E+04  0.13109419002E+04  0.25500000920E-02 0. -1.
</event>
<event>
 5   0  0.1513292E-05  0.2050395E+04  0.7818609E-02  0.8583415E-01
        1   -1    0    0  501    0  0.00000000000E+00  0.00000000000E+00  0.15721998106E+04  0.15721998106E+04  0.50400001928E-02 0.  1.
       -1   -1    0    0    0  501  0.00000000000E+00  0.00000000000E+00 -0.66850931041E+03  0.66850931042E+03  0.50400001928E-02 0. -1.
    10030    2    1    2    0    0  0.00000000000E+00  0.00000000000E+00  0.90369050019E+03  0.22407091210E+04  0.20503952899E+04 0.  0.
        1    1    3    3  502    0  0.50728465784E+03 -0.23575183881E+03  0.13907239311E+04  0.14990095751E+04  0.50400001928E-02 0.  1.
       -1    1    3    3    0  502 -0.50728465784E+03  0.23575183881E+03 -0.48703343093E+03  0.74169954594E+03  0.50400001928E-02 0. -1.
</event>
<event>
 5   0  0.1453430E-05  0.2105892E+04  0.7818609E-02  0.8558652E-01
       -1   -1    0    0    0  501  0.00000000000E+00  0.00000000000E+00  0.12262052121E+04  0.12262052121E+04  0.50400001928E-02 0. -1.
        1   -1    0    0  501    0  0.00000000000E+00  0.00000000000E+00 -0.90416787265E+03  0.90416787266E+03  0.50400001928E-02 0.  1.
    10030    2    1    2    0    0  0.00000000000E+00  0.00000000000E+00  0.32203733949E+03  0.21303730848E+04  0.21058920752E+04 0.  0.
        5    1    3    3  502    0 -0.39964118587E+03 -0.52846203039E+03 -0.66683930842E+03  0.94004358849E+03  0.46999998093E+01 0.  1.
       -5    1    3    3    0  502  0.39964118587E+03  0.52846203039E+03  0.98887664791E+03  0.11903294963E+04  0.46999998093E+01 0. -1.
</event>
<event>
 5   0  0.3279789E-05  0.2086373E+04  0.7818609E-02  0.8567270E-01
       -2   -1    0    0    0  501  0.00000000000E+00  0.00000000000E+00  0.64350812943E+03  0.64350812944E+03  0.25500000920E-02 0. -1.
        2   -1    0    0  501    0  0.00000000000E+00  0.00000000000E+00 -0.16911029773E+04  0.16911029773E+04  0.25500000920E-02 0.  1.
    10030    2    1    2    0    0  0.00000000000E+00  0.00000000000E+00 -0.10475948478E+04  0.23346111067E+04  0.20863734216E+04 0.  0.
        2    1    3    3  502    0  0.16235706316E+03 -0.57945957293E+03  0.42970611529E+03  0.73944611578E+03  0.25500000920E-02 0. -1.
       -2    1    3    3    0  502 -0.16235706316E+03  0.57945957293E+03 -0.14773009631E+04  0.15951649909E+04  0.25500000920E-02 0.  1.
</event>
<event>
 5   0  0.3130517E-05  0.2107547E+04  0.7818609E-02  0.8557926E-01
       -2   -1    0    0    0  501  0.00000000000E+00  0.00000000000E+00  0.12371078354E+04  0.12371078354E+04  0.25500000920E-02 0.  1.
        2   -1    0    0  501    0  0.00000000000E+00  0.00000000000E+00 -0.89760847070E+03  0.89760847070E+03  0.25500000920E-02 0. -1.
    10030    2    1    2    0    0  0.00000000000E+00  0.00000000000E+00  0.33949936471E+03  0.21347163061E+04  0.21075468889E+04 0.  0.
        1    1    3    3  502    0  0.15364312131E+03  0.10295122379E+04  0.33598988039E+03  0.10937965334E+04  0.50400001928E-02 0.  1.
       -1    1    3    3    0  502 -0.15364312131E+03 -0.10295122379E+04  0.35094843229E+01  0.10409197727E+04  0.50400001928E-02 0. -1.
</event>
<event>
 5   0  0.3108326E-05  0.2100406E+04  0.7818609E-02  0.8561065E-01
       -2   -1    0    0    0  501  0.00000000000E+00  0.00000000000E+00  0.80122381610E+03  0.80122381610E+03  0.25500000920E-02 0.  1.
        2   -1    0    0  501    0  0.00000000000E+00  0.00000000000E+00 -0.13765522556E+04  0.13765522556E+04  0.25500000920E-02 0. -1.
    10030    2    1    2    0    0  0.00000000000E+00  0.00000000000E+00 -0.57532843955E+03  0.21777760717E+04  0.21004061049E+04 0.  0.
        5    1    3    3  502    0  0.48474359564E+03 -0.44266415659E+03 -0.11376016923E+04  0.13134259055E+04  0.46999998093E+01 0. -1.
       -5    1    3    3    0  502 -0.48474359564E+03  0.44266415659E+03  0.56227325275E+03  0.86435016620E+03  0.46999998093E+01 0.  1.
</event>
<event>
 5   0  0.1129987E-05  0.2093018E+04  0.7818609E-02  0.8564325E-01
       -3   -1    0    0    0  501  0.00000000000E+00  0.00000000000E+00  0.88011592108E+03  0.88011592687E+03  0.10100000352E+00 0.  1.
        3   -1    0    0  501    0  0.00000000000E+00  0.00000000000E+00 -0.12443597519E+04  0.12443597560E+04  0.10100000352E+00 0. -1.
    10030    2    1    2    0    0  0.00000000000E+00  0.00000000000E+00 -0.36424383083E+03  0.21244756829E+04  0.20930177636E+04 0.  0.
        3    1    3    3  502    0 -0.41459281944E+03 -0.74014130664E+03  0.43985582138E+03  0.95559903386E+03  0.10100000352E+00 0.  1.
       -3    1    3    3    0  502  0.41459281944E+03  0.74014130664E+03 -0.80409965221E+03  0.11688766490E+04  0.10100000352E+00 0. -1.
</event>
<event>
 5   0  0.1435410E-05  0.2090475E+04  0.7818609E-02  0.8565451E-01
        1   -1    0    0  501    0  0.00000000000E+00  0.00000000000E+00  0.17025057181E+04  0.17025057181E+04  0.50400001928E-02 0. -1.
       -1   -1    0    0    0  501  0.00000000000E+00  0.00000000000E+00 -0.64171391188E+03  0.64171391190E+03  0.50400001928E-02 0.  1.
    10030    2    1    2    0    0  0.00000000000E+00  0.00000000000E+00  0.10607918062E+04  0.23442196300E+04  0.20904751655E+04 0.  0.
        2    1    3    3  502    0  0.21030472713E+03  0.28450145573E+03  0.16333200707E+04  0.16711982558E+04  0.25500000920E-02 0. -1.
       -2    1    3    3    0  502 -0.21030472713E+03 -0.28450145573E+03 -0.57252826450E+03  0.67302137427E+03  0.25500000920E-02 0.  1.
</event>
<event>
 5   0  0.3242231E-05  0.2102309E+04  0.7818609E-02  0.8560227E-01
        2   -1    0    0  501    0  0.00000000000E+00  0.00000000000E+00  0.99614840268E+03  0.99614840268E+03  0.25500000920E-02 0. -1.
       -2   -1    0    0    0  501  0.00000000000E+00  0.00000000000E+00 -0.11091978623E+04  0.11091978623E+04  0.25500000920E-02 0.  1.
    10030    2    1    2    0    0  0.00000000000E+00  0.00000000000E+00 -0.11304945960E+03  0.21053462650E+04  0.21023089010E+04 0.  0.
        4    1    3    3  502    0  0.11749031787E+03 -0.10028917396E+04 -0.34905675916E+03  0.10683810416E+04  0.12699999809E+01 0.  1.
       -4    1    3    3    0  502 -0.11749031787E+03  0.10028917396E+04  0.23600729956E+03  0.10369652233E+04  0.12699999809E+01 0. -1.
</event>
<event>
 5   0  0.3130517E-05  0.2120488E+04  0.7818609E-02  0.8552272E-01
        2   -1    0    0  501    0  0.00000000000E+00  0.00000000000E+00  0.12736460107E+04  0.12736460107E+04  0.25500000920E-02 0.  1.
       -2   -1    0    0    0  501  0.00000000000E+00  0.00000000000E+00 -0.88259796893E+03  0.88259796893E+03  0.25500000920E-02 0. -1.
    10030    2    1    2    0    0  0.00000000000E+00  0.00000000000E+00  0.39104804178E+03  0.21562439796E+04  0.21204880402E+04 0.  0.
        1    1    3    3  502    0 -0.10132525560E+04  0.22775025298E+03 -0.21538442896E+02  0.10387563836E+04  0.50400001928E-02 0. -1.
       -1    1    3    3    0  502  0.10132525560E+04 -0.22775025298E+03  0.41258648468E+03  0.11174875960E+04  0.50400001928E-02 0.  1.
</event>
<event>
 5   0  0.1513292E-05  0.2096315E+04  0.7818609E-02  0.8562868E-01
        1   -1    0    0  501    0  0.00000000000E+00  0.00000000000E+00  0.19416515896E+04  0.19416515896E+04  0.50400001928E-02 0. -1.
       -1   -1    0    0    0  501  0.00000000000E+00  0.00000000000E+00 -0.56582475217E+03  0.56582475220E+03  0.50400001928E-02 0.  1.
    10030    2    1    2    0    0  0.00000000000E+00  0.00000000000E+00  0.13758268374E+04  0.25074763418E+04  0.20963153670E+04 0.  0.
        1    1    3    3  502    0 -0.36359861757E+03  0.67498465769E+03  0.15428164263E+04  0.17228147806E+04  0.50400001928E-02 0. -1.
       -1    1    3    3    0  502  0.36359861757E+03 -0.67498465769E+03 -0.16698958891E+03  0.78466156121E+03  0.50400001928E-02 0.  1.
</event>
<event>
 5   0  0.1453430E-05  0.2102663E+04  0.7818609E-02  0.8560071E-01
       -1   -1    0    0    0  501  0.00000000000E+00  0.00000000000E+00  0.24205293572E+04  0.24205293572E+04  0.50400001928E-02 0.  1.
        1   -1    0    0  501    0  0.00000000000E+00  0.00000000000E+00 -0.45663469919E+03  0.45663469921E+03  0.50400001928E-02 0. -1.
    10030    2    1    2    0    0  0.00000000000E+00  0.00000000000E+00  0.19638946580E+04  0.28771640564E+04  0.21026627832E+04 0.  0.
        5    1    3    3  502    0  0.64356531922E+03  0.76692208483E+03  0.54294627381E+03  0.11389286855E+04  0.46999998093E+01 0. -1.
       -5    1    3    3    0  502 -0.64356531922E+03 -0.76692208483E+03  0.14209483842E+04  0.17382353709E+04  0.46999998093E+01 0.  1.
</event>
<event>
 5   0  0.3108326E-05  0.2104416E+04  0.7818609E-02  0.8559301E-01
        2   -1    0    0  501    0  0.00000000000E+00  0.00000000000E+00  0.19490452291E+04  0.19490452291E+04  0.25500000920E-02 0.  1.
       -2   -1    0    0    0  501  0.00000000000E+00  0.00000000000E+00 -0.56804295187E+03  0.56804295188E+03  0.25500000920E-02 0. -1.
    10030    2    1    2    0    0  0.00000000000E+00  0.00000000000E+00  0.13810022772E+04  0.25170881810E+04  0.21044157434E+04 0.  0.
        5    1    3    3  502    0  0.14644419392E+03  0.77479987045E+03  0.15237951128E+04  0.17157314408E+04  0.46999998093E+01 0.  1.
       -5    1    3    3    0  502 -0.14644419392E+03 -0.77479987045E+03 -0.14279283554E+03  0.80135674020E+03  0.46999998093E+01 0. -1.
</event>
<event>
 5   0  0.3108326E-05  0.2099490E+04  0.7818609E-02  0.8561468E-01
       -2   -1    0    0    0  501  0.00000000000E+00  0.00000000000E+00  0.48389197230E+03  0.48389197231E+03  0.25500000920E-02 0. -1.
        2   -1    0    0  501    0  0.00000000000E+00  0.00000000000E+00 -0.22772952143E+04  0.22772952143E+04  0.25500000920E-02 0.  1.
    10030    2    1    2    0    0  0.00000000000E+00  0.00000000000E+00 -0.17934032420E+04  0.27611871866E+04  0.20994902932E+04 0.  0.
        5    1    3    3  502    0  0.92362936926E+03  0.45723865692E+03 -0.11590257771E+04  0.15509742883E+04  0.46999998093E+01 0.  1.
       -5    1    3    3    0  502 -0.92362936926E+03 -0.45723865692E+03 -0.63437746492E+03  0.12102128983E+04  0.46999998093E+01 0. -1.
</event>
<event>
 5   0  0.3108326E-05  0.2101619E+04  0.7818609E-02  0.8560530E-01
       -2   -1    0    0    0  501  0.00000000000E+00  0.00000000000E+00  0.16435054810E+04  0.16435054810E+04  0.25500000920E-02 0. -1.
        2   -1    0    0  501    0  0.00000000000E+00  0.00000000000E+00 -0.67185700724E+03  0.67185700725E+03  0.25500000920E-02 0.  1.
    10030    2    1    2    0    0  0.00000000000E+00  0.00000000000E+00  0.97164847371E+03  0.23153624882E+04  0.21016190652E+04 0.  0.
        5    1    3    3  502    0  0.10318075042E+03  0.60790610298E+03 -0.45158455755E+03  0.76429496918E+03  0.46999998093E+01 0.  1.
       -5    1    3    3    0  502 -0.10318075042E+03 -0.60790610298E+03  0.14232330313E+04  0.15510675190E+04  0.46999998093E+01 0. -1.
</event>
<event>
 5   0  0.3242231E-05  0.2095392E+04  0.7818609E-02  0.8563276E-01
        2   -1    0    0  501    0  0.00000000000E+00  0.00000000000E+00  0.15996166772E+04  0.15996166772E+04  0.25500000920E-02 0. -1.
       -2   -1    0    0    0  501  0.00000000000E+00  0.00000000000E+00 -0.68620641794E+03  0.68620641795E+03  0.25500000920E-02 0.  1.
    10030    2    1    2    0    0  0.00000000000E+00  0.00000000000E+00  0.91341025927E+03  0.22858230952E+04  0.20953923071E+04 0.  0.
        4    1    3    3  502    0 -0.70542935263E+03  0.53559697049E+03  0.10671802833E+04  0.13868561772E+04  0.12699999809E+01 0. -1.
       -4    1    3    3    0  502  0.70542935263E+03 -0.53559697049E+03 -0.15377002403E+03  0.89896691794E+03  0.12699999809E+01 0.  1.
</event>
<event>
 5   0  0.3242231E-05  0.2100130E+04  0.7818609E-02  0.8561186E-01
        2   -1    0    0  501    0  0.00000000000E+00  0.00000000000E+00  0.26004734607E+04  0.26004734607E+04  0.25500000920E-02 0.  1.
       -2   -1    0    0    0  501  0.00000000000E+00  0.00000000000E+00 -0.42401364880E+03  0.42401364881E+03  0.25500000920E-02 0. -1.
    10030    2    1    2    0    0  0.00000000000E+00  0.00000000000E+00  0.21764598119E+04  0.30244871096E+04  0.21001297491E+04 0.  0.
        4    1    3    3  502    0  0.77588993361E+03  0.55486589279E+03  0.45595419415E+03  0.10572498229E+04  0.12699999809E+01 0. -1.
       -4    1    3    3    0  502 -0.77588993361E+03 -0.55486589279E+03  0.17205056178E+04  0.19672372866E+04  0.12699999809E+01 0.  1.
</event>
<event>
 5   0  0.1453430E-05  0.2098913E+04  0.7818609E-02  0.8561722E-01
        1   -1    0    0  501    0  0.00000000000E+00  0.00000000000E+00  0.80230780285E+03  0.80230780287E+03  0.50400001928E-02 0. -1.
       -1   -1    0    0    0  501  0.00000000000E+00  0.00000000000E+00 -0.13727392331E+04  0.13727392331E+04  0.50400001928E-02 0.  1.
    10030    2    1    2    0    0  0.00000000000E+00  0.00000000000E+00 -0.57043143028E+03  0.21750470360E+04  0.20989134313E+04 0.  0.
        5    1    3    3  502    0 -0.98898230952E+02  0.17690121376E+03 -0.13522559812E+04  0.13673672616E+04  0.46999998093E+01 0.  1.
       -5    1    3    3    0  502  0.98898230952E+02 -0.17690121376E+03  0.78182455092E+03  0.80767977437E+03  0.46999998093E+01 0. -1.
</event>
<event>
 5   0  0.3257130E-05  0.2105459E+04  0.7818609E-02  0.8558842E-01
       -2   -1    0    0    0  501  0.00000000000E+00  0.00000000000E+00  0.49102334529E+03  0.49102334530E+03  0.25500000920E-02 0.  1.
        2   -1    0    0  501    0  0.00000000000E+00  0.00000000000E+00 -0.22569999015E+04  0.22569999015E+04  0.25500000920E-02 0. -1.
    10030    2    1    2    0    0  0.00000000000E+00  0.00000000000E+00 -0.17659765562E+04  0.27480232468E+04  0.21054592297E+04 0.  0.
        3    1    3    3  502    0  0.41211492926E+03 -0.31519515345E+02 -0.21466701738E+04  0.21860981314E+04  0.10100000352E+00 0. -1.
       -3    1    3    3    0  502 -0.41211492926E+03  0.31519515345E+02  0.38069361753E+03  0.56192511547E+03  0.10100000352E+00 0.  1.
</event>
<event>
 5   0  0.3279789E-05  0.2039341E+04  0.7818609E-02  0.8588445E-01
        2   -1    0    0  501    0  0.00000000000E+00  0.00000000000E+00  0.68713009199E+03  0.68713009200E+03  0.25500000920E-02 0. -1.
       -2   -1    0    0    0  501  0.00000000000E+00  0.00000000000E+00 -0.15131451995E+04  0.15131451995E+04  0.25500000920E-02 0.  1.
    10030    2    1    2    0    0  0.00000000000E+00  0.00000000000E+00 -0.82601510751E+03  0.22002752915E+04  0.20393406779E+04 0.  0.
        2    1    3    3  502    0 -0.88908549449E+03 -0.47165970638E+03 -0.58960621868E+03  0.11664353339E+04  0.25500000920E-02 0. -1.
       -2    1    3    3    0  502  0.88908549449E+03  0.47165970638E+03 -0.23640888883E+03  0.10338399576E+04  0.25500000920E-02 0.  1.
</event>
<event>
 5   0  0.1466480E-05  0.2100881E+04  0.7818609E-02  0.8560855E-01
        1   -1    0    0  501    0  0.00000000000E+00  0.00000000000E+00  0.21141745950E+04  0.21141745950E+04  0.50400001928E-02 0.  1.
       -1   -1    0    0    0  501  0.00000000000E+00  0.00000000000E+00 -0.52191797178E+03  0.52191797181E+03  0.50400001928E-02 0. -1.
    10030    2    1    2    0    0  0.00000000000E+00  0.00000000000E+00  0.15922566233E+04  0.26360925669E+04  0.21008814499E+04 0.  0.
        3    1    3    3  502    0 -0.22278399053E+03 -0.51912459434E+03 -0.31509400019E+03  0.64684410026E+03  0.10100000352E+00 0. -1.
       -3    1    3    3    0  502  0.22278399053E+03  0.51912459434E+03  0.19073506234E+04  0.19892484666E+04  0.10100000352E+00 0.  1.
</event>
<event>
 5   0  0.3108326E-05  0.2118521E+04  0.7818609E-02  0.8553129E-01
        2   -1    0    0  501    0  0.00000000000E+00  0.00000000000E+00  0.21226688046E+04  0.21226688046E+04  0.25500000920E-02 0.  1.
       -2   -1    0    0    0  501  0.00000000000E+00  0.00000000000E+00 -0.52859511595E+03  0.52859511596E+03  0.25500000920E-02 0. -1.
    10030    2    1    2    0    0  0.00000000000E+00  0.00000000000E+00  0.15940736886E+04  0.26512639205E+04  0.21185205809E+04 0.  0.
        5    1    3    3  502    0  0.42743041750E+03  0.39510829807E+03  0.19045717689E+04  0.19915378585E+04  0.46999998093E+01 0.  1.
       -5    1    3    3    0  502 -0.42743041750E+03 -0.39510829807E+03 -0.31049808030E+03  0.65972606199E+03  0.46999998093E+01 0. -1.
</event>
<event>
 5   0  0.3279789E-05  0.2096329E+04  0.7818609E-02  0.8562862E-01
       -2   -1    0    0    0  501  0.00000000000E+00  0.00000000000E+00  0.70433063081E+03  0.70433063081E+03  0.25500000920E-02 0. -1.
        2   -1    0    0  501    0  0.00000000000E+00  0.00000000000E+00 -0.15598478250E+04  0.15598478250E+04  0.25500000920E-02 0.  1.
    10030    2    1    2    0    0  0.00000000000E+00  0.00000000000E+00 -0.85551719420E+03  0.22641784558E+04  0.20963287934E+04 0.  0.
        2    1    3    3  502    0 -0.62418224058E+03  0.65505500967E+03  0.14370686915E+03  0.91616166663E+03  0.25500000920E-02 0. -1.
       -2    1    3    3    0  502  0.62418224058E+03 -0.65505500967E+03 -0.99922406335E+03  0.13480167892E+04  0.25500000920E-02 0.  1.
</event>
<event>
 5   0  0.1513292E-05  0.2092662E+04  0.7818609E-02  0.8564483E-01
        1   -1    0    0  501    0  0.00000000000E+00  0.00000000000E+00  0.15161535146E+04  0.15161535146E+04  0.50400001928E-02 0.  1.
       -1   -1    0    0    0  501  0.00000000000E+00  0.00000000000E+00 -0.72209624822E+03  0.72209624824E+03  0.50400001928E-02 0. -1.
    10030    2    1    2    0    0  0.00000000000E+00  0.00000000000E+00  0.79405726639E+03  0.22382497629E+04  0.20926621941E+04 0.  0.
        1    1    3    3  502    0 -0.70588513904E+03  0.56194846966E+03 -0.16969120261E+03  0.91807135689E+03  0.50400001928E-02 0. -1.
       -1    1    3    3    0  502  0.70588513904E+03 -0.56194846966E+03  0.96374846900E+03  0.13201784060E+04  0.50400001928E-02 0.  1.
</event>
<event>
 5   0  0.3108326E-05  0.2102280E+04  0.7818609E-02  0.8560240E-01
        2   -1    0    0  501    0  0.00000000000E+00  0.00000000000E+00  0.14472281108E+04  0.14472281108E+04  0.25500000920E-02 0. -1.
       -2   -1    0    0    0  501  0.00000000000E+00  0.00000000000E+00 -0.76345639691E+03  0.76345639692E+03  0.25500000920E-02 0.  1.
    10030    2    1    2    0    0  0.00000000000E+00  0.00000000000E+00  0.68377171393E+03  0.22106845078E+04  0.21022802468E+04 0.  0.
        5    1    3    3  502    0 -0.52607866180E+03  0.76199479805E+03 -0.18123859100E+03  0.94353820671E+03  0.46999998093E+01 0.  1.
       -5    1    3    3    0  502  0.52607866180E+03 -0.76199479805E+03  0.86501030493E+03  0.12671463011E+04  0.46999998093E+01 0. -1.
</event>
<event>
 5   0  0.1129987E-05  0.2103571E+04  0.7818609E-02  0.8559672E-01
        4   -1    0    0  501    0  0.00000000000E+00  0.00000000000E+00  0.92361843916E+03  0.92361931230E+03  0.12699999809E+01 0.  1.
       -4   -1    0    0    0  501  0.00000000000E+00  0.00000000000E+00 -0.11977364812E+04  0.11977371546E+04  0.12699999809E+01 0. -1.
    10030    2    1    2    0    0  0.00000000000E+00  0.00000000000E+00 -0.27411804208E+03  0.21213564669E+04  0.21035713818E+04 0.  0.
        2    1    3    3  502    0 -0.32340754280E+03  0.57869550578E+03 -0.96052402062E+03  0.11670849675E+04  0.25500000920E-02 0. -1.
       -2    1    3    3    0  502  0.32340754280E+03 -0.57869550578E+03  0.68640597853E+03  0.95427149938E+03  0.25500000920E-02 0.  1.
</event>
<event>
 5   0  0.3257130E-05  0.2098254E+04  0.7818609E-02  0.8562013E-01
       -2   -1    0    0    0  501  0.00000000000E+00  0.00000000000E+00  0.99667624954E+03  0.99667624954E+03  0.25500000920E-02 0.  1.
        2   -1    0    0  501    0  0.00000000000E+00  0.00000000000E+00 -0.11043379777E+04  0.11043379777E+04  0.25500000920E-02 0. -1.
    10030    2    1    2    0    0  0.00000000000E+00  0.00000000000E+00 -0.10766172821E+03  0.21010142273E+04  0.20982539731E+04 0.  0.
        3    1    3    3  502    0  0.32123269559E+03 -0.34159443424E+03  0.88590798564E+03  0.10023523190E+04  0.10100000352E+00 0.  1.
       -3    1    3    3    0  502 -0.32123269559E+03  0.34159443424E+03 -0.99356971385E+03  0.10986619083E+04  0.10100000352E+00 0. -1.
</event>
<event>
 5   0  0.1435410E-05  0.2099516E+04  0.7818609E-02  0.8561457E-01
        1   -1    0    0  501    0  0.00000000000E+00  0.00000000000E+00  0.11745570975E+04  0.11745570975E+04  0.50400001928E-02 0.  1.
       -1   -1    0    0    0  501  0.00000000000E+00  0.00000000000E+00 -0.93821900875E+03  0.93821900876E+03  0.50400001928E-02 0. -1.
    10030    2    1    2    0    0  0.00000000000E+00  0.00000000000E+00  0.23633808876E+03  0.21127761063E+04  0.20995159402E+04 0.  0.
        2    1    3    3  502    0  0.10463202305E+04 -0.52899868127E+02  0.18497640290E+03  0.10638612177E+04  0.25500000920E-02 0. -1.
       -2    1    3    3    0  502 -0.10463202305E+04  0.52899868127E+02  0.51361685855E+02  0.10489148886E+04  0.25500000920E-02 0.  1.
</event>
<event>
 5   0  0.1453430E-05  0.2100720E+04  0.7818609E-02  0.8560926E-01
       -1   -1    0    0    0  501  0.00000000000E+00  0.00000000000E+00  0.56228062472E+03  0.56228062474E+03  0.50400001928E-02 0.  1.
        1   -1    0    0  501    0  0.00000000000E+00  0.00000000000E+00 -0.19621101128E+04  0.19621101128E+04  0.50400001928E-02 0. -1.
    10030    2    1    2    0    0  0.00000000000E+00  0.00000000000E+00 -0.13998294881E+04  0.25243907375E+04  0.21007203527E+04 0.  0.
        5    1    3    3  502    0 -0.86707745073E+03 -0.53779419249E+03 -0.99958484495E+03  0.14283689479E+04  0.46999998093E+01 0. -1.
       -5    1    3    3    0  502  0.86707745073E+03  0.53779419249E+03 -0.40024464314E+03  0.10960217897E+04  0.46999998093E+01 0.  1.
</event>
<event>
 5   0  0.3279789E-05  0.2079516E+04  0.7818609E-02  0.8570321E-01
        2   -1    0    0  501    0  0.00000000000E+00  0.00000000000E+00  0.72588688564E+03  0.72588688564E+03  0.25500000920E-02 0. -1.
       -2   -1    0    0    0  501  0.00000000000E+00  0.00000000000E+00 -0.14893464690E+04  0.14893464690E+04  0.25500000920E-02 0.  1.
    10030    2    1    2    0    0  0.00000000000E+00  0.00000000000E+00 -0.76345958341E+03  0.22152333547E+04  0.20795163573E+04 0.  0.
        2    1    3    3  502    0  0.94018752843E+03  0.44291147528E+03 -0.41497398310E+03  0.11190739789E+04  0.25500000920E-02 0. -1.
       -2    1    3    3    0  502 -0.94018752843E+03 -0.44291147528E+03 -0.34848560031E+03  0.10961593758E+04  0.25500000920E-02 0.  1.
</event>
<event>
 5   0  0.3130517E-05  0.2097725E+04  0.7818609E-02  0.8562246E-01
        2   -1    0    0  501    0  0.00000000000E+00  0.00000000000E+00  0.12137323794E+04  0.12137323794E+04  0.25500000920E-02 0. -1.
       -2   -1    0    0    0  501  0.00000000000E+00  0.00000000000E+00 -0.90638825679E+03  0.90638825679E+03  0.25500000920E-02 0.  1.
    10030    2    1    2    0    0  0.00000000000E+00  0.00000000000E+00  0.30734412263E+03  0.21201206362E+04  0.20977252209E+04 0.  0.
        1    1    3    3  502    0 -0.62300018453E+03 -0.83101632442E+03  0.58387438702E+01  0.10386296030E+04  0.50400001928E-02 0.  1.
       -1    1    3    3    0  502  0.62300018453E+03  0.83101632442E+03  0.30150537876E+03  0.10814910332E+04  0.50400001928E-02 0. -1.
</event>
<event>
 5   0  0.1435410E-05  0.2100906E+04  0.7818609E-02  0.8560844E-01
        1   -1    0    0  501    0  0.00000000000E+00  0.00000000000E+00  0.11106821303E+04  0.11106821303E+04  0.50400001928E-02 0.  1.
       -1   -1    0    0    0  501  0.00000000000E+00  0.00000000000E+00 -0.99349020773E+03  0.99349020774E+03  0.50400001928E-02 0. -1.
    10030    2    1    2    0    0  0.00000000000E+00  0.00000000000E+00  0.11719192255E+03  0.21041723380E+04  0.21009063000E+04 0.  0.
        2    1    3    3  502    0  0.45203675475E+03  0.57920830044E+03 -0.69332566272E+03  0.10102078784E+04  0.25500000920E-02 0. -1.
       -2    1    3    3    0  502 -0.45203675475E+03 -0.57920830044E+03  0.81051758527E+03  0.10939644597E+04  0.25500000920E-02 0.  1.
</event>
<event>
 5   0  0.1466480E-05  0.2111002E+04  0.7818609E-02  0.8556412E-01
       -1   -1    0    0    0  501  0.00000000000E+00  0.00000000000E+00  0.58880081201E+03  0.58880081203E+03  0.50400001928E-02 0. -1.
        1   -1    0    0  501    0  0.00000000000E+00  0.00000000000E+00 -0.18921218365E+04  0.18921218365E+04  0.50400001928E-02 0.  1.
    10030    2    1    2    0    0  0.00000000000E+00  0.00000000000E+00 -0.13033210245E+04  0.24809226485E+04  0.21110024858E+04 0.  0.
        3    1    3    3  502    0 -0.10213017527E+04 -0.22193854888E+03 -0.82505786465E+03  0.13315534085E+04  0.10100000352E+00 0.  1.
       -3    1    3    3    0  502  0.10213017527E+04  0.22193854888E+03 -0.47826315982E+03  0.11493692400E+04  0.10100000352E+00 0. -1.
</event>
<event>
 5   0  0.3279789E-05  0.2119476E+04  0.7818609E-02  0.8552712E-01
       -2   -1    0    0    0  501  0.00000000000E+00  0.00000000000E+00  0.10192572089E+04  0.10192572089E+04  0.25500000920E-02 0. -1.
        2   -1    0    0  501    0  0.00000000000E+00  0.00000000000E+00 -0.11018261731E+04  0.11018261731E+04  0.25500000920E-02 0.  1.
    10030    2    1    2    0    0  0.00000000000E+00  0.00000000000E+00 -0.82568964202E+02  0.21210833821E+04  0.21194756616E+04 0.  0.
        2    1    3    3  502    0 -0.68168062472E+03  0.69611543656E+03 -0.45846889435E+03  0.10767817338E+04  0.25500000920E-02 0.  1.
       -2    1    3    3    0  502  0.68168062472E+03 -0.69611543656E+03  0.37589993015E+03  0.10443016483E+04  0.25500000920E-02 0. -1.
</event>
<event>
 5   0  0.1513292E-05  0.2093055E+04  0.7818609E-02  0.8564309E-01
       -1   -1    0    0    0  501  0.00000000000E+00  0.00000000000E+00  0.49948616553E+03  0.49948616556E+03  0.50400001928E-02 0.  1.
        1   -1    0    0  501    0  0.00000000000E+00  0.00000000000E+00 -0.21926928235E+04  0.21926928235E+04  0.50400001928E-02 0. -1.
    10030    2    1    2    0    0  0.00000000000E+00  0.00000000000E+00 -0.16932066580E+04  0.26921789891E+04  0.20930549258E+04 0.  0.
        1    1    3    3  502    0 -0.21795225145E+03  0.29488573570E+02 -0.21626306506E+04  0.21737856589E+04  0.50400001928E-02 0. -1.
       -1    1    3    3    0  502  0.21795225145E+03 -0.29488573570E+02  0.46942399263E+03  0.51839333017E+03  0.50400001928E-02 0.  1.
</event>
<event>
 5   0  0.1513292E-05  0.2096375E+04  0.7818609E-02  0.8562842E-01
        1   -1    0    0  501    0  0.00000000000E+00  0.00000000000E+00  0.13525668323E+04  0.13525668323E+04  0.50400001928E-02 0.  1.
       -1   -1    0    0    0  501  0.00000000000E+00  0.00000000000E+00 -0.81230545111E+03  0.81230545113E+03  0.50400001928E-02 0. -1.
    10030    2    1    2    0    0  0.00000000000E+00  0.00000000000E+00  0.54026138114E+03  0.21648722834E+04  0.20963753584E+04 0.  0.
        1    1    3    3  502    0 -0.19256591716E+03 -0.73939075895E+03  0.10111540262E+04  0.12673645062E+04  0.50400001928E-02 0.  1.
       -1    1    3    3    0  502  0.19256591716E+03  0.73939075895E+03 -0.47089264507E+03  0.89750777717E+03  0.50400001928E-02 0. -1.
</event>
<event>
 5   0  0.1435410E-05  0.2097318E+04  0.7818609E-02  0.8562426E-01
        1   -1    0    0  501    0  0.00000000000E+00  0.00000000000E+00  0.16497811792E+04  0.16497811792E+04  0.50400001928E-02 0. -1.
       -1   -1    0    0    0  501  0.00000000000E+00  0.00000000000E+00 -0.66656481324E+03  0.66656481326E+03  0.50400001928E-02 0.  1.
    10030    2    1    2    0    0  0.00000000000E+00  0.00000000000E+00  0.98321636591E+03  0.23163459924E+04  0.20973183675E+04 0.  0.
        2    1    3    3  502    0 -0.25889259296E+03 -0.39652941770E+03  0.15249608741E+04  0.15967988669E+04  0.25500000920E-02 0. -1.
       -2    1    3    3    0  502  0.25889259296E+03  0.39652941770E+03 -0.54174450815E+03  0.71954712556E+03  0.25500000920E-02 0.  1.
</event>
<event>
 5   0  0.3242231E-05  0.2090375E+04  0.7818609E-02  0.8565495E-01
       -2   -1    0    0    0  501  0.00000000000E+00  0.00000000000E+00  0.63324974421E+03  0.63324974421E+03  0.25500000920E-02 0. -1.
        2   -1    0    0  501    0  0.00000000000E+00  0.00000000000E+00 -0.17250959039E+04  0.17250959039E+04  0.25500000920E-02 0.  1.
    10030    2    1    2    0    0  0.00000000000E+00  0.00000000000E+00 -0.10918461597E+04  0.23583456481E+04  0.20903746457E+04 0.  0.
        4    1    3    3  502    0 -0.52952298008E+03 -0.40653893590E+03  0.36137574748E+03  0.75911957991E+03  0.12699999809E+01 0. -1.
       -4    1    3    3    0  502  0.52952298008E+03  0.40653893590E+03 -0.14532219072E+04  0.15992260682E+04  0.12699999809E+01 0.  1.
</event>
<event>
 5   0  0.1129987E-05  0.2106187E+04  0.7818609E-02  0.8558523E-01
        4   -1    0    0  501    0  0.00000000000E+00  0.00000000000E+00  0.10239765189E+04  0.10239773065E+04  0.12699999809E+01 0.  1.
       -4   -1    0    0    0  501  0.00000000000E+00  0.00000000000E+00 -0.10830366261E+04  0.10830373707E+04  0.12699999809E+01 0. -1.
    10030    2    1    2    0    0  0.00000000000E+00  0.00000000000E+00 -0.59060107144E+02  0.21070146772E+04  0.21061867804E+04 0.  0.
        4    1    3    3  502    0 -0.64165146219E+03  0.73301891350E+03  0.37059059813E+03  0.10422918645E+04  0.12699999809E+01 0.  1.
       -4    1    3    3    0  502  0.64165146219E+03 -0.73301891350E+03 -0.42965070527E+03  0.10647228127E+04  0.12699999809E+01 0. -1.
</event>
<event>
 5   0  0.3242231E-05  0.2097491E+04  0.7818609E-02  0.8562350E-01
        2   -1    0    0  501    0  0.00000000000E+00  0.00000000000E+00  0.17583616010E+04  0.17583616010E+04  0.25500000920E-02 0.  1.
       -2   -1    0    0    0  501  0.00000000000E+00  0.00000000000E+00 -0.62550652331E+03  0.62550652331E+03  0.25500000920E-02 0. -1.
    10030    2    1    2    0    0  0.00000000000E+00  0.00000000000E+00  0.11328550777E+04  0.23838681243E+04  0.20974905499E+04 0.  0.
        4    1    3    3  502    0 -0.16583444566E+03 -0.37690362378E+03  0.16626419473E+04  0.17128739775E+04  0.12699999809E+01 0.  1.
       -4    1    3    3    0  502  0.16583444566E+03  0.37690362378E+03 -0.52978686959E+03  0.67099414683E+03  0.12699999809E+01 0. -1.
</event>
<event>
 5   0  0.3130517E-05  0.2080641E+04  0.7818609E-02  0.8569819E-01
        2   -1    0    0  501    0  0.00000000000E+00  0.00000000000E+00  0.10682406366E+04  0.10682406366E+04  0.25500000920E-02 0.  1.
       -2   -1    0    0    0  501  0.00000000000E+00  0.00000000000E+00 -0.10131304394E+04  0.10131304394E+04  0.25500000920E-02 0. -1.
    10030    2    1    2    0    0  0.00000000000E+00  0.00000000000E+00  0.55110197213E+02  0.20813710759E+04  0.20806413487E+04 0.  0.
        1    1    3    3  502    0  0.66140034613E+03 -0.11891141350E+03  0.82198522496E+03  0.10617203267E+04  0.50400001928E-02 0.  1.
       -1    1    3    3    0  502 -0.66140034613E+03  0.11891141350E+03 -0.76687502774E+03  0.10196507492E+04  0.50400001928E-02 0. -1.
</event>
<event>
 5   0  0.3108326E-05  0.2109760E+04  0.7818609E-02  0.8556956E-01
       -2   -1    0    0    0  501  0.00000000000E+00  0.00000000000E+00  0.61000298726E+03  0.61000298726E+03  0.25500000920E-02 0.  1.
        2   -1    0    0  501    0  0.00000000000E+00  0.00000000000E+00 -0.18242077798E+04  0.18242077798E+04  0.25500000920E-02 0. -1.
    10030    2    1    2    0    0  0.00000000000E+00  0.00000000000E+00 -0.12142047925E+04  0.24342107671E+04  0.21097603609E+04 0.  0.
        5    1    3    3  502    0 -0.24070022671E+03 -0.60736039290E+03 -0.15626755835E+04  0.16937533219E+04  0.46999998093E+01 0. -1.
       -5    1    3    3    0  502  0.24070022671E+03  0.60736039290E+03  0.34847079097E+03  0.74045744520E+03  0.46999998093E+01 0.  1.
</event>
<event>
 5   0  0.3257130E-05  0.2085761E+04  0.7818609E-02  0.8567542E-01
       -2   -1    0    0    0  501  0.00000000000E+00  0.00000000000E+00  0.84187842442E+03  0.84187842442E+03  0.25500000920E-02 0.  1.
        2   -1    0    0  501    0  0.00000000000E+00  0.00000000000E+00 -0.12918725012E+04  0.12918725012E+04  0.25500000920E-02 0. -1.
    10030    2    1    2    0    0  0.00000000000E+00  0.00000000000E+00 -0.44999407680E+03  0.21337509256E+04  0.20857608548E+04 0.  0.
        3    1    3    3  502    0  0.36883559211E+03  0.92377537175E+03 -0.54557422956E+03  0.11344830901E+04  0.10100000352E+00 0. -1.
       -3    1    3    3    0  502 -0.36883559211E+03 -0.92377537175E+03  0.95580152760E+02  0.99926783559E+03  0.10100000352E+00 0.  1.
</event>
<event>
 5   0  0.3242231E-05  0.2106513E+04  0.7818609E-02  0.8558380E-01
        2   -1    0    0  501    0  0.00000000000E+00  0.00000000000E+00  0.65056770702E+03  0.65056770703E+03  0.25500000920E-02 0. -1.
       -2   -1    0    0    0  501  0.00000000000E+00  0.00000000000E+00 -0.17052016802E+04  0.17052016802E+04  0.25500000920E-02 0.  1.
    10030    2    1    2    0    0  0.00000000000E+00  0.00000000000E+00 -0.10546339732E+04  0.23557693872E+04  0.21065128978E+04 0.  0.
        4    1    3    3  502    0 -0.50367283247E+03 -0.20445514922E+03  0.48157185258E+03  0.72622399596E+03  0.12699999809E+01 0. -1.
       -4    1    3    3    0  502  0.50367283247E+03  0.20445514922E+03 -0.15362058258E+04  0.16295453913E+04  0.12699999809E+01 0.  1.
</event>
<event>
 5   0  0.1466480E-05  0.2094118E+04  0.7818609E-02  0.8563839E-01
        1   -1    0    0  501    0  0.00000000000E+00  0.00000000000E+00  0.11365859386E+04  0.11365859386E+04  0.50400001928E-02 0. -1.
       -1   -1    0    0    0  501  0.00000000000E+00  0.00000000000E+00 -0.96458395793E+03  0.96458395795E+03  0.50400001928E-02 0.  1.
    10030    2    1    2    0    0  0.00000000000E+00  0.00000000000E+00  0.17200198067E+03  0.21011698966E+04  0.20941180131E+04 0.  0.
        3    1    3    3  502    0 -0.54647385822E+03 -0.53696642746E+03 -0.63010113791E+03  0.99196475549E+03  0.10100000352E+00 0.  1.
       -3    1    3    3    0  502  0.54647385822E+03  0.53696642746E+03  0.80210311858E+03  0.11092051411E+04  0.10100000352E+00 0. -1.
</event>
<event>
 5   0  0.1435410E-05  0.2091732E+04  0.7818609E-02  0.8564894E-01
        1   -1    0    0  501    0  0.00000000000E+00  0.00000000000E+00  0.11105031848E+04  0.11105031848E+04  0.50400001928E-02 0.  1.
       -1   -1    0    0    0  501  0.00000000000E+00  0.00000000000E+00 -0.98499078446E+03  0.98499078447E+03  0.50400001928E-02 0. -1.
    10030    2    1    2    0    0  0.00000000000E+00  0.00000000000E+00  0.12551240036E+03  0.20954939693E+04  0.20917317258E+04 0.  0.
        2    1    3    3  502    0  0.77108292866E+03 -0.53987068123E+03  0.51943373560E+03  0.10751002935E+04  0.25500000920E-02 0. -1.
       -2    1    3    3    0  502 -0.77108292866E+03  0.53987068123E+03 -0.39392133524E+03  0.10203936758E+04  0.25500000920E-02 0.  1.
</event>
<event>
 5   0  0.1453430E-05  0.2101897E+04  0.7818609E-02  0.8560408E-01
       -1   -1    0    0    0  501  0.00000000000E+00  0.00000000000E+00  0.53662325728E+03  0.53662325730E+03  0.50400001928E-02 0. -1.
        1   -1    0    0  501    0  0.00000000000E+00  0.00000000000E+00 -0.20582280669E+04  0.20582280669E+04  0.50400001928E-02 0.  1.
    10030    2    1    2    0    0  0.00000000000E+00  0.00000000000E+00 -0.15216048097E+04  0.25948513243E+04  0.21018972854E+04 0.  0.
        5    1    3    3  502    0 -0.49431232829E+03 -0.31853829808E+03 -0.18360896115E+04  0.19279674470E+04  0.46999998093E+01 0.  1.
       -5    1    3    3    0  502  0.49431232829E+03  0.31853829808E+03  0.31448480179E+03  0.66688387729E+03  0.46999998093E+01 0. -1.
</event>
<event>
 5   0  0.3242231E-05  0.2101221E+04  0.7818609E-02  0.8560706E-01
        2   -1    0    0  501    0  0.00000000000E+00  0.00000000000E+00  0.12921229453E+04  0.12921229453E+04  0.25500000920E-02 0.  1.
       -2   -1    0    0    0  501  0.00000000000E+00  0.00000000000E+00 -0.85423929785E+03  0.85423929785E+03  0.25500000920E-02 0. -1.
    10030    2    1    2    0    0  0.00000000000E+00  0.00000000000E+00  0.43788364744E+03  0.21463622431E+04  0.21012207857E+04 0.  0.
        4    1    3    3  502    0  0.36158244315E+03 -0.36789433994E+03 -0.71597642981E+03  0.88244658167E+03  0.12699999809E+01 0. -1.
       -4    1    3    3    0  502 -0.36158244315E+03  0.36789433994E+03  0.11538600772E+04  0.12639156615E+04  0.12699999809E+01 0.  1.
</event>
<event>
 5   0  0.1513292E-05  0.2096999E+04  0.7818609E-02  0.8562567E-01
        1   -1    0    0  501    0  0.00000000000E+00  0.00000000000E+00  0.85836599149E+03  0.85836599151E+03  0.50400001928E-02 0. -1.
       -1   -1    0    0    0  501  0.00000000000E+00  0.00000000000E+00 -0.12807484104E+04  0.12807484104E+04  0.50400001928E-02 0.  1.
    10030    2    1    2    0    0  0.00000000000E+00  0.00000000000E+00 -0.42238241893E+03  0.21391144019E+04  0.20969986926E+04 0.  0.
        1    1    3    3  502    0 -0.44772417860E+03  0.41888611611E+02  0.75500602220E+03  0.87877510745E+03  0.50400001928E-02 0. -1.
       -1    1    3    3    0  502  0.44772417860E+03 -0.41888611611E+02 -0.11773884411E+04  0.12603392945E+04  0.50400001928E-02 0.  1.
</event>
<event>
 5   0  0.1453430E-05  0.2098028E+04  0.7818609E-02  0.8562113E-01
        1   -1    0    0  501    0  0.00000000000E+00  0.00000000000E+00  0.13362085101E+04  0.13362085101E+04  0.50400001928E-02 0.  1.
       -1   -1    0    0    0  501  0.00000000000E+00  0.00000000000E+00 -0.82354654750E+03  0.82354654751E+03  0.50400001928E-02 0. -1.
    10030    2    1    2    0    0  0.00000000000E+00  0.00000000000E+00  0.51266196260E+03  0.21597550576E+04  0.20980275549E+04 0.  0.
        5    1    3    3  502    0 -0.91641870098E+03  0.11388276592E+03 -0.25591911160E+03  0.95828450971E+03  0.46999998093E+01 0. -1.
       -5    1    3    3    0  502  0.91641870098E+03 -0.11388276592E+03  0.76858107420E+03  0.12014705479E+04  0.46999998093E+01 0.  1.
</event>
<event>
 5   0  0.1513292E-05  0.2103099E+04  0.7818609E-02  0.8559880E-01
       -1   -1    0    0    0  501  0.00000000000E+00  0.00000000000E+00  0.66769790370E+03  0.66769790372E+03  0.50400001928E-02 0. -1.
        1   -1    0    0  501    0  0.00000000000E+00  0.00000000000E+00 -0.16560720511E+04  0.16560720511E+04  0.50400001928E-02 0.  1.
    10030    2    1    2    0    0  0.00000000000E+00  0.00000000000E+00 -0.98837414736E+03  0.23237699548E+04  0.21030985111E+04 0.  0.
        1    1    3    3  502    0 -0.10166559803E+04  0.24430306783E+03 -0.37073917343E+03  0.11093786125E+04  0.50400001928E-02 0. -1.
       -1    1    3    3    0  502  0.10166559803E+04 -0.24430306783E+03 -0.61763497393E+03  0.12143913423E+04  0.50400001928E-02 0.  1.
</event>
<event>
 5   0  0.1435410E-05  0.2108693E+04  0.7818609E-02  0.8557424E-01
       -1   -1    0    0    0  501  0.00000000000E+00  0.00000000000E+00  0.10241565193E+04  0.10241565193E+04  0.50400001928E-02 0. -1.
        1   -1    0    0  501    0  0.00000000000E+00  0.00000000000E+00 -0.10854263612E+04  0.10854263612E+04  0.50400001928E-02 0.  1.
    10030    2    1    2    0    0  0.00000000000E+00  0.00000000000E+00 -0.61269841877E+02  0.21095828805E+04  0.21086929450E+04 0.  0.
        2    1    3    3  502    0 -0.77238617972E+03 -0.44273128634E+03 -0.59572291509E+03  0.10712036193E+04  0.25500000920E-02 0.  1.
       -2    1    3    3    0  502  0.77238617972E+03  0.44273128634E+03  0.53445307321E+03  0.10383792612E+04  0.25500000920E-02 0. -1.
</event>
<event>
 5   0  0.3108326E-05  0.2098072E+04  0.7818609E-02  0.8562093E-01
       -2   -1    0    0    0  501  0.00000000000E+00  0.00000000000E+00  0.76110568849E+03  0.76110568850E+03  0.25500000920E-02 0.  1.
        2   -1    0    0  501    0  0.00000000000E+00  0.00000000000E+00 -0.14458913796E+04  0.14458913796E+04  0.25500000920E-02 0. -1.
    10030    2    1    2    0    0  0.00000000000E+00  0.00000000000E+00 -0.68478569106E+03  0.22069970681E+04  0.20980716422E+04 0.  0.
        5    1    3    3  502    0 -0.86062033552E+03  0.59674869575E+03 -0.40618530768E+03  0.11232920199E+04  0.46999998093E+01 0. -1.
       -5    1    3    3    0  502  0.86062033552E+03 -0.59674869575E+03 -0.27860038338E+03  0.10837050482E+04  0.46999998093E+01 0.  1.
</event>
<event>
 5   0  0.3242231E-05  0.2100802E+04  0.7818609E-02  0.8560890E-01
        2   -1    0    0  501    0  0.00000000000E+00  0.00000000000E+00  0.14445591052E+04  0.14445591052E+04  0.25500000920E-02 0. -1.
       -2   -1    0    0    0  501  0.00000000000E+00  0.00000000000E+00 -0.76379206282E+03  0.76379206283E+03  0.25500000920E-02 0.  1.
    10030    2    1    2    0    0  0.00000000000E+00  0.00000000000E+00  0.68076704235E+03  0.22083511680E+04  0.21008024932E+04 0.  0.
        4    1    3    3  502    0 -0.87307393980E+02 -0.30159632185E+03  0.13940755634E+04  0.14289965751E+04  0.12699999809E+01 0. -1.
       -4    1    3    3    0  502  0.87307393980E+02  0.30159632185E+03 -0.71330852102E+03  0.77935459289E+03  0.12699999809E+01 0.  1.
</event>
<event>
 5   0  0.1466480E-05  0.2118240E+04  0.7818609E-02  0.8553251E-01
       -1   -1    0    0    0  501  0.00000000000E+00  0.00000000000E+00  0.15446727154E+04  0.15446727155E+04  0.50400001928E-02 0. -1.
        1   -1    0    0  501    0  0.00000000000E+00  0.00000000000E+00 -0.72619572936E+03  0.72619572937E+03  0.50400001928E-02 0.  1.
    10030    2    1    2    0    0  0.00000000000E+00  0.00000000000E+00  0.81847698609E+03  0.22708684448E+04  0.21182395797E+04 0.  0.
        3    1    3    3  502    0 -0.19767557973E+03 -0.10281383294E+04  0.58073593233E+03  0.11972461286E+04  0.10100000352E+00 0. -1.
       -3    1    3    3    0  502  0.19767557973E+03  0.10281383294E+04  0.23774105376E+03  0.10736223162E+04  0.10100000352E+00 0.  1.
</event>
<event>
 5   0  0.1435410E-05  0.2099922E+04  0.7818609E-02  0.8561278E-01
        1   -1    0    0  501    0  0.00000000000E+00  0.00000000000E+00  0.11627254851E+04  0.11627254851E+04  0.50400001928E-02 0.  1.
       -1   -1    0    0    0  501  0.00000000000E+00  0.00000000000E+00 -0.94813268064E+03  0.94813268066E+03  0.50400001928E-02 0. -1.
    10030    2    1    2    0    0  0.00000000000E+00  0.00000000000E+00  0.21459280447E+03  0.21108581658E+04  0.20999219329E+04 0.  0.
        2    1    3    3  502    0  0.76681771318E+03  0.71427977576E+03  0.17254227791E+03  0.10620620702E+04  0.25500000920E-02 0.  1.
       -2    1    3    3    0  502 -0.76681771318E+03 -0.71427977576E+03  0.42050526561E+02  0.10487960956E+04  0.25500000920E-02 0. -1.
</event>
<event>
 5   0  0.3242231E-05  0.2080382E+04  0.7818609E-02  0.8569935E-01
        2   -1    0    0  501    0  0.00000000000E+00  0.00000000000E+00  0.13437881699E+04  0.13437881699E+04  0.25500000920E-02 0.  1.
       -2   -1    0    0    0  501  0.00000000000E+00  0.00000000000E+00 -0.80518441453E+03  0.80518441453E+03  0.25500000920E-02 0. -1.
    10030    2    1    2    0    0  0.00000000000E+00  0.00000000000E+00  0.53860375538E+03  0.21489725844E+04  0.20803819754E+04 0.  0.
        4    1    3    3  502    0  0.85175072453E+03  0.25480723802E+03 -0.28849213328E+03  0.93468462551E+03  0.12699999809E+01 0.  1.
       -4    1    3    3    0  502 -0.85175072453E+03 -0.25480723802E+03  0.82709588866E+03  0.12142879589E+04  0.12699999809E+01 0. -1.
</event>
<event>
 5   0  0.1513292E-05  0.2102987E+04  0.7818609E-02  0.8559929E-01
        1   -1    0    0  501    0  0.00000000000E+00  0.00000000000E+00  0.65607095299E+03  0.65607095301E+03  0.50400001928E-02 0.  1.
       -1   -1    0    0    0  501  0.00000000000E+00  0.00000000000E+00 -0.16852425596E+04  0.16852425596E+04  0.50400001928E-02 0. -1.
    10030    2    1    2    0    0  0.00000000000E+00  0.00000000000E+00 -0.10291716066E+04  0.23413135126E+04  0.21029871061E+04 0.  0.
        1    1    3    3  502    0  0.42236224398E+03  0.58285339363E+03  0.33878594668E+03  0.79553998095E+03  0.50400001928E-02 0. -1.
       -1    1    3    3    0  502 -0.42236224398E+03 -0.58285339363E+03 -0.13679575533E+04  0.15457735317E+04  0.50400001928E-02 0.  1.
</event>
<event>
 5   0  0.3130517E-05  0.2097958E+04  0.7818609E-02  0.8562143E-01
       -2   -1    0    0    0  501  0.00000000000E+00  0.00000000000E+00  0.58991823041E+03  0.58991823042E+03  0.25500000920E-02 0.  1.
        2   -1    0    0  501    0  0.00000000000E+00  0.00000000000E+00 -0.18652703041E+04  0.18652703041E+04  0.25500000920E-02 0. -1.
    10030    2    1    2    0    0  0.00000000000E+00  0.00000000000E+00 -0.12753520737E+04  0.24551885345E+04  0.20979580139E+04 0.  0.
        1    1    3    3  502    0 -0.99396487485E+03  0.24128412359E+03 -0.91005811012E+03  0.13690836222E+04  0.50400001928E-02 0.  1.
       -1    1    3    3    0  502  0.99396487485E+03 -0.24128412359E+03 -0.36529396357E+03  0.10861049123E+04  0.50400001928E-02 0. -1.
</event>
<event>
 5   0  0.1513292E-05  0.2160811E+04  0.7818609E-02  0.8534919E-01
        1   -1    0    0  501    0  0.00000000000E+00  0.00000000000E+00  0.80603601133E+03  0.80603601134E+03  0.50400001928E-02 0.  1.
       -1   -1    0    0    0  501  0.00000000000E+00  0.00000000000E+00 -0.14481684681E+04  0.14481684681E+04  0.50400001928E-02 0. -1.
    10030    2    1    2    0    0  0.00000000000E+00  0.00000000000E+00 -0.64213245674E+03  0.22542044794E+04  0.21608108994E+04 0.  0.
        1    1    3    3  502    0  0.71021148219E+03 -0.27483579454E+03 -0.11205721019E+04  0.13548494008E+04  0.50400001928E-02 0. -1.
       -1    1    3    3    0  502 -0.71021148219E+03  0.27483579454E+03  0.47843964511E+03  0.89935507862E+03  0.50400001928E-02 0.  1.
</event>
<event>
 5   0  0.1513292E-05  0.2099710E+04  0.7818609E-02  0.8561371E-01
        1   -1    0    0  501    0  0.00000000000E+00  0.00000000000E+00  0.14344121924E+04  0.14344121924E+04  0.50400001928E-02 0. -1.
       -1   -1    0    0    0  501  0.00000000000E+00  0.00000000000E+00 -0.76839551188E+03  0.76839551189E+03  0.50400001928E-02 0.  1.
    10030    2    1    2    0    0  0.00000000000E+00  0.00000000000E+00  0.66601668054E+03  0.22028077043E+04  0.20997103523E+04 0.  0.
        1    1    3    3  502    0  0.92701347176E+03  0.33614543712E+03  0.71104602594E+03  0.12157031639E+04  0.50400001928E-02 0. -1.
       -1    1    3    3    0  502 -0.92701347176E+03 -0.33614543712E+03 -0.45029345402E+02  0.98710454041E+03  0.50400001928E-02 0.  1.
</event>
<event>
 5   0  0.3257130E-05  0.2100416E+04  0.7818609E-02  0.8561060E-01
       -2   -1    0    0    0  501  0.00000000000E+00  0.00000000000E+00  0.72391445454E+03  0.72391445454E+03  0.25500000920E-02 0. -1.
        2   -1    0    0  501    0  0.00000000000E+00  0.00000000000E+00 -0.15235736681E+04  0.15235736681E+04  0.25500000920E-02 0.  1.
    10030    2    1    2    0    0  0.00000000000E+00  0.00000000000E+00 -0.79965921359E+03  0.22474881227E+04  0.21004161501E+04 0.  0.
        3    1    3    3  502    0  0.38977342790E+03 -0.40728577946E+03  0.54829056032E+03  0.78640166581E+03  0.10100000352E+00 0. -1.
       -3    1    3    3    0  502 -0.38977342790E+03  0.40728577946E+03 -0.13479497739E+04  0.14610864569E+04  0.10100000352E+00 0.  1.
</event>
<event>
 5   0  0.1453430E-05  0.2106270E+04  0.7818609E-02  0.8558486E-01
        1   -1    0    0  501    0  0.00000000000E+00  0.00000000000E+00  0.17170694470E+04  0.17170694470E+04  0.50400001928E-02 0. -1.
       -1   -1    0    0    0  501  0.00000000000E+00  0.00000000000E+00 -0.64592249359E+03  0.64592249361E+03  0.50400001928E-02 0.  1.
    10030    2    1    2    0    0  0.00000000000E+00  0.00000000000E+00  0.10711469534E+04  0.23629919406E+04  0.21062704279E+04 0.  0.
        5    1    3    3  502    0 -0.23210513310E+03 -0.27131212366E+03 -0.57593523053E+03  0.67764780013E+03  0.46999998093E+01 0.  1.
       -5    1    3    3    0  502  0.23210513310E+03  0.27131212366E+03  0.16470821839E+04  0.16853441404E+04  0.46999998093E+01 0. -1.
</event>
<event>
 5   0  0.3257130E-05  0.2103760E+04  0.7818609E-02  0.8559589E-01
       -2   -1    0    0    0  501  0.00000000000E+00  0.00000000000E+00  0.84720952389E+03  0.84720952389E+03  0.25500000920E-02 0.  1.
        2   -1    0    0  501    0  0.00000000000E+00  0.00000000000E+00 -0.13059957636E+04  0.13059957636E+04  0.25500000920E-02 0. -1.
    10030    2    1    2    0    0  0.00000000000E+00  0.00000000000E+00 -0.45878623969E+03  0.21532052875E+04  0.21037604893E+04 0.  0.
        3    1    3    3  502    0  0.75449397093E+03  0.22450967290E+03 -0.94349193724E+03  0.12287566037E+04  0.10100000352E+00 0. -1.
       -3    1    3    3    0  502 -0.75449397093E+03 -0.22450967290E+03  0.48470569756E+03  0.92444868373E+03  0.10100000352E+00 0.  1.
</event>
<event>
 5   0  0.3242231E-05  0.2106165E+04  0.7818609E-02  0.8558533E-01
        2   -1    0    0  501    0  0.00000000000E+00  0.00000000000E+00  0.17702219378E+04  0.17702219378E+04  0.25500000920E-02 0.  1.
       -2   -1    0    0    0  501  0.00000000000E+00  0.00000000000E+00 -0.62646531402E+03  0.62646531403E+03  0.25500000920E-02 0. -1.
    10030    2    1    2    0    0  0.00000000000E+00  0.00000000000E+00  0.11437566238E+04  0.23966872518E+04  0.21061648959E+04 0.  0.
        4    1    3    3  502    0  0.16031516764E+03 -0.11957774649E+01  0.17562529176E+04  0.17635555864E+04  0.12699999809E+01 0.  1.
       -4    1    3    3    0  502 -0.16031516764E+03  0.11957774649E+01 -0.61249629385E+03  0.63313166540E+03  0.12699999809E+01 0. -1.
</event>
<event>
 5   0  0.3257130E-05  0.2106682E+04  0.7818609E-02  0.8558306E-01
        2   -1    0    0  501    0  0.00000000000E+00  0.00000000000E+00  0.17405220224E+04  0.17405220224E+04  0.25500000920E-02 0. -1.
       -2   -1    0    0    0  501  0.00000000000E+00  0.00000000000E+00 -0.63746799355E+03  0.63746799356E+03  0.25500000920E-02 0.  1.
    10030    2    1    2    0    0  0.00000000000E+00  0.00000000000E+00  0.11030540289E+04  0.23779900160E+04  0.21066818283E+04 0.  0.
        3    1    3    3  502    0 -0.97180227241E+03 -0.35399109812E+03  0.32628507642E+03  0.10845143224E+04  0.10100000352E+00 0. -1.
       -3    1    3    3    0  502  0.97180227241E+03  0.35399109812E+03  0.77676895247E+03  0.12934756936E+04  0.10100000352E+00 0.  1.
</event>
<event>
 5   0  0.3130517E-05  0.2081731E+04  0.7818609E-02  0.8569334E-01
       -2   -1    0    0    0  501  0.00000000000E+00  0.00000000000E+00  0.11045617288E+04  0.11045617288E+04  0.25500000920E-02 0.  1.
        2   -1    0    0  501    0  0.00000000000E+00  0.00000000000E+00 -0.98084194915E+03  0.98084194915E+03  0.25500000920E-02 0. -1.
    10030    2    1    2    0    0  0.00000000000E+00  0.00000000000E+00  0.12371977966E+03  0.20854036780E+04  0.20817305100E+04 0.  0.
        1    1    3    3  502    0  0.70507143042E+02 -0.22669477021E+03 -0.95335746385E+03  0.98247250850E+03  0.50400001928E-02 0. -1.
       -1    1    3    3    0  502 -0.70507143042E+02  0.22669477021E+03  0.10770772435E+04  0.11029311695E+04  0.50400001928E-02 0.  1.
</event>
<event>
 5   0  0.1435410E-05  0.2099423E+04  0.7818609E-02  0.8561498E-01
        1   -1    0    0  501    0  0.00000000000E+00  0.00000000000E+00  0.11214735407E+04  0.11214735407E+04  0.50400001928E-02 0. -1.
       -1   -1    0    0    0  501  0.00000000000E+00  0.00000000000E+00 -0.98254130085E+03  0.98254130086E+03  0.50400001928E-02 0.  1.
    10030    2    1    2    0    0  0.00000000000E+00  0.00000000000E+00  0.13893223983E+03  0.21040148416E+04  0.20994228460E+04 0.  0.
        2    1    3    3  502    0 -0.48310819289E+03 -0.74734785891E+03  0.62743492484E+03  0.10888511988E+04  0.25500000920E-02 0. -1.
       -2    1    3    3    0  502  0.48310819289E+03  0.74734785891E+03 -0.48850268501E+03  0.10151636427E+04  0.25500000920E-02 0.  1.
</event>
<event>
 5   0  0.1492552E-05  0.2106657E+04  0.7818609E-02  0.8558317E-01
        1   -1    0    0  501    0  0.00000000000E+00  0.00000000000E+00  0.10924289247E+04  0.10924289247E+04  0.50400001928E-02 0.  1.
       -1   -1    0    0    0  501  0.00000000000E+00  0.00000000000E+00 -0.10156273460E+04  0.10156273460E+04  0.50400001928E-02 0. -1.
    10030    2    1    2    0    0  0.00000000000E+00  0.00000000000E+00  0.76801578737E+02  0.21080562707E+04  0.21066567727E+04 0.  0.
        4    1    3    3  502    0  0.72624287860E+03  0.39464172536E+02  0.80082094119E+03  0.10818049419E+04  0.12699999809E+01 0.  1.
       -4    1    3    3    0  502 -0.72624287860E+03 -0.39464172536E+02 -0.72401936246E+03  0.10262513287E+04  0.12699999809E+01 0. -1.
</event>
<event>
 5   0  0.3108326E-05  0.2090937E+04  0.7818609E-02  0.8565246E-01
        2   -1    0    0  501    0  0.00000000000E+00  0.00000000000E+00  0.21937341619E+04  0.21937341619E+04  0.25500000920E-02 0.  1.
       -2   -1    0    0    0  501  0.00000000000E+00  0.00000000000E+00 -0.49823935398E+03  0.49823935399E+03  0.25500000920E-02 0. -1.
    10030    2    1    2    0    0  0.00000000000E+00  0.00000000000E+00  0.16954948080E+04  0.26919735159E+04  0.20909372938E+04 0.  0.
        5    1    3    3  502    0  0.41114706147E+03 -0.87067024910E+03  0.32340020810E+03  0.10157353855E+04  0.46999998093E+01 0. -1.
       -5    1    3    3    0  502 -0.41114706147E+03  0.87067024910E+03  0.13720945999E+04  0.16762381304E+04  0.46999998093E+01 0.  1.
</event>
<event>
 5   0  0.1513292E-05  0.2098836E+04  0.7818609E-02  0.8561756E-01
        1   -1    0    0  501    0  0.00000000000E+00  0.00000000000E+00  0.43285952571E+03  0.43285952574E+03  0.50400001928E-02 0. -1.
       -1   -1    0    0    0  501  0.00000000000E+00  0.00000000000E+00 -0.25441922627E+04  0.25441922627E+04  0.50400001928E-02 0.  1.
    10030    2    1    2    0    0  0.00000000000E+00  0.00000000000E+00 -0.21113327370E+04  0.29770517885E+04  0.20988357308E+04 0.  0.
        1    1    3    3  502    0 -0.18165523028E+03  0.99491640238E+03 -0.65845380023E+03  0.12068217256E+04  0.50400001928E-02 0. -1.
       -1    1    3    3    0  502  0.18165523028E+03 -0.99491640238E+03 -0.14528789368E+04  0.17702300628E+04  0.50400001928E-02 0.  1.
</event>
<event>
 5   0  0.1492552E-05  0.2101868E+04  0.7818609E-02  0.8560421E-01
       -1   -1    0    0    0  501  0.00000000000E+00  0.00000000000E+00  0.92472214934E+03  0.92472214936E+03  0.50400001928E-02 0. -1.
        1   -1    0    0  501    0  0.00000000000E+00  0.00000000000E+00 -0.11943721986E+04  0.11943721986E+04  0.50400001928E-02 0.  1.
    10030    2    1    2    0    0  0.00000000000E+00  0.00000000000E+00 -0.26965004929E+03  0.21190943480E+04  0.21018681468E+04 0.  0.
        4    1    3    3  502    0  0.27453976285E+03 -0.54579085950E+03  0.72728606904E+03  0.94984545207E+03  0.12699999809E+01 0. -1.
       -4    1    3    3    0  502 -0.27453976285E+03  0.54579085950E+03 -0.99693611833E+03  0.11692488959E+04  0.12699999809E+01 0.  1.
</event>
<event>
 5   0  0.1453430E-05  0.2099507E+04  0.7818609E-02  0.8561460E-01
       -1   -1    0    0    0  501  0.00000000000E+00  0.00000000000E+00  0.11567230848E+04  0.11567230848E+04  0.50400001928E-02 0.  1.
        1   -1    0    0  501    0  0.00000000000E+00  0.00000000000E+00 -0.95267647383E+03  0.95267647384E+03  0.50400001928E-02 0. -1.
    10030    2    1    2    0    0  0.00000000000E+00  0.00000000000E+00  0.20404661096E+03  0.21093995586E+04  0.20995074371E+04 0.  0.
        5    1    3    3  502    0  0.86001176430E+02  0.50599531258E+02  0.11519370004E+04  0.11562601169E+04  0.46999998093E+01 0.  1.
       -5    1    3    3    0  502 -0.86001176430E+02 -0.50599531258E+02 -0.94789038949E+03  0.95313944174E+03  0.46999998093E+01 0. -1.
</event>
<event>
 5   0  0.3242231E-05  0.2101189E+04  0.7818609E-02  0.8560720E-01
        2   -1    0    0  501    0  0.00000000000E+00  0.00000000000E+00  0.21480412019E+04  0.21480412019E+04  0.25500000920E-02 0.  1.
       -2   -1    0    0    0  501  0.00000000000E+00  0.00000000000E+00 -0.51383950842E+03  0.51383950843E+03  0.25500000920E-02 0. -1.
    10030    2    1    2    0    0  0.00000000000E+00  0.00000000000E+00  0.16342016934E+04  0.26618807103E+04  0.21011886495E+04 0.  0.
        4    1    3    3  502    0 -0.56690548022E+03  0.59402175878E+03 -0.13145014058E+02  0.82122961326E+03  0.12699999809E+01 0. -1.
       -4    1    3    3    0  502  0.56690548022E+03 -0.59402175878E+03  0.16473467075E+04  0.18406510970E+04  0.12699999809E+01 0.  1.
</event>
<event>
 5   0  0.1513292E-05  0.2106354E+04  0.7818609E-02  0.8558449E-01
        1   -1    0    0  501    0  0.00000000000E+00  0.00000000000E+00  0.14897269233E+04  0.14897269233E+04  0.50400001928E-02 0.  1.
       -1   -1    0    0    0  501  0.00000000000E+00  0.00000000000E+00 -0.74455386590E+03  0.74455386592E+03  0.50400001928E-02 0. -1.
    10030    2    1    2    0    0  0.00000000000E+00  0.00000000000E+00  0.74517305737E+03  0.22342807892E+04  0.21063541392E+04 0.  0.
        1    1    3    3  502    0  0.45729484351E+03 -0.30820193952E+03  0.13243400943E+04  0.14345674242E+04  0.50400001928E-02 0.  1.
       -1    1    3    3    0  502 -0.45729484351E+03  0.30820193952E+03 -0.57916703689E+03  0.79971336494E+03  0.50400001928E-02 0. -1.
</event>
<event>
 5   0  0.3279789E-05  0.2107212E+04  0.7818609E-02  0.8558073E-01
       -2   -1    0    0    0  501  0.00000000000E+00  0.00000000000E+00  0.15959042795E+04  0.15959042795E+04  0.25500000920E-02 0. -1.
        2   -1    0    0  501    0  0.00000000000E+00  0.00000000000E+00 -0.69558416180E+03  0.69558416180E+03  0.25500000920E-02 0.  1.
    10030    2    1    2    0    0  0.00000000000E+00  0.00000000000E+00  0.90032011774E+03  0.22914884413E+04  0.21072121304E+04 0.  0.
        2    1    3    3  502    0  0.24991939523E+03  0.19630892114E+03  0.15425410033E+04  0.15749379808E+04  0.25500000920E-02 0. -1.
       -2    1    3    3    0  502 -0.24991939523E+03 -0.19630892114E+03 -0.64222088555E+03  0.71655046052E+03  0.25500000920E-02 0.  1.
</event>
<event>
 5   0  0.3108326E-05  0.2089917E+04  0.7818609E-02  0.8565698E-01
        2   -1    0    0  501    0  0.00000000000E+00  0.00000000000E+00  0.17649021692E+04  0.17649021692E+04  0.25500000920E-02 0. -1.
       -2   -1    0    0    0  501  0.00000000000E+00  0.00000000000E+00 -0.61869601361E+03  0.61869601361E+03  0.25500000920E-02 0.  1.
    10030    2    1    2    0    0  0.00000000000E+00  0.00000000000E+00  0.11462061556E+04  0.23835981828E+04  0.20899166840E+04 0.  0.
        5    1    3    3  502    0 -0.17872378701E+03 -0.13016816352E+03 -0.59169984727E+03  0.63167772012E+03  0.46999998093E+01 0.  1.
       -5    1    3    3    0  502  0.17872378701E+03  0.13016816352E+03  0.17379060029E+04  0.17519204627E+04  0.46999998093E+01 0. -1.
</event>
<event>
 5   0  0.1466480E-05  0.2094135E+04  0.7818609E-02  0.8563831E-01
        1   -1    0    0  501    0  0.00000000000E+00  0.00000000000E+00  0.13837447278E+04  0.13837447278E+04  0.50400001928E-02 0. -1.
       -1   -1    0    0    0  501  0.00000000000E+00  0.00000000000E+00 -0.79230713518E+03  0.79230713519E+03  0.50400001928E-02 0.  1.
    10030    2    1    2    0    0  0.00000000000E+00  0.00000000000E+00  0.59143759258E+03  0.21760518630E+04  0.20941354503E+04 0.  0.
        3    1    3    3  502    0 -0.82994674409E+03  0.58774453907E+03  0.36781397453E+02  0.10176483295E+04  0.10100000352E+00 0.  1.
       -3    1    3    3    0  502  0.82994674409E+03 -0.58774453907E+03  0.55465619512E+03  0.11584035334E+04  0.10100000352E+00 0. -1.
</event>
<event>
 5   0  0.1453430E-05  0.2112979E+04  0.7818609E-02  0.8555547E-01
        1   -1    0    0  501    0  0.00000000000E+00  0.00000000000E+00  0.87866802942E+03  0.87866802943E+03  0.50400001928E-02 0.  1.
       -1   -1    0    0    0  501  0.00000000000E+00  0.00000000000E+00 -0.12702978120E+04  0.12702978120E+04  0.50400001928E-02 0. -1.
    10030    2    1    2    0    0  0.00000000000E+00  0.00000000000E+00 -0.39162978254E+03  0.21489658414E+04  0.21129790110E+04 0.  0.
        5    1    3    3  502    0 -0.80288267233E+03 -0.20789751583E+03  0.46978220685E+03  0.95318380939E+03  0.46999998093E+01 0.  1.
       -5    1    3    3    0  502  0.80288267233E+03  0.20789751583E+03 -0.86141198939E+03  0.11957820320E+04  0.46999998093E+01 0. -1.
</event>
<event>
 5   0  0.3279789E-05  0.2101609E+04  0.7818609E-02  0.8560535E-01
       -2   -1    0    0    0  501  0.00000000000E+00  0.00000000000E+00  0.62666917288E+03  0.62666917288E+03  0.25500000920E-02 0. -1.
        2   -1    0    0  501    0  0.00000000000E+00  0.00000000000E+00 -0.17619986562E+04  0.17619986562E+04  0.25500000920E-02 0.  1.
    10030    2    1    2    0    0  0.00000000000E+00  0.00000000000E+00 -0.11353294834E+04  0.23886678291E+04  0.21016091364E+04 0.  0.
        2    1    3    3  502    0 -0.25094129769E+03  0.53661580651E+03  0.41878938645E+03  0.72547405804E+03  0.25500000920E-02 0. -1.
       -2    1    3    3    0  502  0.25094129769E+03 -0.53661580651E+03 -0.15541188698E+04  0.16631937711E+04  0.25500000920E-02 0.  1.
</event>
<event>
 5   0  0.1492552E-05  0.2099439E+04  0.7818609E-02  0.8561491E-01
       -1   -1    0    0    0  501  0.00000000000E+00  0.00000000000E+00  0.52528935078E+03  0.52528935080E+03  0.50400001928E-02 0. -1.
        1   -1    0    0  501    0  0.00000000000E+00  0.00000000000E+00 -0.20977212863E+04  0.20977212863E+04  0.50400001928E-02 0.  1.
    10030    2    1    2    0    0  0.00000000000E+00  0.00000000000E+00 -0.15724319355E+04  0.26230106371E+04  0.20994386418E+04 0.  0.
        4    1    3    3  502    0 -0.29467859764E+03 -0.37668153535E+03 -0.19536971665E+04  0.20113822825E+04  0.12699999809E+01 0.  1.
       -4    1    3    3    0  502  0.29467859764E+03  0.37668153535E+03  0.38126523095E+03  0.61162835465E+03  0.12699999809E+01 0. -1.
</event>
<event>
 5   0  0.3257130E-05  0.2085600E+04  0.7818609E-02  0.8567614E-01
        2   -1    0    0  501    0  0.00000000000E+00  0.00000000000E+00  0.16321142476E+04  0.16321142476E+04  0.25500000920E-02 0. -1.
       -2   -1    0    0    0  501  0.00000000000E+00  0.00000000000E+00 -0.66627165098E+03  0.66627165098E+03  0.25500000920E-02 0.  1.
    10030    2    1    2    0    0  0.00000000000E+00  0.00000000000E+00  0.96584259666E+03  0.22983858986E+04  0.20855996302E+04 0.  0.
        3    1    3    3  502    0  0.79929535538E+02 -0.92063635448E+03 -0.49565526034E+02  0.92542788991E+03  0.10100000352E+00 0.  1.
       -3    1    3    3    0  502 -0.79929535538E+02  0.92063635448E+03  0.10154081227E+04  0.13729580087E+04  0.10100000352E+00 0. -1.
</event>
<event>
 5   0  0.3108326E-05  0.2092816E+04  0.7818609E-02  0.8564415E-01
        2   -1    0    0  501    0  0.00000000000E+00  0.00000000000E+00  0.19883227622E+04  0.19883227622E+04  0.25500000920E-02 0. -1.
       -2   -1    0    0    0  501  0.00000000000E+00  0.00000000000E+00 -0.55070008164E+03  0.55070008164E+03  0.25500000920E-02 0.  1.
    10030    2    1    2    0    0  0.00000000000E+00  0.00000000000E+00  0.14376226805E+04  0.25390228438E+04  0.20928158136E+04 0.  0.
        5    1    3    3  502    0  0.67160835485E+02  0.76646771259E+03 -0.14159596168E+03  0.78233933726E+03  0.46999998093E+01 0.  1.
       -5    1    3    3    0  502 -0.67160835485E+02 -0.76646771259E+03  0.15792186422E+04  0.17566835065E+04  0.46999998093E+01 0. -1.
</event>
<event>
 5   0  0.3130517E-05  0.2105163E+04  0.7818609E-02  0.8558972E-01
        2   -1    0    0  501    0  0.00000000000E+00  0.00000000000E+00  0.11538402939E+04  0.11538402939E+04  0.25500000920E-02 0.  1.
       -2   -1    0    0    0  501  0.00000000000E+00  0.00000000000E+00 -0.96020897575E+03  0.96020897575E+03  0.25500000920E-02 0. -1.
    10030    2    1    2    0    0  0.00000000000E+00  0.00000000000E+00  0.19363131818E+03  0.21140492697E+04  0.21051629930E+04 0.  0.
        1    1    3    3  502    0 -0.76182845761E+03  0.70954046039E+03 -0.59073444604E+02  0.10427463429E+04  0.50400001928E-02 0.  1.
       -1    1    3    3    0  502  0.76182845761E+03 -0.70954046039E+03  0.25270476278E+03  0.10713029268E+04  0.50400001928E-02 0. -1.
</event>
<event>
 5   0  0.1492552E-05  0.2099404E+04  0.7818609E-02  0.8561506E-01
       -1   -1    0    0    0  501  0.00000000000E+00  0.00000000000E+00  0.90407231256E+03  0.90407231257E+03  0.50400001928E-02 0. -1.
        1   -1    0    0  501    0  0.00000000000E+00  0.00000000000E+00 -0.12187899950E+04  0.12187899950E+04  0.50400001928E-02 0.  1.
    10030    2    1    2    0    0  0.00000000000E+00  0.00000000000E+00 -0.31471768245E+03  0.21228623076E+04  0.20994040005E+04 0.  0.
        4    1    3    3  502    0  0.87609779814E+03  0.25895006117E+03 -0.68011729780E+03  0.11389309188E+04  0.12699999809E+01 0.  1.
       -4    1    3    3    0  502 -0.87609779814E+03 -0.25895006117E+03  0.36539961535E+03  0.98393138881E+03  0.12699999809E+01 0. -1.
</event>
<event>
 5   0  0.3130517E-05  0.2101124E+04  0.7818609E-02  0.8560748E-01
        2   -1    0    0  501    0  0.00000000000E+00  0.00000000000E+00  0.85926943721E+03  0.85926943722E+03  0.25500000920E-02 0.  1.
       -2   -1    0    0    0  501  0.00000000000E+00  0.00000000000E+00 -0.12844409103E+04  0.12844409103E+04  0.25500000920E-02 0. -1.
    10030    2    1    2    0    0  0.00000000000E+00  0.00000000000E+00 -0.42517147305E+03  0.21437103475E+04  0.21011242877E+04 0.  0.
        1    1    3    3  502    0  0.40566327016E+03  0.77767637699E+03  0.37735306271E+03  0.95485002490E+03  0.50400001928E-02 0.  1.
       -1    1    3    3    0  502 -0.40566327016E+03 -0.77767637699E+03 -0.80252453576E+03  0.11888603226E+04  0.50400001928E-02 0. -1.
</event>
<event>
 5   0  0.1513292E-05  0.2097050E+04  0.7818609E-02  0.8562544E-01
       -1   -1    0    0    0  501  0.00000000000E+00  0.00000000000E+00  0.10892416543E+04  0.10892416543E+04  0.50400001928E-02 0.  1.
        1   -1    0    0  501    0  0.00000000000E+00  0.00000000000E+00 -0.10093305463E+04  0.10093305463E+04  0.50400001928E-02 0. -1.
    10030    2    1    2    0    0  0.00000000000E+00  0.00000000000E+00  0.79911108043E+02  0.20985722006E+04  0.20970501892E+04 0.  0.
        1    1    3    3  502    0 -0.66695063332E+03 -0.54121856888E+03  0.64177725527E+03  0.10722027476E+04  0.50400001928E-02 0.  1.
       -1    1    3    3    0  502  0.66695063332E+03  0.54121856888E+03 -0.56186614723E+03  0.10263694530E+04  0.50400001928E-02 0. -1.
</event>
<event>
 5   0  0.3242231E-05  0.2098675E+04  0.7818609E-02  0.8561827E-01
       -2   -1    0    0    0  501  0.00000000000E+00  0.00000000000E+00  0.12100757765E+04  0.12100757765E+04  0.25500000920E-02 0. -1.
        2   -1    0    0  501    0  0.00000000000E+00  0.00000000000E+00 -0.90995095598E+03  0.90995095599E+03  0.25500000920E-02 0.  1.
    10030    2    1    2    0    0  0.00000000000E+00  0.00000000000E+00  0.30012482053E+03  0.21200267325E+04  0.20986754010E+04 0.  0.
        4    1    3    3  502    0  0.26168642303E+03 -0.33708185729E+03 -0.81833757474E+03  0.92292034415E+03  0.12699999809E+01 0.  1.
       -4    1    3    3    0  502 -0.26168642303E+03  0.33708185729E+03  0.11184623953E+04  0.11971063884E+04  0.12699999809E+01 0. -1.
</event>
<event>
 5   0  0.1513292E-05  0.2143118E+04  0.7818609E-02  0.8542484E-01
       -1   -1    0    0    0  501  0.00000000000E+00  0.00000000000E+00  0.87716900858E+03  0.87716900859E+03  0.50400001928E-02 0. -1.
        1   -1    0    0  501    0  0.00000000000E+00  0.00000000000E+00 -0.13090278260E+04  0.13090278261E+04  0.50400001928E-02 0.  1.
    10030    2    1    2    0    0  0.00000000000E+00  0.00000000000E+00 -0.43185881747E+03  0.21861968346E+04  0.21431179533E+04 0.  0.
        1    1    3    3  502    0  0.37303843515E+03 -0.29007060440E+03  0.76514053301E+03  0.89929898528E+03  0.50400001928E-02 0. -1.
       -1    1    3    3    0  502 -0.37303843515E+03  0.29007060440E+03 -0.11969993505E+04  0.12868978494E+04  0.50400001928E-02 0.  1.
</event>
<event>
 5   0  0.3108326E-05  0.2072386E+04  0.7818609E-02  0.8573506E-01
       -2   -1    0    0    0  501  0.00000000000E+00  0.00000000000E+00  0.56133505115E+03  0.56133505116E+03  0.25500000920E-02 0.  1.
        2   -1    0    0  501    0  0.00000000000E+00  0.00000000000E+00 -0.19127542944E+04  0.19127542944E+04  0.25500000920E-02 0. -1.
    10030    2    1    2    0    0  0.00000000000E+00  0.00000000000E+00 -0.13514192432E+04  0.24740893456E+04  0.20723860931E+04 0.  0.
        5    1    3    3  502    0 -0.48119030356E+03  0.80198423031E+03 -0.14321170827E+03  0.94617889286E+03  0.46999998093E+01 0.  1.
       -5    1    3    3    0  502  0.48119030356E+03 -0.80198423031E+03 -0.12082075350E+04  0.15279104527E+04  0.46999998093E+01 0. -1.
</event>
<event>
 5   0  0.3108326E-05  0.2088927E+04  0.7818609E-02  0.8566137E-01
       -2   -1    0    0    0  501  0.00000000000E+00  0.00000000000E+00  0.53983011349E+03  0.53983011350E+03  0.25500000920E-02 0.  1.
        2   -1    0    0  501    0  0.00000000000E+00  0.00000000000E+00 -0.20208292937E+04  0.20208292937E+04  0.25500000920E-02 0. -1.
    10030    2    1    2    0    0  0.00000000000E+00  0.00000000000E+00 -0.14809991802E+04  0.25606594072E+04  0.20889274827E+04 0.  0.
        5    1    3    3  502    0 -0.54495293977E+03 -0.78013378957E+03 -0.12681741303E+04  0.15855188901E+04  0.46999998093E+01 0. -1.
       -5    1    3    3    0  502  0.54495293977E+03  0.78013378957E+03 -0.21282504993E+03  0.97514051709E+03  0.46999998093E+01 0.  1.
</event>
<event>
 5   0  0.3279789E-05  0.2104516E+04  0.7818609E-02  0.8559257E-01
        2   -1    0    0  501    0  0.00000000000E+00  0.00000000000E+00  0.96681907248E+03  0.96681907249E+03  0.25500000920E-02 0. -1.
       -2   -1    0    0    0  501  0.00000000000E+00  0.00000000000E+00 -0.11452475555E+04  0.11452475555E+04  0.25500000920E-02 0.  1.
    10030    2    1    2    0    0  0.00000000000E+00  0.00000000000E+00 -0.17842848300E+03  0.21120666280E+04  0.21045162669E+04 0.  0.
        2    1    3    3  502    0  0.93204405637E+03  0.16239482412E+03  0.37305635378E+03  0.10169804546E+04  0.25500000920E-02 0. -1.
       -2    1    3    3    0  502 -0.93204405637E+03 -0.16239482412E+03 -0.55148483678E+03  0.10950861734E+04  0.25500000920E-02 0.  1.
</event>
<event>
 5   0  0.3279789E-05  0.2092199E+04  0.7818609E-02  0.8564687E-01
       -2   -1    0    0    0  501  0.00000000000E+00  0.00000000000E+00  0.89667824844E+03  0.89667824844E+03  0.25500000920E-02 0.  1.
        2   -1    0    0  501    0  0.00000000000E+00  0.00000000000E+00 -0.12204203274E+04  0.12204203274E+04  0.25500000920E-02 0. -1.
    10030    2    1    2    0    0  0.00000000000E+00  0.00000000000E+00 -0.32374207897E+03  0.21170985759E+04  0.20921991889E+04 0.  0.
        2    1    3    3  502    0  0.28059715112E+03 -0.84325001627E+03 -0.72027084131E+03  0.11439385630E+04  0.25500000920E-02 0. -1.
       -2    1    3    3    0  502 -0.28059715112E+03  0.84325001627E+03  0.39652876234E+03  0.97316001281E+03  0.25500000920E-02 0.  1.
</event>
<event>
 5   0  0.3130517E-05  0.2095867E+04  0.7818609E-02  0.8563066E-01
       -2   -1    0    0    0  501  0.00000000000E+00  0.00000000000E+00  0.95810008821E+03  0.95810008821E+03  0.25500000920E-02 0.  1.
        2   -1    0    0  501    0  0.00000000000E+00  0.00000000000E+00 -0.11461902761E+04  0.11461902761E+04  0.25500000920E-02 0. -1.
    10030    2    1    2    0    0  0.00000000000E+00  0.00000000000E+00 -0.18809018788E+03  0.21042903643E+04  0.20958673666E+04 0.  0.
        1    1    3    3  502    0  0.28409062520E+03 -0.79770403211E+03 -0.71388002083E+03  0.11075485950E+04  0.50400001928E-02 0. -1.
       -1    1    3    3    0  502 -0.28409062520E+03  0.79770403211E+03  0.52578983295E+03  0.99674176928E+03  0.50400001928E-02 0.  1.
</event>
<event>
 5   0  0.1453430E-05  0.2105023E+04  0.7818609E-02  0.8559034E-01
        1   -1    0    0  501    0  0.00000000000E+00  0.00000000000E+00  0.11760545166E+04  0.11760545166E+04  0.50400001928E-02 0. -1.
       -1   -1    0    0    0  501  0.00000000000E+00  0.00000000000E+00 -0.94194660921E+03  0.94194660923E+03  0.50400001928E-02 0.  1.
    10030    2    1    2    0    0  0.00000000000E+00  0.00000000000E+00  0.23410790735E+03  0.21180011258E+04  0.21050231012E+04 0.  0.
        5    1    3    3  502    0 -0.51340911149E+02 -0.15378976850E+03  0.11634035668E+04  0.11746561758E+04  0.46999998093E+01 0. -1.
       -5    1    3    3    0  502  0.51340911149E+02  0.15378976850E+03 -0.92929565945E+03  0.94334495002E+03  0.46999998093E+01 0.  1.
</event>
<event>
 5   0  0.1466480E-05  0.2111729E+04  0.7818609E-02  0.8556094E-01
        1   -1    0    0  501    0  0.00000000000E+00  0.00000000000E+00  0.11572661130E+04  0.11572661130E+04  0.50400001928E-02 0. -1.
       -1   -1    0    0    0  501  0.00000000000E+00  0.00000000000E+00 -0.96334817534E+03  0.96334817535E+03  0.50400001928E-02 0.  1.
    10030    2    1    2    0    0  0.00000000000E+00  0.00000000000E+00  0.19391793764E+03  0.21206142883E+04  0.21117293372E+04 0.  0.
        3    1    3    3  502    0  0.38285351378E+03 -0.77177411067E+03  0.70996825953E+03  0.11163633059E+04  0.10100000352E+00 0. -1.
       -3    1    3    3    0  502 -0.38285351378E+03  0.77177411067E+03 -0.51605032188E+03  0.10042509825E+04  0.10100000352E+00 0.  1.
</event>
<event>
 5   0  0.3257130E-05  0.2109329E+04  0.7818609E-02  0.8557145E-01
       -2   -1    0    0    0  501  0.00000000000E+00  0.00000000000E+00  0.10546130613E+04  0.10546130613E+04  0.25500000920E-02 0.  1.
        2   -1    0    0  501    0  0.00000000000E+00  0.00000000000E+00 -0.10547156907E+04  0.10547156907E+04  0.25500000920E-02 0. -1.
    10030    2    1    2    0    0  0.00000000000E+00  0.00000000000E+00 -0.10262933658E+00  0.21093287520E+04  0.21093287495E+04 0.  0.
        3    1    3    3  502    0 -0.83607034426E+02  0.53279233487E+03  0.90629250906E+03  0.10546202779E+04  0.10100000352E+00 0.  1.
       -3    1    3    3    0  502  0.83607034426E+02 -0.53279233487E+03 -0.90639513839E+03  0.10547084741E+04  0.10100000352E+00 0. -1.
</event>
<event>
 5   0  0.1513292E-05  0.2096839E+04  0.7818609E-02  0.8562637E-01
       -1   -1    0    0    0  501  0.00000000000E+00  0.00000000000E+00  0.93364512337E+03  0.93364512338E+03  0.50400001928E-02 0. -1.
        1   -1    0    0  501    0  0.00000000000E+00  0.00000000000E+00 -0.11773034204E+04  0.11773034204E+04  0.50400001928E-02 0.  1.
    10030    2    1    2    0    0  0.00000000000E+00  0.00000000000E+00 -0.24365829699E+03  0.21109485438E+04  0.20968391423E+04 0.  0.
        1    1    3    3  502    0  0.15822148983E+03  0.10283520028E+04  0.80416709490E+01  0.10404838057E+04  0.50400001928E-02 0. -1.
       -1    1    3    3    0  502 -0.15822148983E+03 -0.10283520028E+04 -0.25169996794E+03  0.10704647380E+04  0.50400001928E-02 0.  1.
</event>
<event>
 5   0  0.3279789E-05  0.2102504E+04  0.7818609E-02  0.8560141E-01
       -2   -1    0    0    0  501  0.00000000000E+00  0.00000000000E+00  0.14271319221E+04  0.14271319221E+04  0.25500000920E-02 0. -1.
        2   -1    0    0  501    0  0.00000000000E+00  0.00000000000E+00 -0.77437211160E+03  0.77437211160E+03  0.25500000920E-02 0.  1.
    10030    2    1    2    0    0  0.00000000000E+00  0.00000000000E+00  0.65275981047E+03  0.22015040337E+04  0.21025043734E+04 0.  0.
        2    1    3    3  502    0 -0.36820596425E+03  0.29271483550E+03  0.13107936012E+04  0.13926368773E+04  0.25500000920E-02 0. -1.
       -2    1    3    3    0  502  0.36820596425E+03 -0.29271483550E+03 -0.65803379069E+03  0.80886715642E+03  0.25500000920E-02 0.  1.
</event>
<event>
 5   0  0.1492552E-05  0.2101508E+04  0.7818609E-02  0.8560580E-01
        1   -1    0    0  501    0  0.00000000000E+00  0.00000000000E+00  0.16211851755E+04  0.16211851755E+04  0.50400001928E-02 0.  1.
       -1   -1    0    0    0  501  0.00000000000E+00  0.00000000000E+00 -0.68103484865E+03  0.68103484867E+03  0.50400001928E-02 0. -1.
    10030    2    1    2    0    0  0.00000000000E+00  0.00000000000E+00  0.94015032686E+03  0.23022200242E+04  0.21015076499E+04 0.  0.
        4    1    3    3  502    0 -0.94791354131E+03  0.45335025693E+03  0.46576903193E+03  0.11493515308E+04  0.12699999809E+01 0. -1.
       -4    1    3    3    0  502  0.94791354131E+03 -0.45335025693E+03  0.47438129494E+03  0.11528684934E+04  0.12699999809E+01 0.  1.
</event>
<event>
 5   0  0.1513292E-05  0.2096909E+04  0.7818609E-02  0.8562606E-01
       -1   -1    0    0    0  501  0.00000000000E+00  0.00000000000E+00  0.73821601429E+03  0.73821601431E+03  0.50400001928E-02 0. -1.
        1   -1    0    0  501    0  0.00000000000E+00  0.00000000000E+00 -0.14890719832E+04  0.14890719832E+04  0.50400001928E-02 0.  1.
    10030    2    1    2    0    0  0.00000000000E+00  0.00000000000E+00 -0.75085596893E+03  0.22272879975E+04  0.20969089484E+04 0.  0.
        1    1    3    3  502    0  0.67559337366E+03  0.78509999860E+03 -0.54816931507E+03  0.11718779853E+04  0.50400001928E-02 0.  1.
       -1    1    3    3    0  502 -0.67559337366E+03 -0.78509999860E+03 -0.20268665387E+03  0.10554100123E+04  0.50400001928E-02 0. -1.
</event>
<event>
 5   0  0.1435410E-05  0.2062124E+04  0.7818609E-02  0.8578114E-01
       -1   -1    0    0    0  501  0.00000000000E+00  0.00000000000E+00  0.94364095027E+03  0.94364095029E+03  0.50400001928E-02 0.  1.
        1   -1    0    0  501    0  0.00000000000E+00  0.00000000000E+00 -0.11265820391E+04  0.11265820392E+04  0.50400001928E-02 0. -1.
    10030    2    1    2    0    0  0.00000000000E+00  0.00000000000E+00 -0.18294108887E+03  0.20702229894E+04  0.20621240952E+04 0.  0.
        2    1    3    3  502    0 -0.22363525843E+03 -0.84869007168E+03 -0.63470697806E+03  0.10831161132E+04  0.25500000920E-02 0. -1.
       -2    1    3    3    0  502  0.22363525843E+03  0.84869007168E+03  0.45176588919E+03  0.98710687629E+03  0.25500000920E-02 0.  1.
</event>
<event>
 5   0  0.1466480E-05  0.2101721E+04  0.7818609E-02  0.8560485E-01
       -1   -1    0    0    0  501  0.00000000000E+00  0.00000000000E+00  0.48300515833E+03  0.48300515836E+03  0.50400001928E-02 0. -1.
        1   -1    0    0  501    0  0.00000000000E+00  0.00000000000E+00 -0.22863279569E+04  0.22863279569E+04  0.50400001928E-02 0.  1.
    10030    2    1    2    0    0  0.00000000000E+00  0.00000000000E+00 -0.18033227986E+04  0.27693331153E+04  0.21017213867E+04 0.  0.
        3    1    3    3  502    0  0.60028230346E+03  0.78343627152E+03 -0.13771065945E+04  0.16942649787E+04  0.10100000352E+00 0.  1.
       -3    1    3    3    0  502 -0.60028230346E+03 -0.78343627152E+03 -0.42621620410E+03  0.10750681366E+04  0.10100000352E+00 0. -1.
</event>
<event>
 5   0  0.3242231E-05  0.2093615E+04  0.7818609E-02  0.8564061E-01
       -2   -1    0    0    0  501  0.00000000000E+00  0.00000000000E+00  0.14823260187E+04  0.14823260187E+04  0.25500000920E-02 0.  1.
        2   -1    0    0  501    0  0.00000000000E+00  0.00000000000E+00 -0.73924780275E+03  0.73924780275E+03  0.25500000920E-02 0. -1.
    10030    2    1    2    0    0  0.00000000000E+00  0.00000000000E+00  0.74307821590E+03  0.22215738214E+04  0.20936152963E+04 0.  0.
        4    1    3    3  502    0 -0.25053019411E+03 -0.96569367145E+03  0.70789021480E+03  0.12232905682E+04  0.12699999809E+01 0.  1.
       -4    1    3    3    0  502  0.25053019411E+03  0.96569367145E+03  0.35188001100E+02  0.99828325317E+03  0.12699999809E+01 0. -1.
</event>
<event>
 5   0  0.3242231E-05  0.2110974E+04  0.7818609E-02  0.8556424E-01
       -2   -1    0    0    0  501  0.00000000000E+00  0.00000000000E+00  0.60978122109E+03  0.60978122109E+03  0.25500000920E-02 0. -1.
        2   -1    0    0  501    0  0.00000000000E+00  0.00000000000E+00 -0.18269717654E+04  0.18269717654E+04  0.25500000920E-02 0.  1.
    10030    2    1    2    0    0  0.00000000000E+00  0.00000000000E+00 -0.12171905443E+04  0.24367529865E+04  0.21109742528E+04 0.  0.
        4    1    3    3  502    0  0.46920949668E+03 -0.69495173247E+02 -0.16970118900E+04  0.17620550782E+04  0.12699999809E+01 0.  1.
       -4    1    3    3    0  502 -0.46920949668E+03  0.69495173247E+02  0.47982134565E+03  0.67469790834E+03  0.12699999809E+01 0. -1.
</event>
<event>
 5   0  0.1435410E-05  0.2118996E+04  0.7818609E-02  0.8552921E-01
        1   -1    0    0  501    0  0.00000000000E+00  0.00000000000E+00  0.14911645397E+04  0.14911645397E+04  0.50400001928E-02 0. -1.
       -1   -1    0    0    0  501  0.00000000000E+00  0.00000000000E+00 -0.75279142514E+03  0.75279142516E+03  0.50400001928E-02 0.  1.
    10030    2    1    2    0    0  0.00000000000E+00  0.00000000000E+00  0.73837311455E+03  0.22439559649E+04  0.21189958745E+04 0.  0.
        2    1    3    3  502    0  0.89474450314E+03  0.32075124818E+03 -0.12648307813E+03  0.95887802048E+03  0.25500000920E-02 0.  1.
       -2    1    3    3    0  502 -0.89474450314E+03 -0.32075124818E+03  0.86485619268E+03  0.12850779444E+04  0.25500000920E-02 0. -1.
</event>
<event>
 5   0  0.3242231E-05  0.2094331E+04  0.7818609E-02  0.8563745E-01
        2   -1    0    0  501    0  0.00000000000E+00  0.00000000000E+00  0.11895706780E+04  0.11895706780E+04  0.25500000920E-02 0.  1.
       -2   -1    0    0    0  501  0.00000000000E+00  0.00000000000E+00 -0.92180759390E+03  0.92180759391E+03  0.25500000920E-02 0. -1.
    10030    2    1    2    0    0  0.00000000000E+00  0.00000000000E+00  0.26776308407E+03  0.21113782719E+04  0.20943307136E+04 0.  0.
        4    1    3    3  502    0  0.41362680799E+03  0.47116459703E+03 -0.71167707189E+03  0.94845615678E+03  0.12699999809E+01 0. -1.
       -4    1    3    3    0  502 -0.41362680799E+03 -0.47116459703E+03  0.97944015596E+03  0.11629221151E+04  0.12699999809E+01 0.  1.
</event>
<event>
 5   0  0.3130517E-05  0.1991580E+04  0.7818609E-02  0.8610567E-01
       -2   -1    0    0    0  501  0.00000000000E+00  0.00000000000E+00  0.97865002286E+03  0.97865002286E+03  0.25500000920E-02 0.  1.
        2   -1    0    0  501    0  0.00000000000E+00  0.00000000000E+00 -0.10132302627E+04  0.10132302627E+04  0.25500000920E-02 0. -1.
    10030    2    1    2    0    0  0.00000000000E+00  0.00000000000E+00 -0.34580239846E+02  0.19918802856E+04  0.19915800961E+04 0.  0.
        1    1    3    3  502    0  0.78843657928E+03  0.47600559360E+03 -0.39600833011E+03  0.10025149187E+04  0.50400001928E-02 0. -1.
       -1    1    3    3    0  502 -0.78843657928E+03 -0.47600559360E+03  0.36142809026E+03  0.98936536686E+03  0.50400001928E-02 0.  1.
</event>
<event>
 5   0  0.3242231E-05  0.2097184E+04  0.7818609E-02  0.8562485E-01
        2   -1    0    0  501    0  0.00000000000E+00  0.00000000000E+00  0.16027226717E+04  0.16027226717E+04  0.25500000920E-02 0.  1.
       -2   -1    0    0    0  501  0.00000000000E+00  0.00000000000E+00 -0.68604803948E+03  0.68604803948E+03  0.25500000920E-02 0. -1.
    10030    2    1    2    0    0  0.00000000000E+00  0.00000000000E+00  0.91667463225E+03  0.22887707112E+04  0.20971835845E+04 0.  0.
        4    1    3    3  502    0  0.10171330920E+04  0.25083843423E+03  0.50791277094E+03  0.11642408010E+04  0.12699999809E+01 0.  1.
       -4    1    3    3    0  502 -0.10171330920E+04 -0.25083843423E+03  0.40876186131E+03  0.11245299102E+04  0.12699999809E+01 0. -1.
</event>
<event>
 5   0  0.1453430E-05  0.2033417E+04  0.7818609E-02  0.8591154E-01
       -1   -1    0    0    0  501  0.00000000000E+00  0.00000000000E+00  0.89640419614E+03  0.89640419615E+03  0.50400001928E-02 0. -1.
        1   -1    0    0  501    0  0.00000000000E+00  0.00000000000E+00 -0.11531590642E+04  0.11531590642E+04  0.50400001928E-02 0.  1.
    10030    2    1    2    0    0  0.00000000000E+00  0.00000000000E+00 -0.25675486803E+03  0.20495632603E+04  0.20334174426E+04 0.  0.
        5    1    3    3  502    0  0.95948968550E+03 -0.19235581176E+03  0.14958996854E+03  0.98995982928E+03  0.46999998093E+01 0. -1.
       -5    1    3    3    0  502 -0.95948968550E+03  0.19235581176E+03 -0.40634483657E+03  0.10596034311E+04  0.46999998093E+01 0.  1.
</event>
<event>
 5   0  0.3108326E-05  0.2099665E+04  0.7818609E-02  0.8561391E-01
        2   -1    0    0  501    0  0.00000000000E+00  0.00000000000E+00  0.17304861866E+04  0.17304861866E+04  0.25500000920E-02 0. -1.
       -2   -1    0    0    0  501  0.00000000000E+00  0.00000000000E+00 -0.63690082925E+03  0.63690082925E+03  0.25500000920E-02 0.  1.
    10030    2    1    2    0    0  0.00000000000E+00  0.00000000000E+00  0.10935853573E+04  0.23673870158E+04  0.20996648182E+04 0.  0.
        5    1    3    3  502    0  0.84728655303E+03 -0.60933985891E+03  0.41855178902E+03  0.11244542039E+04  0.46999998093E+01 0. -1.
       -5    1    3    3    0  502 -0.84728655303E+03  0.60933985891E+03  0.67503356831E+03  0.12429328119E+04  0.46999998093E+01 0.  1.
</event>
<event>
 5   0  0.1453430E-05  0.2097041E+04  0.7818609E-02  0.8562548E-01
       -1   -1    0    0    0  501  0.00000000000E+00  0.00000000000E+00  0.62565353329E+03  0.62565353331E+03  0.50400001928E-02 0. -1.
        1   -1    0    0  501    0  0.00000000000E+00  0.00000000000E+00 -0.17571944884E+04  0.17571944884E+04  0.50400001928E-02 0.  1.
    10030    2    1    2    0    0  0.00000000000E+00  0.00000000000E+00 -0.11315409551E+04  0.23828480217E+04  0.20970407153E+04 0.  0.
        5    1    3    3  502    0  0.88020059518E+03  0.13020861357E+03  0.64502759893E+02  0.89212671007E+03  0.46999998093E+01 0. -1.
       -5    1    3    3    0  502 -0.88020059518E+03 -0.13020861357E+03 -0.11960437150E+04  0.14907213116E+04  0.46999998093E+01 0.  1.
</event>
<event>
 5   0  0.1466480E-05  0.2101363E+04  0.7818609E-02  0.8560643E-01
       -1   -1    0    0    0  501  0.00000000000E+00  0.00000000000E+00  0.57805286701E+03  0.57805286703E+03  0.50400001928E-02 0. -1.
        1   -1    0    0  501    0  0.00000000000E+00  0.00000000000E+00 -0.19097416403E+04  0.19097416403E+04  0.50400001928E-02 0.  1.
    10030    2    1    2    0    0  0.00000000000E+00  0.00000000000E+00 -0.13316887733E+04  0.24877945073E+04  0.21013630152E+04 0.  0.
        3    1    3    3  502    0  0.88639411059E+03 -0.53234649973E+02 -0.13307292552E+04  0.15998027404E+04  0.10100000352E+00 0.  1.
       -3    1    3    3    0  502 -0.88639411059E+03  0.53234649973E+02 -0.95951804241E+00  0.88799176692E+03  0.10100000352E+00 0. -1.
</event>
<event>
 5   0  0.3257130E-05  0.2087666E+04  0.7818609E-02  0.8566696E-01
       -2   -1    0    0    0  501  0.00000000000E+00  0.00000000000E+00  0.61968118257E+03  0.61968118258E+03  0.25500000920E-02 0. -1.
        2   -1    0    0  501    0  0.00000000000E+00  0.00000000000E+00 -0.17583024191E+04  0.17583024191E+04  0.25500000920E-02 0.  1.
    10030    2    1    2    0    0  0.00000000000E+00  0.00000000000E+00 -0.11386212365E+04  0.23779836017E+04  0.20876656077E+04 0.  0.
        3    1    3    3  502    0  0.24823237133E+03 -0.93681199146E+03 -0.10109836956E+04  0.14004727989E+04  0.10100000352E+00 0.  1.
       -3    1    3    3    0  502 -0.24823237133E+03  0.93681199146E+03 -0.12763754097E+03  0.97751080280E+03  0.10100000352E+00 0. -1.
</event>
<event>
 5   0  0.1513292E-05  0.2102515E+04  0.7818609E-02  0.8560136E-01
       -1   -1    0    0    0  501  0.00000000000E+00  0.00000000000E+00  0.10803843245E+04  0.10803843245E+04  0.50400001928E-02 0.  1.
        1   -1    0    0  501    0  0.00000000000E+00  0.00000000000E+00 -0.10229158950E+04  0.10229158950E+04  0.50400001928E-02 0. -1.
    10030    2    1    2    0    0  0.00000000000E+00  0.00000000000E+00  0.57468429483E+02  0.21033002195E+04  0.21025149685E+04 0.  0.
        1    1    3    3  502    0  0.68292625017E+03  0.34229149468E+03  0.75121622114E+03  0.10713904710E+04  0.50400001928E-02 0.  1.
       -1    1    3    3    0  502 -0.68292625017E+03 -0.34229149468E+03 -0.69374779166E+03  0.10319097485E+04  0.50400001928E-02 0. -1.
</event>
<event>
 5   0  0.1492552E-05  0.2103670E+04  0.7818609E-02  0.8559628E-01
        1   -1    0    0  501    0  0.00000000000E+00  0.00000000000E+00  0.16675764245E+04  0.16675764245E+04  0.50400001928E-02 0. -1.
       -1   -1    0    0    0  501  0.00000000000E+00  0.00000000000E+00 -0.66345211233E+03  0.66345211235E+03  0.50400001928E-02 0.  1.
    10030    2    1    2    0    0  0.00000000000E+00  0.00000000000E+00  0.10041243121E+04  0.23310285368E+04  0.21036702226E+04 0.  0.
        4    1    3    3  502    0 -0.55268957310E+03 -0.89472749020E+03  0.48125972642E+03  0.11565533205E+04  0.12699999809E+01 0.  1.
       -4    1    3    3    0  502  0.55268957310E+03  0.89472749020E+03  0.52286458571E+03  0.11744752164E+04  0.12699999809E+01 0. -1.
</event>
<event>
 5   0  0.1453430E-05  0.2098888E+04  0.7818609E-02  0.8561733E-01
       -1   -1    0    0    0  501  0.00000000000E+00  0.00000000000E+00  0.13488278257E+04  0.13488278257E+04  0.50400001928E-02 0.  1.
        1   -1    0    0  501    0  0.00000000000E+00  0.00000000000E+00 -0.81651101230E+03  0.81651101231E+03  0.50400001928E-02 0. -1.
    10030    2    1    2    0    0  0.00000000000E+00  0.00000000000E+00  0.53231681341E+03  0.21653388380E+04  0.20988880612E+04 0.  0.
        5    1    3    3  502    0  0.66840626549E+03  0.30621946102E+03  0.10387149704E+04  0.12725911259E+04  0.46999998093E+01 0.  1.
       -5    1    3    3    0  502 -0.66840626549E+03 -0.30621946102E+03 -0.50639815700E+03  0.89274771210E+03  0.46999998093E+01 0. -1.
</event>
<event>
 5   0  0.1492552E-05  0.2117545E+04  0.7818609E-02  0.8553554E-01
        1   -1    0    0  501    0  0.00000000000E+00  0.00000000000E+00  0.21383392361E+04  0.21383392361E+04  0.50400001928E-02 0.  1.
       -1   -1    0    0    0  501  0.00000000000E+00  0.00000000000E+00 -0.52423844935E+03  0.52423844937E+03  0.50400001928E-02 0. -1.
    10030    2    1    2    0    0  0.00000000000E+00  0.00000000000E+00  0.16141007868E+04  0.26625776855E+04  0.21175454143E+04 0.  0.
        4    1    3    3  502    0 -0.44708459407E+03 -0.12868996139E+03  0.20029270646E+04  0.20562500285E+04  0.12699999809E+01 0.  1.
       -4    1    3    3    0  502  0.44708459407E+03  0.12868996139E+03 -0.38882627787E+03  0.60632765703E+03  0.12699999809E+01 0. -1.
</event>
<event>
 5   0  0.1513292E-05  0.2101771E+04  0.7818609E-02  0.8560463E-01
       -1   -1    0    0    0  501  0.00000000000E+00  0.00000000000E+00  0.14002920268E+04  0.14002920269E+04  0.50400001928E-02 0.  1.
        1   -1    0    0  501    0  0.00000000000E+00  0.00000000000E+00 -0.78866453869E+03  0.78866453871E+03  0.50400001928E-02 0. -1.
    10030    2    1    2    0    0  0.00000000000E+00  0.00000000000E+00  0.61162748815E+03  0.21889565656E+04  0.21017713153E+04 0.  0.
        1    1    3    3  502    0  0.18552531228E+03  0.10245446059E+04  0.15761057560E+03  0.10530680816E+04  0.50400001928E-02 0. -1.
       -1    1    3    3    0  502 -0.18552531228E+03 -0.10245446059E+04  0.45401691255E+03  0.11358884839E+04  0.50400001928E-02 0.  1.
</event>
<event>
 5   0  0.3242231E-05  0.2107454E+04  0.7818609E-02  0.8557967E-01
        2   -1    0    0  501    0  0.00000000000E+00  0.00000000000E+00  0.14596534938E+04  0.14596534938E+04  0.25500000920E-02 0. -1.
       -2   -1    0    0    0  501  0.00000000000E+00  0.00000000000E+00 -0.76068806574E+03  0.76068806574E+03  0.25500000920E-02 0.  1.
    10030    2    1    2    0    0  0.00000000000E+00  0.00000000000E+00  0.69896542803E+03  0.22203415595E+04  0.21074543818E+04 0.  0.
        4    1    3    3  502    0 -0.57629471743E+03  0.11601465783E+03  0.12708343910E+04  0.14002130782E+04  0.12699999809E+01 0. -1.
       -4    1    3    3    0  502  0.57629471743E+03 -0.11601465783E+03 -0.57186896295E+03  0.82012848131E+03  0.12699999809E+01 0.  1.
</event>
<event>
 5   0  0.1492552E-05  0.2122640E+04  0.7818609E-02  0.8551336E-01
       -1   -1    0    0    0  501  0.00000000000E+00  0.00000000000E+00  0.27232807360E+04  0.27232807360E+04  0.50400001928E-02 0. -1.
        1   -1    0    0  501    0  0.00000000000E+00  0.00000000000E+00 -0.41361862034E+03  0.41361862037E+03  0.50400001928E-02 0.  1.
    10030    2    1    2    0    0  0.00000000000E+00  0.00000000000E+00  0.23096621156E+04  0.31368993563E+04  0.21226395086E+04 0.  0.
        4    1    3    3  502    0  0.61809755202E+02  0.89044392450E+03  0.20033770199E+04  0.21932240937E+04  0.12699999809E+01 0. -1.
       -4    1    3    3    0  502 -0.61809755202E+02 -0.89044392450E+03  0.30628509572E+03  0.94367526262E+03  0.12699999809E+01 0.  1.
</event>
<event>
 5   0  0.1513292E-05  0.2089487E+04  0.7818609E-02  0.8565889E-01
        1   -1    0    0  501    0  0.00000000000E+00  0.00000000000E+00  0.12326760872E+04  0.12326760872E+04  0.50400001928E-02 0.  1.
       -1   -1    0    0    0  501  0.00000000000E+00  0.00000000000E+00 -0.88546308969E+03  0.88546308970E+03  0.50400001928E-02 0. -1.
    10030    2    1    2    0    0  0.00000000000E+00  0.00000000000E+00  0.34721299750E+03  0.21181391769E+04  0.20894871876E+04 0.  0.
        1    1    3    3  502    0 -0.66776023665E+03  0.81707606580E+01  0.98806542664E+03  0.11925786273E+04  0.50400001928E-02 0.  1.
       -1    1    3    3    0  502  0.66776023665E+03 -0.81707606580E+01 -0.64085242914E+03  0.92556054958E+03  0.50400001928E-02 0. -1.
</event>
<event>
 5   0  0.1466480E-05  0.2150634E+04  0.7818609E-02  0.8539261E-01
       -1   -1    0    0    0  501  0.00000000000E+00  0.00000000000E+00  0.58273718752E+03  0.58273718754E+03  0.50400001928E-02 0. -1.
        1   -1    0    0  501    0  0.00000000000E+00  0.00000000000E+00 -0.19842676684E+04  0.19842676684E+04  0.50400001928E-02 0.  1.
    10030    2    1    2    0    0  0.00000000000E+00  0.00000000000E+00 -0.14015304808E+04  0.25670048559E+04  0.21506339162E+04 0.  0.
        3    1    3    3  502    0 -0.10139932273E+04 -0.14566669505E+03 -0.10910307960E+04  0.14965791857E+04  0.10100000352E+00 0.  1.
       -3    1    3    3    0  502  0.10139932273E+04  0.14566669505E+03 -0.31049968483E+03  0.10704256702E+04  0.10100000352E+00 0. -1.
</event>
<event>
 5   0  0.1466480E-05  0.2125280E+04  0.7818609E-02  0.8550188E-01
        1   -1    0    0  501    0  0.00000000000E+00  0.00000000000E+00  0.16112537992E+04  0.16112537992E+04  0.50400001928E-02 0. -1.
       -1   -1    0    0    0  501  0.00000000000E+00  0.00000000000E+00 -0.70082319480E+03  0.70082319482E+03  0.50400001928E-02 0.  1.
    10030    2    1    2    0    0  0.00000000000E+00  0.00000000000E+00  0.91043060444E+03  0.23120769941E+04  0.21252802500E+04 0.  0.
        3    1    3    3  502    0  0.65960479474E+03  0.11398447914E+03 -0.44263115191E+03  0.80249192742E+03  0.10100000352E+00 0.  1.
       -3    1    3    3    0  502 -0.65960479474E+03 -0.11398447914E+03  0.13530617564E+04  0.15095850666E+04  0.10100000352E+00 0. -1.
</event>
<event>
 5   0  0.3242231E-05  0.2098714E+04  0.7818609E-02  0.8561810E-01
       -2   -1    0    0    0  501  0.00000000000E+00  0.00000000000E+00  0.72832359698E+03  0.72832359698E+03  0.25500000920E-02 0.  1.
        2   -1    0    0  501    0  0.00000000000E+00  0.00000000000E+00 -0.15118969300E+04  0.15118969300E+04  0.25500000920E-02 0. -1.
    10030    2    1    2    0    0  0.00000000000E+00  0.00000000000E+00 -0.78357333305E+03  0.22402205270E+04  0.20987140923E+04 0.  0.
        4    1    3    3  502    0  0.72985482643E+03 -0.68133605681E+03 -0.47152562436E+02  0.99956583926E+03  0.12699999809E+01 0.  1.
       -4    1    3    3    0  502 -0.72985482643E+03  0.68133605681E+03 -0.73642077062E+03  0.12406546878E+04  0.12699999809E+01 0. -1.
</event>
<event>
 5   0  0.1435410E-05  0.2113412E+04  0.7818609E-02  0.8555358E-01
        1   -1    0    0  501    0  0.00000000000E+00  0.00000000000E+00  0.87767135318E+03  0.87767135320E+03  0.50400001928E-02 0. -1.
       -1   -1    0    0    0  501  0.00000000000E+00  0.00000000000E+00 -0.12722610828E+04  0.12722610828E+04  0.50400001928E-02 0.  1.
    10030    2    1    2    0    0  0.00000000000E+00  0.00000000000E+00 -0.39458972960E+03  0.21499324360E+04  0.21134115606E+04 0.  0.
        2    1    3    3  502    0 -0.35252979330E+03 -0.21565482703E+03 -0.11866454728E+04  0.12565475469E+04  0.25500000920E-02 0.  1.
       -2    1    3    3    0  502  0.35252979330E+03  0.21565482703E+03  0.79205574322E+03  0.89338488904E+03  0.25500000920E-02 0. -1.
</event>
<event>
 5   0  0.1492552E-05  0.2099420E+04  0.7818609E-02  0.8561499E-01
        1   -1    0    0  501    0  0.00000000000E+00  0.00000000000E+00  0.16966110054E+04  0.16966110055E+04  0.50400001928E-02 0. -1.
       -1   -1    0    0    0  501  0.00000000000E+00  0.00000000000E+00 -0.64946602706E+03  0.64946602708E+03  0.50400001928E-02 0.  1.
    10030    2    1    2    0    0  0.00000000000E+00  0.00000000000E+00  0.10471449784E+04  0.23460770325E+04  0.20994201192E+04 0.  0.
        4    1    3    3  502    0 -0.59790939802E+03 -0.24320277293E+03  0.14486247768E+04  0.15859251540E+04  0.12699999809E+01 0. -1.
       -4    1    3    3    0  502  0.59790939802E+03  0.24320277293E+03 -0.40147979846E+03  0.76015187856E+03  0.12699999809E+01 0.  1.
</event>
<event>
 5   0  0.3242231E-05  0.2104749E+04  0.7818609E-02  0.8559154E-01
       -2   -1    0    0    0  501  0.00000000000E+00  0.00000000000E+00  0.13393451428E+04  0.13393451428E+04  0.25500000920E-02 0.  1.
        2   -1    0    0  501    0  0.00000000000E+00  0.00000000000E+00 -0.82689068949E+03  0.82689068950E+03  0.25500000920E-02 0. -1.
    10030    2    1    2    0    0  0.00000000000E+00  0.00000000000E+00  0.51245445332E+03  0.21662358323E+04  0.21047489433E+04 0.  0.
        4    1    3    3  502    0 -0.99820883978E+03 -0.30885545505E+03  0.38509623621E+03  0.11136037464E+04  0.12699999809E+01 0.  1.
       -4    1    3    3    0  502  0.99820883978E+03  0.30885545505E+03  0.12735821711E+03  0.10526320859E+04  0.12699999809E+01 0. -1.
</event>
<event>
 5   0  0.3108326E-05  0.2110117E+04  0.7818609E-02  0.8556800E-01
        2   -1    0    0  501    0  0.00000000000E+00  0.00000000000E+00  0.13481448358E+04  0.13481448358E+04  0.25500000920E-02 0. -1.
       -2   -1    0    0    0  501  0.00000000000E+00  0.00000000000E+00 -0.82568881229E+03  0.82568881229E+03  0.25500000920E-02 0.  1.
    10030    2    1    2    0    0  0.00000000000E+00  0.00000000000E+00  0.52245602354E+03  0.21738336481E+04  0.21101166871E+04 0.  0.
        5    1    3    3  502    0 -0.47808040776E+03 -0.93844758797E+03  0.32540902589E+03  0.11023419958E+04  0.46999998093E+01 0.  1.
       -5    1    3    3    0  502  0.47808040776E+03  0.93844758797E+03  0.19704699765E+03  0.10714916523E+04  0.46999998093E+01 0. -1.
</event>
<event>
 5   0  0.1492552E-05  0.2098394E+04  0.7818609E-02  0.8561951E-01
       -1   -1    0    0    0  501  0.00000000000E+00  0.00000000000E+00  0.14748689754E+04  0.14748689754E+04  0.50400001928E-02 0.  1.
        1   -1    0    0  501    0  0.00000000000E+00  0.00000000000E+00 -0.74638092598E+03  0.74638092600E+03  0.50400001928E-02 0. -1.
    10030    2    1    2    0    0  0.00000000000E+00  0.00000000000E+00  0.72848804945E+03  0.22212499014E+04  0.20983937396E+04 0.  0.
        4    1    3    3  502    0  0.13622317880E+03 -0.52926046072E+03  0.13123028262E+04  0.14215532738E+04  0.12699999809E+01 0.  1.
       -4    1    3    3    0  502 -0.13622317880E+03  0.52926046072E+03 -0.58381477677E+03  0.79969662761E+03  0.12699999809E+01 0. -1.
</event>
<event>
 5   0  0.3242231E-05  0.2094348E+04  0.7818609E-02  0.8563737E-01
        2   -1    0    0  501    0  0.00000000000E+00  0.00000000000E+00  0.17888215033E+04  0.17888215033E+04  0.25500000920E-02 0.  1.
       -2   -1    0    0    0  501  0.00000000000E+00  0.00000000000E+00 -0.61301438987E+03  0.61301438987E+03  0.25500000920E-02 0. -1.
    10030    2    1    2    0    0  0.00000000000E+00  0.00000000000E+00  0.11758071135E+04  0.24018358932E+04  0.20943479390E+04 0.  0.
        4    1    3    3  502    0 -0.72041852391E+03  0.75390476501E+03  0.69788134054E+03  0.12547570373E+04  0.12699999809E+01 0. -1.
       -4    1    3    3    0  502  0.72041852391E+03 -0.75390476501E+03  0.47792577292E+03  0.11470788559E+04  0.12699999809E+01 0.  1.
</event>
<event>
 5   0  0.3257130E-05  0.1965879E+04  0.7818609E-02  0.8622742E-01
        2   -1    0    0  501    0  0.00000000000E+00  0.00000000000E+00  0.99275111743E+03  0.99275111744E+03  0.25500000920E-02 0. -1.
       -2   -1    0    0    0  501  0.00000000000E+00  0.00000000000E+00 -0.97322465283E+03  0.97322465283E+03  0.25500000920E-02 0.  1.
    10030    2    1    2    0    0  0.00000000000E+00  0.00000000000E+00  0.19526464606E+02  0.19659757703E+04  0.19658787975E+04 0.  0.
        3    1    3    3  502    0  0.47911931257E+03 -0.63523400409E+02 -0.84618746043E+03  0.97448641164E+03  0.10100000352E+00 0.  1.
       -3    1    3    3    0  502 -0.47911931257E+03  0.63523400409E+02  0.86571392504E+03  0.99148935863E+03  0.10100000352E+00 0. -1.
</event>
<event>
 5   0  0.1453430E-05  0.2084988E+04  0.7818609E-02  0.8567885E-01
       -1   -1    0    0    0  501  0.00000000000E+00  0.00000000000E+00  0.14200952986E+04  0.14200952986E+04  0.50400001928E-02 0. -1.
        1   -1    0    0  501    0  0.00000000000E+00  0.00000000000E+00 -0.76529614965E+03  0.76529614967E+03  0.50400001928E-02 0.  1.
    10030    2    1    2    0    0  0.00000000000E+00  0.00000000000E+00  0.65479914893E+03  0.21853914483E+04  0.20849877354E+04 0.  0.
        5    1    3    3  502    0  0.65159556467E+03 -0.10865755846E+03  0.11727018491E+04  0.13459698964E+04  0.46999998093E+01 0. -1.
       -5    1    3    3    0  502 -0.65159556467E+03  0.10865755846E+03 -0.51790270022E+03  0.83942155190E+03  0.46999998093E+01 0.  1.
</event>
<event>
 5   0  0.3279789E-05  0.2076540E+04  0.7818609E-02  0.8571649E-01
       -2   -1    0    0    0  501  0.00000000000E+00  0.00000000000E+00  0.91101077137E+03  0.91101077137E+03  0.25500000920E-02 0. -1.
        2   -1    0    0  501    0  0.00000000000E+00  0.00000000000E+00 -0.11833060677E+04  0.11833060677E+04  0.25500000920E-02 0.  1.
    10030    2    1    2    0    0  0.00000000000E+00  0.00000000000E+00 -0.27229529630E+03  0.20943168391E+04  0.20765399813E+04 0.  0.
        2    1    3    3  502    0  0.19520442448E+03 -0.19024170568E+02  0.89215806432E+03  0.91346193032E+03  0.25500000920E-02 0. -1.
       -2    1    3    3    0  502 -0.19520442448E+03  0.19024170568E+02 -0.11644533606E+04  0.11808549087E+04  0.25500000920E-02 0.  1.
</event>
<event>
 5   0  0.1453430E-05  0.2072627E+04  0.7818609E-02  0.8573398E-01
        1   -1    0    0  501    0  0.00000000000E+00  0.00000000000E+00  0.22259075873E+04  0.22259075873E+04  0.50400001928E-02 0.  1.
       -1   -1    0    0    0  501  0.00000000000E+00  0.00000000000E+00 -0.48247542961E+03  0.48247542964E+03  0.50400001928E-02 0. -1.
    10030    2    1    2    0    0  0.00000000000E+00  0.00000000000E+00  0.17434321577E+04  0.27083830170E+04  0.20726270475E+04 0.  0.
        5    1    3    3  502    0  0.20606287460E+03 -0.19071351933E+02 -0.45518605887E+03  0.50004206117E+03  0.46999998093E+01 0. -1.
       -5    1    3    3    0  502 -0.20606287460E+03  0.19071351933E+02  0.21986182166E+04  0.22083409558E+04  0.46999998093E+01 0.  1.
</event>
<event>
 5   0  0.3279789E-05  0.2098650E+04  0.7818609E-02  0.8561838E-01
        2   -1    0    0  501    0  0.00000000000E+00  0.00000000000E+00  0.21039686053E+04  0.21039686053E+04  0.25500000920E-02 0. -1.
       -2   -1    0    0    0  501  0.00000000000E+00  0.00000000000E+00 -0.52333615777E+03  0.52333615778E+03  0.25500000920E-02 0.  1.
    10030    2    1    2    0    0  0.00000000000E+00  0.00000000000E+00  0.15806324475E+04  0.26273047630E+04  0.20986498955E+04 0.  0.
        2    1    3    3  502    0 -0.50512361107E+03 -0.17616879104E+03  0.19204294629E+04  0.19935482506E+04  0.25500000920E-02 0. -1.
       -2    1    3    3    0  502  0.50512361107E+03  0.17616879104E+03 -0.33979701541E+03  0.63375651246E+03  0.25500000920E-02 0.  1.
</event>
<event>
 5   0  0.1466480E-05  0.2106079E+04  0.7818609E-02  0.8558570E-01
        1   -1    0    0  501    0  0.00000000000E+00  0.00000000000E+00  0.18057336950E+04  0.18057336950E+04  0.50400001928E-02 0. -1.
       -1   -1    0    0    0  501  0.00000000000E+00  0.00000000000E+00 -0.61409527694E+03  0.61409527696E+03  0.50400001928E-02 0.  1.
    10030    2    1    2    0    0  0.00000000000E+00  0.00000000000E+00  0.11916384181E+04  0.24198289720E+04  0.21060793276E+04 0.  0.
        3    1    3    3  502    0  0.10282711180E+04  0.19996515322E+03  0.47225799178E+03  0.11490670893E+04  0.10100000352E+00 0. -1.
       -3    1    3    3    0  502 -0.10282711180E+04 -0.19996515322E+03  0.71938042633E+03  0.12707618827E+04  0.10100000352E+00 0.  1.
</event>
<event>
 5   0  0.3257130E-05  0.2100951E+04  0.7818609E-02  0.8560825E-01
       -2   -1    0    0    0  501  0.00000000000E+00  0.00000000000E+00  0.40906194597E+03  0.40906194598E+03  0.25500000920E-02 0. -1.
        2   -1    0    0  501    0  0.00000000000E+00  0.00000000000E+00 -0.26976315951E+04  0.26976315951E+04  0.25500000920E-02 0.  1.
    10030    2    1    2    0    0  0.00000000000E+00  0.00000000000E+00 -0.22885696491E+04  0.31066935411E+04  0.21009506703E+04 0.  0.
        3    1    3    3  502    0 -0.49339483581E+03  0.69700269817E+03 -0.23967388442E+03  0.88695817620E+03  0.10100000352E+00 0. -1.
       -3    1    3    3    0  502  0.49339483581E+03 -0.69700269817E+03 -0.20488957647E+04  0.22197353649E+04  0.10100000352E+00 0.  1.
</event>
<event>
 5   0  0.1492552E-05  0.2117092E+04  0.7818609E-02  0.8553751E-01
       -1   -1    0    0    0  501  0.00000000000E+00  0.00000000000E+00  0.11563680410E+04  0.11563680410E+04  0.50400001928E-02 0.  1.
        1   -1    0    0  501    0  0.00000000000E+00  0.00000000000E+00 -0.96899928912E+03  0.96899928913E+03  0.50400001928E-02 0. -1.
    10030    2    1    2    0    0  0.00000000000E+00  0.00000000000E+00  0.18736875184E+03  0.21253673301E+04  0.21170921659E+04 0.  0.
        4    1    3    3  502    0 -0.10507331963E+04 -0.71301761304E+02  0.20084431381E+03  0.10721307021E+04  0.12699999809E+01 0.  1.
       -4    1    3    3    0  502  0.10507331963E+04  0.71301761304E+02 -0.13475561971E+02  0.10532366281E+04  0.12699999809E+01 0. -1.
</event>
<event>
 5   0  0.1513292E-05  0.2104230E+04  0.7818609E-02  0.8559383E-01
       -1   -1    0    0    0  501  0.00000000000E+00  0.00000000000E+00  0.68501499952E+03  0.68501499954E+03  0.50400001928E-02 0. -1.
        1   -1    0    0  501    0  0.00000000000E+00  0.00000000000E+00 -0.16159434358E+04  0.16159434358E+04  0.50400001928E-02 0.  1.
    10030    2    1    2    0    0  0.00000000000E+00  0.00000000000E+00 -0.93092843632E+03  0.23009584354E+04  0.21042295426E+04 0.  0.
        1    1    3    3  502    0 -0.38505454890E+03  0.46171371123E+03  0.47868181704E+03  0.76849387685E+03  0.50400001928E-02 0. -1.
       -1    1    3    3    0  502  0.38505454890E+03 -0.46171371123E+03 -0.14096102534E+04  0.15324645585E+04  0.50400001928E-02 0.  1.
</event>
<event>
 5   0  0.3279789E-05  0.2096383E+04  0.7818609E-02  0.8562838E-01
       -2   -1    0    0    0  501  0.00000000000E+00  0.00000000000E+00  0.79930269709E+03  0.79930269709E+03  0.25500000920E-02 0. -1.
        2   -1    0    0  501    0  0.00000000000E+00  0.00000000000E+00 -0.13745801396E+04  0.13745801396E+04  0.25500000920E-02 0.  1.
    10030    2    1    2    0    0  0.00000000000E+00  0.00000000000E+00 -0.57527744253E+03  0.21738828367E+04  0.20963831835E+04 0.  0.
        2    1    3    3  502    0 -0.79975878859E+03 -0.33208377057E+03 -0.90007525445E+03  0.12490112947E+04  0.25500000920E-02 0.  1.
       -2    1    3    3    0  502  0.79975878859E+03  0.33208377057E+03  0.32479781192E+03  0.92487154202E+03  0.25500000920E-02 0. -1.
</event>
<event>
 5   0  0.1466480E-05  0.2070176E+04  0.7818609E-02  0.8574496E-01
       -1   -1    0    0    0  501  0.00000000000E+00  0.00000000000E+00  0.51311228806E+03  0.51311228808E+03  0.50400001928E-02 0.  1.
        1   -1    0    0  501    0  0.00000000000E+00  0.00000000000E+00 -0.20880561468E+04  0.20880561468E+04  0.50400001928E-02 0. -1.
    10030    2    1    2    0    0  0.00000000000E+00  0.00000000000E+00 -0.15749438588E+04  0.26011684349E+04  0.20701760960E+04 0.  0.
        3    1    3    3  502    0 -0.58512625654E+03  0.85105829672E+03 -0.87392668912E+03  0.13529304597E+04  0.10100000352E+00 0.  1.
       -3    1    3    3    0  502  0.58512625654E+03 -0.85105829672E+03 -0.70101716964E+03  0.12482379752E+04  0.10100000352E+00 0. -1.
</event>
<event>
 5   0  0.3242231E-05  0.2097959E+04  0.7818609E-02  0.8562143E-01
        2   -1    0    0  501    0  0.00000000000E+00  0.00000000000E+00  0.16613808843E+04  0.16613808843E+04  0.25500000920E-02 0.  1.
       -2   -1    0    0    0  501  0.00000000000E+00  0.00000000000E+00 -0.66231545084E+03  0.66231545085E+03  0.25500000920E-02 0. -1.
    10030    2    1    2    0    0  0.00000000000E+00  0.00000000000E+00  0.99906543343E+03  0.23236963351E+04  0.20979592269E+04 0.  0.
        4    1    3    3  502    0  0.46467694375E+03 -0.46100042606E+03 -0.40836738201E+03  0.77149956997E+03  0.12699999809E+01 0. -1.
       -4    1    3    3    0  502 -0.46467694375E+03  0.46100042606E+03  0.14074328154E+04  0.15521967652E+04  0.12699999809E+01 0.  1.
</event>
<event>
 5   0  0.3257130E-05  0.2102123E+04  0.7818609E-02  0.8560309E-01
        2   -1    0    0  501    0  0.00000000000E+00  0.00000000000E+00  0.67833770323E+03  0.67833770324E+03  0.25500000920E-02 0.  1.
       -2   -1    0    0    0  501  0.00000000000E+00  0.00000000000E+00 -0.16285849708E+04  0.16285849708E+04  0.25500000920E-02 0. -1.
    10030    2    1    2    0    0  0.00000000000E+00  0.00000000000E+00 -0.95024726752E+03  0.23069226740E+04  0.21021232967E+04 0.  0.
        3    1    3    3  502    0 -0.48695141522E+03  0.27345860870E+03 -0.14522814147E+04  0.15559635629E+04  0.10100000352E+00 0. -1.
       -3    1    3    3    0  502  0.48695141522E+03 -0.27345860870E+03  0.50203414714E+03  0.75095911111E+03  0.10100000352E+00 0.  1.
</event>
<event>
 5   0  0.3108326E-05  0.2107975E+04  0.7818609E-02  0.8557739E-01
       -2   -1    0    0    0  501  0.00000000000E+00  0.00000000000E+00  0.11729730970E+04  0.11729730970E+04  0.25500000920E-02 0.  1.
        2   -1    0    0  501    0  0.00000000000E+00  0.00000000000E+00 -0.94707151033E+03  0.94707151033E+03  0.25500000920E-02 0. -1.
    10030    2    1    2    0    0  0.00000000000E+00  0.00000000000E+00  0.22590158664E+03  0.21200446073E+04  0.21079747651E+04 0.  0.
        5    1    3    3  502    0 -0.55859967645E+03  0.89153422950E+03  0.49339676895E+02  0.10532442141E+04  0.46999998093E+01 0.  1.
       -5    1    3    3    0  502  0.55859967645E+03 -0.89153422950E+03  0.17656190974E+03  0.10668003932E+04  0.46999998093E+01 0. -1.
</event>
<event>
 5   0  0.1492552E-05  0.2108581E+04  0.7818609E-02  0.8557473E-01
       -1   -1    0    0    0  501  0.00000000000E+00  0.00000000000E+00  0.13057810410E+04  0.13057810410E+04  0.50400001928E-02 0.  1.
        1   -1    0    0  501    0  0.00000000000E+00  0.00000000000E+00 -0.85123608856E+03  0.85123608858E+03  0.50400001928E-02 0. -1.
    10030    2    1    2    0    0  0.00000000000E+00  0.00000000000E+00  0.45454495247E+03  0.21570171296E+04  0.21085805139E+04 0.  0.
        4    1    3    3  502    0  0.18030893104E+03  0.24404201499E+02 -0.83505218323E+03  0.85464649844E+03  0.12699999809E+01 0. -1.
       -4    1    3    3    0  502 -0.18030893104E+03 -0.24404201499E+02  0.12895971357E+04  0.13023706312E+04  0.12699999809E+01 0.  1.
</event>
<event>
 5   0  0.1466480E-05  0.2102037E+04  0.7818609E-02  0.8560347E-01
       -1   -1    0    0    0  501  0.00000000000E+00  0.00000000000E+00  0.54888073585E+03  0.54888073588E+03  0.50400001928E-02 0.  1.
        1   -1    0    0  501    0  0.00000000000E+00  0.00000000000E+00 -0.20125317552E+04  0.20125317552E+04  0.50400001928E-02 0. -1.
    10030    2    1    2    0    0  0.00000000000E+00  0.00000000000E+00 -0.14636510194E+04  0.25614124911E+04  0.21020370223E+04 0.  0.
        3    1    3    3  502    0 -0.64683464185E+03 -0.51006371883E+03  0.63572793337E+02  0.82619704757E+03  0.10100000352E+00 0.  1.
       -3    1    3    3    0  502  0.64683464185E+03  0.51006371883E+03 -0.15272238127E+04  0.17352154435E+04  0.10100000352E+00 0. -1.
</event>
<event>
 5   0  0.1453430E-05  0.2140204E+04  0.7818609E-02  0.8543737E-01
        1   -1    0    0  501    0  0.00000000000E+00  0.00000000000E+00  0.91108059383E+03  0.91108059384E+03  0.50400001928E-02 0. -1.
       -1   -1    0    0    0  501  0.00000000000E+00  0.00000000000E+00 -0.12568790130E+04  0.12568790131E+04  0.50400001928E-02 0.  1.
    10030    2    1    2    0    0  0.00000000000E+00  0.00000000000E+00 -0.34579841922E+03  0.21679596069E+04  0.21402038011E+04 0.  0.
        5    1    3    3  502    0 -0.66542845702E+03  0.35462584922E+03  0.59625129300E+03  0.96129715424E+03  0.46999998093E+01 0. -1.
       -5    1    3    3    0  502  0.66542845702E+03 -0.35462584922E+03 -0.94204971222E+03  0.12066624527E+04  0.46999998093E+01 0.  1.
</event>
<event>
 5   0  0.3242231E-05  0.2104713E+04  0.7818609E-02  0.8559170E-01
       -2   -1    0    0    0  501  0.00000000000E+00  0.00000000000E+00  0.41502337982E+03  0.41502337983E+03  0.25500000920E-02 0.  1.
        2   -1    0    0  501    0  0.00000000000E+00  0.00000000000E+00 -0.26684137208E+04  0.26684137208E+04  0.25500000920E-02 0. -1.
    10030    2    1    2    0    0  0.00000000000E+00  0.00000000000E+00 -0.22533903410E+04  0.30834371006E+04  0.21047128842E+04 0.  0.
        4    1    3    3  502    0 -0.28634339733E+03 -0.46013828736E+03  0.19485335325E+03  0.57592467117E+03  0.12699999809E+01 0.  1.
       -4    1    3    3    0  502  0.28634339733E+03  0.46013828736E+03 -0.24482436942E+04  0.25075124295E+04  0.12699999809E+01 0. -1.
</event>
<event>
 5   0  0.3130517E-05  0.2098735E+04  0.7818609E-02  0.8561801E-01
        2   -1    0    0  501    0  0.00000000000E+00  0.00000000000E+00  0.11052788670E+04  0.11052788670E+04  0.25500000920E-02 0. -1.
       -2   -1    0    0    0  501  0.00000000000E+00  0.00000000000E+00 -0.99628441070E+03  0.99628441071E+03  0.25500000920E-02 0.  1.
    10030    2    1    2    0    0  0.00000000000E+00  0.00000000000E+00  0.10899445631E+03  0.21015632777E+04  0.20987349568E+04 0.  0.
        1    1    3    3  502    0 -0.83446672817E+03  0.50673184645E+03 -0.33080726198E+03  0.10307983941E+04  0.50400001928E-02 0.  1.
       -1    1    3    3    0  502  0.83446672817E+03 -0.50673184645E+03  0.43980171828E+03  0.10707648836E+04  0.50400001928E-02 0. -1.
</event>
<event>
 5   0  0.3108326E-05  0.2095079E+04  0.7818609E-02  0.8563414E-01
        2   -1    0    0  501    0  0.00000000000E+00  0.00000000000E+00  0.16299535537E+04  0.16299535537E+04  0.25500000920E-02 0. -1.
       -2   -1    0    0    0  501  0.00000000000E+00  0.00000000000E+00 -0.67323302072E+03  0.67323302073E+03  0.25500000920E-02 0.  1.
    10030    2    1    2    0    0  0.00000000000E+00  0.00000000000E+00  0.95672053302E+03  0.23031865745E+04  0.20950785710E+04 0.  0.
        5    1    3    3  502    0  0.91665893762E+03 -0.47935796612E+03  0.65989586242E+03  0.12270013475E+04  0.46999998093E+01 0. -1.
       -5    1    3    3    0  502 -0.91665893762E+03  0.47935796612E+03  0.29682467061E+03  0.10761852269E+04  0.46999998093E+01 0.  1.
</event>
<event>
 5   0  0.3242231E-05  0.2087497E+04  0.7818609E-02  0.8566771E-01
       -2   -1    0    0    0  501  0.00000000000E+00  0.00000000000E+00  0.13202569514E+04  0.13202569514E+04  0.25500000920E-02 0.  1.
        2   -1    0    0  501    0  0.00000000000E+00  0.00000000000E+00 -0.82515057778E+03  0.82515057778E+03  0.25500000920E-02 0. -1.
    10030    2    1    2    0    0  0.00000000000E+00  0.00000000000E+00  0.49510637366E+03  0.21454075292E+04  0.20874968611E+04 0.  0.
        4    1    3    3  502    0  0.77213030331E+03 -0.13127284526E+03  0.95661406812E+03  0.12363372733E+04  0.12699999809E+01 0. -1.
       -4    1    3    3    0  502 -0.77213030331E+03  0.13127284526E+03 -0.46150769446E+03  0.90907025589E+03  0.12699999809E+01 0.  1.
</event>
<event>
 5   0  0.3279789E-05  0.2097221E+04  0.7818609E-02  0.8562468E-01
        2   -1    0    0  501    0  0.00000000000E+00  0.00000000000E+00  0.19021069783E+04  0.19021069783E+04  0.25500000920E-02 0.  1.
       -2   -1    0    0    0  501  0.00000000000E+00  0.00000000000E+00 -0.57808739952E+03  0.57808739952E+03  0.25500000920E-02 0. -1.
    10030    2    1    2    0    0  0.00000000000E+00  0.00000000000E+00  0.13240195788E+04  0.24801943778E+04  0.20972210915E+04 0.  0.
        2    1    3    3  502    0  0.10430697263E+04 -0.95221967647E+02  0.60261498614E+03  0.12083900441E+04  0.25500000920E-02 0. -1.
       -2    1    3    3    0  502 -0.10430697263E+04  0.95221967647E+02  0.72140459265E+03  0.12718043338E+04  0.25500000920E-02 0.  1.
</event>
<event>
 5   0  0.3108326E-05  0.2096147E+04  0.7818609E-02  0.8562943E-01
       -2   -1    0    0    0  501  0.00000000000E+00  0.00000000000E+00  0.17470728240E+04  0.17470728240E+04  0.25500000920E-02 0. -1.
        2   -1    0    0  501    0  0.00000000000E+00  0.00000000000E+00 -0.62874170250E+03  0.62874170251E+03  0.25500000920E-02 0.  1.
    10030    2    1    2    0    0  0.00000000000E+00  0.00000000000E+00  0.11183311215E+04  0.23758145265E+04  0.20961465042E+04 0.  0.
        5    1    3    3  502    0  0.45221972319E+03  0.29887121762E+03 -0.45751209995E+03  0.70934201509E+03  0.46999998093E+01 0.  1.
       -5    1    3    3    0  502 -0.45221972319E+03 -0.29887121762E+03  0.15758432215E+04  0.16664725115E+04  0.46999998093E+01 0. -1.
</event>
<event>
 5   0  0.3108326E-05  0.2076447E+04  0.7818609E-02  0.8571690E-01
       -2   -1    0    0    0  501  0.00000000000E+00  0.00000000000E+00  0.85514115413E+03  0.85514115413E+03  0.25500000920E-02 0. -1.
        2   -1    0    0  501    0  0.00000000000E+00  0.00000000000E+00 -0.12605032658E+04  0.12605032658E+04  0.25500000920E-02 0.  1.
    10030    2    1    2    0    0  0.00000000000E+00  0.00000000000E+00 -0.40536211167E+03  0.21156444199E+04  0.20764471749E+04 0.  0.
        5    1    3    3  502    0 -0.54138695768E+03 -0.86690687442E+03 -0.38849351053E+03  0.10934242839E+04  0.46999998093E+01 0. -1.
       -5    1    3    3    0  502  0.54138695768E+03  0.86690687442E+03 -0.16868601145E+02  0.10222201361E+04  0.46999998093E+01 0.  1.
</event>
<event>
 5   0  0.1435410E-05  0.2092173E+04  0.7818609E-02  0.8564699E-01
        1   -1    0    0  501    0  0.00000000000E+00  0.00000000000E+00  0.17707069795E+04  0.17707069795E+04  0.50400001928E-02 0.  1.
       -1   -1    0    0    0  501  0.00000000000E+00  0.00000000000E+00 -0.61799974997E+03  0.61799975000E+03  0.50400001928E-02 0. -1.
    10030    2    1    2    0    0  0.00000000000E+00  0.00000000000E+00  0.11527072295E+04  0.23887067295E+04  0.20921725269E+04 0.  0.
        2    1    3    3  502    0  0.64145762588E+03  0.41558337417E+03 -0.23910346323E+03  0.80084198992E+03  0.25500000920E-02 0. -1.
       -2    1    3    3    0  502 -0.64145762588E+03 -0.41558337417E+03  0.13918106927E+04  0.15878647395E+04  0.25500000920E-02 0.  1.
</event>
<event>
 5   0  0.1435410E-05  0.2105149E+04  0.7818609E-02  0.8558979E-01
        1   -1    0    0  501    0  0.00000000000E+00  0.00000000000E+00  0.20941549898E+04  0.20941549898E+04  0.50400001928E-02 0. -1.
       -1   -1    0    0    0  501  0.00000000000E+00  0.00000000000E+00 -0.52905000616E+03  0.52905000618E+03  0.50400001928E-02 0.  1.
    10030    2    1    2    0    0  0.00000000000E+00  0.00000000000E+00  0.15651049836E+04  0.26232049960E+04  0.21051486506E+04 0.  0.
        2    1    3    3  502    0 -0.72714187027E+03 -0.76055369018E+03  0.74875850993E+03  0.12914397088E+04  0.25500000920E-02 0. -1.
       -2    1    3    3    0  502  0.72714187027E+03  0.76055369018E+03  0.81634647370E+03  0.13317652872E+04  0.25500000920E-02 0.  1.
</event>
<event>
 5   0  0.1435410E-05  0.2098149E+04  0.7818609E-02  0.8562059E-01
        1   -1    0    0  501    0  0.00000000000E+00  0.00000000000E+00  0.10619154802E+04  0.10619154802E+04  0.50400001928E-02 0. -1.
       -1   -1    0    0    0  501  0.00000000000E+00  0.00000000000E+00 -0.10363890361E+04  0.10363890362E+04  0.50400001928E-02 0.  1.
    10030    2    1    2    0    0  0.00000000000E+00  0.00000000000E+00  0.25526444036E+02  0.20983045164E+04  0.20981492426E+04 0.  0.
        2    1    3    3  502    0  0.60124748205E+03 -0.30459920912E+02  0.87197243669E+03  0.10596047715E+04  0.25500000920E-02 0. -1.
       -2    1    3    3    0  502 -0.60124748205E+03  0.30459920912E+02 -0.84644599265E+03  0.10386997448E+04  0.25500000920E-02 0.  1.
</event>
<event>
 5   0  0.1453430E-05  0.2036458E+04  0.7818609E-02  0.8589763E-01
        1   -1    0    0  501    0  0.00000000000E+00  0.00000000000E+00  0.97892605157E+03  0.97892605159E+03  0.50400001928E-02 0.  1.
       -1   -1    0    0    0  501  0.00000000000E+00  0.00000000000E+00 -0.10591099600E+04  0.10591099601E+04  0.50400001928E-02 0. -1.
    10030    2    1    2    0    0  0.00000000000E+00  0.00000000000E+00 -0.80183908471E+02  0.20380360116E+04  0.20364580343E+04 0.  0.
        5    1    3    3  502    0 -0.47197611244E+03  0.68349914269E+03  0.54929197976E+03  0.99582945216E+03  0.46999998093E+01 0.  1.
       -5    1    3    3    0  502  0.47197611244E+03 -0.68349914269E+03 -0.62947588823E+03  0.10422065595E+04  0.46999998093E+01 0. -1.
</event>
<event>
 5   0  0.3257130E-05  0.2095695E+04  0.7818609E-02  0.8563142E-01
        2   -1    0    0  501    0  0.00000000000E+00  0.00000000000E+00  0.11406251143E+04  0.11406251144E+04  0.25500000920E-02 0. -1.
       -2   -1    0    0    0  501  0.00000000000E+00  0.00000000000E+00 -0.96261662523E+03  0.96261662523E+03  0.25500000920E-02 0.  1.
    10030    2    1    2    0    0  0.00000000000E+00  0.00000000000E+00  0.17800848912E+03  0.21032417396E+04  0.20956953006E+04 0.  0.
        3    1    3    3  502    0 -0.85974360804E+03 -0.66460548427E+02 -0.50846174128E+03  0.10010541587E+04  0.10100000352E+00 0. -1.
       -3    1    3    3    0  502  0.85974360804E+03  0.66460548427E+02  0.68647023040E+03  0.11021875809E+04  0.10100000352E+00 0.  1.
</event>
<event>
 5   0  0.1513292E-05  0.2104541E+04  0.7818609E-02  0.8559246E-01
       -1   -1    0    0    0  501  0.00000000000E+00  0.00000000000E+00  0.11943093612E+04  0.11943093613E+04  0.50400001928E-02 0.  1.
        1   -1    0    0  501    0  0.00000000000E+00  0.00000000000E+00 -0.92712441059E+03  0.92712441060E+03  0.50400001928E-02 0. -1.
    10030    2    1    2    0    0  0.00000000000E+00  0.00000000000E+00  0.26718495066E+03  0.21214337719E+04  0.21045411496E+04 0.  0.
        1    1    3    3  502    0 -0.43090294646E+03 -0.57857726516E+03  0.90579910261E+03  0.11579728042E+04  0.50400001928E-02 0.  1.
       -1    1    3    3    0  502  0.43090294646E+03  0.57857726516E+03 -0.63861415195E+03  0.96346096762E+03  0.50400001928E-02 0. -1.
</event>
<event>
 5   0  0.1435410E-05  0.2100932E+04  0.7818609E-02  0.8560833E-01
        1   -1    0    0  501    0  0.00000000000E+00  0.00000000000E+00  0.76635978193E+03  0.76635978195E+03  0.50400001928E-02 0.  1.
       -1   -1    0    0    0  501  0.00000000000E+00  0.00000000000E+00 -0.14398964596E+04  0.14398964596E+04  0.50400001928E-02 0. -1.
    10030    2    1    2    0    0  0.00000000000E+00  0.00000000000E+00 -0.67353667767E+03  0.22062562416E+04  0.21009319235E+04 0.  0.
        2    1    3    3  502    0 -0.59086756133E+02  0.78560517718E+03 -0.10664492717E+04  0.13258886787E+04  0.25500000920E-02 0. -1.
       -2    1    3    3    0  502  0.59086756133E+02 -0.78560517718E+03  0.39291259404E+03  0.88036756286E+03  0.25500000920E-02 0.  1.
</event>
<event>
 5   0  0.1453430E-05  0.2096454E+04  0.7818609E-02  0.8562807E-01
       -1   -1    0    0    0  501  0.00000000000E+00  0.00000000000E+00  0.75987867370E+03  0.75987867371E+03  0.50400001928E-02 0. -1.
        1   -1    0    0  501    0  0.00000000000E+00  0.00000000000E+00 -0.14459935001E+04  0.14459935002E+04  0.50400001928E-02 0.  1.
    10030    2    1    2    0    0  0.00000000000E+00  0.00000000000E+00 -0.68611482645E+03  0.22058721739E+04  0.20964537897E+04 0.  0.
        5    1    3    3  502    0 -0.59313691815E+03 -0.35020079991E+03 -0.11744260539E+04  0.13615251191E+04  0.46999998093E+01 0.  1.
       -5    1    3    3    0  502  0.59313691815E+03  0.35020079991E+03  0.48831122748E+03  0.84434705472E+03  0.46999998093E+01 0. -1.
</event>
<event>
 5   0  0.3279789E-05  0.2096546E+04  0.7818609E-02  0.8562766E-01
        2   -1    0    0  501    0  0.00000000000E+00  0.00000000000E+00  0.12340420744E+04  0.12340420744E+04  0.25500000920E-02 0.  1.
       -2   -1    0    0    0  501  0.00000000000E+00  0.00000000000E+00 -0.89046899306E+03  0.89046899306E+03  0.25500000920E-02 0. -1.
    10030    2    1    2    0    0  0.00000000000E+00  0.00000000000E+00  0.34357308129E+03  0.21245110674E+04  0.20965459245E+04 0.  0.
        2    1    3    3  502    0  0.54755922568E+03  0.47225937206E+03 -0.59730091931E+03  0.93787974087E+03  0.25500000920E-02 0. -1.
       -2    1    3    3    0  502 -0.54755922568E+03 -0.47225937206E+03  0.94087400060E+03  0.11866313265E+04  0.25500000920E-02 0.  1.
</event>
<event>
 5   0  0.3242231E-05  0.2098580E+04  0.7818609E-02  0.8561869E-01
       -2   -1    0    0    0  501  0.00000000000E+00  0.00000000000E+00  0.91174831086E+03  0.91174831087E+03  0.25500000920E-02 0. -1.
        2   -1    0    0  501    0  0.00000000000E+00  0.00000000000E+00 -0.12075807115E+04  0.12075807116E+04  0.25500000920E-02 0.  1.
    10030    2    1    2    0    0  0.00000000000E+00  0.00000000000E+00 -0.29583240069E+03  0.21193290224E+04  0.20985801619E+04 0.  0.
        4    1    3    3  502    0 -0.87595862184E+03 -0.85080150652E+02  0.42910497285E+03  0.97911941552E+03  0.12699999809E+01 0. -1.
       -4    1    3    3    0  502  0.87595862184E+03  0.85080150652E+02 -0.72493737354E+03  0.11402096069E+04  0.12699999809E+01 0.  1.
</event>
<event>
 5   0  0.1466480E-05  0.2067569E+04  0.7818609E-02  0.8575666E-01
       -1   -1    0    0    0  501  0.00000000000E+00  0.00000000000E+00  0.48351606600E+03  0.48351606603E+03  0.50400001928E-02 0. -1.
        1   -1    0    0  501    0  0.00000000000E+00  0.00000000000E+00 -0.22102890618E+04  0.22102890618E+04  0.50400001928E-02 0.  1.
    10030    2    1    2    0    0  0.00000000000E+00  0.00000000000E+00 -0.17267729958E+04  0.26938051278E+04  0.20675688834E+04 0.  0.
        3    1    3    3  502    0  0.20546965606E+03 -0.96817469152E+03 -0.12523588628E+04  0.15962401900E+04  0.10100000352E+00 0.  1.
       -3    1    3    3    0  502 -0.20546965606E+03  0.96817469152E+03 -0.47441413300E+03  0.10975649378E+04  0.10100000352E+00 0. -1.
</event>
<event>
 5   0  0.3279789E-05  0.2101192E+04  0.7818609E-02  0.8560718E-01
        2   -1    0    0  501    0  0.00000000000E+00  0.00000000000E+00  0.13675731870E+04  0.13675731870E+04  0.25500000920E-02 0.  1.
       -2   -1    0    0    0  501  0.00000000000E+00  0.00000000000E+00 -0.80708832293E+03  0.80708832293E+03  0.25500000920E-02 0. -1.
    10030    2    1    2    0    0  0.00000000000E+00  0.00000000000E+00  0.56048486403E+03  0.21746615099E+04  0.21011923757E+04 0.  0.
        2    1    3    3  502    0 -0.87833982583E+03 -0.25669282275E+03 -0.25392437716E+03  0.94965764580E+03  0.25500000920E-02 0. -1.
       -2    1    3    3    0  502  0.87833982583E+03  0.25669282275E+03  0.81440924119E+03  0.12250038641E+04  0.25500000920E-02 0.  1.
</event>
<event>
 5   0  0.1453430E-05  0.2113845E+04  0.7818609E-02  0.8555169E-01
        1   -1    0    0  501    0  0.00000000000E+00  0.00000000000E+00  0.88596735273E+03  0.88596735274E+03  0.50400001928E-02 0. -1.
       -1   -1    0    0    0  501  0.00000000000E+00  0.00000000000E+00 -0.12608652867E+04  0.12608652867E+04  0.50400001928E-02 0.  1.
    10030    2    1    2    0    0  0.00000000000E+00  0.00000000000E+00 -0.37489793394E+03  0.21468326394E+04  0.21138452925E+04 0.  0.
        5    1    3    3  502    0  0.73030621034E+03 -0.75830566715E+03 -0.92780901169E+02  0.10568845875E+04  0.46999998093E+01 0.  1.
       -5    1    3    3    0  502 -0.73030621034E+03  0.75830566715E+03 -0.28211703277E+03  0.10899480519E+04  0.46999998093E+01 0. -1.
</event>
<event>
 5   0  0.1492552E-05  0.2100629E+04  0.7818609E-02  0.8560966E-01
       -1   -1    0    0    0  501  0.00000000000E+00  0.00000000000E+00  0.11445517845E+04  0.11445517845E+04  0.50400001928E-02 0. -1.
        1   -1    0    0  501    0  0.00000000000E+00  0.00000000000E+00 -0.96383632499E+03  0.96383632501E+03  0.50400001928E-02 0.  1.
    10030    2    1    2    0    0  0.00000000000E+00  0.00000000000E+00  0.18071545953E+03  0.21083881095E+04  0.21006290351E+04 0.  0.
        4    1    3    3  502    0 -0.78035590010E+03 -0.26722357735E+03  0.74298650612E+03  0.11101325742E+04  0.12699999809E+01 0. -1.
       -4    1    3    3    0  502  0.78035590010E+03  0.26722357735E+03 -0.56227104658E+03  0.99825553534E+03  0.12699999809E+01 0.  1.
</event>
<event>
 5   0  0.1435410E-05  0.2090805E+04  0.7818609E-02  0.8565305E-01
       -1   -1    0    0    0  501  0.00000000000E+00  0.00000000000E+00  0.11106690412E+04  0.11106690413E+04  0.50400001928E-02 0. -1.
        1   -1    0    0  501    0  0.00000000000E+00  0.00000000000E+00 -0.98397101308E+03  0.98397101309E+03  0.50400001928E-02 0.  1.
    10030    2    1    2    0    0  0.00000000000E+00  0.00000000000E+00  0.12669802816E+03  0.20946400543E+04  0.20908047654E+04 0.  0.
        2    1    3    3  502    0 -0.23032391028E+03  0.10101591491E+04 -0.76174294393E+02  0.10388807118E+04  0.25500000920E-02 0. -1.
       -2    1    3    3    0  502  0.23032391028E+03 -0.10101591491E+04  0.20287232256E+03  0.10557593426E+04  0.25500000920E-02 0.  1.
</event>
<event>
 5   0  0.1453430E-05  0.2086842E+04  0.7818609E-02  0.8567062E-01
        1   -1    0    0  501    0  0.00000000000E+00  0.00000000000E+00  0.75016024408E+03  0.75016024410E+03  0.50400001928E-02 0. -1.
       -1   -1    0    0    0  501  0.00000000000E+00  0.00000000000E+00 -0.14513260973E+04  0.14513260973E+04  0.50400001928E-02 0.  1.
    10030    2    1    2    0    0  0.00000000000E+00  0.00000000000E+00 -0.70116585324E+03  0.22014863414E+04  0.20868417663E+04 0.  0.
        5    1    3    3  502    0 -0.68561763543E+03 -0.77654687980E+03 -0.48238018508E+03  0.11427201457E+04  0.46999998093E+01 0. -1.
       -5    1    3    3    0  502  0.68561763543E+03  0.77654687980E+03 -0.21878566816E+03  0.10587661957E+04  0.46999998093E+01 0.  1.
</event>
<event>
 5   0  0.1513292E-05  0.2112675E+04  0.7818609E-02  0.8555680E-01
        1   -1    0    0  501    0  0.00000000000E+00  0.00000000000E+00  0.21435072713E+04  0.21435072713E+04  0.50400001928E-02 0.  1.
       -1   -1    0    0    0  501  0.00000000000E+00  0.00000000000E+00 -0.52057169509E+03  0.52057169511E+03  0.50400001928E-02 0. -1.
    10030    2    1    2    0    0  0.00000000000E+00  0.00000000000E+00  0.16229355762E+04  0.26640789664E+04  0.21126752838E+04 0.  0.
        1    1    3    3  502    0  0.22627163484E+03  0.59384019060E+03 -0.25256648375E+03  0.68383832405E+03  0.50400001928E-02 0. -1.
       -1    1    3    3    0  502 -0.22627163484E+03 -0.59384019060E+03  0.18755020599E+04  0.19802406423E+04  0.50400001928E-02 0.  1.
</event>
<event>
 5   0  0.3257130E-05  0.2010449E+04  0.7818609E-02  0.8601751E-01
        2   -1    0    0  501    0  0.00000000000E+00  0.00000000000E+00  0.99677696425E+03  0.99677696425E+03  0.25500000920E-02 0.  1.
       -2   -1    0    0    0  501  0.00000000000E+00  0.00000000000E+00 -0.10137437021E+04  0.10137437021E+04  0.25500000920E-02 0. -1.
    10030    2    1    2    0    0  0.00000000000E+00  0.00000000000E+00 -0.16966737850E+02  0.20105206664E+04  0.20104490741E+04 0.  0.
        3    1    3    3  502    0 -0.24535212090E+03  0.97477871248E+03 -0.17711816108E+02  0.10053382118E+04  0.10100000352E+00 0. -1.
       -3    1    3    3    0  502  0.24535212090E+03 -0.97477871248E+03  0.74507825810E+00  0.10051824545E+04  0.10100000352E+00 0.  1.
</event>
<event>
 5   0  0.3257130E-05  0.2097285E+04  0.7818609E-02  0.8562440E-01
        2   -1    0    0  501    0  0.00000000000E+00  0.00000000000E+00  0.14287357169E+04  0.14287357169E+04  0.25500000920E-02 0.  1.
       -2   -1    0    0    0  501  0.00000000000E+00  0.00000000000E+00 -0.76966719526E+03  0.76966719526E+03  0.25500000920E-02 0. -1.
    10030    2    1    2    0    0  0.00000000000E+00  0.00000000000E+00  0.65906852162E+03  0.21984029121E+04  0.20972849229E+04 0.  0.
        3    1    3    3  502    0 -0.42923869904E+03  0.44367853791E+03 -0.55901132043E+03  0.83282061233E+03  0.10100000352E+00 0. -1.
       -3    1    3    3    0  502  0.42923869904E+03 -0.44367853791E+03  0.12180798420E+04  0.13655822998E+04  0.10100000352E+00 0.  1.
</event>
<event>
 5   0  0.1453430E-05  0.2105479E+04  0.7818609E-02  0.8558834E-01
        1   -1    0    0  501    0  0.00000000000E+00  0.00000000000E+00  0.68967503245E+03  0.68967503247E+03  0.50400001928E-02 0.  1.
       -1   -1    0    0    0  501  0.00000000000E+00  0.00000000000E+00 -0.16069311755E+04  0.16069311755E+04  0.50400001928E-02 0. -1.
    10030    2    1    2    0    0  0.00000000000E+00  0.00000000000E+00 -0.91725614304E+03  0.22966062080E+04  0.21054788630E+04 0.  0.
        5    1    3    3  502    0 -0.76052985548E+03 -0.65706079150E+03 -0.11698053885E+03  0.10118503255E+04  0.46999998093E+01 0.  1.
       -5    1    3    3    0  502  0.76052985548E+03  0.65706079150E+03 -0.80027560420E+03  0.12847558824E+04  0.46999998093E+01 0. -1.
</event>
<event>
 5   0  0.1466480E-05  0.2097625E+04  0.7818609E-02  0.8562290E-01
       -1   -1    0    0    0  501  0.00000000000E+00  0.00000000000E+00  0.87708233029E+03  0.87708233030E+03  0.50400001928E-02 0.  1.
        1   -1    0    0  501    0  0.00000000000E+00  0.00000000000E+00 -0.12541672977E+04  0.12541672977E+04  0.50400001928E-02 0. -1.
    10030    2    1    2    0    0  0.00000000000E+00  0.00000000000E+00 -0.37708496741E+03  0.21312496280E+04  0.20976253012E+04 0.  0.
        3    1    3    3  502    0  0.21239211531E+03  0.10086503463E+04  0.82686190407E+01  0.10308027513E+04  0.10100000352E+00 0. -1.
       -3    1    3    3    0  502 -0.21239211531E+03 -0.10086503463E+04 -0.38535358645E+03  0.11004468767E+04  0.10100000352E+00 0.  1.
</event>
<event>
 5   0  0.1466480E-05  0.2074267E+04  0.7818609E-02  0.8572664E-01
       -1   -1    0    0    0  501  0.00000000000E+00  0.00000000000E+00  0.84417751793E+03  0.84417751794E+03  0.50400001928E-02 0.  1.
        1   -1    0    0  501    0  0.00000000000E+00  0.00000000000E+00 -0.12741944258E+04  0.12741944258E+04  0.50400001928E-02 0. -1.
    10030    2    1    2    0    0  0.00000000000E+00  0.00000000000E+00 -0.43001690787E+03  0.21183719438E+04  0.20742673769E+04 0.  0.
        3    1    3    3  502    0 -0.54568646058E+03  0.73207608893E+03  0.28732114837E+03  0.95721604967E+03  0.10100000352E+00 0.  1.
       -3    1    3    3    0  502  0.54568646058E+03 -0.73207608893E+03 -0.71733805624E+03  0.11611558941E+04  0.10100000352E+00 0. -1.
</event>
<event>
 5   0  0.3279789E-05  0.2104568E+04  0.7818609E-02  0.8559234E-01
        2   -1    0    0  501    0  0.00000000000E+00  0.00000000000E+00  0.20199344322E+04  0.20199344322E+04  0.25500000920E-02 0. -1.
       -2   -1    0    0    0  501  0.00000000000E+00  0.00000000000E+00 -0.54818674710E+03  0.54818674711E+03  0.25500000920E-02 0.  1.
    10030    2    1    2    0    0  0.00000000000E+00  0.00000000000E+00  0.14717476851E+04  0.25681211793E+04  0.21045676855E+04 0.  0.
        2    1    3    3  502    0 -0.72227132576E+03  0.73984033414E+03  0.97456412199E+03  0.14208500329E+04  0.25500000920E-02 0. -1.
       -2    1    3    3    0  502  0.72227132576E+03 -0.73984033414E+03  0.49718356311E+03  0.11472711464E+04  0.25500000920E-02 0.  1.
</event>
<event>
 5   0  0.3279789E-05  0.2099271E+04  0.7818609E-02  0.8561565E-01
       -2   -1    0    0    0  501  0.00000000000E+00  0.00000000000E+00  0.75868874972E+03  0.75868874972E+03  0.25500000920E-02 0. -1.
        2   -1    0    0  501    0  0.00000000000E+00  0.00000000000E+00 -0.14521562398E+04  0.14521562398E+04  0.25500000920E-02 0.  1.
    10030    2    1    2    0    0  0.00000000000E+00  0.00000000000E+00 -0.69346749004E+03  0.22108449895E+04  0.20992709229E+04 0.  0.
        2    1    3    3  502    0 -0.80276963221E+03 -0.65321256961E+03 -0.53098623670E+03  0.11632162856E+04  0.25500000920E-02 0. -1.
       -2    1    3    3    0  502  0.80276963221E+03  0.65321256961E+03 -0.16248125334E+03  0.10476287039E+04  0.25500000920E-02 0.  1.
</event>
<event>
 5   0  0.1492552E-05  0.2118815E+04  0.7818609E-02  0.8553000E-01
        1   -1    0    0  501    0  0.00000000000E+00  0.00000000000E+00  0.17795592234E+04  0.17795592234E+04  0.50400001928E-02 0.  1.
       -1   -1    0    0    0  501  0.00000000000E+00  0.00000000000E+00 -0.63068675445E+03  0.63068675447E+03  0.50400001928E-02 0. -1.
    10030    2    1    2    0    0  0.00000000000E+00  0.00000000000E+00  0.11488724689E+04  0.24102459779E+04  0.21188151698E+04 0.  0.
        4    1    3    3  502    0  0.17598573179E+03 -0.98093597075E+03  0.98321914763E+03  0.13999742361E+04  0.12699999809E+01 0.  1.
       -4    1    3    3    0  502 -0.17598573179E+03  0.98093597075E+03  0.16565332131E+03  0.10102717418E+04  0.12699999809E+01 0. -1.
</event>
<event>
 5   0  0.3130517E-05  0.2078390E+04  0.7818609E-02  0.8570823E-01
        2   -1    0    0  501    0  0.00000000000E+00  0.00000000000E+00  0.14238866990E+04  0.14238866990E+04  0.25500000920E-02 0. -1.
       -2   -1    0    0    0  501  0.00000000000E+00  0.00000000000E+00 -0.75843523175E+03  0.75843523175E+03  0.25500000920E-02 0.  1.
    10030    2    1    2    0    0  0.00000000000E+00  0.00000000000E+00  0.66545146728E+03  0.21823219308E+04  0.20783896060E+04 0.  0.
        1    1    3    3  502    0 -0.19927723634E+03 -0.96743475358E+03 -0.63537932738E+01  0.98776606040E+03  0.50400001928E-02 0.  1.
       -1    1    3    3    0  502  0.19927723634E+03  0.96743475358E+03  0.67180526055E+03  0.11945558704E+04  0.50400001928E-02 0. -1.
</event>
<event>
 5   0  0.1129987E-05  0.2104988E+04  0.7818609E-02  0.8559049E-01
        3   -1    0    0  501    0  0.00000000000E+00  0.00000000000E+00  0.95268032658E+03  0.95268033193E+03  0.10100000352E+00 0. -1.
       -3   -1    0    0    0  501  0.00000000000E+00  0.00000000000E+00 -0.11627651336E+04  0.11627651379E+04  0.10100000352E+00 0.  1.
    10030    2    1    2    0    0  0.00000000000E+00  0.00000000000E+00 -0.21008480698E+03  0.21154454699E+04  0.21049878646E+04 0.  0.
        5    1    3    3  502    0  0.57799485244E+03 -0.81196585569E+03 -0.44488625230E+03  0.10914726143E+04  0.46999998093E+01 0. -1.
       -5    1    3    3    0  502 -0.57799485244E+03  0.81196585569E+03  0.23480144532E+03  0.10239728556E+04  0.46999998093E+01 0.  1.
</event>
<event>
 5   0  0.3108326E-05  0.2105600E+04  0.7818609E-02  0.8558780E-01
       -2   -1    0    0    0  501  0.00000000000E+00  0.00000000000E+00  0.10883737432E+04  0.10883737432E+04  0.25500000920E-02 0.  1.
        2   -1    0    0  501    0  0.00000000000E+00  0.00000000000E+00 -0.10183892893E+04  0.10183892893E+04  0.25500000920E-02 0. -1.
    10030    2    1    2    0    0  0.00000000000E+00  0.00000000000E+00  0.69984453908E+02  0.21067630326E+04  0.21056003067E+04 0.  0.
        5    1    3    3  502    0  0.62342515556E+03  0.36332410666E+03 -0.73204883285E+03  0.10279012184E+04  0.46999998093E+01 0. -1.
       -5    1    3    3    0  502 -0.62342515556E+03 -0.36332410666E+03  0.80203328676E+03  0.10788618142E+04  0.46999998093E+01 0.  1.
</event>
<event>
 5   0  0.3108326E-05  0.2105541E+04  0.7818609E-02  0.8558806E-01
        2   -1    0    0  501    0  0.00000000000E+00  0.00000000000E+00  0.26597813918E+04  0.26597813918E+04  0.25500000920E-02 0.  1.
       -2   -1    0    0    0  501  0.00000000000E+00  0.00000000000E+00 -0.41669810824E+03  0.41669810825E+03  0.25500000920E-02 0. -1.
    10030    2    1    2    0    0  0.00000000000E+00  0.00000000000E+00  0.22430832836E+04  0.30764795001E+04  0.21055411412E+04 0.  0.
        5    1    3    3  502    0 -0.84787694550E+03 -0.21974402410E+02  0.21032098503E+03  0.87386222930E+03  0.46999998093E+01 0. -1.
       -5    1    3    3    0  502  0.84787694550E+03  0.21974402410E+02  0.20327622986E+04  0.22026172708E+04  0.46999998093E+01 0.  1.
</event>
<event>
 5   0  0.3279789E-05  0.2156294E+04  0.7818609E-02  0.8536843E-01
        2   -1    0    0  501    0  0.00000000000E+00  0.00000000000E+00  0.53163160046E+03  0.53163160047E+03  0.25500000920E-02 0.  1.
       -2   -1    0    0    0  501  0.00000000000E+00  0.00000000000E+00 -0.21864789593E+04  0.21864789593E+04  0.25500000920E-02 0. -1.
    10030    2    1    2    0    0  0.00000000000E+00  0.00000000000E+00 -0.16548473589E+04  0.27181105598E+04  0.21562943292E+04 0.  0.
        2    1    3    3  502    0 -0.37780449079E+03  0.81241209543E+03 -0.71461422228E+02  0.89880831157E+03  0.25500000920E-02 0.  1.
       -2    1    3    3    0  502  0.37780449079E+03 -0.81241209543E+03 -0.15833859367E+04  0.18193022482E+04  0.25500000920E-02 0. -1.
</event>
<event>
 5   0  0.1453430E-05  0.2101736E+04  0.7818609E-02  0.8560479E-01
       -1   -1    0    0    0  501  0.00000000000E+00  0.00000000000E+00  0.10878560339E+04  0.10878560339E+04  0.50400001928E-02 0.  1.
        1   -1    0    0  501    0  0.00000000000E+00  0.00000000000E+00 -0.10151377436E+04  0.10151377436E+04  0.50400001928E-02 0. -1.
    10030    2    1    2    0    0  0.00000000000E+00  0.00000000000E+00  0.72718290300E+02  0.21029937774E+04  0.21017361581E+04 0.  0.
        5    1    3    3  502    0  0.23547859126E+03  0.93385855647E+03  0.45703866491E+03  0.10660433395E+04  0.46999998093E+01 0.  1.
       -5    1    3    3    0  502 -0.23547859126E+03 -0.93385855647E+03 -0.38432037461E+03  0.10369504380E+04  0.46999998093E+01 0. -1.
</event>
<event>
 5   0  0.3257130E-05  0.2126588E+04  0.7818609E-02  0.8549621E-01
       -2   -1    0    0    0  501  0.00000000000E+00  0.00000000000E+00  0.46614258150E+03  0.46614258151E+03  0.25500000920E-02 0.  1.
        2   -1    0    0  501    0  0.00000000000E+00  0.00000000000E+00 -0.24254255104E+04  0.24254255104E+04  0.25500000920E-02 0. -1.
    10030    2    1    2    0    0  0.00000000000E+00  0.00000000000E+00 -0.19592829289E+04  0.28915680919E+04  0.21265879795E+04 0.  0.
        3    1    3    3  502    0 -0.56338360471E+03 -0.63312139713E+03 -0.10650277790E+03  0.85415844049E+03  0.10100000352E+00 0.  1.
       -3    1    3    3    0  502  0.56338360471E+03  0.63312139713E+03 -0.18527801510E+04  0.20374096514E+04  0.10100000352E+00 0. -1.
</event>
<event>
 5   0  0.1466480E-05  0.2077020E+04  0.7818609E-02  0.8571434E-01
       -1   -1    0    0    0  501  0.00000000000E+00  0.00000000000E+00  0.97437138246E+03  0.97437138247E+03  0.50400001928E-02 0. -1.
        1   -1    0    0  501    0  0.00000000000E+00  0.00000000000E+00 -0.11068705281E+04  0.11068705281E+04  0.50400001928E-02 0.  1.
    10030    2    1    2    0    0  0.00000000000E+00  0.00000000000E+00 -0.13249914562E+03  0.20812419106E+04  0.20770199486E+04 0.  0.
        3    1    3    3  502    0  0.74318539086E+02 -0.99699044044E+03 -0.34787205871E+03  0.10585500286E+04  0.10100000352E+00 0. -1.
       -3    1    3    3    0  502 -0.74318539086E+02  0.99699044044E+03  0.21537291310E+03  0.10226918820E+04  0.10100000352E+00 0.  1.
</event>
<event>
 5   0  0.3242231E-05  0.2083140E+04  0.7818609E-02  0.8568707E-01
        2   -1    0    0  501    0  0.00000000000E+00  0.00000000000E+00  0.11487321207E+04  0.11487321207E+04  0.25500000920E-02 0.  1.
       -2   -1    0    0    0  501  0.00000000000E+00  0.00000000000E+00 -0.94440501414E+03  0.94440501414E+03  0.25500000920E-02 0. -1.
    10030    2    1    2    0    0  0.00000000000E+00  0.00000000000E+00  0.20432710654E+03  0.20931371348E+04  0.20831402974E+04 0.  0.
        4    1    3    3  502    0  0.10115393921E+04  0.77853568978E+02  0.33907809861E+03  0.10696956061E+04  0.12699999809E+01 0.  1.
       -4    1    3    3    0  502 -0.10115393921E+04 -0.77853568978E+02 -0.13475099207E+03  0.10234415287E+04  0.12699999809E+01 0. -1.
</event>
<event>
 5   0  0.1435410E-05  0.2105607E+04  0.7818609E-02  0.8558777E-01
        1   -1    0    0  501    0  0.00000000000E+00  0.00000000000E+00  0.15923938145E+04  0.15923938145E+04  0.50400001928E-02 0. -1.
       -1   -1    0    0    0  501  0.00000000000E+00  0.00000000000E+00 -0.69605607772E+03  0.69605607774E+03  0.50400001928E-02 0.  1.
    10030    2    1    2    0    0  0.00000000000E+00  0.00000000000E+00  0.89633773677E+03  0.22884498922E+04  0.21056071739E+04 0.  0.
        2    1    3    3  502    0  0.39548171264E+03  0.51670890656E+03 -0.45134905543E+03  0.79190267647E+03  0.25500000920E-02 0.  1.
       -2    1    3    3    0  502 -0.39548171264E+03 -0.51670890656E+03  0.13476867922E+04  0.14965472158E+04  0.25500000920E-02 0. -1.
</event>
<event>
 5   0  0.1513292E-05  0.2092440E+04  0.7818609E-02  0.8564581E-01
        1   -1    0    0  501    0  0.00000000000E+00  0.00000000000E+00  0.16376818335E+04  0.16376818336E+04  0.50400001928E-02 0. -1.
       -1   -1    0    0    0  501  0.00000000000E+00  0.00000000000E+00 -0.66836949985E+03  0.66836949987E+03  0.50400001928E-02 0.  1.
    10030    2    1    2    0    0  0.00000000000E+00  0.00000000000E+00  0.96931233370E+03  0.23060513334E+04  0.20924402864E+04 0.  0.
        1    1    3    3  502    0  0.74182652061E+03 -0.24808954982E+03  0.12503660510E+04  0.14748797486E+04  0.50400001928E-02 0. -1.
       -1    1    3    3    0  502 -0.74182652061E+03  0.24808954982E+03 -0.28105371726E+03  0.83117158482E+03  0.50400001928E-02 0.  1.
</event>
<event>
 5   0  0.3108326E-05  0.2101575E+04  0.7818609E-02  0.8560550E-01
        2   -1    0    0  501    0  0.00000000000E+00  0.00000000000E+00  0.12790847744E+04  0.12790847744E+04  0.25500000920E-02 0.  1.
       -2   -1    0    0    0  501  0.00000000000E+00  0.00000000000E+00 -0.86323758824E+03  0.86323758825E+03  0.25500000920E-02 0. -1.
    10030    2    1    2    0    0  0.00000000000E+00  0.00000000000E+00  0.41584718619E+03  0.21423223627E+04  0.21015747009E+04 0.  0.
        5    1    3    3  502    0 -0.62805296195E+03  0.36013298423E+03 -0.56841043707E+03  0.92046662313E+03  0.46999998093E+01 0. -1.
       -5    1    3    3    0  502  0.62805296195E+03 -0.36013298423E+03  0.98425762325E+03  0.12218557395E+04  0.46999998093E+01 0.  1.
</event>
<event>
 5   0  0.1453430E-05  0.2098396E+04  0.7818609E-02  0.8561950E-01
        1   -1    0    0  501    0  0.00000000000E+00  0.00000000000E+00  0.10573470815E+04  0.10573470815E+04  0.50400001928E-02 0.  1.
       -1   -1    0    0    0  501  0.00000000000E+00  0.00000000000E+00 -0.10411121513E+04  0.10411121513E+04  0.50400001928E-02 0. -1.
    10030    2    1    2    0    0  0.00000000000E+00  0.00000000000E+00  0.16234930200E+02  0.20984592328E+04  0.20983964303E+04 0.  0.
        5    1    3    3  502    0  0.20044000792E+03 -0.76975819726E+03 -0.67607471909E+03  0.10439362983E+04  0.46999998093E+01 0. -1.
       -5    1    3    3    0  502 -0.20044000792E+03  0.76975819726E+03  0.69230964929E+03  0.10545229346E+04  0.46999998093E+01 0.  1.
</event>
<event>
 5   0  0.3257130E-05  0.2097245E+04  0.7818609E-02  0.8562458E-01
       -2   -1    0    0    0  501  0.00000000000E+00  0.00000000000E+00  0.43486393945E+03  0.43486393946E+03  0.25500000920E-02 0. -1.
        2   -1    0    0  501    0  0.00000000000E+00  0.00000000000E+00 -0.25286276445E+04  0.25286276445E+04  0.25500000920E-02 0.  1.
    10030    2    1    2    0    0  0.00000000000E+00  0.00000000000E+00 -0.20937637051E+04  0.29634915840E+04  0.20972448392E+04 0.  0.
        3    1    3    3  502    0  0.74911872485E+02  0.81627124915E+03 -0.12277244636E+03  0.82884475303E+03  0.10100000352E+00 0. -1.
       -3    1    3    3    0  502 -0.74911872485E+02 -0.81627124915E+03 -0.19709912587E+04  0.21346468310E+04  0.10100000352E+00 0.  1.
</event>
<event>
 5   0  0.3130517E-05  0.2088564E+04  0.7818609E-02  0.8566298E-01
       -2   -1    0    0    0  501  0.00000000000E+00  0.00000000000E+00  0.96153462247E+03  0.96153462247E+03  0.25500000920E-02 0. -1.
        2   -1    0    0  501    0  0.00000000000E+00  0.00000000000E+00 -0.11341507834E+04  0.11341507834E+04  0.25500000920E-02 0.  1.
    10030    2    1    2    0    0  0.00000000000E+00  0.00000000000E+00 -0.17261616093E+03  0.20956854059E+04  0.20885643350E+04 0.  0.
        1    1    3    3  502    0  0.34180874439E+03  0.41937443836E+03  0.80994343680E+03  0.97402079450E+03  0.50400001928E-02 0. -1.
       -1    1    3    3    0  502 -0.34180874439E+03 -0.41937443836E+03 -0.98255959772E+03  0.11216646114E+04  0.50400001928E-02 0.  1.
</event>
<event>
 5   0  0.1435410E-05  0.2102902E+04  0.7818609E-02  0.8559966E-01
        1   -1    0    0  501    0  0.00000000000E+00  0.00000000000E+00  0.11841181362E+04  0.11841181362E+04  0.50400001928E-02 0.  1.
       -1   -1    0    0    0  501  0.00000000000E+00  0.00000000000E+00 -0.93364736919E+03  0.93364736920E+03  0.50400001928E-02 0. -1.
    10030    2    1    2    0    0  0.00000000000E+00  0.00000000000E+00  0.25047076699E+03  0.21177655054E+04  0.21029015980E+04 0.  0.
        2    1    3    3  502    0 -0.31624951642E+03 -0.88302282217E+03 -0.35331359130E+03  0.10022841687E+04  0.25500000920E-02 0. -1.
       -2    1    3    3    0  502  0.31624951642E+03  0.88302282217E+03  0.60378435830E+03  0.11154813367E+04  0.25500000920E-02 0.  1.
</event>
<event>
 5   0  0.1435410E-05  0.2097702E+04  0.7818609E-02  0.8562256E-01
       -1   -1    0    0    0  501  0.00000000000E+00  0.00000000000E+00  0.13576412573E+04  0.13576412573E+04  0.50400001928E-02 0. -1.
        1   -1    0    0  501    0  0.00000000000E+00  0.00000000000E+00 -0.81029368016E+03  0.81029368017E+03  0.50400001928E-02 0.  1.
    10030    2    1    2    0    0  0.00000000000E+00  0.00000000000E+00  0.54734757716E+03  0.21679349375E+04  0.20977017240E+04 0.  0.
        2    1    3    3  502    0  0.86009635587E+03  0.25862107532E+03 -0.28616158662E+03  0.94262349623E+03  0.25500000920E-02 0.  1.
       -2    1    3    3    0  502 -0.86009635587E+03 -0.25862107532E+03  0.83350916378E+03  0.12253114413E+04  0.25500000920E-02 0. -1.
</event>
<event>
 5   0  0.3257130E-05  0.2119841E+04  0.7818609E-02  0.8552553E-01
        2   -1    0    0  501    0  0.00000000000E+00  0.00000000000E+00  0.83967068344E+03  0.83967068344E+03  0.25500000920E-02 0. -1.
       -2   -1    0    0    0  501  0.00000000000E+00  0.00000000000E+00 -0.13379433682E+04  0.13379433682E+04  0.25500000920E-02 0.  1.
    10030    2    1    2    0    0  0.00000000000E+00  0.00000000000E+00 -0.49827268480E+03  0.21776140517E+04  0.21198413360E+04 0.  0.
        3    1    3    3  502    0  0.39442376975E+03  0.47430120913E+03 -0.11345429364E+04  0.12914021186E+04  0.10100000352E+00 0.  1.
       -3    1    3    3    0  502 -0.39442376975E+03 -0.47430120913E+03  0.63627025159E+03  0.88621193311E+03  0.10100000352E+00 0. -1.
</event>
<event>
 5   0  0.3108326E-05  0.2087452E+04  0.7818609E-02  0.8566791E-01
       -2   -1    0    0    0  501  0.00000000000E+00  0.00000000000E+00  0.74707102115E+03  0.74707102115E+03  0.25500000920E-02 0. -1.
        2   -1    0    0  501    0  0.00000000000E+00  0.00000000000E+00 -0.14581801565E+04  0.14581801565E+04  0.25500000920E-02 0.  1.
    10030    2    1    2    0    0  0.00000000000E+00  0.00000000000E+00 -0.71110913531E+03  0.22052511776E+04  0.20874521681E+04 0.  0.
        5    1    3    3  502    0  0.87395789766E+03  0.46344482960E+03 -0.70713939465E+03  0.12159982444E+04  0.46999998093E+01 0.  1.
       -5    1    3    3    0  502 -0.87395789766E+03 -0.46344482960E+03 -0.39697406543E+01  0.98925293318E+03  0.46999998093E+01 0. -1.
</event>
<event>
 5   0  0.1492552E-05  0.2082027E+04  0.7818609E-02  0.8569202E-01
        1   -1    0    0  501    0  0.00000000000E+00  0.00000000000E+00  0.13463991266E+04  0.13463991267E+04  0.50400001928E-02 0. -1.
       -1   -1    0    0    0  501  0.00000000000E+00  0.00000000000E+00 -0.80489427427E+03  0.80489427428E+03  0.50400001928E-02 0.  1.
    10030    2    1    2    0    0  0.00000000000E+00  0.00000000000E+00  0.54150485238E+03  0.21512934009E+04  0.20820268470E+04 0.  0.
        4    1    3    3  502    0 -0.26910387999E+03  0.55636875554E+03 -0.59481867751E+03  0.85777267523E+03  0.12699999809E+01 0.  1.
       -4    1    3    3    0  502  0.26910387999E+03 -0.55636875554E+03  0.11363235299E+04  0.12935207257E+04  0.12699999809E+01 0. -1.
</event>
<event>
 5   0  0.1492552E-05  0.2090526E+04  0.7818609E-02  0.8565428E-01
        1   -1    0    0  501    0  0.00000000000E+00  0.00000000000E+00  0.17545167520E+04  0.17545167520E+04  0.50400001928E-02 0.  1.
       -1   -1    0    0    0  501  0.00000000000E+00  0.00000000000E+00 -0.62272104162E+03  0.62272104164E+03  0.50400001928E-02 0. -1.
    10030    2    1    2    0    0  0.00000000000E+00  0.00000000000E+00  0.11317957103E+04  0.23772377936E+04  0.20905257706E+04 0.  0.
        4    1    3    3  502    0  0.51027724323E+03  0.56840624794E+03  0.13772707740E+04  0.15749110849E+04  0.12699999809E+01 0.  1.
       -4    1    3    3    0  502 -0.51027724323E+03 -0.56840624794E+03 -0.24547506366E+03  0.80232670866E+03  0.12699999809E+01 0. -1.
</event>
<event>
 5   0  0.1513292E-05  0.2095849E+04  0.7818609E-02  0.8563074E-01
        1   -1    0    0  501    0  0.00000000000E+00  0.00000000000E+00  0.82250524344E+03  0.82250524346E+03  0.50400001928E-02 0. -1.
       -1   -1    0    0    0  501  0.00000000000E+00  0.00000000000E+00 -0.13351226820E+04  0.13351226820E+04  0.50400001928E-02 0.  1.
    10030    2    1    2    0    0  0.00000000000E+00  0.00000000000E+00 -0.51261743858E+03  0.21576279255E+04  0.20958486650E+04 0.  0.
        1    1    3    3  502    0 -0.92323525374E+03 -0.29218449374E+03  0.15600971508E+03  0.98085378286E+03  0.50400001928E-02 0. -1.
       -1    1    3    3    0  502  0.92323525374E+03  0.29218449374E+03 -0.66862715366E+03  0.11767741426E+04  0.50400001928E-02 0.  1.
</event>
<event>
 5   0  0.1513292E-05  0.2105759E+04  0.7818609E-02  0.8558711E-01
       -1   -1    0    0    0  501  0.00000000000E+00  0.00000000000E+00  0.78189883895E+03  0.78189883897E+03  0.50400001928E-02 0.  1.
        1   -1    0    0  501    0  0.00000000000E+00  0.00000000000E+00 -0.14177725987E+04  0.14177725987E+04  0.50400001928E-02 0. -1.
    10030    2    1    2    0    0  0.00000000000E+00  0.00000000000E+00 -0.63587375975E+03  0.21996714377E+04  0.21057585321E+04 0.  0.
        1    1    3    3  502    0 -0.42923620741E+03  0.78055686690E+03 -0.90425521796E+03  0.12693266890E+04  0.50400001928E-02 0.  1.
       -1    1    3    3    0  502  0.42923620741E+03 -0.78055686690E+03  0.26838145821E+03  0.93034474866E+03  0.50400001928E-02 0. -1.
</event>
<event>
 5   0  0.1435410E-05  0.2144188E+04  0.7818609E-02  0.8542024E-01
       -1   -1    0    0    0  501  0.00000000000E+00  0.00000000000E+00  0.11388365937E+04  0.11388365937E+04  0.50400001928E-02 0.  1.
        1   -1    0    0  501    0  0.00000000000E+00  0.00000000000E+00 -0.10092630578E+04  0.10092630578E+04  0.50400001928E-02 0. -1.
    10030    2    1    2    0    0  0.00000000000E+00  0.00000000000E+00  0.12957353588E+03  0.21480996514E+04  0.21441881474E+04 0.  0.
        2    1    3    3  502    0 -0.32340536038E+03 -0.60872589989E+03  0.88741041855E+03  0.11236705475E+04  0.25500000920E-02 0.  1.
       -2    1    3    3    0  502  0.32340536038E+03  0.60872589989E+03 -0.75783688267E+03  0.10244291040E+04  0.25500000920E-02 0. -1.
</event>
<event>
 5   0  0.1453430E-05  0.2102237E+04  0.7818609E-02  0.8560258E-01
        1   -1    0    0  501    0  0.00000000000E+00  0.00000000000E+00  0.14455508680E+04  0.14455508680E+04  0.50400001928E-02 0. -1.
       -1   -1    0    0    0  501  0.00000000000E+00  0.00000000000E+00 -0.76431106914E+03  0.76431106915E+03  0.50400001928E-02 0.  1.
    10030    2    1    2    0    0  0.00000000000E+00  0.00000000000E+00  0.68123979886E+03  0.22098619372E+04  0.21022374076E+04 0.  0.
        5    1    3    3  502    0 -0.16719776319E+03  0.69842750679E+03 -0.46618347621E+03  0.85621562573E+03  0.46999998093E+01 0.  1.
       -5    1    3    3    0  502  0.16719776319E+03 -0.69842750679E+03  0.11474232751E+04  0.13536463114E+04  0.46999998093E+01 0. -1.
</event>
<event>
 5   0  0.1435410E-05  0.2104742E+04  0.7818609E-02  0.8559157E-01
       -1   -1    0    0    0  501  0.00000000000E+00  0.00000000000E+00  0.67177002287E+03  0.67177002289E+03  0.50400001928E-02 0. -1.
        1   -1    0    0  501    0  0.00000000000E+00  0.00000000000E+00 -0.16486066836E+04  0.16486066836E+04  0.50400001928E-02 0.  1.
    10030    2    1    2    0    0  0.00000000000E+00  0.00000000000E+00 -0.97683666074E+03  0.23203767065E+04  0.21047418365E+04 0.  0.
        2    1    3    3  502    0 -0.23972491732E+03 -0.24430090416E+03 -0.15855289436E+04  0.16220520950E+04  0.25500000920E-02 0.  1.
       -2    1    3    3    0  502  0.23972491732E+03  0.24430090416E+03  0.60869228291E+03  0.69832461150E+03  0.25500000920E-02 0. -1.
</event>
<event>
 5   0  0.3130517E-05  0.2099243E+04  0.7818609E-02  0.8561577E-01
        2   -1    0    0  501    0  0.00000000000E+00  0.00000000000E+00  0.16456635119E+04  0.16456635119E+04  0.25500000920E-02 0. -1.
       -2   -1    0    0    0  501  0.00000000000E+00  0.00000000000E+00 -0.66945993914E+03  0.66945993914E+03  0.25500000920E-02 0.  1.
    10030    2    1    2    0    0  0.00000000000E+00  0.00000000000E+00  0.97620357276E+03  0.23151234510E+04  0.20992434776E+04 0.  0.
        1    1    3    3  502    0 -0.41629215962E+03  0.57409417540E+03 -0.36531346600E+03  0.79770747324E+03  0.50400001928E-02 0.  1.
       -1    1    3    3    0  502  0.41629215962E+03 -0.57409417540E+03  0.13415170388E+04  0.15174159778E+04  0.50400001928E-02 0. -1.
</event>
<event>
 5   0  0.3130517E-05  0.2097831E+04  0.7818609E-02  0.8562199E-01
       -2   -1    0    0    0  501  0.00000000000E+00  0.00000000000E+00  0.17130326428E+04  0.17130326428E+04  0.25500000920E-02 0.  1.
        2   -1    0    0  501    0  0.00000000000E+00  0.00000000000E+00 -0.64226671108E+03  0.64226671108E+03  0.25500000920E-02 0. -1.
    10030    2    1    2    0    0  0.00000000000E+00  0.00000000000E+00  0.10707659317E+04  0.23552993539E+04  0.20978311099E+04 0.  0.
        1    1    3    3  502    0 -0.32046220378E+03  0.36030599487E+03  0.15812157311E+04  0.16531060530E+04  0.50400001928E-02 0.  1.
       -1    1    3    3    0  502  0.32046220378E+03 -0.36030599487E+03 -0.51044979945E+03  0.70219330087E+03  0.50400001928E-02 0. -1.
</event>
<event>
 5   0  0.3279789E-05  0.2103888E+04  0.7818609E-02  0.8559532E-01
       -2   -1    0    0    0  501  0.00000000000E+00  0.00000000000E+00  0.70916466307E+03  0.70916466308E+03  0.25500000920E-02 0. -1.
        2   -1    0    0  501    0  0.00000000000E+00  0.00000000000E+00 -0.15604086836E+04  0.15604086836E+04  0.25500000920E-02 0.  1.
    10030    2    1    2    0    0  0.00000000000E+00  0.00000000000E+00 -0.85124402049E+03  0.22695733466E+04  0.21038884936E+04 0.  0.
        2    1    3    3  502    0 -0.18850200751E+03  0.60537435847E+03  0.47987140574E+03  0.79516519465E+03  0.25500000920E-02 0. -1.
       -2    1    3    3    0  502  0.18850200751E+03 -0.60537435847E+03 -0.13311154262E+04  0.14744081520E+04  0.25500000920E-02 0.  1.
</event>
<event>
 5   0  0.1492552E-05  0.2103029E+04  0.7818609E-02  0.8559910E-01
       -1   -1    0    0    0  501  0.00000000000E+00  0.00000000000E+00  0.98199732632E+03  0.98199732634E+03  0.50400001928E-02 0. -1.
        1   -1    0    0  501    0  0.00000000000E+00  0.00000000000E+00 -0.11259528447E+04  0.11259528447E+04  0.50400001928E-02 0.  1.
    10030    2    1    2    0    0  0.00000000000E+00  0.00000000000E+00 -0.14395551841E+03  0.21079501711E+04  0.21030289424E+04 0.  0.
        4    1    3    3  502    0  0.42176745637E+03  0.66466100307E+03  0.62680427377E+03  0.10062540667E+04  0.12699999809E+01 0. -1.
       -4    1    3    3    0  502 -0.42176745637E+03 -0.66466100307E+03 -0.77075979218E+03  0.11016961044E+04  0.12699999809E+01 0.  1.
</event>
<event>
 5   0  0.1492552E-05  0.2099531E+04  0.7818609E-02  0.8561450E-01
       -1   -1    0    0    0  501  0.00000000000E+00  0.00000000000E+00  0.51922388155E+03  0.51922388158E+03  0.50400001928E-02 0.  1.
        1   -1    0    0  501    0  0.00000000000E+00  0.00000000000E+00 -0.21224141177E+04  0.21224141177E+04  0.50400001928E-02 0. -1.
    10030    2    1    2    0    0  0.00000000000E+00  0.00000000000E+00 -0.16031902362E+04  0.26416379993E+04  0.20995314682E+04 0.  0.
        4    1    3    3  502    0 -0.73465781883E+03 -0.45315045888E+03 -0.49889255867E+02  0.86461436484E+03  0.12699999809E+01 0.  1.
       -4    1    3    3    0  502  0.73465781883E+03  0.45315045888E+03 -0.15533009803E+04  0.17770236345E+04  0.12699999809E+01 0. -1.
</event>
<event>
 5   0  0.1513292E-05  0.2092256E+04  0.7818609E-02  0.8564662E-01
       -1   -1    0    0    0  501  0.00000000000E+00  0.00000000000E+00  0.73929877527E+03  0.73929877529E+03  0.50400001928E-02 0. -1.
        1   -1    0    0  501    0  0.00000000000E+00  0.00000000000E+00 -0.14802995124E+04  0.14802995124E+04  0.50400001928E-02 0.  1.
    10030    2    1    2    0    0  0.00000000000E+00  0.00000000000E+00 -0.74100073716E+03  0.22195982877E+04  0.20922558320E+04 0.  0.
        1    1    3    3  502    0 -0.60716284879E+03 -0.13897243567E+02 -0.12741319465E+04  0.14114715992E+04  0.50400001928E-02 0.  1.
       -1    1    3    3    0  502  0.60716284879E+03  0.13897243567E+02  0.53313120931E+03  0.80812668852E+03  0.50400001928E-02 0. -1.
</event>
<event>
 5   0  0.1435410E-05  0.2105286E+04  0.7818609E-02  0.8558918E-01
       -1   -1    0    0    0  501  0.00000000000E+00  0.00000000000E+00  0.10193180063E+04  0.10193180064E+04  0.50400001928E-02 0.  1.
        1   -1    0    0  501    0  0.00000000000E+00  0.00000000000E+00 -0.10870579499E+04  0.10870579499E+04  0.50400001928E-02 0. -1.
    10030    2    1    2    0    0  0.00000000000E+00  0.00000000000E+00 -0.67739943530E+02  0.21063759562E+04  0.21052864340E+04 0.  0.
        2    1    3    3  502    0  0.24754421338E+03 -0.63448307674E+02  0.98781172167E+03  0.10203312319E+04  0.25500000920E-02 0.  1.
       -2    1    3    3    0  502 -0.24754421338E+03  0.63448307674E+02 -0.10555516652E+04  0.10860447243E+04  0.25500000920E-02 0. -1.
</event>
<event>
 5   0  0.1435410E-05  0.2021141E+04  0.7818609E-02  0.8596800E-01
        1   -1    0    0  501    0  0.00000000000E+00  0.00000000000E+00  0.10948519212E+04  0.10948519213E+04  0.50400001928E-02 0.  1.
       -1   -1    0    0    0  501  0.00000000000E+00  0.00000000000E+00 -0.93277723342E+03  0.93277723343E+03  0.50400001928E-02 0. -1.
    10030    2    1    2    0    0  0.00000000000E+00  0.00000000000E+00  0.16207468783E+03  0.20276291547E+04  0.20211412085E+04 0.  0.
        2    1    3    3  502    0  0.97326780795E+03 -0.26062662308E+03  0.28353132304E+01  0.10075636465E+04  0.25500000920E-02 0.  1.
       -2    1    3    3    0  502 -0.97326780795E+03  0.26062662308E+03  0.15923937460E+03  0.10200655082E+04  0.25500000920E-02 0. -1.
</event>
<event>
 5   0  0.3257130E-05  0.2096057E+04  0.7818609E-02  0.8562983E-01
        2   -1    0    0  501    0  0.00000000000E+00  0.00000000000E+00  0.12752158842E+04  0.12752158842E+04  0.25500000920E-02 0. -1.
       -2   -1    0    0    0  501  0.00000000000E+00  0.00000000000E+00 -0.86131551039E+03  0.86131551039E+03  0.25500000920E-02 0.  1.
    10030    2    1    2    0    0  0.00000000000E+00  0.00000000000E+00  0.41390037380E+03  0.21365313946E+04  0.20960565070E+04 0.  0.
        3    1    3    3  502    0  0.65628115044E+03  0.10439173540E+03  0.10330068654E+04  0.12282938480E+04  0.10100000352E+00 0. -1.
       -3    1    3    3    0  502 -0.65628115044E+03 -0.10439173540E+03 -0.61910649162E+03  0.90823754658E+03  0.10100000352E+00 0.  1.
</event>
<event>
 5   0  0.3130517E-05  0.2105737E+04  0.7818609E-02  0.8558720E-01
       -2   -1    0    0    0  501  0.00000000000E+00  0.00000000000E+00  0.98073668197E+03  0.98073668197E+03  0.25500000920E-02 0. -1.
        2   -1    0    0  501    0  0.00000000000E+00  0.00000000000E+00 -0.11303055550E+04  0.11303055550E+04  0.25500000920E-02 0.  1.
    10030    2    1    2    0    0  0.00000000000E+00  0.00000000000E+00 -0.14956887303E+03  0.21110422370E+04  0.21057370393E+04 0.  0.
        1    1    3    3  502    0 -0.30166031286E+03 -0.23931939926E+03 -0.10571815324E+04  0.11251246650E+04  0.50400001928E-02 0.  1.
       -1    1    3    3    0  502  0.30166031286E+03  0.23931939926E+03  0.90761265940E+03  0.98591757198E+03  0.50400001928E-02 0. -1.
</event>
<event>
 5   0  0.3257130E-05  0.2095063E+04  0.7818609E-02  0.8563421E-01
       -2   -1    0    0    0  501  0.00000000000E+00  0.00000000000E+00  0.69832492832E+03  0.69832492833E+03  0.25500000920E-02 0.  1.
        2   -1    0    0  501    0  0.00000000000E+00  0.00000000000E+00 -0.15713640164E+04  0.15713640164E+04  0.25500000920E-02 0. -1.
    10030    2    1    2    0    0  0.00000000000E+00  0.00000000000E+00 -0.87303908808E+03  0.22696889447E+04  0.20950634015E+04 0.  0.
        3    1    3    3  502    0 -0.52733173318E+03 -0.87058271216E+03 -0.70480947522E+03  0.12380425768E+04  0.10100000352E+00 0.  1.
       -3    1    3    3    0  502  0.52733173318E+03  0.87058271216E+03 -0.16822961286E+03  0.10316463679E+04  0.10100000352E+00 0. -1.
</event>
<event>
 5   0  0.1513292E-05  0.2100927E+04  0.7818609E-02  0.8560835E-01
       -1   -1    0    0    0  501  0.00000000000E+00  0.00000000000E+00  0.72707905435E+03  0.72707905437E+03  0.50400001928E-02 0.  1.
        1   -1    0    0  501    0  0.00000000000E+00  0.00000000000E+00 -0.15176807946E+04  0.15176807946E+04  0.50400001928E-02 0. -1.
    10030    2    1    2    0    0  0.00000000000E+00  0.00000000000E+00 -0.79060174028E+03  0.22447598490E+04  0.21009273353E+04 0.  0.
        1    1    3    3  502    0 -0.63311251721E+03 -0.54806176861E+03  0.28236885575E+03  0.88370545567E+03  0.50400001928E-02 0.  1.
       -1    1    3    3    0  502  0.63311251721E+03  0.54806176861E+03 -0.10729705960E+04  0.13610543933E+04  0.50400001928E-02 0. -1.
</event>
<event>
 5   0  0.3279789E-05  0.2091885E+04  0.7818609E-02  0.8564827E-01
       -2   -1    0    0    0  501  0.00000000000E+00  0.00000000000E+00  0.47928039386E+03  0.47928039386E+03  0.25500000920E-02 0.  1.
        2   -1    0    0  501    0  0.00000000000E+00  0.00000000000E+00 -0.22825795073E+04  0.22825795073E+04  0.25500000920E-02 0. -1.
    10030    2    1    2    0    0  0.00000000000E+00  0.00000000000E+00 -0.18032991135E+04  0.27618599012E+04  0.20918848967E+04 0.  0.
        2    1    3    3  502    0  0.51922171575E+03  0.13613578030E+03  0.28356437898E+03  0.60706910465E+03  0.25500000920E-02 0.  1.
       -2    1    3    3    0  502 -0.51922171575E+03 -0.13613578030E+03 -0.20868634924E+04  0.21547907966E+04  0.25500000920E-02 0. -1.
</event>
<event>
 5   0  0.3279789E-05  0.2104571E+04  0.7818609E-02  0.8559233E-01
        2   -1    0    0  501    0  0.00000000000E+00  0.00000000000E+00  0.20889081226E+04  0.20889081226E+04  0.25500000920E-02 0. -1.
       -2   -1    0    0    0  501  0.00000000000E+00  0.00000000000E+00 -0.53008760155E+03  0.53008760155E+03  0.25500000920E-02 0.  1.
    10030    2    1    2    0    0  0.00000000000E+00  0.00000000000E+00  0.15588205211E+04  0.26189957242E+04  0.21045705468E+04 0.  0.
        2    1    3    3  502    0 -0.68316189205E+03 -0.72940350992E+03  0.36938037632E+03  0.10654489727E+04  0.25500000920E-02 0.  1.
       -2    1    3    3    0  502  0.68316189205E+03  0.72940350992E+03  0.11894401448E+04  0.15535467515E+04  0.25500000920E-02 0. -1.
</event>
<event>
 5   0  0.1513292E-05  0.2084294E+04  0.7818609E-02  0.8568194E-01
        1   -1    0    0  501    0  0.00000000000E+00  0.00000000000E+00  0.11320614990E+04  0.11320614990E+04  0.50400001928E-02 0.  1.
       -1   -1    0    0    0  501  0.00000000000E+00  0.00000000000E+00 -0.95937380738E+03  0.95937380739E+03  0.50400001928E-02 0. -1.
    10030    2    1    2    0    0  0.00000000000E+00  0.00000000000E+00  0.17268769159E+03  0.20914353064E+04  0.20842937897E+04 0.  0.
        1    1    3    3  502    0  0.65178741111E+03  0.87489248914E+02  0.89756235670E+03  0.11126991427E+04  0.50400001928E-02 0.  1.
       -1    1    3    3    0  502 -0.65178741111E+03 -0.87489248914E+02 -0.72487466511E+03  0.97873616368E+03  0.50400001928E-02 0. -1.
</event>
<event>
 5   0  0.1492552E-05  0.2126190E+04  0.7818609E-02  0.8549793E-01
       -1   -1    0    0    0  501  0.00000000000E+00  0.00000000000E+00  0.84209707891E+03  0.84209707892E+03  0.50400001928E-02 0.  1.
        1   -1    0    0  501    0  0.00000000000E+00  0.00000000000E+00 -0.13420916666E+04  0.13420916666E+04  0.50400001928E-02 0. -1.
    10030    2    1    2    0    0  0.00000000000E+00  0.00000000000E+00 -0.49999458771E+03  0.21841887455E+04  0.21261904638E+04 0.  0.
        4    1    3    3  502    0  0.60922028835E+03 -0.49390167473E+03 -0.98726639302E+03  0.12608666733E+04  0.12699999809E+01 0. -1.
       -4    1    3    3    0  502 -0.60922028835E+03  0.49390167473E+03  0.48727180531E+03  0.92332207229E+03  0.12699999809E+01 0.  1.
</event>
<event>
 5   0  0.1453430E-05  0.2091854E+04  0.7818609E-02  0.8564840E-01
        1   -1    0    0  501    0  0.00000000000E+00  0.00000000000E+00  0.17525126902E+04  0.17525126902E+04  0.50400001928E-02 0. -1.
       -1   -1    0    0    0  501  0.00000000000E+00  0.00000000000E+00 -0.62422569076E+03  0.62422569078E+03  0.50400001928E-02 0.  1.
    10030    2    1    2    0    0  0.00000000000E+00  0.00000000000E+00  0.11282869994E+04  0.23767383810E+04  0.20918541485E+04 0.  0.
        5    1    3    3  502    0  0.78260310568E+03  0.65949769277E+03  0.31904143904E+03  0.10720141592E+04  0.46999998093E+01 0.  1.
       -5    1    3    3    0  502 -0.78260310568E+03 -0.65949769277E+03  0.80924556039E+03  0.13047242217E+04  0.46999998093E+01 0. -1.
</event>
<event>
 5   0  0.3242231E-05  0.2096201E+04  0.7818609E-02  0.8562919E-01
        2   -1    0    0  501    0  0.00000000000E+00  0.00000000000E+00  0.92922626716E+03  0.92922626717E+03  0.25500000920E-02 0. -1.
       -2   -1    0    0    0  501  0.00000000000E+00  0.00000000000E+00 -0.11821816816E+04  0.11821816816E+04  0.25500000920E-02 0.  1.
    10030    2    1    2    0    0  0.00000000000E+00  0.00000000000E+00 -0.25295541440E+03  0.21114079487E+04  0.20962006307E+04 0.  0.
        4    1    3    3  502    0  0.37249194487E+03  0.53469746153E+03 -0.95332341600E+03  0.11547635138E+04  0.12699999809E+01 0.  1.
       -4    1    3    3    0  502 -0.37249194487E+03 -0.53469746153E+03  0.70036800160E+03  0.95664443496E+03  0.12699999809E+01 0. -1.
</event>
<event>
 5   0  0.1453430E-05  0.2120756E+04  0.7818609E-02  0.8552155E-01
        1   -1    0    0  501    0  0.00000000000E+00  0.00000000000E+00  0.96051682858E+03  0.96051682859E+03  0.50400001928E-02 0. -1.
       -1   -1    0    0    0  501  0.00000000000E+00  0.00000000000E+00 -0.11706216694E+04  0.11706216694E+04  0.50400001928E-02 0.  1.
    10030    2    1    2    0    0  0.00000000000E+00  0.00000000000E+00 -0.21010484081E+03  0.21311384980E+04  0.21207562928E+04 0.  0.
        5    1    3    3  502    0  0.62495302816E+03  0.71766477743E+03 -0.57507150412E+03  0.11119075254E+04  0.46999998093E+01 0.  1.
       -5    1    3    3    0  502 -0.62495302816E+03 -0.71766477743E+03  0.36496666331E+03  0.10192309726E+04  0.46999998093E+01 0. -1.
</event>
<event>
 5   0  0.3130517E-05  0.2100849E+04  0.7818609E-02  0.8560870E-01
        2   -1    0    0  501    0  0.00000000000E+00  0.00000000000E+00  0.17490098158E+04  0.17490098158E+04  0.25500000920E-02 0.  1.
       -2   -1    0    0    0  501  0.00000000000E+00  0.00000000000E+00 -0.63086634750E+03  0.63086634750E+03  0.25500000920E-02 0. -1.
    10030    2    1    2    0    0  0.00000000000E+00  0.00000000000E+00  0.11181434683E+04  0.23798761633E+04  0.21008488135E+04 0.  0.
        1    1    3    3  502    0  0.66045027498E+03  0.35101444929E+03 -0.27644145713E+03  0.79738672461E+03  0.50400001928E-02 0. -1.
       -1    1    3    3    0  502 -0.66045027498E+03 -0.35101444929E+03  0.13945849254E+04  0.15824894387E+04  0.50400001928E-02 0.  1.
</event>
<event>
 5   0  0.1453430E-05  0.2125598E+04  0.7818609E-02  0.8550051E-01
        1   -1    0    0  501    0  0.00000000000E+00  0.00000000000E+00  0.13309384979E+04  0.13309384979E+04  0.50400001928E-02 0. -1.
       -1   -1    0    0    0  501  0.00000000000E+00  0.00000000000E+00 -0.84868026890E+03  0.84868026891E+03  0.50400001928E-02 0.  1.
    10030    2    1    2    0    0  0.00000000000E+00  0.00000000000E+00  0.48225822898E+03  0.21796187668E+04  0.21255975558E+04 0.  0.
        5    1    3    3  502    0 -0.33832892650E+03 -0.31198296291E+03  0.12234523890E+04  0.13071563295E+04  0.46999998093E+01 0. -1.
       -5    1    3    3    0  502  0.33832892650E+03  0.31198296291E+03 -0.74119416001E+03  0.87246243729E+03  0.46999998093E+01 0.  1.
</event>
<event>
 5   0  0.1466480E-05  0.1990363E+04  0.7818609E-02  0.8611140E-01
       -1   -1    0    0    0  501  0.00000000000E+00  0.00000000000E+00  0.73869701578E+03  0.73869701580E+03  0.50400001928E-02 0.  1.
        1   -1    0    0  501    0  0.00000000000E+00  0.00000000000E+00 -0.13407198872E+04  0.13407198873E+04  0.50400001928E-02 0. -1.
    10030    2    1    2    0    0  0.00000000000E+00  0.00000000000E+00 -0.60202287147E+03  0.20794169031E+04  0.19903625597E+04 0.  0.
        3    1    3    3  502    0 -0.82336624433E+03  0.48992786587E+03 -0.19852377775E+02  0.95830862104E+03  0.10100000352E+00 0.  1.
       -3    1    3    3    0  502  0.82336624433E+03 -0.48992786587E+03 -0.58217049370E+03  0.11211082820E+04  0.10100000352E+00 0. -1.
</event>
<event>
 5   0  0.1466480E-05  0.2025262E+04  0.7818609E-02  0.8594900E-01
       -1   -1    0    0    0  501  0.00000000000E+00  0.00000000000E+00  0.47135196952E+03  0.47135196955E+03  0.50400001928E-02 0.  1.
        1   -1    0    0  501    0  0.00000000000E+00  0.00000000000E+00 -0.21754901371E+04  0.21754901371E+04  0.50400001928E-02 0. -1.
    10030    2    1    2    0    0  0.00000000000E+00  0.00000000000E+00 -0.17041381676E+04  0.26468421067E+04  0.20252620185E+04 0.  0.
        3    1    3    3  502    0 -0.20797709082E+03  0.90984498290E+03 -0.13655200679E+04  0.16540004320E+04  0.10100000352E+00 0.  1.
       -3    1    3    3    0  502  0.20797709082E+03 -0.90984498290E+03 -0.33861809971E+03  0.99284167462E+03  0.10100000352E+00 0. -1.
</event>
<event>
 5   0  0.1453430E-05  0.2100903E+04  0.7818609E-02  0.8560846E-01
       -1   -1    0    0    0  501  0.00000000000E+00  0.00000000000E+00  0.85811680461E+03  0.85811680463E+03  0.50400001928E-02 0. -1.
        1   -1    0    0  501    0  0.00000000000E+00  0.00000000000E+00 -0.12858947754E+04  0.12858947754E+04  0.50400001928E-02 0.  1.
    10030    2    1    2    0    0  0.00000000000E+00  0.00000000000E+00 -0.42777797079E+03  0.21440115800E+04  0.21009025830E+04 0.  0.
        5    1    3    3  502    0  0.47829009928E+03  0.80402378566E+02 -0.11647807114E+04  0.12617298273E+04  0.46999998093E+01 0.  1.
       -5    1    3    3    0  502 -0.47829009928E+03 -0.80402378566E+02  0.73700274059E+03  0.88228175272E+03  0.46999998093E+01 0. -1.
</event>
<event>
 5   0  0.3242231E-05  0.2105499E+04  0.7818609E-02  0.8558825E-01
        2   -1    0    0  501    0  0.00000000000E+00  0.00000000000E+00  0.16126701508E+04  0.16126701508E+04  0.25500000920E-02 0. -1.
       -2   -1    0    0    0  501  0.00000000000E+00  0.00000000000E+00 -0.68723408124E+03  0.68723408124E+03  0.25500000920E-02 0.  1.
    10030    2    1    2    0    0  0.00000000000E+00  0.00000000000E+00  0.92543606952E+03  0.22999042320E+04  0.21054993606E+04 0.  0.
        4    1    3    3  502    0 -0.99615780703E+03 -0.31767340880E+03  0.32878590761E+03  0.10960604715E+04  0.12699999809E+01 0.  1.
       -4    1    3    3    0  502  0.99615780703E+03  0.31767340880E+03  0.59665016191E+03  0.12038437605E+04  0.12699999809E+01 0. -1.
</event>
<event>
 5   0  0.3257130E-05  0.2113932E+04  0.7818609E-02  0.8555131E-01
       -2   -1    0    0    0  501  0.00000000000E+00  0.00000000000E+00  0.54042898802E+03  0.54042898803E+03  0.25500000920E-02 0. -1.
        2   -1    0    0  501    0  0.00000000000E+00  0.00000000000E+00 -0.20672035379E+04  0.20672035379E+04  0.25500000920E-02 0.  1.
    10030    2    1    2    0    0  0.00000000000E+00  0.00000000000E+00 -0.15267745498E+04  0.26076325259E+04  0.21139316129E+04 0.  0.
        3    1    3    3  502    0  0.43401087477E+03 -0.69333985213E+03  0.62343788420E+02  0.82034891853E+03  0.10100000352E+00 0. -1.
       -3    1    3    3    0  502 -0.43401087477E+03  0.69333985213E+03 -0.15891183383E+04  0.17872836074E+04  0.10100000352E+00 0.  1.
</event>
<event>
 5   0  0.3279789E-05  0.2099075E+04  0.7818609E-02  0.8561651E-01
        2   -1    0    0  501    0  0.00000000000E+00  0.00000000000E+00  0.57318804584E+03  0.57318804584E+03  0.25500000920E-02 0. -1.
       -2   -1    0    0    0  501  0.00000000000E+00  0.00000000000E+00 -0.19217584768E+04  0.19217584768E+04  0.25500000920E-02 0.  1.
    10030    2    1    2    0    0  0.00000000000E+00  0.00000000000E+00 -0.13485704309E+04  0.24949465226E+04  0.20990750209E+04 0.  0.
        2    1    3    3  502    0  0.72525652500E+03 -0.45476236464E+03 -0.13960297165E+04  0.16375911592E+04  0.25500000920E-02 0. -1.
       -2    1    3    3    0  502 -0.72525652500E+03  0.45476236464E+03  0.47459285580E+02  0.85735536340E+03  0.25500000920E-02 0.  1.
</event>
<event>
 5   0  0.3130517E-05  0.2108373E+04  0.7818609E-02  0.8557564E-01
        2   -1    0    0  501    0  0.00000000000E+00  0.00000000000E+00  0.21082524778E+04  0.21082524778E+04  0.25500000920E-02 0. -1.
       -2   -1    0    0    0  501  0.00000000000E+00  0.00000000000E+00 -0.52712362367E+03  0.52712362367E+03  0.25500000920E-02 0.  1.
    10030    2    1    2    0    0  0.00000000000E+00  0.00000000000E+00  0.15811288541E+04  0.26353761015E+04  0.21083734828E+04 0.  0.
        1    1    3    3  502    0  0.10446790352E+04 -0.68249908073E+01  0.96693161984E+03  0.14235018878E+04  0.50400001928E-02 0. -1.
       -1    1    3    3    0  502 -0.10446790352E+04  0.68249908073E+01  0.61419723429E+03  0.12118742137E+04  0.50400001928E-02 0.  1.
</event>
<event>
 5   0  0.3108326E-05  0.2095971E+04  0.7818609E-02  0.8563020E-01
        2   -1    0    0  501    0  0.00000000000E+00  0.00000000000E+00  0.26141198127E+04  0.26141198127E+04  0.25500000920E-02 0. -1.
       -2   -1    0    0    0  501  0.00000000000E+00  0.00000000000E+00 -0.42013132113E+03  0.42013132114E+03  0.25500000920E-02 0.  1.
    10030    2    1    2    0    0  0.00000000000E+00  0.00000000000E+00  0.21939884915E+04  0.30342511338E+04  0.20959710022E+04 0.  0.
        5    1    3    3  502    0 -0.86129647800E+03  0.39431532641E+03  0.44806941074E+03  0.10479048079E+04  0.46999998093E+01 0.  1.
       -5    1    3    3    0  502  0.86129647800E+03 -0.39431532641E+03  0.17459190808E+04  0.19863463259E+04  0.46999998093E+01 0. -1.
</event>
<event>
 5   0  0.3257130E-05  0.2092296E+04  0.7818609E-02  0.8564645E-01
       -2   -1    0    0    0  501  0.00000000000E+00  0.00000000000E+00  0.64987616105E+03  0.64987616105E+03  0.25500000920E-02 0. -1.
        2   -1    0    0  501    0  0.00000000000E+00  0.00000000000E+00 -0.16840524795E+04  0.16840524795E+04  0.25500000920E-02 0.  1.
    10030    2    1    2    0    0  0.00000000000E+00  0.00000000000E+00 -0.10341763184E+04  0.23339286405E+04  0.20922959259E+04 0.  0.
        3    1    3    3  502    0 -0.65121898651E+03 -0.74126766016E+03 -0.12928735842E+03  0.99512770218E+03  0.10100000352E+00 0.  1.
       -3    1    3    3    0  502  0.65121898651E+03  0.74126766016E+03 -0.90488896001E+03  0.13388009384E+04  0.10100000352E+00 0. -1.
</event>
<event>
 5   0  0.1513292E-05  0.2077168E+04  0.7818609E-02  0.8571368E-01
       -1   -1    0    0    0  501  0.00000000000E+00  0.00000000000E+00  0.80494715301E+03  0.80494715303E+03  0.50400001928E-02 0. -1.
        1   -1    0    0  501    0  0.00000000000E+00  0.00000000000E+00 -0.13400342703E+04  0.13400342703E+04  0.50400001928E-02 0.  1.
    10030    2    1    2    0    0  0.00000000000E+00  0.00000000000E+00 -0.53508711725E+03  0.21449814233E+04  0.20771680441E+04 0.  0.
        1    1    3    3  502    0  0.66945512424E+03 -0.55462755536E+03 -0.85431508763E+03  0.12188667513E+04  0.50400001928E-02 0. -1.
       -1    1    3    3    0  502 -0.66945512424E+03  0.55462755536E+03  0.31922797038E+03  0.92611467196E+03  0.50400001928E-02 0.  1.
</event>
<event>
 5   0  0.1466480E-05  0.2101322E+04  0.7818609E-02  0.8560661E-01
        1   -1    0    0  501    0  0.00000000000E+00  0.00000000000E+00  0.96390228132E+03  0.96390228133E+03  0.50400001928E-02 0. -1.
       -1   -1    0    0    0  501  0.00000000000E+00  0.00000000000E+00 -0.11452282030E+04  0.11452282030E+04  0.50400001928E-02 0.  1.
    10030    2    1    2    0    0  0.00000000000E+00  0.00000000000E+00 -0.18132592171E+03  0.21091304844E+04  0.21013215628E+04 0.  0.
        3    1    3    3  502    0 -0.90358655465E+03  0.43515809462E+03 -0.40496693668E+03  0.10815865472E+04  0.10100000352E+00 0. -1.
       -3    1    3    3    0  502  0.90358655465E+03 -0.43515809462E+03  0.22364101497E+03  0.10275439372E+04  0.10100000352E+00 0.  1.
</event>
<event>
 5   0  0.1453430E-05  0.2104491E+04  0.7818609E-02  0.8559268E-01
        1   -1    0    0  501    0  0.00000000000E+00  0.00000000000E+00  0.12682984466E+04  0.12682984466E+04  0.50400001928E-02 0. -1.
       -1   -1    0    0    0  501  0.00000000000E+00  0.00000000000E+00 -0.87299705456E+03  0.87299705458E+03  0.50400001928E-02 0.  1.
    10030    2    1    2    0    0  0.00000000000E+00  0.00000000000E+00  0.39530139204E+03  0.21412955012E+04  0.21044912052E+04 0.  0.
        5    1    3    3  502    0  0.56355555687E+03  0.38044099744E+03 -0.61943022753E+03  0.91980765108E+03  0.46999998093E+01 0.  1.
       -5    1    3    3    0  502 -0.56355555687E+03 -0.38044099744E+03  0.10147316196E+04  0.12214878501E+04  0.46999998093E+01 0. -1.
</event>
<event>
 5   0  0.1466480E-05  0.2116169E+04  0.7818609E-02  0.8554154E-01
       -1   -1    0    0    0  501  0.00000000000E+00  0.00000000000E+00  0.52443419174E+03  0.52443419176E+03  0.50400001928E-02 0. -1.
        1   -1    0    0  501    0  0.00000000000E+00  0.00000000000E+00 -0.21347634699E+04  0.21347634699E+04  0.50400001928E-02 0.  1.
    10030    2    1    2    0    0  0.00000000000E+00  0.00000000000E+00 -0.16103292781E+04  0.26591976617E+04  0.21161691378E+04 0.  0.
        3    1    3    3  502    0 -0.90268346925E+03 -0.23303356287E+03 -0.17635650657E+03  0.94881173828E+03  0.10100000352E+00 0. -1.
       -3    1    3    3    0  502  0.90268346925E+03  0.23303356287E+03 -0.14339727716E+04  0.17103859234E+04  0.10100000352E+00 0.  1.
</event>
<event>
 5   0  0.3279789E-05  0.2101005E+04  0.7818609E-02  0.8560801E-01
       -2   -1    0    0    0  501  0.00000000000E+00  0.00000000000E+00  0.84822587687E+03  0.84822587687E+03  0.25500000920E-02 0. -1.
        2   -1    0    0  501    0  0.00000000000E+00  0.00000000000E+00 -0.13010156606E+04  0.13010156606E+04  0.25500000920E-02 0.  1.
    10030    2    1    2    0    0  0.00000000000E+00  0.00000000000E+00 -0.45278978377E+03  0.21492415375E+04  0.21010046640E+04 0.  0.
        2    1    3    3  502    0 -0.16010823680E+03 -0.97045739090E+02  0.83102142081E+03  0.85185041223E+03  0.25500000920E-02 0. -1.
       -2    1    3    3    0  502  0.16010823680E+03  0.97045739090E+02 -0.12838112046E+04  0.12973911253E+04  0.25500000920E-02 0.  1.
</event>
<event>
 5   0  0.3257130E-05  0.2155651E+04  0.7818609E-02  0.8537117E-01
        2   -1    0    0  501    0  0.00000000000E+00  0.00000000000E+00  0.90083813645E+03  0.90083813645E+03  0.25500000920E-02 0.  1.
       -2   -1    0    0    0  501  0.00000000000E+00  0.00000000000E+00 -0.12895854911E+04  0.12895854911E+04  0.25500000920E-02 0. -1.
    10030    2    1    2    0    0  0.00000000000E+00  0.00000000000E+00 -0.38874735470E+03  0.21904236276E+04  0.21556509835E+04 0.  0.
        3    1    3    3  502    0 -0.78251475710E+03 -0.25858368809E+03 -0.90021021920E+03  0.12204807732E+04  0.10100000352E+00 0. -1.
       -3    1    3    3    0  502  0.78251475710E+03  0.25858368809E+03  0.51146286450E+03  0.96994285439E+03  0.10100000352E+00 0.  1.
</event>
<event>
 5   0  0.1466480E-05  0.2092287E+04  0.7818609E-02  0.8564649E-01
       -1   -1    0    0    0  501  0.00000000000E+00  0.00000000000E+00  0.80515001982E+03  0.80515001983E+03  0.50400001928E-02 0.  1.
        1   -1    0    0  501    0  0.00000000000E+00  0.00000000000E+00 -0.13592699879E+04  0.13592699879E+04  0.50400001928E-02 0. -1.
    10030    2    1    2    0    0  0.00000000000E+00  0.00000000000E+00 -0.55411996805E+03  0.21644200077E+04  0.20922870336E+04 0.  0.
        3    1    3    3  502    0  0.73021941660E+03 -0.53004452838E+03 -0.82469604764E+03  0.12224120335E+04  0.10100000352E+00 0. -1.
       -3    1    3    3    0  502 -0.73021941660E+03  0.53004452838E+03  0.27057607959E+03  0.94200797422E+03  0.10100000352E+00 0.  1.
</event>
<event>
 5   0  0.1435410E-05  0.2103513E+04  0.7818609E-02  0.8559697E-01
        1   -1    0    0  501    0  0.00000000000E+00  0.00000000000E+00  0.95129296485E+03  0.95129296486E+03  0.50400001928E-02 0. -1.
       -1   -1    0    0    0  501  0.00000000000E+00  0.00000000000E+00 -0.11628301917E+04  0.11628301917E+04  0.50400001928E-02 0.  1.
    10030    2    1    2    0    0  0.00000000000E+00  0.00000000000E+00 -0.21153722686E+03  0.21141231566E+04  0.21035134235E+04 0.  0.
        2    1    3    3  502    0  0.83408957745E+03 -0.35339949750E+03 -0.64287549352E+03  0.11108040008E+04  0.25500000920E-02 0.  1.
       -2    1    3    3    0  502 -0.83408957745E+03  0.35339949750E+03  0.43133826666E+03  0.10033191558E+04  0.25500000920E-02 0. -1.
</event>
<event>
 5   0  0.3279789E-05  0.2074378E+04  0.7818609E-02  0.8572615E-01
        2   -1    0    0  501    0  0.00000000000E+00  0.00000000000E+00  0.72799995981E+03  0.72799995981E+03  0.25500000920E-02 0.  1.
       -2   -1    0    0    0  501  0.00000000000E+00  0.00000000000E+00 -0.14776937949E+04  0.14776937949E+04  0.25500000920E-02 0. -1.
    10030    2    1    2    0    0  0.00000000000E+00  0.00000000000E+00 -0.74969383512E+03  0.22056937547E+04  0.20743780015E+04 0.  0.
        2    1    3    3  502    0  0.32145344353E+03 -0.54739167892E+03  0.49731560401E+03  0.80640732667E+03  0.25500000920E-02 0.  1.
       -2    1    3    3    0  502 -0.32145344353E+03  0.54739167892E+03 -0.12470094391E+04  0.13992864281E+04  0.25500000920E-02 0. -1.
</event>
<event>
 5   0  0.1492552E-05  0.2101162E+04  0.7818609E-02  0.8560732E-01
       -1   -1    0    0    0  501  0.00000000000E+00  0.00000000000E+00  0.51642230170E+03  0.51642230172E+03  0.50400001928E-02 0.  1.
        1   -1    0    0  501    0  0.00000000000E+00  0.00000000000E+00 -0.21372434774E+04  0.21372434775E+04  0.50400001928E-02 0. -1.
    10030    2    1    2    0    0  0.00000000000E+00  0.00000000000E+00 -0.16208211757E+04  0.26536657792E+04  0.21011617700E+04 0.  0.
        4    1    3    3  502    0 -0.93855584828E+03  0.27241763265E+03 -0.32352652285E+03  0.10294510531E+04  0.12699999809E+01 0.  1.
       -4    1    3    3    0  502  0.93855584828E+03 -0.27241763265E+03 -0.12972946529E+04  0.16242147260E+04  0.12699999809E+01 0. -1.
</event>
<event>
 5   0  0.3130517E-05  0.2100984E+04  0.7818609E-02  0.8560810E-01
        2   -1    0    0  501    0  0.00000000000E+00  0.00000000000E+00  0.58796555863E+03  0.58796555864E+03  0.25500000920E-02 0.  1.
       -2   -1    0    0    0  501  0.00000000000E+00  0.00000000000E+00 -0.18768669720E+04  0.18768669720E+04  0.25500000920E-02 0. -1.
    10030    2    1    2    0    0  0.00000000000E+00  0.00000000000E+00 -0.12889014134E+04  0.24648325307E+04  0.21009837103E+04 0.  0.
        1    1    3    3  502    0 -0.73292756220E+03  0.40427263525E+03 -0.13891327656E+04  0.16218227448E+04  0.50400001928E-02 0. -1.
       -1    1    3    3    0  502  0.73292756220E+03 -0.40427263525E+03  0.10023135223E+03  0.84300978585E+03  0.50400001928E-02 0.  1.
</event>
<event>
 5   0  0.1492552E-05  0.2107204E+04  0.7818609E-02  0.8558077E-01
        1   -1    0    0  501    0  0.00000000000E+00  0.00000000000E+00  0.14299094548E+04  0.14299094549E+04  0.50400001928E-02 0. -1.
       -1   -1    0    0    0  501  0.00000000000E+00  0.00000000000E+00 -0.77632686727E+03  0.77632686729E+03  0.50400001928E-02 0.  1.
    10030    2    1    2    0    0  0.00000000000E+00  0.00000000000E+00  0.65358258757E+03  0.22062363221E+04  0.21072039556E+04 0.  0.
        4    1    3    3  502    0 -0.29733808757E+03 -0.10085342517E+04  0.39721489899E+03  0.11239806778E+04  0.12699999809E+01 0.  1.
       -4    1    3    3    0  502  0.29733808757E+03  0.10085342517E+04  0.25636768858E+03  0.10822556444E+04  0.12699999809E+01 0. -1.
</event>
<event>
 5   0  0.1466480E-05  0.2092594E+04  0.7818609E-02  0.8564513E-01
        1   -1    0    0  501    0  0.00000000000E+00  0.00000000000E+00  0.14917985379E+04  0.14917985380E+04  0.50400001928E-02 0.  1.
       -1   -1    0    0    0  501  0.00000000000E+00  0.00000000000E+00 -0.73383747455E+03  0.73383747456E+03  0.50400001928E-02 0. -1.
    10030    2    1    2    0    0  0.00000000000E+00  0.00000000000E+00  0.75796106340E+03  0.22256360125E+04  0.20925942480E+04 0.  0.
        3    1    3    3  502    0 -0.95048505027E+03  0.30961660500E+03  0.50382628496E+02  0.10009109313E+04  0.10100000352E+00 0. -1.
       -3    1    3    3    0  502  0.95048505027E+03 -0.30961660500E+03  0.70757843491E+03  0.12247250812E+04  0.10100000352E+00 0.  1.
</event>
<event>
 5   0  0.1435410E-05  0.2075454E+04  0.7818609E-02  0.8572134E-01
       -1   -1    0    0    0  501  0.00000000000E+00  0.00000000000E+00  0.10010974458E+04  0.10010974458E+04  0.50400001928E-02 0. -1.
        1   -1    0    0  501    0  0.00000000000E+00  0.00000000000E+00 -0.10756966138E+04  0.10756966138E+04  0.50400001928E-02 0.  1.
    10030    2    1    2    0    0  0.00000000000E+00  0.00000000000E+00 -0.74599167930E+02  0.20767940596E+04  0.20754538131E+04 0.  0.
        2    1    3    3  502    0  0.83719486958E+03  0.44768347747E+03 -0.45657061969E+03  0.10534573918E+04  0.25500000920E-02 0.  1.
       -2    1    3    3    0  502 -0.83719486958E+03 -0.44768347747E+03  0.38197145176E+03  0.10233366678E+04  0.25500000920E-02 0. -1.
</event>
<event>
 5   0  0.3130517E-05  0.2067979E+04  0.7818609E-02  0.8575482E-01
        2   -1    0    0  501    0  0.00000000000E+00  0.00000000000E+00  0.12650170270E+04  0.12650170270E+04  0.25500000920E-02 0. -1.
       -2   -1    0    0    0  501  0.00000000000E+00  0.00000000000E+00 -0.84515373215E+03  0.84515373216E+03  0.25500000920E-02 0.  1.
    10030    2    1    2    0    0  0.00000000000E+00  0.00000000000E+00  0.41986329485E+03  0.21101707592E+04  0.20679785895E+04 0.  0.
        1    1    3    3  502    0  0.47136511042E+03  0.16134524296E+02 -0.72899872078E+03  0.86826523893E+03  0.50400001928E-02 0.  1.
       -1    1    3    3    0  502 -0.47136511042E+03 -0.16134524296E+02  0.11488620156E+04  0.12419055202E+04  0.50400001928E-02 0. -1.
</event>
<event>
 5   0  0.3108326E-05  0.2109432E+04  0.7818609E-02  0.8557100E-01
       -2   -1    0    0    0  501  0.00000000000E+00  0.00000000000E+00  0.83590809331E+03  0.83590809332E+03  0.25500000920E-02 0. -1.
        2   -1    0    0  501    0  0.00000000000E+00  0.00000000000E+00 -0.13307986797E+04  0.13307986797E+04  0.25500000920E-02 0.  1.
    10030    2    1    2    0    0  0.00000000000E+00  0.00000000000E+00 -0.49489058639E+03  0.21667067730E+04  0.21094315698E+04 0.  0.
        5    1    3    3  502    0 -0.86487402952E+03 -0.29078703299E+03 -0.79080684694E+03  0.12074608667E+04  0.46999998093E+01 0.  1.
       -5    1    3    3    0  502  0.86487402952E+03  0.29078703299E+03  0.29591626055E+03  0.95924590630E+03  0.46999998093E+01 0. -1.
</event>
<event>
 5   0  0.1453430E-05  0.2106969E+04  0.7818609E-02  0.8558180E-01
        1   -1    0    0  501    0  0.00000000000E+00  0.00000000000E+00  0.11442014903E+04  0.11442014903E+04  0.50400001928E-02 0. -1.
       -1   -1    0    0    0  501  0.00000000000E+00  0.00000000000E+00 -0.96996006968E+03  0.96996006969E+03  0.50400001928E-02 0.  1.
    10030    2    1    2    0    0  0.00000000000E+00  0.00000000000E+00  0.17424142060E+03  0.21141615600E+04  0.21069691571E+04 0.  0.
        5    1    3    3  502    0 -0.31530621498E+03  0.69638035342E+02  0.10933100534E+04  0.11400072052E+04  0.46999998093E+01 0. -1.
       -5    1    3    3    0  502  0.31530621498E+03 -0.69638035342E+02 -0.91906863276E+03  0.97415435476E+03  0.46999998093E+01 0.  1.
</event>
<event>
 5   0  0.3242231E-05  0.2093652E+04  0.7818609E-02  0.8564045E-01
       -2   -1    0    0    0  501  0.00000000000E+00  0.00000000000E+00  0.54114420571E+03  0.54114420571E+03  0.25500000920E-02 0. -1.
        2   -1    0    0  501    0  0.00000000000E+00  0.00000000000E+00 -0.20250513667E+04  0.20250513667E+04  0.25500000920E-02 0.  1.
    10030    2    1    2    0    0  0.00000000000E+00  0.00000000000E+00 -0.14839071610E+04  0.25661955725E+04  0.20936521329E+04 0.  0.
        4    1    3    3  502    0 -0.40868798883E+03 -0.88946519264E+03 -0.28717154065E+03  0.10201192616E+04  0.12699999809E+01 0.  1.
       -4    1    3    3    0  502  0.40868798883E+03  0.88946519264E+03 -0.11967356204E+04  0.15460763109E+04  0.12699999809E+01 0. -1.
</event>
<event>
 5   0  0.1513292E-05  0.2099108E+04  0.7818609E-02  0.8561636E-01
       -1   -1    0    0    0  501  0.00000000000E+00  0.00000000000E+00  0.77558489848E+03  0.77558489850E+03  0.50400001928E-02 0. -1.
        1   -1    0    0  501    0  0.00000000000E+00  0.00000000000E+00 -0.14203010950E+04  0.14203010950E+04  0.50400001928E-02 0.  1.
    10030    2    1    2    0    0  0.00000000000E+00  0.00000000000E+00 -0.64471619652E+03  0.21958859935E+04  0.20991084589E+04 0.  0.
        1    1    3    3  502    0 -0.46019544909E+03  0.69877703518E+02 -0.13064198116E+04  0.13868653392E+04  0.50400001928E-02 0.  1.
       -1    1    3    3    0  502  0.46019544909E+03 -0.69877703518E+02  0.66170361511E+03  0.80902065431E+03  0.50400001928E-02 0. -1.
</event>
<event>
 5   0  0.1453430E-05  0.2089614E+04  0.7818609E-02  0.8565832E-01
       -1   -1    0    0    0  501  0.00000000000E+00  0.00000000000E+00  0.45053599748E+03  0.45053599751E+03  0.50400001928E-02 0. -1.
        1   -1    0    0  501    0  0.00000000000E+00  0.00000000000E+00 -0.24229402584E+04  0.24229402584E+04  0.50400001928E-02 0.  1.
    10030    2    1    2    0    0  0.00000000000E+00  0.00000000000E+00 -0.19724042609E+04  0.28734762559E+04  0.20896141330E+04 0.  0.
        5    1    3    3  502    0 -0.28684745579E+03 -0.95323081815E+03 -0.54989736616E+03  0.11372509217E+04  0.46999998093E+01 0. -1.
       -5    1    3    3    0  502  0.28684745579E+03  0.95323081815E+03 -0.14225068947E+04  0.17362253342E+04  0.46999998093E+01 0.  1.
</event>
<event>
 5   0  0.1435410E-05  0.2101526E+04  0.7818609E-02  0.8560572E-01
        1   -1    0    0  501    0  0.00000000000E+00  0.00000000000E+00  0.13118836605E+04  0.13118836606E+04  0.50400001928E-02 0. -1.
       -1   -1    0    0    0  501  0.00000000000E+00  0.00000000000E+00 -0.84161625891E+03  0.84161625893E+03  0.50400001928E-02 0.  1.
    10030    2    1    2    0    0  0.00000000000E+00  0.00000000000E+00  0.47026740163E+03  0.21534999195E+04  0.21015257491E+04 0.  0.
        2    1    3    3  502    0 -0.71608947594E+03  0.40458833601E+02  0.10220325664E+04  0.12485878509E+04  0.25500000920E-02 0. -1.
       -2    1    3    3    0  502  0.71608947594E+03 -0.40458833601E+02 -0.55176516474E+03  0.90491206854E+03  0.25500000920E-02 0.  1.
</event>
<event>
 5   0  0.1435410E-05  0.2101004E+04  0.7818609E-02  0.8560801E-01
       -1   -1    0    0    0  501  0.00000000000E+00  0.00000000000E+00  0.11415192276E+04  0.11415192276E+04  0.50400001928E-02 0. -1.
        1   -1    0    0  501    0  0.00000000000E+00  0.00000000000E+00 -0.96674155467E+03  0.96674155469E+03  0.50400001928E-02 0.  1.
    10030    2    1    2    0    0  0.00000000000E+00  0.00000000000E+00  0.17477767296E+03  0.21082607823E+04  0.21010036391E+04 0.  0.
        2    1    3    3  502    0  0.68782472786E+03 -0.79398199011E+03  0.80746611227E+02  0.10535797417E+04  0.25500000920E-02 0. -1.
       -2    1    3    3    0  502 -0.68782472786E+03  0.79398199011E+03  0.94031061734E+02  0.10546810406E+04  0.25500000920E-02 0.  1.
</event>
<event>
 5   0  0.1453430E-05  0.2083629E+04  0.7818609E-02  0.8568490E-01
        1   -1    0    0  501    0  0.00000000000E+00  0.00000000000E+00  0.76058164718E+03  0.76058164720E+03  0.50400001928E-02 0. -1.
       -1   -1    0    0    0  501  0.00000000000E+00  0.00000000000E+00 -0.14270356822E+04  0.14270356822E+04  0.50400001928E-02 0.  1.
    10030    2    1    2    0    0  0.00000000000E+00  0.00000000000E+00 -0.66645403501E+03  0.21876173294E+04  0.20836287095E+04 0.  0.
        5    1    3    3  502    0 -0.83915435356E+02 -0.79315860582E+03 -0.10369099673E+04  0.13081845224E+04  0.46999998093E+01 0.  1.
       -5    1    3    3    0  502  0.83915435356E+02  0.79315860582E+03  0.37045593231E+03  0.87943280702E+03  0.46999998093E+01 0. -1.
</event>
<event>
 5   0  0.1453430E-05  0.2083433E+04  0.7818609E-02  0.8568577E-01
        1   -1    0    0  501    0  0.00000000000E+00  0.00000000000E+00  0.12668609531E+04  0.12668609531E+04  0.50400001928E-02 0. -1.
       -1   -1    0    0    0  501  0.00000000000E+00  0.00000000000E+00 -0.85658409694E+03  0.85658409695E+03  0.50400001928E-02 0.  1.
    10030    2    1    2    0    0  0.00000000000E+00  0.00000000000E+00  0.41027685612E+03  0.21234450500E+04  0.20834326919E+04 0.  0.
        5    1    3    3  502    0  0.88470023942E+02  0.84396629117E+02 -0.84923451524E+03  0.85800413053E+03  0.46999998093E+01 0.  1.
       -5    1    3    3    0  502 -0.88470023942E+02 -0.84396629117E+02  0.12595113714E+04  0.12654409195E+04  0.46999998093E+01 0. -1.
</event>
<event>
 5   0  0.1435410E-05  0.2100269E+04  0.7818609E-02  0.8561125E-01
        1   -1    0    0  501    0  0.00000000000E+00  0.00000000000E+00  0.16785282659E+04  0.16785282659E+04  0.50400001928E-02 0. -1.
       -1   -1    0    0    0  501  0.00000000000E+00  0.00000000000E+00 -0.65699375687E+03  0.65699375689E+03  0.50400001928E-02 0.  1.
    10030    2    1    2    0    0  0.00000000000E+00  0.00000000000E+00  0.10215345090E+04  0.23355220228E+04  0.21002691175E+04 0.  0.
        2    1    3    3  502    0 -0.31896512601E+03  0.42151048523E+03 -0.49827014931E+03  0.72641791172E+03  0.25500000920E-02 0.  1.
       -2    1    3    3    0  502  0.31896512601E+03 -0.42151048523E+03  0.15198046583E+04  0.16091041111E+04  0.25500000920E-02 0. -1.
</event>
<event>
 5   0  0.1435410E-05  0.2112402E+04  0.7818609E-02  0.8555800E-01
        1   -1    0    0  501    0  0.00000000000E+00  0.00000000000E+00  0.17920827507E+04  0.17920827507E+04  0.50400001928E-02 0. -1.
       -1   -1    0    0    0  501  0.00000000000E+00  0.00000000000E+00 -0.62249395227E+03  0.62249395229E+03  0.50400001928E-02 0.  1.
    10030    2    1    2    0    0  0.00000000000E+00  0.00000000000E+00  0.11695887984E+04  0.24145767030E+04  0.21124021154E+04 0.  0.
        2    1    3    3  502    0  0.59662265019E+03 -0.85228526368E+03  0.37648379260E+03  0.11063854679E+04  0.25500000920E-02 0.  1.
       -2    1    3    3    0  502 -0.59662265019E+03  0.85228526368E+03  0.79310500582E+03  0.13081912351E+04  0.25500000920E-02 0. -1.
</event>
<event>
 5   0  0.1435410E-05  0.2085765E+04  0.7818609E-02  0.8567540E-01
       -1   -1    0    0    0  501  0.00000000000E+00  0.00000000000E+00  0.15330786011E+04  0.15330786011E+04  0.50400001928E-02 0. -1.
        1   -1    0    0  501    0  0.00000000000E+00  0.00000000000E+00 -0.70942480044E+03  0.70942480046E+03  0.50400001928E-02 0.  1.
    10030    2    1    2    0    0  0.00000000000E+00  0.00000000000E+00  0.82365380062E+03  0.22425034015E+04  0.20857650689E+04 0.  0.
        2    1    3    3  502    0  0.20370073373E+02 -0.30212518026E+02 -0.70874018498E+03  0.70967625432E+03  0.25500000920E-02 0.  1.
       -2    1    3    3    0  502 -0.20370073373E+02  0.30212518026E+02  0.15323939856E+04  0.15328271472E+04  0.25500000920E-02 0. -1.
</event>
<event>
 5   0  0.3130517E-05  0.2096011E+04  0.7818609E-02  0.8563002E-01
       -2   -1    0    0    0  501  0.00000000000E+00  0.00000000000E+00  0.51114450359E+03  0.51114450359E+03  0.25500000920E-02 0. -1.
        2   -1    0    0  501    0  0.00000000000E+00  0.00000000000E+00 -0.21487382952E+04  0.21487382952E+04  0.25500000920E-02 0.  1.
    10030    2    1    2    0    0  0.00000000000E+00  0.00000000000E+00 -0.16375937916E+04  0.26598827988E+04  0.20960112302E+04 0.  0.
        1    1    3    3  502    0  0.51395235877E+03  0.36864068440E+03 -0.18792255503E+04  0.19828090302E+04  0.50400001928E-02 0.  1.
       -1    1    3    3    0  502 -0.51395235877E+03 -0.36864068440E+03  0.24163175870E+03  0.67707376859E+03  0.50400001928E-02 0. -1.
</event>
<event>
 5   0  0.1453430E-05  0.2102506E+04  0.7818609E-02  0.8560140E-01
       -1   -1    0    0    0  501  0.00000000000E+00  0.00000000000E+00  0.16731793935E+04  0.16731793935E+04  0.50400001928E-02 0.  1.
        1   -1    0    0  501    0  0.00000000000E+00  0.00000000000E+00 -0.66049896050E+03  0.66049896052E+03  0.50400001928E-02 0. -1.
    10030    2    1    2    0    0  0.00000000000E+00  0.00000000000E+00  0.10126804330E+04  0.23336783540E+04  0.21025063616E+04 0.  0.
        5    1    3    3  502    0 -0.37857706959E+03 -0.21024320403E+03  0.15695712070E+04  0.16282194773E+04  0.46999998093E+01 0.  1.
       -5    1    3    3    0  502  0.37857706959E+03  0.21024320403E+03 -0.55689077404E+03  0.70545887667E+03  0.46999998093E+01 0. -1.
</event>
<event>
 5   0  0.1435410E-05  0.2097571E+04  0.7818609E-02  0.8562314E-01
       -1   -1    0    0    0  501  0.00000000000E+00  0.00000000000E+00  0.96238563918E+03  0.96238563920E+03  0.50400001928E-02 0.  1.
        1   -1    0    0  501    0  0.00000000000E+00  0.00000000000E+00 -0.11429419943E+04  0.11429419943E+04  0.50400001928E-02 0. -1.
    10030    2    1    2    0    0  0.00000000000E+00  0.00000000000E+00 -0.18055635510E+03  0.21053276335E+04  0.20975709397E+04 0.  0.
        2    1    3    3  502    0  0.77740740015E+03  0.43614292262E+03 -0.64492282860E+03  0.11002310528E+04  0.25500000920E-02 0.  1.
       -2    1    3    3    0  502 -0.77740740015E+03 -0.43614292262E+03  0.46436647350E+03  0.10050965807E+04  0.25500000920E-02 0. -1.
</event>
<event>
 5   0  0.1513292E-05  0.2097075E+04  0.7818609E-02  0.8562533E-01
       -1   -1    0    0    0  501  0.00000000000E+00  0.00000000000E+00  0.50391255755E+03  0.50391255757E+03  0.50400001928E-02 0.  1.
        1   -1    0    0  501    0  0.00000000000E+00  0.00000000000E+00 -0.21817898048E+04  0.21817898048E+04  0.50400001928E-02 0. -1.
    10030    2    1    2    0    0  0.00000000000E+00  0.00000000000E+00 -0.16778772472E+04  0.26857023624E+04  0.20970753736E+04 0.  0.
        1    1    3    3  502    0  0.21214461191E+03  0.27827114843E+03 -0.21048087395E+04  0.21336963229E+04  0.50400001928E-02 0. -1.
       -1    1    3    3    0  502 -0.21214461191E+03 -0.27827114843E+03  0.42693149231E+03  0.55200603943E+03  0.50400001928E-02 0.  1.
</event>
<event>
 5   0  0.3108326E-05  0.2100250E+04  0.7818609E-02  0.8561133E-01
       -2   -1    0    0    0  501  0.00000000000E+00  0.00000000000E+00  0.11778200018E+04  0.11778200018E+04  0.25500000920E-02 0.  1.
        2   -1    0    0  501    0  0.00000000000E+00  0.00000000000E+00 -0.93627415470E+03  0.93627415470E+03  0.25500000920E-02 0. -1.
    10030    2    1    2    0    0  0.00000000000E+00  0.00000000000E+00  0.24154584709E+03  0.21140941565E+04  0.21002499152E+04 0.  0.
        5    1    3    3  502    0 -0.11605851620E+03 -0.43965322363E+03 -0.83202650911E+03  0.94818497040E+03  0.46999998093E+01 0. -1.
       -5    1    3    3    0  502  0.11605851620E+03  0.43965322363E+03  0.10735723562E+04  0.11659091861E+04  0.46999998093E+01 0.  1.
</event>
<event>
 5   0  0.3108326E-05  0.2198258E+04  0.7818609E-02  0.8519154E-01
       -2   -1    0    0    0  501  0.00000000000E+00  0.00000000000E+00  0.76749445953E+03  0.76749445954E+03  0.25500000920E-02 0. -1.
        2   -1    0    0  501    0  0.00000000000E+00  0.00000000000E+00 -0.15740623336E+04  0.15740623336E+04  0.25500000920E-02 0.  1.
    10030    2    1    2    0    0  0.00000000000E+00  0.00000000000E+00 -0.80656787405E+03  0.23415567931E+04  0.21982576009E+04 0.  0.
        5    1    3    3  502    0  0.10752771828E+04  0.20736629670E+03 -0.30313234141E+03  0.11362803823E+04  0.46999998093E+01 0. -1.
       -5    1    3    3    0  502 -0.10752771828E+04 -0.20736629670E+03 -0.50343553265E+03  0.12052764108E+04  0.46999998093E+01 0.  1.
</event>
<event>
 5   0  0.3242231E-05  0.2087726E+04  0.7818609E-02  0.8566669E-01
       -2   -1    0    0    0  501  0.00000000000E+00  0.00000000000E+00  0.11334386376E+04  0.11334386376E+04  0.25500000920E-02 0. -1.
        2   -1    0    0  501    0  0.00000000000E+00  0.00000000000E+00 -0.96136689018E+03  0.96136689018E+03  0.25500000920E-02 0.  1.
    10030    2    1    2    0    0  0.00000000000E+00  0.00000000000E+00  0.17207174742E+03  0.20948055278E+04  0.20877263980E+04 0.  0.
        4    1    3    3  502    0  0.42528321973E+03  0.45050633321E+03  0.92901973430E+03  0.11166472374E+04  0.12699999809E+01 0.  1.
       -4    1    3    3    0  502 -0.42528321973E+03 -0.45050633321E+03 -0.75694798688E+03  0.97815829035E+03  0.12699999809E+01 0. -1.
</event>
<event>
 5   0  0.1453430E-05  0.2089061E+04  0.7818609E-02  0.8566077E-01
        1   -1    0    0  501    0  0.00000000000E+00  0.00000000000E+00  0.17071275625E+04  0.17071275625E+04  0.50400001928E-02 0.  1.
       -1   -1    0    0    0  501  0.00000000000E+00  0.00000000000E+00 -0.63911119534E+03  0.63911119536E+03  0.50400001928E-02 0. -1.
    10030    2    1    2    0    0  0.00000000000E+00  0.00000000000E+00  0.10680163672E+04  0.23462387579E+04  0.20890613558E+04 0.  0.
        5    1    3    3  502    0 -0.76247538357E+03 -0.71248919063E+03  0.58439413148E+03  0.11960552446E+04  0.46999998093E+01 0. -1.
       -5    1    3    3    0  502  0.76247538357E+03  0.71248919063E+03  0.48362223571E+03  0.11501835133E+04  0.46999998093E+01 0.  1.
</event>
<event>
 5   0  0.3279789E-05  0.2099095E+04  0.7818609E-02  0.8561642E-01
       -2   -1    0    0    0  501  0.00000000000E+00  0.00000000000E+00  0.47788337332E+03  0.47788337332E+03  0.25500000920E-02 0.  1.
        2   -1    0    0  501    0  0.00000000000E+00  0.00000000000E+00 -0.23050594115E+04  0.23050594115E+04  0.25500000920E-02 0. -1.
    10030    2    1    2    0    0  0.00000000000E+00  0.00000000000E+00 -0.18271760382E+04  0.27829427848E+04  0.20990946308E+04 0.  0.
        2    1    3    3  502    0  0.46103092524E+03  0.26324335032E+03 -0.21139176304E+04  0.21795628744E+04  0.25500000920E-02 0. -1.
       -2    1    3    3    0  502 -0.46103092524E+03 -0.26324335032E+03  0.28674159223E+03  0.60337991037E+03  0.25500000920E-02 0.  1.
</event>
<event>
 5   0  0.1435410E-05  0.2071519E+04  0.7818609E-02  0.8573894E-01
        1   -1    0    0  501    0  0.00000000000E+00  0.00000000000E+00  0.13461780397E+04  0.13461780397E+04  0.50400001928E-02 0.  1.
       -1   -1    0    0    0  501  0.00000000000E+00  0.00000000000E+00 -0.79692133145E+03  0.79692133147E+03  0.50400001928E-02 0. -1.
    10030    2    1    2    0    0  0.00000000000E+00  0.00000000000E+00  0.54925670828E+03  0.21430993712E+04  0.20715192452E+04 0.  0.
        2    1    3    3  502    0  0.38436314873E+03  0.40893966791E+03  0.11752442535E+04  0.13023692785E+04  0.25500000920E-02 0.  1.
       -2    1    3    3    0  502 -0.38436314873E+03 -0.40893966791E+03 -0.62598754521E+03  0.84073009276E+03  0.25500000920E-02 0. -1.
</event>
<event>
 5   0  0.3279789E-05  0.2100384E+04  0.7818609E-02  0.8561074E-01
        2   -1    0    0  501    0  0.00000000000E+00  0.00000000000E+00  0.20027615251E+04  0.20027615251E+04  0.25500000920E-02 0.  1.
       -2   -1    0    0    0  501  0.00000000000E+00  0.00000000000E+00 -0.55069149952E+03  0.55069149953E+03  0.25500000920E-02 0. -1.
    10030    2    1    2    0    0  0.00000000000E+00  0.00000000000E+00  0.14520700256E+04  0.25534530246E+04  0.21003844862E+04 0.  0.
        2    1    3    3  502    0 -0.91601769513E+03 -0.17182304702E+03  0.13758719271E+03  0.94209437579E+03  0.25500000920E-02 0. -1.
       -2    1    3    3    0  502  0.91601769513E+03  0.17182304702E+03  0.13144828329E+04  0.16113586489E+04  0.25500000920E-02 0.  1.
</event>
<event>
 5   0  0.1453430E-05  0.2122119E+04  0.7818609E-02  0.8551562E-01
       -1   -1    0    0    0  501  0.00000000000E+00  0.00000000000E+00  0.11316740731E+04  0.11316740731E+04  0.50400001928E-02 0. -1.
        1   -1    0    0  501    0  0.00000000000E+00  0.00000000000E+00 -0.99485136489E+03  0.99485136490E+03  0.50400001928E-02 0.  1.
    10030    2    1    2    0    0  0.00000000000E+00  0.00000000000E+00  0.13682270817E+03  0.21265254380E+04  0.21221192202E+04 0.  0.
        5    1    3    3  502    0  0.35463332062E+03  0.99831061390E+03  0.96676917726E+01  0.10594830948E+04  0.46999998093E+01 0. -1.
       -5    1    3    3    0  502 -0.35463332062E+03 -0.99831061390E+03  0.12715501639E+03  0.10670423432E+04  0.46999998093E+01 0.  1.
</event>
<event>
 5   0  0.3242231E-05  0.2101986E+04  0.7818609E-02  0.8560369E-01
        2   -1    0    0  501    0  0.00000000000E+00  0.00000000000E+00  0.11580574399E+04  0.11580574399E+04  0.25500000920E-02 0. -1.
       -2   -1    0    0    0  501  0.00000000000E+00  0.00000000000E+00 -0.95382657671E+03  0.95382657671E+03  0.25500000920E-02 0.  1.
    10030    2    1    2    0    0  0.00000000000E+00  0.00000000000E+00  0.20423086317E+03  0.21118840166E+04  0.21019856931E+04 0.  0.
        4    1    3    3  502    0  0.33343413258E+03 -0.79730878292E+01  0.11034744357E+04  0.11527789615E+04  0.12699999809E+01 0. -1.
       -4    1    3    3    0  502 -0.33343413258E+03  0.79730878292E+01 -0.89924357258E+03  0.95910505506E+03  0.12699999809E+01 0.  1.
</event>
<event>
 5   0  0.1513292E-05  0.2089455E+04  0.7818609E-02  0.8565903E-01
        1   -1    0    0  501    0  0.00000000000E+00  0.00000000000E+00  0.11128594524E+04  0.11128594524E+04  0.50400001928E-02 0. -1.
       -1   -1    0    0    0  501  0.00000000000E+00  0.00000000000E+00 -0.98076695464E+03  0.98076695466E+03  0.50400001928E-02 0.  1.
    10030    2    1    2    0    0  0.00000000000E+00  0.00000000000E+00  0.13209249773E+03  0.20936264070E+04  0.20894552171E+04 0.  0.
        1    1    3    3  502    0 -0.55618367593E+03 -0.56207212106E+03 -0.61809818023E+03  0.10036486990E+04  0.50400001928E-02 0.  1.
       -1    1    3    3    0  502  0.55618367593E+03  0.56207212106E+03  0.75019067796E+03  0.10899777080E+04  0.50400001928E-02 0. -1.
</event>
<event>
 5   0  0.1453430E-05  0.2098300E+04  0.7818609E-02  0.8561993E-01
       -1   -1    0    0    0  501  0.00000000000E+00  0.00000000000E+00  0.67374846920E+03  0.67374846922E+03  0.50400001928E-02 0.  1.
        1   -1    0    0  501    0  0.00000000000E+00  0.00000000000E+00 -0.16337188901E+04  0.16337188901E+04  0.50400001928E-02 0. -1.
    10030    2    1    2    0    0  0.00000000000E+00  0.00000000000E+00 -0.95997042091E+03  0.23074673593E+04  0.20982998845E+04 0.  0.
        5    1    3    3  502    0  0.58451652307E+03 -0.69186870263E+03  0.10227828492E+03  0.91149591606E+03  0.46999998093E+01 0.  1.
       -5    1    3    3    0  502 -0.58451652307E+03  0.69186870263E+03 -0.10622487058E+04  0.13959714433E+04  0.46999998093E+01 0. -1.
</event>
<event>
 5   0  0.1513292E-05  0.2086287E+04  0.7818609E-02  0.8567308E-01
        1   -1    0    0  501    0  0.00000000000E+00  0.00000000000E+00  0.10100588176E+04  0.10100588177E+04  0.50400001928E-02 0. -1.
       -1   -1    0    0    0  501  0.00000000000E+00  0.00000000000E+00 -0.10773121978E+04  0.10773121979E+04  0.50400001928E-02 0.  1.
    10030    2    1    2    0    0  0.00000000000E+00  0.00000000000E+00 -0.67253380202E+02  0.20873710155E+04  0.20862873098E+04 0.  0.
        1    1    3    3  502    0  0.72357976532E+03 -0.71826004988E+03 -0.25438469884E+03  0.10507981495E+04  0.50400001928E-02 0.  1.
       -1    1    3    3    0  502 -0.72357976532E+03  0.71826004988E+03  0.18713131864E+03  0.10365728660E+04  0.50400001928E-02 0. -1.
</event>
<event>
 5   0  0.3279789E-05  0.2092537E+04  0.7818609E-02  0.8564538E-01
       -2   -1    0    0    0  501  0.00000000000E+00  0.00000000000E+00  0.15411827397E+04  0.15411827397E+04  0.25500000920E-02 0. -1.
        2   -1    0    0  501    0  0.00000000000E+00  0.00000000000E+00 -0.71028444762E+03  0.71028444762E+03  0.25500000920E-02 0.  1.
    10030    2    1    2    0    0  0.00000000000E+00  0.00000000000E+00  0.83089829206E+03  0.22514671873E+04  0.20925373411E+04 0.  0.
        2    1    3    3  502    0  0.73292959727E+03 -0.67043878747E+03  0.76904947828E+03  0.12562289052E+04  0.25500000920E-02 0.  1.
       -2    1    3    3    0  502 -0.73292959727E+03  0.67043878747E+03  0.61848813774E+02  0.99523828206E+03  0.25500000920E-02 0. -1.
</event>
<event>
 5   0  0.3257130E-05  0.2103326E+04  0.7818609E-02  0.8559780E-01
        2   -1    0    0  501    0  0.00000000000E+00  0.00000000000E+00  0.11646877061E+04  0.11646877061E+04  0.25500000920E-02 0. -1.
       -2   -1    0    0    0  501  0.00000000000E+00  0.00000000000E+00 -0.94960638308E+03  0.94960638308E+03  0.25500000920E-02 0.  1.
    10030    2    1    2    0    0  0.00000000000E+00  0.00000000000E+00  0.21508132299E+03  0.21142940892E+04  0.21033258235E+04 0.  0.
        3    1    3    3  502    0 -0.50214140174E+03 -0.85668410611E+03  0.45567196917E+03  0.10925614851E+04  0.10100000352E+00 0.  1.
       -3    1    3    3    0  502  0.50214140174E+03  0.85668410611E+03 -0.24059064619E+03  0.10217326041E+04  0.10100000352E+00 0. -1.
</event>
<event>
 5   0  0.1453430E-05  0.2100257E+04  0.7818609E-02  0.8561130E-01
        1   -1    0    0  501    0  0.00000000000E+00  0.00000000000E+00  0.18753921693E+04  0.18753921693E+04  0.50400001928E-02 0.  1.
       -1   -1    0    0    0  501  0.00000000000E+00  0.00000000000E+00 -0.58802106223E+03  0.58802106225E+03  0.50400001928E-02 0. -1.
    10030    2    1    2    0    0  0.00000000000E+00  0.00000000000E+00  0.12873711070E+04  0.24634132315E+04  0.21002572181E+04 0.  0.
        5    1    3    3  502    0  0.85791872230E+03 -0.55930534864E+03  0.37137580521E+03  0.10893984972E+04  0.46999998093E+01 0. -1.
       -5    1    3    3    0  502 -0.85791872230E+03  0.55930534864E+03  0.91599530184E+03  0.13740147343E+04  0.46999998093E+01 0.  1.
</event>
<event>
 5   0  0.3108326E-05  0.2093707E+04  0.7818609E-02  0.8564020E-01
       -2   -1    0    0    0  501  0.00000000000E+00  0.00000000000E+00  0.10239628884E+04  0.10239628884E+04  0.25500000920E-02 0. -1.
        2   -1    0    0  501    0  0.00000000000E+00  0.00000000000E+00 -0.10702562091E+04  0.10702562091E+04  0.25500000920E-02 0.  1.
    10030    2    1    2    0    0  0.00000000000E+00  0.00000000000E+00 -0.46293320722E+02  0.20942190975E+04  0.20937073714E+04 0.  0.
        5    1    3    3  502    0  0.69837742965E+03  0.50097781470E+03  0.57463704533E+03  0.10338953665E+04  0.46999998093E+01 0.  1.
       -5    1    3    3    0  502 -0.69837742965E+03 -0.50097781470E+03 -0.62093036605E+03  0.10603237310E+04  0.46999998093E+01 0. -1.
</event>
<event>
 5   0  0.3108326E-05  0.2099112E+04  0.7818609E-02  0.8561634E-01
       -2   -1    0    0    0  501  0.00000000000E+00  0.00000000000E+00  0.60870452138E+03  0.60870452138E+03  0.25500000920E-02 0.  1.
        2   -1    0    0  501    0  0.00000000000E+00  0.00000000000E+00 -0.18096928294E+04  0.18096928294E+04  0.25500000920E-02 0. -1.
    10030    2    1    2    0    0  0.00000000000E+00  0.00000000000E+00 -0.12009883080E+04  0.24183973508E+04  0.20991123911E+04 0.  0.
        5    1    3    3  502    0  0.57281236457E+03  0.69450243518E+02 -0.16105482536E+04  0.17107966298E+04  0.46999998093E+01 0. -1.
       -5    1    3    3    0  502 -0.57281236457E+03 -0.69450243518E+02  0.40955994557E+03  0.70760072099E+03  0.46999998093E+01 0.  1.
</event>
<event>
 5   0  0.3108326E-05  0.2243314E+04  0.7818609E-02  0.8500613E-01
       -2   -1    0    0    0  501  0.00000000000E+00  0.00000000000E+00  0.76178958705E+03  0.76178958706E+03  0.25500000920E-02 0. -1.
        2   -1    0    0  501    0  0.00000000000E+00  0.00000000000E+00 -0.16515254279E+04  0.16515254279E+04  0.25500000920E-02 0.  1.
    10030    2    1    2    0    0  0.00000000000E+00  0.00000000000E+00 -0.88973584082E+03  0.24133150149E+04  0.22433143995E+04 0.  0.
        5    1    3    3  502    0  0.99568599048E+03  0.48730267618E+03 -0.62881795944E+03  0.12744758162E+04  0.46999998093E+01 0.  1.
       -5    1    3    3    0  502 -0.99568599048E+03 -0.48730267618E+03 -0.26091788138E+03  0.11388391988E+04  0.46999998093E+01 0. -1.
</event>
<event>
 5   0  0.1513292E-05  0.2105735E+04  0.7818609E-02  0.8558721E-01
        1   -1    0    0  501    0  0.00000000000E+00  0.00000000000E+00  0.15495113953E+04  0.15495113953E+04  0.50400001928E-02 0.  1.
       -1   -1    0    0    0  501  0.00000000000E+00  0.00000000000E+00 -0.71540637985E+03  0.71540637987E+03  0.50400001928E-02 0. -1.
    10030    2    1    2    0    0  0.00000000000E+00  0.00000000000E+00  0.83410501545E+03  0.22649177752E+04  0.21057353470E+04 0.  0.
        1    1    3    3  502    0  0.63130651621E+03 -0.83977288691E+03  0.49129128852E+03  0.11597989262E+04  0.50400001928E-02 0. -1.
       -1    1    3    3    0  502 -0.63130651621E+03  0.83977288691E+03  0.34281372693E+03  0.11051188490E+04  0.50400001928E-02 0.  1.
</event>
<event>
 5   0  0.3242231E-05  0.2097167E+04  0.7818609E-02  0.8562493E-01
        2   -1    0    0  501    0  0.00000000000E+00  0.00000000000E+00  0.18262123499E+04  0.18262123499E+04  0.25500000920E-02 0.  1.
       -2   -1    0    0    0  501  0.00000000000E+00  0.00000000000E+00 -0.60208058562E+03  0.60208058563E+03  0.25500000920E-02 0. -1.
    10030    2    1    2    0    0  0.00000000000E+00  0.00000000000E+00  0.12241317643E+04  0.24282929355E+04  0.20971666611E+04 0.  0.
        4    1    3    3  502    0  0.19930113451E+03  0.53268462018E+03 -0.40796522014E+03  0.69993648322E+03  0.12699999809E+01 0. -1.
       -4    1    3    3    0  502 -0.19930113451E+03 -0.53268462018E+03  0.16320969844E+04  0.17283564523E+04  0.12699999809E+01 0.  1.
</event>
<event>
 5   0  0.1513292E-05  0.2106802E+04  0.7818609E-02  0.8558253E-01
        1   -1    0    0  501    0  0.00000000000E+00  0.00000000000E+00  0.70602285648E+03  0.70602285650E+03  0.50400001928E-02 0.  1.
       -1   -1    0    0    0  501  0.00000000000E+00  0.00000000000E+00 -0.15716971374E+04  0.15716971375E+04  0.50400001928E-02 0. -1.
    10030    2    1    2    0    0  0.00000000000E+00  0.00000000000E+00 -0.86567428097E+03  0.22777199940E+04  0.21068024136E+04 0.  0.
        1    1    3    3  502    0  0.31543355891E+02  0.43122657408E+03 -0.14713393788E+04  0.15335549906E+04  0.50400001928E-02 0. -1.
       -1    1    3    3    0  502 -0.31543355891E+02 -0.43122657408E+03  0.60566509783E+03  0.74416500338E+03  0.50400001928E-02 0.  1.
</event>
<event>
 5   0  0.1466480E-05  0.2080983E+04  0.7818609E-02  0.8569667E-01
       -1   -1    0    0    0  501  0.00000000000E+00  0.00000000000E+00  0.48624560104E+03  0.48624560107E+03  0.50400001928E-02 0. -1.
        1   -1    0    0  501    0  0.00000000000E+00  0.00000000000E+00 -0.22264930408E+04  0.22264930408E+04  0.50400001928E-02 0.  1.
    10030    2    1    2    0    0  0.00000000000E+00  0.00000000000E+00 -0.17402474398E+04  0.27127386419E+04  0.20809828898E+04 0.  0.
        3    1    3    3  502    0  0.52775838202E+03 -0.23150994903E+03  0.25918798463E+03  0.63190520482E+03  0.10100000352E+00 0. -1.
       -3    1    3    3    0  502 -0.52775838202E+03  0.23150994903E+03 -0.19994354244E+04  0.20808334371E+04  0.10100000352E+00 0.  1.
</event>
<event>
 5   0  0.1435410E-05  0.2098054E+04  0.7818609E-02  0.8562101E-01
        1   -1    0    0  501    0  0.00000000000E+00  0.00000000000E+00  0.62413211258E+03  0.62413211260E+03  0.50400001928E-02 0. -1.
       -1   -1    0    0    0  501  0.00000000000E+00  0.00000000000E+00 -0.17631803302E+04  0.17631803302E+04  0.50400001928E-02 0.  1.
    10030    2    1    2    0    0  0.00000000000E+00  0.00000000000E+00 -0.11390482176E+04  0.23873124428E+04  0.20980538262E+04 0.  0.
        2    1    3    3  502    0  0.14318354384E+03 -0.87800155261E+03 -0.12021114650E+04  0.14954799323E+04  0.25500000920E-02 0.  1.
       -2    1    3    3    0  502 -0.14318354384E+03  0.87800155261E+03  0.63063247399E+02  0.89183251050E+03  0.25500000920E-02 0. -1.
</event>
<event>
 5   0  0.3242231E-05  0.2104181E+04  0.7818609E-02  0.8559404E-01
       -2   -1    0    0    0  501  0.00000000000E+00  0.00000000000E+00  0.80907619821E+03  0.80907619821E+03  0.25500000920E-02 0. -1.
        2   -1    0    0  501    0  0.00000000000E+00  0.00000000000E+00 -0.13680971615E+04  0.13680971615E+04  0.25500000920E-02 0.  1.
    10030    2    1    2    0    0  0.00000000000E+00  0.00000000000E+00 -0.55902096325E+03  0.21771733597E+04  0.21041814087E+04 0.  0.
        4    1    3    3  502    0 -0.49536163501E+03  0.86287352810E+03 -0.63336710449E+03  0.11794445205E+04  0.12699999809E+01 0.  1.
       -4    1    3    3    0  502  0.49536163501E+03 -0.86287352810E+03  0.74346141244E+02  0.99772883919E+03  0.12699999809E+01 0. -1.
</event>
<event>
 5   0  0.1492552E-05  0.2096911E+04  0.7818609E-02  0.8562605E-01
        1   -1    0    0  501    0  0.00000000000E+00  0.00000000000E+00  0.16822357112E+04  0.16822357112E+04  0.50400001928E-02 0. -1.
       -1   -1    0    0    0  501  0.00000000000E+00  0.00000000000E+00 -0.65345136729E+03  0.65345136731E+03  0.50400001928E-02 0.  1.
    10030    2    1    2    0    0  0.00000000000E+00  0.00000000000E+00  0.10287843439E+04  0.23356870785E+04  0.20969112767E+04 0.  0.
        4    1    3    3  502    0 -0.50219348555E+03 -0.28833886818E+03 -0.45915846831E+03  0.73903025091E+03  0.12699999809E+01 0.  1.
       -4    1    3    3    0  502  0.50219348555E+03  0.28833886818E+03  0.14879428122E+04  0.15966568276E+04  0.12699999809E+01 0. -1.
</event>
<event>
 5   0  0.1466480E-05  0.2101631E+04  0.7818609E-02  0.8560525E-01
       -1   -1    0    0    0  501  0.00000000000E+00  0.00000000000E+00  0.12083508526E+04  0.12083508526E+04  0.50400001928E-02 0.  1.
        1   -1    0    0  501    0  0.00000000000E+00  0.00000000000E+00 -0.91381827963E+03  0.91381827964E+03  0.50400001928E-02 0. -1.
    10030    2    1    2    0    0  0.00000000000E+00  0.00000000000E+00  0.29453257297E+03  0.21221691322E+04  0.21016308880E+04 0.  0.
        3    1    3    3  502    0  0.43632592674E+03 -0.11546476768E+03  0.11054870303E+04  0.11940745417E+04  0.10100000352E+00 0.  1.
       -3    1    3    3    0  502 -0.43632592674E+03  0.11546476768E+03 -0.81095445730E+03  0.92809459051E+03  0.10100000352E+00 0. -1.
</event>
<event>
 5   0  0.3130517E-05  0.2104947E+04  0.7818609E-02  0.8559067E-01
       -2   -1    0    0    0  501  0.00000000000E+00  0.00000000000E+00  0.84247546551E+03  0.84247546552E+03  0.25500000920E-02 0. -1.
        2   -1    0    0  501    0  0.00000000000E+00  0.00000000000E+00 -0.13148160673E+04  0.13148160673E+04  0.25500000920E-02 0.  1.
    10030    2    1    2    0    0  0.00000000000E+00  0.00000000000E+00 -0.47234060176E+03  0.21572915328E+04  0.21049468196E+04 0.  0.
        1    1    3    3  502    0 -0.35709185277E+03  0.74421572592E+03 -0.90534569803E+03  0.12251622223E+04  0.50400001928E-02 0.  1.
       -1    1    3    3    0  502  0.35709185277E+03 -0.74421572592E+03  0.43300509628E+03  0.93212931048E+03  0.50400001928E-02 0. -1.
</event>
<event>
 5   0  0.3108326E-05  0.2080076E+04  0.7818609E-02  0.8570071E-01
       -2   -1    0    0    0  501  0.00000000000E+00  0.00000000000E+00  0.11972494135E+04  0.11972494135E+04  0.25500000920E-02 0.  1.
        2   -1    0    0  501    0  0.00000000000E+00  0.00000000000E+00 -0.90347010908E+03  0.90347010908E+03  0.25500000920E-02 0. -1.
    10030    2    1    2    0    0  0.00000000000E+00  0.00000000000E+00  0.29377930447E+03  0.21007195226E+04  0.20800760162E+04 0.  0.
        5    1    3    3  502    0 -0.35352572760E+03 -0.14437800925E+03  0.11238742093E+04  0.11869881120E+04  0.46999998093E+01 0.  1.
       -5    1    3    3    0  502  0.35352572760E+03  0.14437800925E+03 -0.83009490488E+03  0.91373141061E+03  0.46999998093E+01 0. -1.
</event>
<event>
 5   0  0.1492552E-05  0.2093141E+04  0.7818609E-02  0.8564271E-01
       -1   -1    0    0    0  501  0.00000000000E+00  0.00000000000E+00  0.62879233661E+03  0.62879233663E+03  0.50400001928E-02 0. -1.
        1   -1    0    0  501    0  0.00000000000E+00  0.00000000000E+00 -0.17419262974E+04  0.17419262974E+04  0.50400001928E-02 0.  1.
    10030    2    1    2    0    0  0.00000000000E+00  0.00000000000E+00 -0.11131339608E+04  0.23707186340E+04  0.20931410911E+04 0.  0.
        4    1    3    3  502    0 -0.53792068274E+03  0.17535682457E+03  0.44064683023E+03  0.71713312483E+03  0.12699999809E+01 0. -1.
       -4    1    3    3    0  502  0.53792068274E+03 -0.17535682457E+03 -0.15537807910E+04  0.16535855092E+04  0.12699999809E+01 0.  1.
</event>
<event>
 5   0  0.3242231E-05  0.2100192E+04  0.7818609E-02  0.8561159E-01
        2   -1    0    0  501    0  0.00000000000E+00  0.00000000000E+00  0.15201993844E+04  0.15201993844E+04  0.25500000920E-02 0.  1.
       -2   -1    0    0    0  501  0.00000000000E+00  0.00000000000E+00 -0.72536635089E+03  0.72536635090E+03  0.25500000920E-02 0. -1.
    10030    2    1    2    0    0  0.00000000000E+00  0.00000000000E+00  0.79483303350E+03  0.22455657353E+04  0.21001918770E+04 0.  0.
        4    1    3    3  502    0  0.95995813231E+03  0.29974508977E+03  0.72054926563E+03  0.12371578686E+04  0.12699999809E+01 0.  1.
       -4    1    3    3    0  502 -0.95995813231E+03 -0.29974508977E+03  0.74283767872E+02  0.10084078667E+04  0.12699999809E+01 0. -1.
</event>
<event>
 5   0  0.3279789E-05  0.2095927E+04  0.7818609E-02  0.8563040E-01
        2   -1    0    0  501    0  0.00000000000E+00  0.00000000000E+00  0.18541848156E+04  0.18541848156E+04  0.25500000920E-02 0.  1.
       -2   -1    0    0    0  501  0.00000000000E+00  0.00000000000E+00 -0.59229677468E+03  0.59229677469E+03  0.25500000920E-02 0. -1.
    10030    2    1    2    0    0  0.00000000000E+00  0.00000000000E+00  0.12618880410E+04  0.24464815903E+04  0.20959271800E+04 0.  0.
        2    1    3    3  502    0 -0.65983447721E+03  0.79796836684E+02 -0.31480533419E+03  0.73542604720E+03  0.25500000920E-02 0. -1.
       -2    1    3    3    0  502  0.65983447721E+03 -0.79796836684E+02  0.15766933751E+04  0.17110555431E+04  0.25500000920E-02 0.  1.
</event>
<event>
 5   0  0.1513292E-05  0.2100762E+04  0.7818609E-02  0.8560908E-01
        1   -1    0    0  501    0  0.00000000000E+00  0.00000000000E+00  0.11487156686E+04  0.11487156686E+04  0.50400001928E-02 0.  1.
       -1   -1    0    0    0  501  0.00000000000E+00  0.00000000000E+00 -0.96046420618E+03  0.96046420619E+03  0.50400001928E-02 0. -1.
    10030    2    1    2    0    0  0.00000000000E+00  0.00000000000E+00  0.18825146242E+03  0.21091798748E+04  0.21007620358E+04 0.  0.
        1    1    3    3  502    0 -0.84161295706E+03  0.13046227370E+03 -0.52312838145E+03  0.99949791288E+03  0.50400001928E-02 0. -1.
       -1    1    3    3    0  502  0.84161295706E+03 -0.13046227370E+03  0.71137984387E+03  0.11096819619E+04  0.50400001928E-02 0.  1.
</event>
<event>
 5   0  0.3279789E-05  0.2094823E+04  0.7818609E-02  0.8563528E-01
       -2   -1    0    0    0  501  0.00000000000E+00  0.00000000000E+00  0.10412642129E+04  0.10412642129E+04  0.25500000920E-02 0. -1.
        2   -1    0    0  501    0  0.00000000000E+00  0.00000000000E+00 -0.10535946022E+04  0.10535946022E+04  0.25500000920E-02 0.  1.
    10030    2    1    2    0    0  0.00000000000E+00  0.00000000000E+00 -0.12330389366E+02  0.20948588151E+04  0.20948225263E+04 0.  0.
        2    1    3    3  502    0 -0.90620396292E+03  0.52386663415E+03 -0.43961105016E+02  0.10476518752E+04  0.25500000920E-02 0.  1.
       -2    1    3    3    0  502  0.90620396292E+03 -0.52386663415E+03  0.31630715650E+02  0.10472069399E+04  0.25500000920E-02 0. -1.
</event>
<event>
 5   0  0.1435410E-05  0.2102165E+04  0.7818609E-02  0.8560290E-01
        1   -1    0    0  501    0  0.00000000000E+00  0.00000000000E+00  0.11032150606E+04  0.11032150606E+04  0.50400001928E-02 0. -1.
       -1   -1    0    0    0  501  0.00000000000E+00  0.00000000000E+00 -0.10014132351E+04  0.10014132351E+04  0.50400001928E-02 0.  1.
    10030    2    1    2    0    0  0.00000000000E+00  0.00000000000E+00  0.10180182545E+03  0.21046282957E+04  0.21021647536E+04 0.  0.
        2    1    3    3  502    0  0.42107681461E+02 -0.35676429101E+03 -0.93804225761E+03  0.10044785181E+04  0.25500000920E-02 0.  1.
       -2    1    3    3    0  502 -0.42107681461E+02  0.35676429101E+03  0.10398440831E+04  0.11001497776E+04  0.25500000920E-02 0. -1.
</event>
<event>
 5   0  0.1492552E-05  0.2080384E+04  0.7818609E-02  0.8569934E-01
       -1   -1    0    0    0  501  0.00000000000E+00  0.00000000000E+00  0.86917805009E+03  0.86917805010E+03  0.50400001928E-02 0.  1.
        1   -1    0    0  501    0  0.00000000000E+00  0.00000000000E+00 -0.12448532698E+04  0.12448532698E+04  0.50400001928E-02 0. -1.
    10030    2    1    2    0    0  0.00000000000E+00  0.00000000000E+00 -0.37567521975E+03  0.21140313199E+04  0.20803837509E+04 0.  0.
        4    1    3    3  502    0  0.95354514474E+03 -0.41504822666E+03 -0.16547829318E+03  0.10530422840E+04  0.12699999809E+01 0. -1.
       -4    1    3    3    0  502 -0.95354514474E+03  0.41504822666E+03 -0.21019692657E+03  0.10609890359E+04  0.12699999809E+01 0.  1.
</event>
<event>
 5   0  0.3130517E-05  0.2102708E+04  0.7818609E-02  0.8560051E-01
        2   -1    0    0  501    0  0.00000000000E+00  0.00000000000E+00  0.51494940486E+03  0.51494940487E+03  0.25500000920E-02 0. -1.
       -2   -1    0    0    0  501  0.00000000000E+00  0.00000000000E+00 -0.21465124907E+04  0.21465124907E+04  0.25500000920E-02 0.  1.
    10030    2    1    2    0    0  0.00000000000E+00  0.00000000000E+00 -0.16315630858E+04  0.26614618955E+04  0.21027080916E+04 0.  0.
        1    1    3    3  502    0 -0.39773691460E+03  0.46202891773E+03  0.26838148729E+03  0.66610359315E+03  0.50400001928E-02 0. -1.
       -1    1    3    3    0  502  0.39773691460E+03 -0.46202891773E+03 -0.18999445731E+04  0.19953583024E+04  0.50400001928E-02 0.  1.
</event>
<event>
 5   0  0.3279789E-05  0.2103732E+04  0.7818609E-02  0.8559601E-01
       -2   -1    0    0    0  501  0.00000000000E+00  0.00000000000E+00  0.41950628562E+03  0.41950628563E+03  0.25500000920E-02 0.  1.
        2   -1    0    0  501    0  0.00000000000E+00  0.00000000000E+00 -0.26374375085E+04  0.26374375085E+04  0.25500000920E-02 0. -1.
    10030    2    1    2    0    0  0.00000000000E+00  0.00000000000E+00 -0.22179312229E+04  0.30569437941E+04  0.21037315539E+04 0.  0.
        2    1    3    3  502    0  0.10078871835E+04  0.28517210686E+03 -0.96912048000E+03  0.14270088332E+04  0.25500000920E-02 0. -1.
       -2    1    3    3    0  502 -0.10078871835E+04 -0.28517210686E+03 -0.12488107429E+04  0.16299349609E+04  0.25500000920E-02 0.  1.
</event>
<event>
 5   0  0.1513292E-05  0.2088267E+04  0.7818609E-02  0.8566430E-01
        1   -1    0    0  501    0  0.00000000000E+00  0.00000000000E+00  0.21709043949E+04  0.21709043949E+04  0.50400001928E-02 0. -1.
       -1   -1    0    0    0  501  0.00000000000E+00  0.00000000000E+00 -0.50219377654E+03  0.50219377656E+03  0.50400001928E-02 0.  1.
    10030    2    1    2    0    0  0.00000000000E+00  0.00000000000E+00  0.16687106184E+04  0.26730981715E+04  0.20882669146E+04 0.  0.
        1    1    3    3  502    0 -0.36289820339E+03  0.93494385572E+03  0.12062320235E+04  0.15686971709E+04  0.50400001928E-02 0.  1.
       -1    1    3    3    0  502  0.36289820339E+03 -0.93494385572E+03  0.46247859483E+03  0.11044010006E+04  0.50400001928E-02 0. -1.
</event>
<event>
 5   0  0.1435410E-05  0.2098508E+04  0.7818609E-02  0.8561901E-01
        1   -1    0    0  501    0  0.00000000000E+00  0.00000000000E+00  0.18173639492E+04  0.18173639492E+04  0.50400001928E-02 0.  1.
       -1   -1    0    0    0  501  0.00000000000E+00  0.00000000000E+00 -0.60578603809E+03  0.60578603811E+03  0.50400001928E-02 0. -1.
    10030    2    1    2    0    0  0.00000000000E+00  0.00000000000E+00  0.12115779112E+04  0.24231499874E+04  0.20985077618E+04 0.  0.
        2    1    3    3  502    0 -0.24948172715E+03  0.90887571072E+03  0.11382522354E+04  0.14778072747E+04  0.25500000920E-02 0.  1.
       -2    1    3    3    0  502  0.24948172715E+03 -0.90887571072E+03  0.73325675800E+02  0.94534271270E+03  0.25500000920E-02 0. -1.
</event>
<event>
 5   0  0.3130517E-05  0.2089329E+04  0.7818609E-02  0.8565959E-01
        2   -1    0    0  501    0  0.00000000000E+00  0.00000000000E+00  0.10951789912E+04  0.10951789912E+04  0.25500000920E-02 0.  1.
       -2   -1    0    0    0  501  0.00000000000E+00  0.00000000000E+00 -0.99648008692E+03  0.99648008692E+03  0.25500000920E-02 0. -1.
    10030    2    1    2    0    0  0.00000000000E+00  0.00000000000E+00  0.98698904250E+02  0.20916590781E+04  0.20893291328E+04 0.  0.
        1    1    3    3  502    0 -0.83156407223E+03 -0.22496102399E+03 -0.54225606886E+03  0.10179135095E+04  0.50400001928E-02 0. -1.
       -1    1    3    3    0  502  0.83156407223E+03  0.22496102399E+03  0.64095497311E+03  0.10737455686E+04  0.50400001928E-02 0.  1.
</event>
<event>
 5   0  0.1435410E-05  0.2100855E+04  0.7818609E-02  0.8560867E-01
        1   -1    0    0  501    0  0.00000000000E+00  0.00000000000E+00  0.13597964246E+04  0.13597964246E+04  0.50400001928E-02 0.  1.
       -1   -1    0    0    0  501  0.00000000000E+00  0.00000000000E+00 -0.81144370218E+03  0.81144370220E+03  0.50400001928E-02 0. -1.
    10030    2    1    2    0    0  0.00000000000E+00  0.00000000000E+00  0.54835272242E+03  0.21712401268E+04  0.21008552973E+04 0.  0.
        2    1    3    3  502    0 -0.19900910993E+02 -0.71449462500E+03 -0.52135216652E+03  0.88470712496E+03  0.25500000920E-02 0. -1.
       -2    1    3    3    0  502  0.19900910993E+02  0.71449462500E+03  0.10697048889E+04  0.12865330018E+04  0.25500000920E-02 0.  1.
</event>
<event>
 5   0  0.1466480E-05  0.2100629E+04  0.7818609E-02  0.8560966E-01
        1   -1    0    0  501    0  0.00000000000E+00  0.00000000000E+00  0.99264856159E+03  0.99264856160E+03  0.50400001928E-02 0.  1.
       -1   -1    0    0    0  501  0.00000000000E+00  0.00000000000E+00 -0.11113307180E+04  0.11113307180E+04  0.50400001928E-02 0. -1.
    10030    2    1    2    0    0  0.00000000000E+00  0.00000000000E+00 -0.11868215638E+03  0.21039792796E+04  0.21006292759E+04 0.  0.
        3    1    3    3  502    0  0.32062849309E+03  0.36745710170E+03  0.87237544464E+03  0.99943297864E+03  0.10100000352E+00 0.  1.
       -3    1    3    3    0  502 -0.32062849309E+03 -0.36745710170E+03 -0.99105760103E+03  0.11045463009E+04  0.10100000352E+00 0. -1.
</event>
<event>
 5   0  0.3242231E-05  0.1966685E+04  0.7818609E-02  0.8622357E-01
        2   -1    0    0  501    0  0.00000000000E+00  0.00000000000E+00  0.16636346386E+04  0.16636346386E+04  0.25500000920E-02 0. -1.
       -2   -1    0    0    0  501  0.00000000000E+00  0.00000000000E+00 -0.58123498737E+03  0.58123498738E+03  0.25500000920E-02 0.  1.
    10030    2    1    2    0    0  0.00000000000E+00  0.00000000000E+00  0.10823996512E+04  0.22448696259E+04  0.19666851890E+04 0.  0.
        4    1    3    3  502    0 -0.52079674722E+03 -0.40292177115E+03 -0.29243724261E+03  0.72048342059E+03  0.12699999809E+01 0. -1.
       -4    1    3    3    0  502  0.52079674722E+03  0.40292177115E+03  0.13748368938E+04  0.15243862053E+04  0.12699999809E+01 0.  1.
</event>
<event>
 5   0  0.3242231E-05  0.2096131E+04  0.7818609E-02  0.8562950E-01
       -2   -1    0    0    0  501  0.00000000000E+00  0.00000000000E+00  0.91012699427E+03  0.91012699428E+03  0.25500000920E-02 0.  1.
        2   -1    0    0  501    0  0.00000000000E+00  0.00000000000E+00 -0.12069100433E+04  0.12069100433E+04  0.25500000920E-02 0. -1.
    10030    2    1    2    0    0  0.00000000000E+00  0.00000000000E+00 -0.29678304898E+03  0.21170370375E+04  0.20961311123E+04 0.  0.
        4    1    3    3  502    0 -0.66970506289E+03  0.51310281470E+03 -0.77641355002E+03  0.11465596292E+04  0.12699999809E+01 0. -1.
       -4    1    3    3    0  502  0.66970506289E+03 -0.51310281470E+03  0.47963050104E+03  0.97047740836E+03  0.12699999809E+01 0.  1.
</event>
<event>
 5   0  0.3242231E-05  0.2088947E+04  0.7818609E-02  0.8566128E-01
       -2   -1    0    0    0  501  0.00000000000E+00  0.00000000000E+00  0.11835752907E+04  0.11835752907E+04  0.25500000920E-02 0.  1.
        2   -1    0    0  501    0  0.00000000000E+00  0.00000000000E+00 -0.92171956904E+03  0.92171956904E+03  0.25500000920E-02 0. -1.
    10030    2    1    2    0    0  0.00000000000E+00  0.00000000000E+00  0.26185572168E+03  0.21052948598E+04  0.20889466311E+04 0.  0.
        4    1    3    3  502    0 -0.74335776855E+03  0.60012239608E+02  0.86791037955E+03  0.11443130170E+04  0.12699999809E+01 0.  1.
       -4    1    3    3    0  502  0.74335776855E+03 -0.60012239608E+02 -0.60605465787E+03  0.96098184280E+03  0.12699999809E+01 0. -1.
</event>
<event>
 5   0  0.3257130E-05  0.2090241E+04  0.7818609E-02  0.8565555E-01
       -2   -1    0    0    0  501  0.00000000000E+00  0.00000000000E+00  0.10321903109E+04  0.10321903109E+04  0.25500000920E-02 0. -1.
        2   -1    0    0  501    0  0.00000000000E+00  0.00000000000E+00 -0.10582124131E+04  0.10582124131E+04  0.25500000920E-02 0.  1.
    10030    2    1    2    0    0  0.00000000000E+00  0.00000000000E+00 -0.26022102195E+02  0.20904027240E+04  0.20902407514E+04 0.  0.
        3    1    3    3  502    0  0.36968392263E+03 -0.68263936755E+03 -0.71278941880E+03  0.10539124606E+04  0.10100000352E+00 0.  1.
       -3    1    3    3    0  502 -0.36968392263E+03  0.68263936755E+03  0.68676731661E+03  0.10364902634E+04  0.10100000352E+00 0. -1.
</event>
<event>
 5   0  0.1513292E-05  0.2114417E+04  0.7818609E-02  0.8554919E-01
       -1   -1    0    0    0  501  0.00000000000E+00  0.00000000000E+00  0.68500478507E+03  0.68500478509E+03  0.50400001928E-02 0.  1.
        1   -1    0    0  501    0  0.00000000000E+00  0.00000000000E+00 -0.16316525845E+04  0.16316525845E+04  0.50400001928E-02 0. -1.
    10030    2    1    2    0    0  0.00000000000E+00  0.00000000000E+00 -0.94664779944E+03  0.23166573696E+04  0.21144170147E+04 0.  0.
        1    1    3    3  502    0  0.16353799186E+03 -0.94881361712E+03  0.51343935808E+01  0.96281790430E+03  0.50400001928E-02 0.  1.
       -1    1    3    3    0  502 -0.16353799186E+03  0.94881361712E+03 -0.95178219302E+03  0.13538394653E+04  0.50400001928E-02 0. -1.
</event>
<event>
 5   0  0.3279789E-05  0.2098405E+04  0.7818609E-02  0.8561946E-01
       -2   -1    0    0    0  501  0.00000000000E+00  0.00000000000E+00  0.78950722755E+03  0.78950722756E+03  0.25500000920E-02 0.  1.
        2   -1    0    0  501    0  0.00000000000E+00  0.00000000000E+00 -0.13943207331E+04  0.13943207331E+04  0.25500000920E-02 0. -1.
    10030    2    1    2    0    0  0.00000000000E+00  0.00000000000E+00 -0.60481350557E+03  0.21838279607E+04  0.20984053911E+04 0.  0.
        2    1    3    3  502    0  0.53192037725E+03  0.17753790200E+03  0.62046584763E+03  0.83632341977E+03  0.25500000920E-02 0.  1.
       -2    1    3    3    0  502 -0.53192037725E+03 -0.17753790200E+03 -0.12252793532E+04  0.13475045409E+04  0.25500000920E-02 0. -1.
</event>
<event>
 5   0  0.3130517E-05  0.2098626E+04  0.7818609E-02  0.8561849E-01
       -2   -1    0    0    0  501  0.00000000000E+00  0.00000000000E+00  0.86787123787E+03  0.86787123787E+03  0.25500000920E-02 0.  1.
        2   -1    0    0  501    0  0.00000000000E+00  0.00000000000E+00 -0.12686880463E+04  0.12686880463E+04  0.25500000920E-02 0. -1.
    10030    2    1    2    0    0  0.00000000000E+00  0.00000000000E+00 -0.40081680840E+03  0.21365592841E+04  0.20986260888E+04 0.  0.
        1    1    3    3  502    0  0.19919124295E+03 -0.58133364333E+03  0.66551347041E+03  0.90583339277E+03  0.50400001928E-02 0.  1.
       -1    1    3    3    0  502 -0.19919124295E+03  0.58133364333E+03 -0.10663302788E+04  0.12307258914E+04  0.50400001928E-02 0. -1.
</event>
<event>
 5   0  0.1435410E-05  0.2108901E+04  0.7818609E-02  0.8557333E-01
       -1   -1    0    0    0  501  0.00000000000E+00  0.00000000000E+00  0.54841489654E+03  0.54841489657E+03  0.50400001928E-02 0.  1.
        1   -1    0    0  501    0  0.00000000000E+00  0.00000000000E+00 -0.20274166403E+04  0.20274166403E+04  0.50400001928E-02 0. -1.
    10030    2    1    2    0    0  0.00000000000E+00  0.00000000000E+00 -0.14790017438E+04  0.25758315369E+04  0.21089006492E+04 0.  0.
        2    1    3    3  502    0 -0.43131924431E+03  0.47569082569E+03  0.28207333664E+03  0.70134400932E+03  0.25500000920E-02 0.  1.
       -2    1    3    3    0  502  0.43131924431E+03 -0.47569082569E+03 -0.17610750804E+04  0.18744875276E+04  0.25500000920E-02 0. -1.
</event>
<event>
 5   0  0.1435410E-05  0.2100448E+04  0.7818609E-02  0.8561046E-01
       -1   -1    0    0    0  501  0.00000000000E+00  0.00000000000E+00  0.52228914781E+03  0.52228914784E+03  0.50400001928E-02 0. -1.
        1   -1    0    0  501    0  0.00000000000E+00  0.00000000000E+00 -0.21118009407E+04  0.21118009407E+04  0.50400001928E-02 0.  1.
    10030    2    1    2    0    0  0.00000000000E+00  0.00000000000E+00 -0.15895117929E+04  0.26340900886E+04  0.21004482509E+04 0.  0.
        2    1    3    3  502    0 -0.30646525298E+03  0.75265445234E+03 -0.16290232063E+04  0.18204741917E+04  0.25500000920E-02 0.  1.
       -2    1    3    3    0  502  0.30646525298E+03 -0.75265445234E+03  0.39511413365E+02  0.81361589691E+03  0.25500000920E-02 0. -1.
</event>
<event>
 5   0  0.3130517E-05  0.2149166E+04  0.7818609E-02  0.8539889E-01
       -2   -1    0    0    0  501  0.00000000000E+00  0.00000000000E+00  0.79321349310E+03  0.79321349311E+03  0.25500000920E-02 0. -1.
        2   -1    0    0  501    0  0.00000000000E+00  0.00000000000E+00 -0.14557602144E+04  0.14557602144E+04  0.25500000920E-02 0.  1.
    10030    2    1    2    0    0  0.00000000000E+00  0.00000000000E+00 -0.66254672129E+03  0.22489737075E+04  0.21491660195E+04 0.  0.
        1    1    3    3  502    0 -0.91201440766E+03 -0.49091773871E+03 -0.31694988496E+02  0.10362311896E+04  0.50400001928E-02 0. -1.
       -1    1    3    3    0  502  0.91201440766E+03  0.49091773871E+03 -0.63085173280E+03  0.12127425179E+04  0.50400001928E-02 0.  1.
</event>
<event>
 5   0  0.3242231E-05  0.2099298E+04  0.7818609E-02  0.8561553E-01
        2   -1    0    0  501    0  0.00000000000E+00  0.00000000000E+00  0.28125473726E+04  0.28125473726E+04  0.25500000920E-02 0.  1.
       -2   -1    0    0    0  501  0.00000000000E+00  0.00000000000E+00 -0.39173138401E+03  0.39173138402E+03  0.25500000920E-02 0. -1.
    10030    2    1    2    0    0  0.00000000000E+00  0.00000000000E+00  0.24208159886E+04  0.32042787567E+04  0.20992980492E+04 0.  0.
        4    1    3    3  502    0  0.60151289770E+02 -0.23047062490E+02 -0.38871045844E+03  0.39401367762E+03  0.12699999809E+01 0. -1.
       -4    1    3    3    0  502 -0.60151289770E+02  0.23047062490E+02  0.28095264471E+04  0.28102650790E+04  0.12699999809E+01 0.  1.
</event>
<event>
 5   0  0.3242231E-05  0.2105313E+04  0.7818609E-02  0.8558907E-01
        2   -1    0    0  501    0  0.00000000000E+00  0.00000000000E+00  0.17371462893E+04  0.17371462893E+04  0.25500000920E-02 0. -1.
       -2   -1    0    0    0  501  0.00000000000E+00  0.00000000000E+00 -0.63787672405E+03  0.63787672405E+03  0.25500000920E-02 0.  1.
    10030    2    1    2    0    0  0.00000000000E+00  0.00000000000E+00  0.10992695652E+04  0.23750230133E+04  0.21053125034E+04 0.  0.
        4    1    3    3  502    0 -0.60676668564E+03  0.29642123787E+03 -0.36131080827E+03  0.76588411273E+03  0.12699999809E+01 0.  1.
       -4    1    3    3    0  502  0.60676668564E+03 -0.29642123787E+03  0.14605803735E+04  0.16091389006E+04  0.12699999809E+01 0. -1.
</event>
<event>
 5   0  0.1466480E-05  0.2003214E+04  0.7818609E-02  0.8605120E-01
       -1   -1    0    0    0  501  0.00000000000E+00  0.00000000000E+00  0.61386958962E+03  0.61386958964E+03  0.50400001928E-02 0.  1.
        1   -1    0    0  501    0  0.00000000000E+00  0.00000000000E+00 -0.16342495510E+04  0.16342495510E+04  0.50400001928E-02 0. -1.
    10030    2    1    2    0    0  0.00000000000E+00  0.00000000000E+00 -0.10203799614E+04  0.22481191406E+04  0.20032135196E+04 0.  0.
        3    1    3    3  502    0  0.55871149743E+03  0.57730813894E+03  0.16107776655E+03  0.81938347660E+03  0.10100000352E+00 0.  1.
       -3    1    3    3    0  502 -0.55871149743E+03 -0.57730813894E+03 -0.11814577279E+04  0.14287356640E+04  0.10100000352E+00 0. -1.
</event>
<event>
 5   0  0.1453430E-05  0.2096239E+04  0.7818609E-02  0.8562902E-01
        1   -1    0    0  501    0  0.00000000000E+00  0.00000000000E+00  0.11425651006E+04  0.11425651006E+04  0.50400001928E-02 0. -1.
       -1   -1    0    0    0  501  0.00000000000E+00  0.00000000000E+00 -0.96148078428E+03  0.96148078430E+03  0.50400001928E-02 0.  1.
    10030    2    1    2    0    0  0.00000000000E+00  0.00000000000E+00  0.18108431628E+03  0.21040458849E+04  0.20962389072E+04 0.  0.
        5    1    3    3  502    0  0.65282505614E+03 -0.25048204813E+03 -0.69314123628E+03  0.98457537740E+03  0.46999998093E+01 0. -1.
       -5    1    3    3    0  502 -0.65282505614E+03  0.25048204813E+03  0.87422555256E+03  0.11194705075E+04  0.46999998093E+01 0.  1.
</event>
<event>
 5   0  0.3279789E-05  0.2094110E+04  0.7818609E-02  0.8563842E-01
        2   -1    0    0  501    0  0.00000000000E+00  0.00000000000E+00  0.10592255417E+04  0.10592255417E+04  0.25500000920E-02 0.  1.
       -2   -1    0    0    0  501  0.00000000000E+00  0.00000000000E+00 -0.10350247353E+04  0.10350247353E+04  0.25500000920E-02 0. -1.
    10030    2    1    2    0    0  0.00000000000E+00  0.00000000000E+00  0.24200806477E+02  0.20942502770E+04  0.20941104421E+04 0.  0.
        2    1    3    3  502    0  0.68156485351E+03 -0.58688629313E+03 -0.52399365894E+03  0.10409301250E+04  0.25500000920E-02 0. -1.
       -2    1    3    3    0  502 -0.68156485351E+03  0.58688629313E+03  0.54819446542E+03  0.10533201520E+04  0.25500000920E-02 0.  1.
</event>
<event>
 5   0  0.1435410E-05  0.2101284E+04  0.7818609E-02  0.8560678E-01
        1   -1    0    0  501    0  0.00000000000E+00  0.00000000000E+00  0.13420254173E+04  0.13420254174E+04  0.50400001928E-02 0.  1.
       -1   -1    0    0    0  501  0.00000000000E+00  0.00000000000E+00 -0.82252442141E+03  0.82252442142E+03  0.50400001928E-02 0. -1.
    10030    2    1    2    0    0  0.00000000000E+00  0.00000000000E+00  0.51950099594E+03  0.21645498388E+04  0.21012840645E+04 0.  0.
        2    1    3    3  502    0 -0.37106186018E+03 -0.18252291600E+02 -0.75260456775E+03  0.83930547814E+03  0.25500000920E-02 0. -1.
       -2    1    3    3    0  502  0.37106186018E+03  0.18252291600E+02  0.12721055637E+04  0.13252443606E+04  0.25500000920E-02 0.  1.
</event>
<event>
 5   0  0.1435410E-05  0.2103421E+04  0.7818609E-02  0.8559738E-01
       -1   -1    0    0    0  501  0.00000000000E+00  0.00000000000E+00  0.20815421460E+04  0.20815421460E+04  0.50400001928E-02 0.  1.
        1   -1    0    0  501    0  0.00000000000E+00  0.00000000000E+00 -0.53138232147E+03  0.53138232150E+03  0.50400001928E-02 0. -1.
    10030    2    1    2    0    0  0.00000000000E+00  0.00000000000E+00  0.15501598245E+04  0.26129244675E+04  0.21034207357E+04 0.  0.
        2    1    3    3  502    0 -0.78950114778E+03  0.61588785689E+03  0.11746536911E+04  0.15435158595E+04  0.25500000920E-02 0.  1.
       -2    1    3    3    0  502  0.78950114778E+03 -0.61588785689E+03  0.37550613348E+03  0.10694086080E+04  0.25500000920E-02 0. -1.
</event>
<event>
 5   0  0.1513292E-05  0.2092599E+04  0.7818609E-02  0.8564511E-01
       -1   -1    0    0    0  501  0.00000000000E+00  0.00000000000E+00  0.55570199169E+03  0.55570199171E+03  0.50400001928E-02 0. -1.
        1   -1    0    0  501    0  0.00000000000E+00  0.00000000000E+00 -0.19700173219E+04  0.19700173219E+04  0.50400001928E-02 0.  1.
    10030    2    1    2    0    0  0.00000000000E+00  0.00000000000E+00 -0.14143153302E+04  0.25257193136E+04  0.20925989099E+04 0.  0.
        1    1    3    3  502    0  0.80675017213E+03 -0.25681281532E+03 -0.14491727820E+04  0.16783624205E+04  0.50400001928E-02 0.  1.
       -1    1    3    3    0  502 -0.80675017213E+03  0.25681281532E+03  0.34857451812E+02  0.84735689312E+03  0.50400001928E-02 0. -1.
</event>
<event>
 5   0  0.3279789E-05  0.2077038E+04  0.7818609E-02  0.8571426E-01
       -2   -1    0    0    0  501  0.00000000000E+00  0.00000000000E+00  0.11281876487E+04  0.11281876487E+04  0.25500000920E-02 0.  1.
        2   -1    0    0  501    0  0.00000000000E+00  0.00000000000E+00 -0.95597757570E+03  0.95597757571E+03  0.25500000920E-02 0. -1.
    10030    2    1    2    0    0  0.00000000000E+00  0.00000000000E+00  0.17221007300E+03  0.20841652244E+04  0.20770383659E+04 0.  0.
        2    1    3    3  502    0  0.33034207588E+03  0.84184161766E+03 -0.42623373593E+03  0.99974916553E+03  0.25500000920E-02 0. -1.
       -2    1    3    3    0  502 -0.33034207588E+03 -0.84184161766E+03  0.59844380893E+03  0.10844160589E+04  0.25500000920E-02 0.  1.
</event>
<event>
 5   0  0.3242231E-05  0.2107044E+04  0.7818609E-02  0.8558147E-01
       -2   -1    0    0    0  501  0.00000000000E+00  0.00000000000E+00  0.13869827453E+04  0.13869827453E+04  0.25500000920E-02 0. -1.
        2   -1    0    0  501    0  0.00000000000E+00  0.00000000000E+00 -0.80023278149E+03  0.80023278149E+03  0.25500000920E-02 0.  1.
    10030    2    1    2    0    0  0.00000000000E+00  0.00000000000E+00  0.58674996381E+03  0.21872155268E+04  0.21070444325E+04 0.  0.
        4    1    3    3  502    0  0.21038840553E+02  0.73891354258E+03 -0.48583390797E+03  0.88457450521E+03  0.12699999809E+01 0.  1.
       -4    1    3    3    0  502 -0.21038840553E+02 -0.73891354258E+03  0.10725838718E+04  0.13026410216E+04  0.12699999809E+01 0. -1.
</event>
<event>
 5   0  0.1513292E-05  0.2103987E+04  0.7818609E-02  0.8559489E-01
        1   -1    0    0  501    0  0.00000000000E+00  0.00000000000E+00  0.12512546049E+04  0.12512546049E+04  0.50400001928E-02 0.  1.
       -1   -1    0    0    0  501  0.00000000000E+00  0.00000000000E+00 -0.88446466058E+03  0.88446466060E+03  0.50400001928E-02 0. -1.
    10030    2    1    2    0    0  0.00000000000E+00  0.00000000000E+00  0.36678994432E+03  0.21357192655E+04  0.21039871477E+04 0.  0.
        1    1    3    3  502    0  0.19663292454E+03 -0.10291387331E+04  0.87635347622E+02  0.10514138068E+04  0.50400001928E-02 0.  1.
       -1    1    3    3    0  502 -0.19663292454E+03  0.10291387331E+04  0.27915459670E+03  0.10843054587E+04  0.50400001928E-02 0. -1.
</event>
<event>
 5   0  0.3130517E-05  0.2096493E+04  0.7818609E-02  0.8562790E-01
        2   -1    0    0  501    0  0.00000000000E+00  0.00000000000E+00  0.15172057151E+04  0.15172057151E+04  0.25500000920E-02 0.  1.
       -2   -1    0    0    0  501  0.00000000000E+00  0.00000000000E+00 -0.72423977438E+03  0.72423977439E+03  0.25500000920E-02 0. -1.
    10030    2    1    2    0    0  0.00000000000E+00  0.00000000000E+00  0.79296594072E+03  0.22414454895E+04  0.20964930000E+04 0.  0.
        1    1    3    3  502    0  0.35768889598E+03  0.24931590650E+02  0.14496041207E+04  0.14932900044E+04  0.50400001928E-02 0.  1.
       -1    1    3    3    0  502 -0.35768889598E+03 -0.24931590650E+02 -0.65663817994E+03  0.74815548511E+03  0.50400001928E-02 0. -1.
</event>
<event>
 5   0  0.1435410E-05  0.2088689E+04  0.7818609E-02  0.8566243E-01
        1   -1    0    0  501    0  0.00000000000E+00  0.00000000000E+00  0.92253803507E+03  0.92253803509E+03  0.50400001928E-02 0.  1.
       -1   -1    0    0    0  501  0.00000000000E+00  0.00000000000E+00 -0.11822330787E+04  0.11822330787E+04  0.50400001928E-02 0. -1.
    10030    2    1    2    0    0  0.00000000000E+00  0.00000000000E+00 -0.25969504363E+03  0.21047711138E+04  0.20886885660E+04 0.  0.
        2    1    3    3  502    0  0.27957260873E+03  0.64951239552E+03 -0.90428813951E+03  0.11479391250E+04  0.25500000920E-02 0. -1.
       -2    1    3    3    0  502 -0.27957260873E+03 -0.64951239552E+03  0.64459309589E+03  0.95683198878E+03  0.25500000920E-02 0.  1.
</event>
<event>
 5   0  0.1513292E-05  0.1977977E+04  0.7818609E-02  0.8616987E-01
        1   -1    0    0  501    0  0.00000000000E+00  0.00000000000E+00  0.73527299270E+03  0.73527299271E+03  0.50400001928E-02 0. -1.
       -1   -1    0    0    0  501  0.00000000000E+00  0.00000000000E+00 -0.13302517249E+04  0.13302517249E+04  0.50400001928E-02 0.  1.
    10030    2    1    2    0    0  0.00000000000E+00  0.00000000000E+00 -0.59497873216E+03  0.20655247176E+04  0.19779769127E+04 0.  0.
        1    1    3    3  502    0  0.91416125571E+03  0.21398287259E+03 -0.62208282455E+03  0.11262621861E+04  0.50400001928E-02 0.  1.
       -1    1    3    3    0  502 -0.91416125571E+03 -0.21398287259E+03  0.27104092393E+02  0.93926253148E+03  0.50400001928E-02 0. -1.
</event>
<event>
 5   0  0.1466480E-05  0.2101438E+04  0.7818609E-02  0.8560610E-01
       -1   -1    0    0    0  501  0.00000000000E+00  0.00000000000E+00  0.87684381428E+03  0.87684381429E+03  0.50400001928E-02 0. -1.
        1   -1    0    0  501    0  0.00000000000E+00  0.00000000000E+00 -0.12590729743E+04  0.12590729743E+04  0.50400001928E-02 0.  1.
    10030    2    1    2    0    0  0.00000000000E+00  0.00000000000E+00 -0.38222916004E+03  0.21359167886E+04  0.21014379356E+04 0.  0.
        3    1    3    3  502    0 -0.70910181900E+03 -0.46578610000E+03  0.43891713601E+03  0.95521219797E+03  0.10100000352E+00 0. -1.
       -3    1    3    3    0  502  0.70910181900E+03  0.46578610000E+03 -0.82114629606E+03  0.11807045907E+04  0.10100000352E+00 0.  1.
</event>
<event>
 5   0  0.1513292E-05  0.2093801E+04  0.7818609E-02  0.8563979E-01
       -1   -1    0    0    0  501  0.00000000000E+00  0.00000000000E+00  0.46575078780E+03  0.46575078783E+03  0.50400001928E-02 0.  1.
        1   -1    0    0  501    0  0.00000000000E+00  0.00000000000E+00 -0.23531922910E+04  0.23531922910E+04  0.50400001928E-02 0. -1.
    10030    2    1    2    0    0  0.00000000000E+00  0.00000000000E+00 -0.18874415032E+04  0.28189430789E+04  0.20938014838E+04 0.  0.
        1    1    3    3  502    0 -0.19739394531E+03  0.12286318140E+03 -0.23179919895E+04  0.23296237023E+04  0.50400001928E-02 0. -1.
       -1    1    3    3    0  502  0.19739394531E+03 -0.12286318140E+03  0.43055048629E+03  0.48931937654E+03  0.50400001928E-02 0.  1.
</event>
<event>
 5   0  0.1513292E-05  0.2104689E+04  0.7818609E-02  0.8559181E-01
       -1   -1    0    0    0  501  0.00000000000E+00  0.00000000000E+00  0.83695504969E+03  0.83695504970E+03  0.50400001928E-02 0. -1.
        1   -1    0    0  501    0  0.00000000000E+00  0.00000000000E+00 -0.13231645618E+04  0.13231645618E+04  0.50400001928E-02 0.  1.
    10030    2    1    2    0    0  0.00000000000E+00  0.00000000000E+00 -0.48620951213E+03  0.21601196115E+04  0.21046892993E+04 0.  0.
        1    1    3    3  502    0 -0.51287749329E+03  0.47829131433E+03  0.56217605647E+03  0.89880355083E+03  0.50400001928E-02 0. -1.
       -1    1    3    3    0  502  0.51287749329E+03 -0.47829131433E+03 -0.10483855686E+04  0.12613160607E+04  0.50400001928E-02 0.  1.
</event>
<event>
 5   0  0.1435410E-05  0.2108187E+04  0.7818609E-02  0.8557645E-01
        1   -1    0    0  501    0  0.00000000000E+00  0.00000000000E+00  0.65790551283E+03  0.65790551284E+03  0.50400001928E-02 0. -1.
       -1   -1    0    0    0  501  0.00000000000E+00  0.00000000000E+00 -0.16888647460E+04  0.16888647460E+04  0.50400001928E-02 0.  1.
    10030    2    1    2    0    0  0.00000000000E+00  0.00000000000E+00 -0.10309592332E+04  0.23467702588E+04  0.21081873037E+04 0.  0.
        2    1    3    3  502    0  0.35268684499E+03  0.98804301107E+03 -0.40143308691E+03  0.11232833684E+04  0.25500000920E-02 0. -1.
       -2    1    3    3    0  502 -0.35268684499E+03 -0.98804301107E+03 -0.62952614625E+03  0.12234868905E+04  0.25500000920E-02 0.  1.
</event>
<event>
 5   0  0.1513292E-05  0.2094451E+04  0.7818609E-02  0.8563692E-01
        1   -1    0    0  501    0  0.00000000000E+00  0.00000000000E+00  0.10669640381E+04  0.10669640381E+04  0.50400001928E-02 0.  1.
       -1   -1    0    0    0  501  0.00000000000E+00  0.00000000000E+00 -0.10278524813E+04  0.10278524813E+04  0.50400001928E-02 0. -1.
    10030    2    1    2    0    0  0.00000000000E+00  0.00000000000E+00  0.39111556761E+02  0.20948165194E+04  0.20944513687E+04 0.  0.
        1    1    3    3  502    0 -0.10186401169E+04 -0.12411393180E+03 -0.18940569988E+03  0.10435068160E+04  0.50400001928E-02 0. -1.
       -1    1    3    3    0  502  0.10186401169E+04  0.12411393180E+03  0.22851725664E+03  0.10513097034E+04  0.50400001928E-02 0.  1.
</event>
<event>
 5   0  0.3279789E-05  0.2093535E+04  0.7818609E-02  0.8564097E-01
        2   -1    0    0  501    0  0.00000000000E+00  0.00000000000E+00  0.10843647229E+04  0.10843647229E+04  0.25500000920E-02 0. -1.
       -2   -1    0    0    0  501  0.00000000000E+00  0.00000000000E+00 -0.10104740910E+04  0.10104740910E+04  0.25500000920E-02 0.  1.
    10030    2    1    2    0    0  0.00000000000E+00  0.00000000000E+00  0.73890631858E+02  0.20948388139E+04  0.20935352471E+04 0.  0.
        2    1    3    3  502    0  0.34650624830E+02 -0.65675052066E+03 -0.77793302064E+03  0.10186764436E+04  0.25500000920E-02 0.  1.
       -2    1    3    3    0  502 -0.34650624830E+02  0.65675052066E+03  0.85182365250E+03  0.10761623703E+04  0.25500000920E-02 0. -1.
</event>
<event>
 5   0  0.1435410E-05  0.2108683E+04  0.7818609E-02  0.8557428E-01
       -1   -1    0    0    0  501  0.00000000000E+00  0.00000000000E+00  0.95704431570E+03  0.95704431571E+03  0.50400001928E-02 0.  1.
        1   -1    0    0  501    0  0.00000000000E+00  0.00000000000E+00 -0.11615304321E+04  0.11615304321E+04  0.50400001928E-02 0. -1.
    10030    2    1    2    0    0  0.00000000000E+00  0.00000000000E+00 -0.20448611642E+03  0.21185747478E+04  0.21086830939E+04 0.  0.
        2    1    3    3  502    0  0.40042580182E+03 -0.88499684137E+03  0.30965064577E+03  0.10195311444E+04  0.25500000920E-02 0.  1.
       -2    1    3    3    0  502 -0.40042580182E+03  0.88499684137E+03 -0.51413676219E+03  0.10990436034E+04  0.25500000920E-02 0. -1.
</event>
<event>
 5   0  0.1453430E-05  0.2106208E+04  0.7818609E-02  0.8558514E-01
        1   -1    0    0  501    0  0.00000000000E+00  0.00000000000E+00  0.18022466550E+04  0.18022466550E+04  0.50400001928E-02 0. -1.
       -1   -1    0    0    0  501  0.00000000000E+00  0.00000000000E+00 -0.61535869423E+03  0.61535869425E+03  0.50400001928E-02 0.  1.
    10030    2    1    2    0    0  0.00000000000E+00  0.00000000000E+00  0.11868879607E+04  0.24176053492E+04  0.21062081078E+04 0.  0.
        5    1    3    3  502    0  0.27626438705E+03  0.10118156665E+04  0.48507659164E+03  0.11556012912E+04  0.46999998093E+01 0.  1.
       -5    1    3    3    0  502 -0.27626438705E+03 -0.10118156665E+04  0.70181136908E+03  0.12620040580E+04  0.46999998093E+01 0. -1.
</event>
<event>
 5   0  0.3130517E-05  0.2135599E+04  0.7818609E-02  0.8545722E-01
        2   -1    0    0  501    0  0.00000000000E+00  0.00000000000E+00  0.26707450327E+04  0.26707450327E+04  0.25500000920E-02 0. -1.
       -2   -1    0    0    0  501  0.00000000000E+00  0.00000000000E+00 -0.42692063518E+03  0.42692063519E+03  0.25500000920E-02 0.  1.
    10030    2    1    2    0    0  0.00000000000E+00  0.00000000000E+00  0.22438243975E+04  0.30976656679E+04  0.21355993686E+04 0.  0.
        1    1    3    3  502    0  0.69065216166E+03 -0.78767846695E+03  0.14218460134E+04  0.17660928236E+04  0.50400001928E-02 0.  1.
       -1    1    3    3    0  502 -0.69065216166E+03  0.78767846695E+03  0.82197838411E+03  0.13315728443E+04  0.50400001928E-02 0. -1.
</event>
<event>
 5   0  0.3130517E-05  0.2077236E+04  0.7818609E-02  0.8571338E-01
       -2   -1    0    0    0  501  0.00000000000E+00  0.00000000000E+00  0.10814209023E+04  0.10814209023E+04  0.25500000920E-02 0. -1.
        2   -1    0    0  501    0  0.00000000000E+00  0.00000000000E+00 -0.99750884979E+03  0.99750884980E+03  0.25500000920E-02 0.  1.
    10030    2    1    2    0    0  0.00000000000E+00  0.00000000000E+00  0.83912052471E+02  0.20789297521E+04  0.20772355864E+04 0.  0.
        1    1    3    3  502    0  0.22956749452E+03 -0.12276731377E+02  0.10556369573E+04  0.10803801823E+04  0.50400001928E-02 0. -1.
       -1    1    3    3    0  502 -0.22956749452E+03  0.12276731377E+02 -0.97172490481E+03  0.99854956979E+03  0.50400001928E-02 0.  1.
</event>
<event>
 5   0  0.3279789E-05  0.2114548E+04  0.7818609E-02  0.8554862E-01
        2   -1    0    0  501    0  0.00000000000E+00  0.00000000000E+00  0.22439940999E+04  0.22439940999E+04  0.25500000920E-02 0. -1.
       -2   -1    0    0    0  501  0.00000000000E+00  0.00000000000E+00 -0.49814215599E+03  0.49814215600E+03  0.25500000920E-02 0.  1.
    10030    2    1    2    0    0  0.00000000000E+00  0.00000000000E+00  0.17458519439E+04  0.27421362559E+04  0.21145477615E+04 0.  0.
        2    1    3    3  502    0  0.87533567039E+03 -0.31193059482E+03  0.21895665498E+03  0.95470165424E+03  0.25500000920E-02 0.  1.
       -2    1    3    3    0  502 -0.87533567039E+03  0.31193059482E+03  0.15268952889E+04  0.17874346016E+04  0.25500000920E-02 0. -1.
</event>
<event>
 5   0  0.3108326E-05  0.2098834E+04  0.7818609E-02  0.8561757E-01
       -2   -1    0    0    0  501  0.00000000000E+00  0.00000000000E+00  0.55766316012E+03  0.55766316012E+03  0.25500000920E-02 0. -1.
        2   -1    0    0  501    0  0.00000000000E+00  0.00000000000E+00 -0.19748053268E+04  0.19748053268E+04  0.25500000920E-02 0.  1.
    10030    2    1    2    0    0  0.00000000000E+00  0.00000000000E+00 -0.14171421667E+04  0.25324684869E+04  0.20988341327E+04 0.  0.
        5    1    3    3  502    0  0.64430598498E+03 -0.64651027701E-01 -0.17080351847E+04  0.18255236204E+04  0.46999998093E+01 0.  1.
       -5    1    3    3    0  502 -0.64430598498E+03  0.64651027701E-01  0.29089301797E+03  0.70694486657E+03  0.46999998093E+01 0. -1.
</event>
<event>
 5   0  0.1492552E-05  0.2114711E+04  0.7818609E-02  0.8554791E-01
       -1   -1    0    0    0  501  0.00000000000E+00  0.00000000000E+00  0.70017539561E+03  0.70017539563E+03  0.50400001928E-02 0.  1.
        1   -1    0    0  501    0  0.00000000000E+00  0.00000000000E+00 -0.15967437941E+04  0.15967437941E+04  0.50400001928E-02 0. -1.
    10030    2    1    2    0    0  0.00000000000E+00  0.00000000000E+00 -0.89656839850E+03  0.22969191898E+04  0.21147110609E+04 0.  0.
        4    1    3    3  502    0  0.20576236040E+03 -0.67584373385E+03 -0.13027675174E+04  0.14819945070E+04  0.12699999809E+01 0. -1.
       -4    1    3    3    0  502 -0.20576236040E+03  0.67584373385E+03  0.40619911886E+03  0.81492468278E+03  0.12699999809E+01 0.  1.
</event>
<event>
 5   0  0.3130517E-05  0.2100453E+04  0.7818609E-02  0.8561044E-01
        2   -1    0    0  501    0  0.00000000000E+00  0.00000000000E+00  0.12292808726E+04  0.12292808726E+04  0.25500000920E-02 0. -1.
       -2   -1    0    0    0  501  0.00000000000E+00  0.00000000000E+00 -0.89725315471E+03  0.89725315472E+03  0.25500000920E-02 0.  1.
    10030    2    1    2    0    0  0.00000000000E+00  0.00000000000E+00  0.33202771792E+03  0.21265340274E+04  0.21004534187E+04 0.  0.
        1    1    3    3  502    0  0.25714016176E+02  0.69588903890E+03  0.96193909178E+03  0.11875392968E+04  0.50400001928E-02 0. -1.
       -1    1    3    3    0  502 -0.25714016176E+02 -0.69588903890E+03 -0.62991137386E+03  0.93899473057E+03  0.50400001928E-02 0.  1.
</event>
<event>
 5   0  0.1513292E-05  0.2088611E+04  0.7818609E-02  0.8566277E-01
        1   -1    0    0  501    0  0.00000000000E+00  0.00000000000E+00  0.83688160373E+03  0.83688160374E+03  0.50400001928E-02 0. -1.
       -1   -1    0    0    0  501  0.00000000000E+00  0.00000000000E+00 -0.13031398571E+04  0.13031398571E+04  0.50400001928E-02 0.  1.
    10030    2    1    2    0    0  0.00000000000E+00  0.00000000000E+00 -0.46625825335E+03  0.21400214608E+04  0.20886108048E+04 0.  0.
        1    1    3    3  502    0  0.10044166229E+04 -0.10141686812E+02 -0.52585022623E+03  0.11337874874E+04  0.50400001928E-02 0.  1.
       -1    1    3    3    0  502 -0.10044166229E+04  0.10141686812E+02  0.59591972884E+02  0.10062339735E+04  0.50400001928E-02 0. -1.
</event>
<event>
 5   0  0.1435410E-05  0.2094774E+04  0.7818609E-02  0.8563549E-01
        1   -1    0    0  501    0  0.00000000000E+00  0.00000000000E+00  0.13883676792E+04  0.13883676792E+04  0.50400001928E-02 0. -1.
       -1   -1    0    0    0  501  0.00000000000E+00  0.00000000000E+00 -0.79015058738E+03  0.79015058739E+03  0.50400001928E-02 0.  1.
    10030    2    1    2    0    0  0.00000000000E+00  0.00000000000E+00  0.59821709178E+03  0.21785182666E+04  0.20947740090E+04 0.  0.
        2    1    3    3  502    0 -0.97264625239E+02  0.19714139188E+03 -0.76588874688E+03  0.79681284398E+03  0.25500000920E-02 0.  1.
       -2    1    3    3    0  502  0.97264625239E+02 -0.19714139188E+03  0.13641058387E+04  0.13817054226E+04  0.25500000920E-02 0. -1.
</event>
<event>
 5   0  0.1513292E-05  0.2095619E+04  0.7818609E-02  0.8563176E-01
        1   -1    0    0  501    0  0.00000000000E+00  0.00000000000E+00  0.78043067122E+03  0.78043067124E+03  0.50400001928E-02 0.  1.
       -1   -1    0    0    0  501  0.00000000000E+00  0.00000000000E+00 -0.14067929574E+04  0.14067929574E+04  0.50400001928E-02 0. -1.
    10030    2    1    2    0    0  0.00000000000E+00  0.00000000000E+00 -0.62636228621E+03  0.21872236287E+04  0.20956186409E+04 0.  0.
        1    1    3    3  502    0  0.19584287799E+03  0.15546807291E+03  0.74883407898E+03  0.78947908928E+03  0.50400001928E-02 0.  1.
       -1    1    3    3    0  502 -0.19584287799E+03 -0.15546807291E+03 -0.13751963652E+04  0.13977445394E+04  0.50400001928E-02 0. -1.
</event>
<event>
 5   0  0.1453430E-05  0.2105332E+04  0.7818609E-02  0.8558898E-01
        1   -1    0    0  501    0  0.00000000000E+00  0.00000000000E+00  0.13189719011E+04  0.13189719012E+04  0.50400001928E-02 0. -1.
       -1   -1    0    0    0  501  0.00000000000E+00  0.00000000000E+00 -0.84012814917E+03  0.84012814919E+03  0.50400001928E-02 0.  1.
    10030    2    1    2    0    0  0.00000000000E+00  0.00000000000E+00  0.47884375198E+03  0.21591000503E+04  0.21053317289E+04 0.  0.
        5    1    3    3  502    0 -0.38598401992E+03  0.51230928718E+03  0.10953870221E+04  0.12693853976E+04  0.46999998093E+01 0. -1.
       -5    1    3    3    0  502  0.38598401992E+03 -0.51230928718E+03 -0.61654327015E+03  0.88971465276E+03  0.46999998093E+01 0.  1.
</event>
<event>
 5   0  0.1435410E-05  0.2097837E+04  0.7818609E-02  0.8562197E-01
       -1   -1    0    0    0  501  0.00000000000E+00  0.00000000000E+00  0.76100383869E+03  0.76100383870E+03  0.50400001928E-02 0. -1.
        1   -1    0    0  501    0  0.00000000000E+00  0.00000000000E+00 -0.14457610028E+04  0.14457610028E+04  0.50400001928E-02 0.  1.
    10030    2    1    2    0    0  0.00000000000E+00  0.00000000000E+00 -0.68475716411E+03  0.22067648415E+04  0.20978366695E+04 0.  0.
        2    1    3    3  502    0  0.68813294366E+03  0.66983703860E+03 -0.78621208593E+03  0.12411035616E+04  0.25500000920E-02 0.  1.
       -2    1    3    3    0  502 -0.68813294366E+03 -0.66983703860E+03  0.10145492182E+03  0.96566127995E+03  0.25500000920E-02 0. -1.
</event>
<event>
 5   0  0.3130517E-05  0.2093069E+04  0.7818609E-02  0.8564303E-01
        2   -1    0    0  501    0  0.00000000000E+00  0.00000000000E+00  0.20373926330E+04  0.20373926330E+04  0.25500000920E-02 0. -1.
       -2   -1    0    0    0  501  0.00000000000E+00  0.00000000000E+00 -0.53756652834E+03  0.53756652834E+03  0.25500000920E-02 0.  1.
    10030    2    1    2    0    0  0.00000000000E+00  0.00000000000E+00  0.14998261047E+04  0.25749591614E+04  0.20930686416E+04 0.  0.
        1    1    3    3  502    0 -0.14542754497E+03 -0.10250020096E+04  0.56149958391E+03  0.11777351456E+04  0.50400001928E-02 0.  1.
       -1    1    3    3    0  502  0.14542754497E+03  0.10250020096E+04  0.93832652080E+03  0.13972240157E+04  0.50400001928E-02 0. -1.
</event>
<event>
 5   0  0.3257130E-05  0.2104198E+04  0.7818609E-02  0.8559396E-01
        2   -1    0    0  501    0  0.00000000000E+00  0.00000000000E+00  0.94587583632E+03  0.94587583632E+03  0.25500000920E-02 0.  1.
       -2   -1    0    0    0  501  0.00000000000E+00  0.00000000000E+00 -0.11702510566E+04  0.11702510566E+04  0.25500000920E-02 0. -1.
    10030    2    1    2    0    0  0.00000000000E+00  0.00000000000E+00 -0.22437522028E+03  0.21161268929E+04  0.21041978965E+04 0.  0.
        3    1    3    3  502    0  0.65415545661E+03 -0.67356509695E+03 -0.58953934056E+03  0.11086775661E+04  0.10100000352E+00 0. -1.
       -3    1    3    3    0  502 -0.65415545661E+03  0.67356509695E+03  0.36516412028E+03  0.10074493269E+04  0.10100000352E+00 0.  1.
</event>
<event>
 5   0  0.1513292E-05  0.2102415E+04  0.7818609E-02  0.8560180E-01
       -1   -1    0    0    0  501  0.00000000000E+00  0.00000000000E+00  0.72393587591E+03  0.72393587592E+03  0.50400001928E-02 0. -1.
        1   -1    0    0  501    0  0.00000000000E+00  0.00000000000E+00 -0.15264295546E+04  0.15264295546E+04  0.50400001928E-02 0.  1.
    10030    2    1    2    0    0  0.00000000000E+00  0.00000000000E+00 -0.80249367868E+03  0.22503654305E+04  0.21024149130E+04 0.  0.
        1    1    3    3  502    0  0.48363144035E+03 -0.42294784416E+03 -0.12918146651E+04  0.14427644915E+04  0.50400001928E-02 0.  1.
       -1    1    3    3    0  502 -0.48363144035E+03  0.42294784416E+03  0.48932098639E+03  0.80760093903E+03  0.50400001928E-02 0. -1.
</event>
<event>
 5   0  0.1435410E-05  0.1957495E+04  0.7818609E-02  0.8626755E-01
        1   -1    0    0  501    0  0.00000000000E+00  0.00000000000E+00  0.12891154044E+04  0.12891154044E+04  0.50400001928E-02 0.  1.
       -1   -1    0    0    0  501  0.00000000000E+00  0.00000000000E+00 -0.74310371013E+03  0.74310371015E+03  0.50400001928E-02 0. -1.
    10030    2    1    2    0    0  0.00000000000E+00  0.00000000000E+00  0.54601169423E+03  0.20322191145E+04  0.19574947661E+04 0.  0.
        2    1    3    3  502    0 -0.77814084168E+03  0.85912754952E+02  0.88284971206E+03  0.11799609252E+04  0.25500000920E-02 0.  1.
       -2    1    3    3    0  502  0.77814084168E+03 -0.85912754952E+02 -0.33683801784E+03  0.85225818930E+03  0.25500000920E-02 0. -1.
</event>
<event>
 5   0  0.1513292E-05  0.2091784E+04  0.7818609E-02  0.8564871E-01
       -1   -1    0    0    0  501  0.00000000000E+00  0.00000000000E+00  0.63445677417E+03  0.63445677419E+03  0.50400001928E-02 0.  1.
        1   -1    0    0  501    0  0.00000000000E+00  0.00000000000E+00 -0.17241371607E+04  0.17241371607E+04  0.50400001928E-02 0. -1.
    10030    2    1    2    0    0  0.00000000000E+00  0.00000000000E+00 -0.10896803865E+04  0.23585939349E+04  0.20917844069E+04 0.  0.
        1    1    3    3  502    0 -0.18355142749E+03  0.87205994221E+02 -0.17016628935E+04  0.17137539541E+04  0.50400001928E-02 0. -1.
       -1    1    3    3    0  502  0.18355142749E+03 -0.87205994221E+02  0.61198250698E+03  0.64483998080E+03  0.50400001928E-02 0.  1.
</event>
<event>
 5   0  0.1435410E-05  0.2143855E+04  0.7818609E-02  0.8542167E-01
        1   -1    0    0  501    0  0.00000000000E+00  0.00000000000E+00  0.10644414468E+04  0.10644414468E+04  0.50400001928E-02 0.  1.
       -1   -1    0    0    0  501  0.00000000000E+00  0.00000000000E+00 -0.10794658392E+04  0.10794658392E+04  0.50400001928E-02 0. -1.
    10030    2    1    2    0    0  0.00000000000E+00  0.00000000000E+00 -0.15024392348E+02  0.21439072860E+04  0.21438546403E+04 0.  0.
        2    1    3    3  502    0  0.88129071268E+02 -0.11573649887E+02 -0.10757741220E+04  0.10794399678E+04  0.25500000920E-02 0. -1.
       -2    1    3    3    0  502 -0.88129071268E+02  0.11573649887E+02  0.10607497296E+04  0.10644673182E+04  0.25500000920E-02 0.  1.
</event>
<event>
 5   0  0.1466480E-05  0.2111601E+04  0.7818609E-02  0.8556150E-01
       -1   -1    0    0    0  501  0.00000000000E+00  0.00000000000E+00  0.87060011049E+03  0.87060011051E+03  0.50400001928E-02 0.  1.
        1   -1    0    0  501    0  0.00000000000E+00  0.00000000000E+00 -0.12803984647E+04  0.12803984647E+04  0.50400001928E-02 0. -1.
    10030    2    1    2    0    0  0.00000000000E+00  0.00000000000E+00 -0.40979835417E+03  0.21509985752E+04  0.21116013306E+04 0.  0.
        3    1    3    3  502    0 -0.10260903385E+03 -0.10055074201E+04  0.10598543364E+03  0.10162709816E+04  0.10100000352E+00 0.  1.
       -3    1    3    3    0  502  0.10260903385E+03  0.10055074201E+04 -0.51578378781E+03  0.11347275936E+04  0.10100000352E+00 0. -1.
</event>
<event>
 5   0  0.3130517E-05  0.2122338E+04  0.7818609E-02  0.8551467E-01
       -2   -1    0    0    0  501  0.00000000000E+00  0.00000000000E+00  0.13493287739E+04  0.13493287739E+04  0.25500000920E-02 0.  1.
        2   -1    0    0  501    0  0.00000000000E+00  0.00000000000E+00 -0.83454800500E+03  0.83454800501E+03  0.25500000920E-02 0. -1.
    10030    2    1    2    0    0  0.00000000000E+00  0.00000000000E+00  0.51478076894E+03  0.21838767789E+04  0.21223379904E+04 0.  0.
        1    1    3    3  502    0  0.82290237150E+03 -0.12730154874E+03 -0.41948677553E+03  0.93238573144E+03  0.50400001928E-02 0. -1.
       -1    1    3    3    0  502 -0.82290237150E+03  0.12730154874E+03  0.93426754446E+03  0.12514910475E+04  0.50400001928E-02 0.  1.
</event>
<event>
 5   0  0.1453430E-05  0.2101875E+04  0.7818609E-02  0.8560418E-01
        1   -1    0    0  501    0  0.00000000000E+00  0.00000000000E+00  0.15234481871E+04  0.15234481871E+04  0.50400001928E-02 0.  1.
       -1   -1    0    0    0  501  0.00000000000E+00  0.00000000000E+00 -0.72498026043E+03  0.72498026044E+03  0.50400001928E-02 0. -1.
    10030    2    1    2    0    0  0.00000000000E+00  0.00000000000E+00  0.79846792669E+03  0.22484284476E+04  0.21018752232E+04 0.  0.
        5    1    3    3  502    0  0.29234248200E+03  0.98916769688E+03  0.61459411094E+03  0.12006934957E+04  0.46999998093E+01 0.  1.
       -5    1    3    3    0  502 -0.29234248200E+03 -0.98916769688E+03  0.18387381575E+03  0.10477349519E+04  0.46999998093E+01 0. -1.
</event>
<event>
 5   0  0.3279789E-05  0.2131811E+04  0.7818609E-02  0.8547359E-01
        2   -1    0    0  501    0  0.00000000000E+00  0.00000000000E+00  0.12321694341E+04  0.12321694341E+04  0.25500000920E-02 0. -1.
       -2   -1    0    0    0  501  0.00000000000E+00  0.00000000000E+00 -0.92207624098E+03  0.92207624098E+03  0.25500000920E-02 0.  1.
    10030    2    1    2    0    0  0.00000000000E+00  0.00000000000E+00  0.31009319316E+03  0.21542456751E+04  0.21318106483E+04 0.  0.
        2    1    3    3  502    0  0.10388754994E+04 -0.16897917436E+03 -0.15063621059E+02  0.10526362986E+04  0.25500000920E-02 0.  1.
       -2    1    3    3    0  502 -0.10388754994E+04  0.16897917436E+03  0.32515681422E+03  0.11016093765E+04  0.25500000920E-02 0. -1.
</event>
<event>
 5   0  0.1435410E-05  0.2113106E+04  0.7818609E-02  0.8555492E-01
        1   -1    0    0  501    0  0.00000000000E+00  0.00000000000E+00  0.82099001712E+03  0.82099001713E+03  0.50400001928E-02 0. -1.
       -1   -1    0    0    0  501  0.00000000000E+00  0.00000000000E+00 -0.13597055145E+04  0.13597055145E+04  0.50400001928E-02 0.  1.
    10030    2    1    2    0    0  0.00000000000E+00  0.00000000000E+00 -0.53871549742E+03  0.21806955317E+04  0.21131063898E+04 0.  0.
        2    1    3    3  502    0  0.58474250177E+03  0.71690319988E+03  0.25728938892E+03  0.96024570868E+03  0.25500000920E-02 0. -1.
       -2    1    3    3    0  502 -0.58474250177E+03 -0.71690319988E+03 -0.79600488634E+03  0.12204498230E+04  0.25500000920E-02 0.  1.
</event>
<event>
 5   0  0.3257130E-05  0.2099335E+04  0.7818609E-02  0.8561536E-01
        2   -1    0    0  501    0  0.00000000000E+00  0.00000000000E+00  0.10703589036E+04  0.10703589036E+04  0.25500000920E-02 0.  1.
       -2   -1    0    0    0  501  0.00000000000E+00  0.00000000000E+00 -0.10293758787E+04  0.10293758787E+04  0.25500000920E-02 0. -1.
    10030    2    1    2    0    0  0.00000000000E+00  0.00000000000E+00  0.40983024893E+02  0.20997347823E+04  0.20993347869E+04 0.  0.
        3    1    3    3  502    0  0.43413178599E+03  0.81344425665E+03  0.52222407221E+03  0.10596603032E+04  0.10100000352E+00 0.  1.
       -3    1    3    3    0  502 -0.43413178599E+03 -0.81344425665E+03 -0.48124104732E+03  0.10400744791E+04  0.10100000352E+00 0. -1.
</event>
<event>
 5   0  0.1513292E-05  0.2101163E+04  0.7818609E-02  0.8560731E-01
       -1   -1    0    0    0  501  0.00000000000E+00  0.00000000000E+00  0.43156280360E+03  0.43156280363E+03  0.50400001928E-02 0.  1.
        1   -1    0    0  501    0  0.00000000000E+00  0.00000000000E+00 -0.25574983037E+04  0.25574983037E+04  0.50400001928E-02 0. -1.
    10030    2    1    2    0    0  0.00000000000E+00  0.00000000000E+00 -0.21259355001E+04  0.29890611074E+04  0.21011626669E+04 0.  0.
        1    1    3    3  502    0 -0.46959702643E+02  0.93025477470E+03 -0.17542600460E+04  0.19862042867E+04  0.50400001928E-02 0. -1.
       -1    1    3    3    0  502  0.46959702643E+02 -0.93025477470E+03 -0.37167545416E+03  0.10028568207E+04  0.50400001928E-02 0.  1.
</event>
<event>
 5   0  0.3257130E-05  0.2099863E+04  0.7818609E-02  0.8561304E-01
       -2   -1    0    0    0  501  0.00000000000E+00  0.00000000000E+00  0.12180896180E+04  0.12180896180E+04  0.25500000920E-02 0.  1.
        2   -1    0    0  501    0  0.00000000000E+00  0.00000000000E+00 -0.90498779462E+03  0.90498779462E+03  0.25500000920E-02 0. -1.
    10030    2    1    2    0    0  0.00000000000E+00  0.00000000000E+00  0.31310182342E+03  0.21230774127E+04  0.20998630785E+04 0.  0.
        3    1    3    3  502    0  0.44985958641E+03  0.57002899726E+03 -0.61015264102E+03  0.94846874527E+03  0.10100000352E+00 0. -1.
       -3    1    3    3    0  502 -0.44985958641E+03 -0.57002899726E+03  0.92325446444E+03  0.11746086674E+04  0.10100000352E+00 0.  1.
</event>
<event>
 5   0  0.1466480E-05  0.2097915E+04  0.7818609E-02  0.8562163E-01
        1   -1    0    0  501    0  0.00000000000E+00  0.00000000000E+00  0.13198199337E+04  0.13198199337E+04  0.50400001928E-02 0. -1.
       -1   -1    0    0    0  501  0.00000000000E+00  0.00000000000E+00 -0.83368292856E+03  0.83368292858E+03  0.50400001928E-02 0.  1.
    10030    2    1    2    0    0  0.00000000000E+00  0.00000000000E+00  0.48613700517E+03  0.21535028623E+04  0.20979145336E+04 0.  0.
        3    1    3    3  502    0 -0.10167013040E+03 -0.10431185558E+04  0.19858196125E+03  0.10667089305E+04  0.10100000352E+00 0. -1.
       -3    1    3    3    0  502  0.10167013040E+03  0.10431185558E+04  0.28755504392E+03  0.10867939318E+04  0.10100000352E+00 0.  1.
</event>
<event>
 5   0  0.1453430E-05  0.2100061E+04  0.7818609E-02  0.8561216E-01
        1   -1    0    0  501    0  0.00000000000E+00  0.00000000000E+00  0.59834272786E+03  0.59834272788E+03  0.50400001928E-02 0.  1.
       -1   -1    0    0    0  501  0.00000000000E+00  0.00000000000E+00 -0.18426970040E+04  0.18426970040E+04  0.50400001928E-02 0. -1.
    10030    2    1    2    0    0  0.00000000000E+00  0.00000000000E+00 -0.12443542762E+04  0.24410397319E+04  0.21000612868E+04 0.  0.
        5    1    3    3  502    0 -0.65444342482E+03  0.77971980166E+03 -0.92143410793E+03  0.13730703080E+04  0.46999998093E+01 0. -1.
       -5    1    3    3    0  502  0.65444342482E+03 -0.77971980166E+03 -0.32292016822E+03  0.10679694239E+04  0.46999998093E+01 0.  1.
</event>
<event>
 5   0  0.1466480E-05  0.1999667E+04  0.7818609E-02  0.8606776E-01
        1   -1    0    0  501    0  0.00000000000E+00  0.00000000000E+00  0.14512949461E+04  0.14512949461E+04  0.50400001928E-02 0. -1.
       -1   -1    0    0    0  501  0.00000000000E+00  0.00000000000E+00 -0.68881061947E+03  0.68881061949E+03  0.50400001928E-02 0.  1.
    10030    2    1    2    0    0  0.00000000000E+00  0.00000000000E+00  0.76248432659E+03  0.21401055656E+04  0.19996673432E+04 0.  0.
        3    1    3    3  502    0  0.22821222398E+03  0.94109054390E+03  0.64758803386E+03  0.11649474249E+04  0.10100000352E+00 0.  1.
       -3    1    3    3    0  502 -0.22821222398E+03 -0.94109054390E+03  0.11489629273E+03  0.97515814065E+03  0.10100000352E+00 0. -1.
</event>
<event>
 5   0  0.3108326E-05  0.2098343E+04  0.7818609E-02  0.8561974E-01
       -2   -1    0    0    0  501  0.00000000000E+00  0.00000000000E+00  0.58566516501E+03  0.58566516502E+03  0.25500000920E-02 0.  1.
        2   -1    0    0  501    0  0.00000000000E+00  0.00000000000E+00 -0.18795047588E+04  0.18795047589E+04  0.25500000920E-02 0. -1.
    10030    2    1    2    0    0  0.00000000000E+00  0.00000000000E+00 -0.12938395938E+04  0.24651699239E+04  0.20983426458E+04 0.  0.
        5    1    3    3  502    0  0.59936301947E+03  0.75222807994E+03 -0.15453908180E+03  0.97415991046E+03  0.46999998093E+01 0.  1.
       -5    1    3    3    0  502 -0.59936301947E+03 -0.75222807994E+03 -0.11393005120E+04  0.14910100134E+04  0.46999998093E+01 0. -1.
</event>
<event>
 5   0  0.3130517E-05  0.2110021E+04  0.7818609E-02  0.8556842E-01
       -2   -1    0    0    0  501  0.00000000000E+00  0.00000000000E+00  0.47779425213E+03  0.47779425214E+03  0.25500000920E-02 0. -1.
        2   -1    0    0  501    0  0.00000000000E+00  0.00000000000E+00 -0.23295538409E+04  0.23295538409E+04  0.25500000920E-02 0.  1.
    10030    2    1    2    0    0  0.00000000000E+00  0.00000000000E+00 -0.18517595887E+04  0.28073480930E+04  0.21100212655E+04 0.  0.
        1    1    3    3  502    0  0.68684233928E+03  0.90114283949E+02 -0.19845754354E+04  0.21020020557E+04  0.50400001928E-02 0.  1.
       -1    1    3    3    0  502 -0.68684233928E+03 -0.90114283949E+02  0.13281584670E+03  0.70534603731E+03  0.50400001928E-02 0. -1.
</event>
<event>
 5   0  0.3130517E-05  0.2099121E+04  0.7818609E-02  0.8561631E-01
       -2   -1    0    0    0  501  0.00000000000E+00  0.00000000000E+00  0.65724785560E+03  0.65724785561E+03  0.25500000920E-02 0. -1.
        2   -1    0    0  501    0  0.00000000000E+00  0.00000000000E+00 -0.16760456952E+04  0.16760456952E+04  0.25500000920E-02 0.  1.
    10030    2    1    2    0    0  0.00000000000E+00  0.00000000000E+00 -0.10187978396E+04  0.23332935509E+04  0.20991211867E+04 0.  0.
        1    1    3    3  502    0  0.18869244707E+03  0.32610639283E+02  0.63766639337E+03  0.66579780913E+03  0.50400001928E-02 0. -1.
       -1    1    3    3    0  502 -0.18869244707E+03 -0.32610639283E+02 -0.16564642330E+04  0.16674957417E+04  0.50400001928E-02 0.  1.
</event>
<event>
 5   0  0.1435410E-05  0.2105746E+04  0.7818609E-02  0.8558716E-01
       -1   -1    0    0    0  501  0.00000000000E+00  0.00000000000E+00  0.10384389629E+04  0.10384389629E+04  0.50400001928E-02 0.  1.
        1   -1    0    0  501    0  0.00000000000E+00  0.00000000000E+00 -0.10675076675E+04  0.10675076675E+04  0.50400001928E-02 0. -1.
    10030    2    1    2    0    0  0.00000000000E+00  0.00000000000E+00 -0.29068704626E+02  0.21059466305E+04  0.21057460010E+04 0.  0.
        2    1    3    3  502    0 -0.61271762533E+03  0.46811175937E+03 -0.73153365162E+03  0.10628701666E+04  0.25500000920E-02 0. -1.
       -2    1    3    3    0  502  0.61271762533E+03 -0.46811175937E+03  0.70246494699E+03  0.10430764638E+04  0.25500000920E-02 0.  1.
</event>
<event>
 5   0  0.1129987E-05  0.2093873E+04  0.7818609E-02  0.8563947E-01
        4   -1    0    0  501    0  0.00000000000E+00  0.00000000000E+00  0.11483177703E+04  0.11483184726E+04  0.12699999809E+01 0.  1.
       -4   -1    0    0    0  501  0.00000000000E+00  0.00000000000E+00 -0.95450449516E+03  0.95450534005E+03  0.12699999809E+01 0. -1.
    10030    2    1    2    0    0  0.00000000000E+00  0.00000000000E+00  0.19381327519E+03  0.21028238127E+04  0.20938730624E+04 0.  0.
        5    1    3    3  502    0 -0.10447222891E+04 -0.36105410208E+02  0.39165221207E+02  0.10460899897E+04  0.46999998093E+01 0. -1.
       -5    1    3    3    0  502  0.10447222891E+04  0.36105410208E+02  0.15464805398E+03  0.10567338230E+04  0.46999998093E+01 0.  1.
</event>
<event>
 5   0  0.3279789E-05  0.2092157E+04  0.7818609E-02  0.8564706E-01
        2   -1    0    0  501    0  0.00000000000E+00  0.00000000000E+00  0.10167050401E+04  0.10167050401E+04  0.25500000920E-02 0. -1.
       -2   -1    0    0    0  501  0.00000000000E+00  0.00000000000E+00 -0.10763010635E+04  0.10763010635E+04  0.25500000920E-02 0.  1.
    10030    2    1    2    0    0  0.00000000000E+00  0.00000000000E+00 -0.59596023358E+02  0.20930061036E+04  0.20921574663E+04 0.  0.
        2    1    3    3  502    0 -0.12468552998E+03  0.31558666885E+03  0.96011803647E+03  0.10183162922E+04  0.25500000920E-02 0. -1.
       -2    1    3    3    0  502  0.12468552998E+03 -0.31558666885E+03 -0.10197140598E+04  0.10746898114E+04  0.25500000920E-02 0.  1.
</event>
<event>
 5   0  0.1453430E-05  0.2096959E+04  0.7818609E-02  0.8562584E-01
        1   -1    0    0  501    0  0.00000000000E+00  0.00000000000E+00  0.16735626639E+04  0.16735626639E+04  0.50400001928E-02 0.  1.
       -1   -1    0    0    0  501  0.00000000000E+00  0.00000000000E+00 -0.65686780755E+03  0.65686780757E+03  0.50400001928E-02 0. -1.
    10030    2    1    2    0    0  0.00000000000E+00  0.00000000000E+00  0.10166948563E+04  0.23304304714E+04  0.20969591678E+04 0.  0.
        5    1    3    3  502    0  0.86054330233E+03  0.18051508050E+03  0.11430439303E+04  0.14421137216E+04  0.46999998093E+01 0.  1.
       -5    1    3    3    0  502 -0.86054330233E+03 -0.18051508050E+03 -0.12634907402E+03  0.88831674980E+03  0.46999998093E+01 0. -1.
</event>
<event>
 5   0  0.1492552E-05  0.2106510E+04  0.7818609E-02  0.8558381E-01
        1   -1    0    0  501    0  0.00000000000E+00  0.00000000000E+00  0.87198916537E+03  0.87198916539E+03  0.50400001928E-02 0.  1.
       -1   -1    0    0    0  501  0.00000000000E+00  0.00000000000E+00 -0.12722021968E+04  0.12722021968E+04  0.50400001928E-02 0. -1.
    10030    2    1    2    0    0  0.00000000000E+00  0.00000000000E+00 -0.40021303141E+03  0.21441913622E+04  0.21065104147E+04 0.  0.
        4    1    3    3  502    0 -0.33364721847E+03 -0.59611017984E+03 -0.10161181414E+04  0.12244041421E+04  0.12699999809E+01 0. -1.
       -4    1    3    3    0  502  0.33364721847E+03  0.59611017984E+03  0.61590510998E+03  0.91978722013E+03  0.12699999809E+01 0.  1.
</event>
<event>
 5   0  0.1466480E-05  0.2106081E+04  0.7818609E-02  0.8558569E-01
       -1   -1    0    0    0  501  0.00000000000E+00  0.00000000000E+00  0.12879160492E+04  0.12879160492E+04  0.50400001928E-02 0. -1.
        1   -1    0    0  501    0  0.00000000000E+00  0.00000000000E+00 -0.86099901522E+03  0.86099901524E+03  0.50400001928E-02 0.  1.
    10030    2    1    2    0    0  0.00000000000E+00  0.00000000000E+00  0.42691703397E+03  0.21489150644E+04  0.21060811476E+04 0.  0.
        3    1    3    3  502    0 -0.40101870177E+03 -0.73827775400E+03  0.86121209282E+03  0.12031443472E+04  0.10100000352E+00 0. -1.
       -3    1    3    3    0  502  0.40101870177E+03  0.73827775400E+03 -0.43429505884E+03  0.94577071723E+03  0.10100000352E+00 0.  1.
</event>
<event>
 5   0  0.1453430E-05  0.2129949E+04  0.7818609E-02  0.8548164E-01
       -1   -1    0    0    0  501  0.00000000000E+00  0.00000000000E+00  0.91446625604E+03  0.91446625606E+03  0.50400001928E-02 0.  1.
        1   -1    0    0  501    0  0.00000000000E+00  0.00000000000E+00 -0.12402543778E+04  0.12402543778E+04  0.50400001928E-02 0. -1.
    10030    2    1    2    0    0  0.00000000000E+00  0.00000000000E+00 -0.32578812171E+03  0.21547206338E+04  0.21299490861E+04 0.  0.
        5    1    3    3  502    0  0.30497190444E+03  0.63202686958E+03  0.64747335123E+03  0.95483488464E+03  0.46999998093E+01 0. -1.
       -5    1    3    3    0  502 -0.30497190444E+03 -0.63202686958E+03 -0.97326147294E+03  0.11998857492E+04  0.46999998093E+01 0.  1.
</event>
<event>
 5   0  0.3279789E-05  0.2084324E+04  0.7818609E-02  0.8568180E-01
        2   -1    0    0  501    0  0.00000000000E+00  0.00000000000E+00  0.17170090789E+04  0.17170090789E+04  0.25500000920E-02 0. -1.
       -2   -1    0    0    0  501  0.00000000000E+00  0.00000000000E+00 -0.63255469520E+03  0.63255469521E+03  0.25500000920E-02 0.  1.
    10030    2    1    2    0    0  0.00000000000E+00  0.00000000000E+00  0.10844543837E+04  0.23495637741E+04  0.20843244993E+04 0.  0.
        2    1    3    3  502    0  0.64875423428E+03  0.81219247640E+03  0.45814671918E+03  0.11359740717E+04  0.25500000920E-02 0. -1.
       -2    1    3    3    0  502 -0.64875423428E+03 -0.81219247640E+03  0.62630766455E+03  0.12135897025E+04  0.25500000920E-02 0.  1.
</event>
<event>
 5   0  0.3279789E-05  0.2101832E+04  0.7818609E-02  0.8560437E-01
       -2   -1    0    0    0  501  0.00000000000E+00  0.00000000000E+00  0.79792002366E+03  0.79792002367E+03  0.25500000920E-02 0. -1.
        2   -1    0    0  501    0  0.00000000000E+00  0.00000000000E+00 -0.13841297746E+04  0.13841297746E+04  0.25500000920E-02 0.  1.
    10030    2    1    2    0    0  0.00000000000E+00  0.00000000000E+00 -0.58620975096E+03  0.21820497983E+04  0.21018324030E+04 0.  0.
        2    1    3    3  502    0 -0.22589390852E+03 -0.70953245827E+03 -0.10630013340E+04  0.12978583140E+04  0.25500000920E-02 0.  1.
       -2    1    3    3    0  502  0.22589390852E+03  0.70953245827E+03  0.47679158300E+03  0.88419148428E+03  0.25500000920E-02 0. -1.
</event>
<event>
 5   0  0.1492552E-05  0.2110823E+04  0.7818609E-02  0.8556491E-01
       -1   -1    0    0    0  501  0.00000000000E+00  0.00000000000E+00  0.82359590920E+03  0.82359590921E+03  0.50400001928E-02 0. -1.
        1   -1    0    0  501    0  0.00000000000E+00  0.00000000000E+00 -0.13524755063E+04  0.13524755063E+04  0.50400001928E-02 0.  1.
    10030    2    1    2    0    0  0.00000000000E+00  0.00000000000E+00 -0.52887959705E+03  0.21760714155E+04  0.21108228673E+04 0.  0.
        4    1    3    3  502    0 -0.58156844252E+03  0.88053250940E+03 -0.28323317273E+03  0.10926033116E+04  0.12699999809E+01 0.  1.
       -4    1    3    3    0  502  0.58156844252E+03 -0.88053250940E+03 -0.24564642433E+03  0.10834681039E+04  0.12699999809E+01 0. -1.
</event>
<event>
 5   0  0.1513292E-05  0.2115880E+04  0.7818609E-02  0.8554280E-01
        1   -1    0    0  501    0  0.00000000000E+00  0.00000000000E+00  0.21894018749E+04  0.21894018749E+04  0.50400001928E-02 0.  1.
       -1   -1    0    0    0  501  0.00000000000E+00  0.00000000000E+00 -0.51120692340E+03  0.51120692343E+03  0.50400001928E-02 0. -1.
    10030    2    1    2    0    0  0.00000000000E+00  0.00000000000E+00  0.16781949515E+04  0.27006087983E+04  0.21158803337E+04 0.  0.
        1    1    3    3  502    0  0.96653318482E+03 -0.39811289348E+03  0.10470964009E+04  0.14795577536E+04  0.50400001928E-02 0. -1.
       -1    1    3    3    0  502 -0.96653318482E+03  0.39811289348E+03  0.63109855058E+03  0.12210510448E+04  0.50400001928E-02 0.  1.
</event>
<event>
 5   0  0.1513292E-05  0.2097570E+04  0.7818609E-02  0.8562315E-01
        1   -1    0    0  501    0  0.00000000000E+00  0.00000000000E+00  0.17360307659E+04  0.17360307659E+04  0.50400001928E-02 0.  1.
       -1   -1    0    0    0  501  0.00000000000E+00  0.00000000000E+00 -0.63360028286E+03  0.63360028288E+03  0.50400001928E-02 0. -1.
    10030    2    1    2    0    0  0.00000000000E+00  0.00000000000E+00  0.11024304830E+04  0.23696310488E+04  0.20975696263E+04 0.  0.
        1    1    3    3  502    0  0.70491880061E+03 -0.69859932173E+03  0.93431298725E+03  0.13630452252E+04  0.50400001928E-02 0.  1.
       -1    1    3    3    0  502 -0.70491880061E+03  0.69859932173E+03  0.16811749576E+03  0.10065858236E+04  0.50400001928E-02 0. -1.
</event>
<event>
 5   0  0.1453430E-05  0.2093754E+04  0.7818609E-02  0.8564000E-01
       -1   -1    0    0    0  501  0.00000000000E+00  0.00000000000E+00  0.73047608551E+03  0.73047608553E+03  0.50400001928E-02 0.  1.
        1   -1    0    0  501    0  0.00000000000E+00  0.00000000000E+00 -0.15003245536E+04  0.15003245536E+04  0.50400001928E-02 0. -1.
    10030    2    1    2    0    0  0.00000000000E+00  0.00000000000E+00 -0.76984846807E+03  0.22308006391E+04  0.20937537648E+04 0.  0.
        5    1    3    3  502    0  0.10182394665E+04 -0.13235107933E+02 -0.12625258437E+03  0.10261328298E+04  0.46999998093E+01 0.  1.
       -5    1    3    3    0  502 -0.10182394665E+04  0.13235107933E+02 -0.64359588370E+03  0.12046678093E+04  0.46999998093E+01 0. -1.
</event>
<event>
 5   0  0.3130517E-05  0.2091419E+04  0.7818609E-02  0.8565033E-01
       -2   -1    0    0    0  501  0.00000000000E+00  0.00000000000E+00  0.49350176465E+03  0.49350176465E+03  0.25500000920E-02 0. -1.
        2   -1    0    0  501    0  0.00000000000E+00  0.00000000000E+00 -0.22158145985E+04  0.22158145985E+04  0.25500000920E-02 0.  1.
    10030    2    1    2    0    0  0.00000000000E+00  0.00000000000E+00 -0.17223128339E+04  0.27093163632E+04  0.20914190537E+04 0.  0.
        1    1    3    3  502    0  0.94070420624E+02  0.61997521836E+03 -0.19452270774E+04  0.20438020692E+04  0.50400001928E-02 0.  1.
       -1    1    3    3    0  502 -0.94070420624E+02 -0.61997521836E+03  0.22291424356E+03  0.66551429393E+03  0.50400001928E-02 0. -1.
</event>
<event>
 5   0  0.3257130E-05  0.2101084E+04  0.7818609E-02  0.8560766E-01
       -2   -1    0    0    0  501  0.00000000000E+00  0.00000000000E+00  0.70057318550E+03  0.70057318550E+03  0.25500000920E-02 0.  1.
        2   -1    0    0  501    0  0.00000000000E+00  0.00000000000E+00 -0.15753371604E+04  0.15753371604E+04  0.25500000920E-02 0. -1.
    10030    2    1    2    0    0  0.00000000000E+00  0.00000000000E+00 -0.87476397488E+03  0.22759103459E+04  0.21010844559E+04 0.  0.
        3    1    3    3  502    0  0.56470109284E+03 -0.13307570591E+03 -0.13860654995E+04  0.15025891144E+04  0.10100000352E+00 0. -1.
       -3    1    3    3    0  502 -0.56470109284E+03  0.13307570591E+03  0.51130152460E+03  0.77332123145E+03  0.10100000352E+00 0.  1.
</event>
<event>
 5   0  0.3130517E-05  0.2106827E+04  0.7818609E-02  0.8558242E-01
        2   -1    0    0  501    0  0.00000000000E+00  0.00000000000E+00  0.61805549041E+03  0.61805549041E+03  0.25500000920E-02 0.  1.
       -2   -1    0    0    0  501  0.00000000000E+00  0.00000000000E+00 -0.17954374359E+04  0.17954374359E+04  0.25500000920E-02 0. -1.
    10030    2    1    2    0    0  0.00000000000E+00  0.00000000000E+00 -0.11773819455E+04  0.24134929264E+04  0.21068269649E+04 0.  0.
        1    1    3    3  502    0  0.11119389512E+03  0.14955406403E+03 -0.17764030866E+04  0.17861518486E+04  0.50400001928E-02 0. -1.
       -1    1    3    3    0  502 -0.11119389512E+03 -0.14955406403E+03  0.59902114103E+03  0.62734107773E+03  0.50400001928E-02 0.  1.
</event>
<event>
 5   0  0.3257130E-05  0.2103413E+04  0.7818609E-02  0.8559741E-01
        2   -1    0    0  501    0  0.00000000000E+00  0.00000000000E+00  0.22538312461E+04  0.22538312461E+04  0.25500000920E-02 0. -1.
       -2   -1    0    0    0  501  0.00000000000E+00  0.00000000000E+00 -0.49075838960E+03  0.49075838961E+03  0.25500000920E-02 0.  1.
    10030    2    1    2    0    0  0.00000000000E+00  0.00000000000E+00  0.17630728565E+04  0.27445896357E+04  0.21034130291E+04 0.  0.
        3    1    3    3  502    0 -0.89919239066E+03  0.54546111678E+03  0.88601812728E+03  0.13751737772E+04  0.10100000352E+00 0. -1.
       -3    1    3    3    0  502  0.89919239066E+03 -0.54546111678E+03  0.87705472918E+03  0.13694158585E+04  0.10100000352E+00 0.  1.
</event>
<event>
 5   0  0.3108326E-05  0.2087975E+04  0.7818609E-02  0.8566559E-01
       -2   -1    0    0    0  501  0.00000000000E+00  0.00000000000E+00  0.54665651784E+03  0.54665651785E+03  0.25500000920E-02 0. -1.
        2   -1    0    0  501    0  0.00000000000E+00  0.00000000000E+00 -0.19937741652E+04  0.19937741652E+04  0.25500000920E-02 0.  1.
    10030    2    1    2    0    0  0.00000000000E+00  0.00000000000E+00 -0.14471176474E+04  0.25404306830E+04  0.20879747532E+04 0.  0.
        5    1    3    3  502    0 -0.44704469656E+03  0.56908340353E+03 -0.16390631334E+04  0.17917184282E+04  0.46999998093E+01 0.  1.
       -5    1    3    3    0  502  0.44704469656E+03 -0.56908340353E+03  0.19194548602E+03  0.74871225481E+03  0.46999998093E+01 0. -1.
</event>
<event>
 5   0  0.1129987E-05  0.2090561E+04  0.7818609E-02  0.8565413E-01
        4   -1    0    0  501    0  0.00000000000E+00  0.00000000000E+00  0.74214342348E+03  0.74214451013E+03  0.12699999809E+01 0. -1.
       -4   -1    0    0    0  501  0.00000000000E+00  0.00000000000E+00 -0.14722352419E+04  0.14722357897E+04  0.12699999809E+01 0.  1.
    10030    2    1    2    0    0  0.00000000000E+00  0.00000000000E+00 -0.73009181841E+03  0.22143802998E+04  0.20905611803E+04 0.  0.
        3    1    3    3  502    0 -0.14168979691E+03 -0.68878359439E+03  0.45413689294E+03  0.83710164627E+03  0.10100000352E+00 0. -1.
       -3    1    3    3    0  502  0.14168979691E+03  0.68878359439E+03 -0.11842287114E+04  0.13772786535E+04  0.10100000352E+00 0.  1.
</event>
<event>
 5   0  0.1466480E-05  0.2101492E+04  0.7818609E-02  0.8560586E-01
       -1   -1    0    0    0  501  0.00000000000E+00  0.00000000000E+00  0.62990481797E+03  0.62990481799E+03  0.50400001928E-02 0.  1.
        1   -1    0    0  501    0  0.00000000000E+00  0.00000000000E+00 -0.17527526347E+04  0.17527526347E+04  0.50400001928E-02 0. -1.
    10030    2    1    2    0    0  0.00000000000E+00  0.00000000000E+00 -0.11228478167E+04  0.23826574527E+04  0.21014921645E+04 0.  0.
        3    1    3    3  502    0 -0.57792409016E+03  0.64920580321E+01 -0.15563420552E+04  0.16601924599E+04  0.10100000352E+00 0. -1.
       -3    1    3    3    0  502  0.57792409016E+03 -0.64920580321E+01  0.43349423850E+03  0.72246499280E+03  0.10100000352E+00 0.  1.
</event>
<event>
 5   0  0.3130517E-05  0.2121183E+04  0.7818609E-02  0.8551969E-01
       -2   -1    0    0    0  501  0.00000000000E+00  0.00000000000E+00  0.79529285275E+03  0.79529285276E+03  0.25500000920E-02 0.  1.
        2   -1    0    0  501    0  0.00000000000E+00  0.00000000000E+00 -0.14143904609E+04  0.14143904609E+04  0.25500000920E-02 0. -1.
    10030    2    1    2    0    0  0.00000000000E+00  0.00000000000E+00 -0.61909760819E+03  0.22096833137E+04  0.21211832779E+04 0.  0.
        1    1    3    3  502    0  0.10842312667E+03 -0.10537761640E+04 -0.36322373996E+03  0.11198800219E+04  0.50400001928E-02 0. -1.
       -1    1    3    3    0  502 -0.10842312667E+03  0.10537761640E+04 -0.25587386823E+03  0.10898032918E+04  0.50400001928E-02 0.  1.
</event>
<event>
 5   0  0.1466480E-05  0.2100064E+04  0.7818609E-02  0.8561215E-01
        1   -1    0    0  501    0  0.00000000000E+00  0.00000000000E+00  0.11878454151E+04  0.11878454152E+04  0.50400001928E-02 0.  1.
       -1   -1    0    0    0  501  0.00000000000E+00  0.00000000000E+00 -0.92820802555E+03  0.92820802556E+03  0.50400001928E-02 0. -1.
    10030    2    1    2    0    0  0.00000000000E+00  0.00000000000E+00  0.25963738960E+03  0.21160534407E+04  0.21000644252E+04 0.  0.
        3    1    3    3  502    0  0.83870411376E+03  0.58797960312E+03 -0.10307529683E+03  0.10294508882E+04  0.10100000352E+00 0.  1.
       -3    1    3    3    0  502 -0.83870411376E+03 -0.58797960312E+03  0.36271268643E+03  0.10866025526E+04  0.10100000352E+00 0. -1.
</event>
<event>
 5   0  0.1435410E-05  0.2065418E+04  0.7818609E-02  0.8576632E-01
       -1   -1    0    0    0  501  0.00000000000E+00  0.00000000000E+00  0.40242658446E+03  0.40242658449E+03  0.50400001928E-02 0.  1.
        1   -1    0    0  501    0  0.00000000000E+00  0.00000000000E+00 -0.26501416358E+04  0.26501416358E+04  0.50400001928E-02 0. -1.
    10030    2    1    2    0    0  0.00000000000E+00  0.00000000000E+00 -0.22477150513E+04  0.30525682203E+04  0.20654175819E+04 0.  0.
        2    1    3    3  502    0 -0.56121790175E+03 -0.42188372047E+03 -0.45797883661E+01  0.70211991947E+03  0.25500000920E-02 0.  1.
       -2    1    3    3    0  502  0.56121790175E+03  0.42188372047E+03 -0.22431352629E+04  0.23504483008E+04  0.25500000920E-02 0. -1.
</event>
<event>
 5   0  0.1492552E-05  0.2098013E+04  0.7818609E-02  0.8562119E-01
        1   -1    0    0  501    0  0.00000000000E+00  0.00000000000E+00  0.16993665251E+04  0.16993665251E+04  0.50400001928E-02 0. -1.
       -1   -1    0    0    0  501  0.00000000000E+00  0.00000000000E+00 -0.64754432719E+03  0.64754432721E+03  0.50400001928E-02 0.  1.
    10030    2    1    2    0    0  0.00000000000E+00  0.00000000000E+00  0.10518221979E+04  0.23469108523E+04  0.20980134920E+04 0.  0.
        4    1    3    3  502    0 -0.17277569806E+03  0.95399993128E+03  0.77833663216E+02  0.97263919454E+03  0.12699999809E+01 0. -1.
       -4    1    3    3    0  502  0.17277569806E+03 -0.95399993128E+03  0.97398853467E+03  0.13742716577E+04  0.12699999809E+01 0.  1.
</event>
<event>
 5   0  0.3242231E-05  0.2092966E+04  0.7818609E-02  0.8564348E-01
       -2   -1    0    0    0  501  0.00000000000E+00  0.00000000000E+00  0.98411407577E+03  0.98411407578E+03  0.25500000920E-02 0.  1.
        2   -1    0    0  501    0  0.00000000000E+00  0.00000000000E+00 -0.11128047523E+04  0.11128047523E+04  0.25500000920E-02 0. -1.
    10030    2    1    2    0    0  0.00000000000E+00  0.00000000000E+00 -0.12869067649E+03  0.20969188280E+04  0.20929661443E+04 0.  0.
        4    1    3    3  502    0 -0.11678985454E+03  0.55736514666E+03 -0.94397235518E+03  0.11024432852E+04  0.12699999809E+01 0. -1.
       -4    1    3    3    0  502  0.11678985454E+03 -0.55736514666E+03  0.81528167868E+03  0.99447554285E+03  0.12699999809E+01 0.  1.
</event>
<event>
 5   0  0.1453430E-05  0.2160973E+04  0.7818609E-02  0.8534850E-01
       -1   -1    0    0    0  501  0.00000000000E+00  0.00000000000E+00  0.13831466846E+04  0.13831466846E+04  0.50400001928E-02 0.  1.
        1   -1    0    0  501    0  0.00000000000E+00  0.00000000000E+00 -0.84405471745E+03  0.84405471747E+03  0.50400001928E-02 0. -1.
    10030    2    1    2    0    0  0.00000000000E+00  0.00000000000E+00  0.53909196715E+03  0.22272014021E+04  0.21609733771E+04 0.  0.
        5    1    3    3  502    0 -0.17050360669E+03  0.11472559596E+03 -0.82371577068E+03  0.84897774006E+03  0.46999998093E+01 0. -1.
       -5    1    3    3    0  502  0.17050360669E+03 -0.11472559596E+03  0.13628077378E+04  0.13782236620E+04  0.46999998093E+01 0.  1.
</event>
<event>
 5   0  0.1453430E-05  0.2110353E+04  0.7818609E-02  0.8556696E-01
       -1   -1    0    0    0  501  0.00000000000E+00  0.00000000000E+00  0.99011746563E+03  0.99011746564E+03  0.50400001928E-02 0.  1.
        1   -1    0    0  501    0  0.00000000000E+00  0.00000000000E+00 -0.11245105431E+04  0.11245105431E+04  0.50400001928E-02 0. -1.
    10030    2    1    2    0    0  0.00000000000E+00  0.00000000000E+00 -0.13439307742E+03  0.21146280087E+04  0.21103530785E+04 0.  0.
        5    1    3    3  502    0  0.31969450372E+03 -0.25563811860E+02 -0.10744777804E+04  0.11213307607E+04  0.46999998093E+01 0. -1.
       -5    1    3    3    0  502 -0.31969450372E+03  0.25563811860E+02  0.94008470299E+03  0.99329724805E+03  0.46999998093E+01 0.  1.
</event>
<event>
 5   0  0.1453430E-05  0.2102493E+04  0.7818609E-02  0.8560146E-01
       -1   -1    0    0    0  501  0.00000000000E+00  0.00000000000E+00  0.59921902005E+03  0.59921902007E+03  0.50400001928E-02 0. -1.
        1   -1    0    0  501    0  0.00000000000E+00  0.00000000000E+00 -0.18442661321E+04  0.18442661321E+04  0.50400001928E-02 0.  1.
    10030    2    1    2    0    0  0.00000000000E+00  0.00000000000E+00 -0.12450471120E+04  0.24434851521E+04  0.21024931338E+04 0.  0.
        5    1    3    3  502    0  0.65907309167E+03  0.23952526177E+03 -0.15327059705E+04  0.16855145722E+04  0.46999998093E+01 0.  1.
       -5    1    3    3    0  502 -0.65907309167E+03 -0.23952526177E+03  0.28765885847E+03  0.75797057993E+03  0.46999998093E+01 0. -1.
</event>
<event>
 5   0  0.3108326E-05  0.2102547E+04  0.7818609E-02  0.8560122E-01
       -2   -1    0    0    0  501  0.00000000000E+00  0.00000000000E+00  0.13409431864E+04  0.13409431864E+04  0.25500000920E-02 0. -1.
        2   -1    0    0  501    0  0.00000000000E+00  0.00000000000E+00 -0.82417796972E+03  0.82417796973E+03  0.25500000920E-02 0.  1.
    10030    2    1    2    0    0  0.00000000000E+00  0.00000000000E+00  0.51676521672E+03  0.21651211562E+04  0.21025468679E+04 0.  0.
        5    1    3    3  502    0 -0.21923098945E+03  0.10237383202E+04  0.35635272580E+03  0.11059438187E+04  0.46999998093E+01 0. -1.
       -5    1    3    3    0  502  0.21923098945E+03 -0.10237383202E+04  0.16041249092E+03  0.10591773375E+04  0.46999998093E+01 0.  1.
</event>
<event>
 5   0  0.3130517E-05  0.2108063E+04  0.7818609E-02  0.8557700E-01
        2   -1    0    0  501    0  0.00000000000E+00  0.00000000000E+00  0.87023914303E+03  0.87023914304E+03  0.25500000920E-02 0. -1.
       -2   -1    0    0    0  501  0.00000000000E+00  0.00000000000E+00 -0.12766402180E+04  0.12766402180E+04  0.25500000920E-02 0.  1.
    10030    2    1    2    0    0  0.00000000000E+00  0.00000000000E+00 -0.40640107492E+03  0.21468793610E+04  0.21080628921E+04 0.  0.
        1    1    3    3  502    0 -0.12385709017E+03 -0.79578098663E+03  0.48930130905E+03  0.94235010932E+03  0.50400001928E-02 0. -1.
       -1    1    3    3    0  502  0.12385709017E+03  0.79578098663E+03 -0.89570238398E+03  0.12045292517E+04  0.50400001928E-02 0.  1.
</event>
<event>
 5   0  0.1435410E-05  0.2096882E+04  0.7818609E-02  0.8562618E-01
        1   -1    0    0  501    0  0.00000000000E+00  0.00000000000E+00  0.13625835646E+04  0.13625835646E+04  0.50400001928E-02 0. -1.
       -1   -1    0    0    0  501  0.00000000000E+00  0.00000000000E+00 -0.80672358178E+03  0.80672358179E+03  0.50400001928E-02 0.  1.
    10030    2    1    2    0    0  0.00000000000E+00  0.00000000000E+00  0.55585998278E+03  0.21693071464E+04  0.20968817742E+04 0.  0.
        2    1    3    3  502    0  0.21508661425E+03  0.90492235222E+03  0.77846069226E+03  0.12129088031E+04  0.25500000920E-02 0.  1.
       -2    1    3    3    0  502 -0.21508661425E+03 -0.90492235222E+03 -0.22260070948E+03  0.95639834329E+03  0.25500000920E-02 0. -1.
</event>
<event>
 5   0  0.1129987E-05  0.2088506E+04  0.7818609E-02  0.8566323E-01
       -4   -1    0    0    0  501  0.00000000000E+00  0.00000000000E+00  0.13069697312E+04  0.13069703483E+04  0.12699999809E+01 0. -1.
        4   -1    0    0  501    0  0.00000000000E+00  0.00000000000E+00 -0.83434431625E+03  0.83434528282E+03  0.12699999809E+01 0.  1.
    10030    2    1    2    0    0  0.00000000000E+00  0.00000000000E+00  0.47262541498E+03  0.21413156311E+04  0.20885061286E+04 0.  0.
        4    1    3    3  502    0 -0.16252035815E+03  0.99283799626E+03 -0.50625741590E+02  0.10073255344E+04  0.12699999809E+01 0.  1.
       -4    1    3    3    0  502  0.16252035815E+03 -0.99283799626E+03  0.52325115657E+03  0.11339900967E+04  0.12699999809E+01 0. -1.
</event>
<event>
 5   0  0.3130517E-05  0.2100628E+04  0.7818609E-02  0.8560967E-01
       -2   -1    0    0    0  501  0.00000000000E+00  0.00000000000E+00  0.63382765462E+03  0.63382765462E+03  0.25500000920E-02 0. -1.
        2   -1    0    0  501    0  0.00000000000E+00  0.00000000000E+00 -0.17404718001E+04  0.17404718001E+04  0.25500000920E-02 0.  1.
    10030    2    1    2    0    0  0.00000000000E+00  0.00000000000E+00 -0.11066441454E+04  0.23742994547E+04  0.21006276766E+04 0.  0.
        1    1    3    3  502    0 -0.70657617489E+03 -0.65464101174E+03 -0.10266310703E+04  0.14077556960E+04  0.50400001928E-02 0.  1.
       -1    1    3    3    0  502  0.70657617489E+03  0.65464101174E+03 -0.80013075143E+02  0.96654375865E+03  0.50400001928E-02 0. -1.
</event>
<event>
 5   0  0.3130517E-05  0.2098268E+04  0.7818609E-02  0.8562007E-01
       -2   -1    0    0    0  501  0.00000000000E+00  0.00000000000E+00  0.84041885672E+03  0.84041885672E+03  0.25500000920E-02 0. -1.
        2   -1    0    0  501    0  0.00000000000E+00  0.00000000000E+00 -0.13096823405E+04  0.13096823405E+04  0.25500000920E-02 0.  1.
    10030    2    1    2    0    0  0.00000000000E+00  0.00000000000E+00 -0.46926348381E+03  0.21501011973E+04  0.20982676048E+04 0.  0.
        1    1    3    3  502    0  0.44374305740E+03 -0.25545502450E+03 -0.11729579543E+04  0.12798419954E+04  0.50400001928E-02 0.  1.
       -1    1    3    3    0  502 -0.44374305740E+03  0.25545502450E+03  0.70369447052E+03  0.87025920185E+03  0.50400001928E-02 0. -1.
</event>
<event>
 5   0  0.3257130E-05  0.2095822E+04  0.7818609E-02  0.8563086E-01
       -2   -1    0    0    0  501  0.00000000000E+00  0.00000000000E+00  0.92446043247E+03  0.92446043247E+03  0.25500000920E-02 0. -1.
        2   -1    0    0  501    0  0.00000000000E+00  0.00000000000E+00 -0.11878467789E+04  0.11878467789E+04  0.25500000920E-02 0.  1.
    10030    2    1    2    0    0  0.00000000000E+00  0.00000000000E+00 -0.26338634645E+03  0.21123072114E+04  0.20958218884E+04 0.  0.
        3    1    3    3  502    0  0.88435206580E+03  0.49204039289E+03 -0.40574189737E+03  0.10903250992E+04  0.10100000352E+00 0.  1.
       -3    1    3    3    0  502 -0.88435206580E+03 -0.49204039289E+03  0.14235555091E+03  0.10219821122E+04  0.10100000352E+00 0. -1.
</event>
<event>
 5   0  0.1492552E-05  0.2103135E+04  0.7818609E-02  0.8559864E-01
        1   -1    0    0  501    0  0.00000000000E+00  0.00000000000E+00  0.17677452665E+04  0.17677452665E+04  0.50400001928E-02 0.  1.
       -1   -1    0    0    0  501  0.00000000000E+00  0.00000000000E+00 -0.62553910588E+03  0.62553910590E+03  0.50400001928E-02 0. -1.
    10030    2    1    2    0    0  0.00000000000E+00  0.00000000000E+00  0.11422061606E+04  0.23932843724E+04  0.21031346067E+04 0.  0.
        4    1    3    3  502    0 -0.51403901927E+02  0.63583236045E+03 -0.38021228462E+03  0.74262247879E+03  0.12699999809E+01 0. -1.
       -4    1    3    3    0  502  0.51403901927E+02 -0.63583236045E+03  0.15224184452E+04  0.16506618936E+04  0.12699999809E+01 0.  1.
</event>
<event>
 5   0  0.1492552E-05  0.2106792E+04  0.7818609E-02  0.8558258E-01
        1   -1    0    0  501    0  0.00000000000E+00  0.00000000000E+00  0.67252088244E+03  0.67252088245E+03  0.50400001928E-02 0.  1.
       -1   -1    0    0    0  501  0.00000000000E+00  0.00000000000E+00 -0.16499750287E+04  0.16499750287E+04  0.50400001928E-02 0. -1.
    10030    2    1    2    0    0  0.00000000000E+00  0.00000000000E+00 -0.97745414623E+03  0.23224959111E+04  0.21067915533E+04 0.  0.
        4    1    3    3  502    0 -0.63651335282E+03 -0.64487136039E+03 -0.10809785847E+04  0.14105050987E+04  0.12699999809E+01 0. -1.
       -4    1    3    3    0  502  0.63651335282E+03  0.64487136039E+03  0.10352443851E+03  0.91199081247E+03  0.12699999809E+01 0.  1.
</event>
<event>
 5   0  0.1513292E-05  0.2096125E+04  0.7818609E-02  0.8562952E-01
       -1   -1    0    0    0  501  0.00000000000E+00  0.00000000000E+00  0.12400433809E+04  0.12400433809E+04  0.50400001928E-02 0.  1.
        1   -1    0    0  501    0  0.00000000000E+00  0.00000000000E+00 -0.88580377666E+03  0.88580377667E+03  0.50400001928E-02 0. -1.
    10030    2    1    2    0    0  0.00000000000E+00  0.00000000000E+00  0.35423960423E+03  0.21258471576E+04  0.20961251013E+04 0.  0.
        1    1    3    3  502    0  0.10467500674E+04 -0.66658702590E+01  0.22986662126E+03  0.10717130217E+04  0.50400001928E-02 0.  1.
       -1    1    3    3    0  502 -0.10467500674E+04  0.66658702590E+01  0.12437298297E+03  0.10541341358E+04  0.50400001928E-02 0. -1.
</event>
<event>
 5   0  0.3108326E-05  0.2104857E+04  0.7818609E-02  0.8559107E-01
       -2   -1    0    0    0  501  0.00000000000E+00  0.00000000000E+00  0.45783557634E+03  0.45783557635E+03  0.25500000920E-02 0. -1.
        2   -1    0    0  501    0  0.00000000000E+00  0.00000000000E+00 -0.24192207997E+04  0.24192207997E+04  0.25500000920E-02 0.  1.
    10030    2    1    2    0    0  0.00000000000E+00  0.00000000000E+00 -0.19613852234E+04  0.28770563761E+04  0.21048566214E+04 0.  0.
        5    1    3    3  502    0  0.45516824078E+03  0.53795916288E+03  0.87742769786E+02  0.71014017771E+03  0.46999998093E+01 0. -1.
       -5    1    3    3    0  502 -0.45516824078E+03 -0.53795916288E+03 -0.20491279932E+04  0.21669161984E+04  0.46999998093E+01 0.  1.
</event>
<event>
 5   0  0.1513292E-05  0.2105868E+04  0.7818609E-02  0.8558663E-01
        1   -1    0    0  501    0  0.00000000000E+00  0.00000000000E+00  0.22522026285E+04  0.22522026285E+04  0.50400001928E-02 0. -1.
       -1   -1    0    0    0  501  0.00000000000E+00  0.00000000000E+00 -0.49226028194E+03  0.49226028196E+03  0.50400001928E-02 0.  1.
    10030    2    1    2    0    0  0.00000000000E+00  0.00000000000E+00  0.17599423466E+04  0.27444629105E+04  0.21058678980E+04 0.  0.
        1    1    3    3  502    0 -0.21212619033E+03  0.10052710490E+04  0.11802908023E+04  0.15648174911E+04  0.50400001928E-02 0. -1.
       -1    1    3    3    0  502  0.21212619033E+03 -0.10052710490E+04  0.57965154431E+03  0.11796454194E+04  0.50400001928E-02 0.  1.
</event>
<event>
 5   0  0.3108326E-05  0.2085691E+04  0.7818609E-02  0.8567573E-01
       -2   -1    0    0    0  501  0.00000000000E+00  0.00000000000E+00  0.13468667623E+04  0.13468667623E+04  0.25500000920E-02 0.  1.
        2   -1    0    0  501    0  0.00000000000E+00  0.00000000000E+00 -0.80744925563E+03  0.80744925563E+03  0.25500000920E-02 0. -1.
    10030    2    1    2    0    0  0.00000000000E+00  0.00000000000E+00  0.53941750667E+03  0.21543160179E+04  0.20856908349E+04 0.  0.
        5    1    3    3  502    0 -0.94638104709E+03  0.26670128637E+03  0.62861509231E+03  0.11670242871E+04  0.46999998093E+01 0. -1.
       -5    1    3    3    0  502  0.94638104709E+03 -0.26670128637E+03 -0.89197585640E+02  0.98729173081E+03  0.46999998093E+01 0.  1.
</event>
<event>
 5   0  0.3130517E-05  0.2075287E+04  0.7818609E-02  0.8572208E-01
        2   -1    0    0  501    0  0.00000000000E+00  0.00000000000E+00  0.10653257525E+04  0.10653257525E+04  0.25500000920E-02 0.  1.
       -2   -1    0    0    0  501  0.00000000000E+00  0.00000000000E+00 -0.10106806794E+04  0.10106806794E+04  0.25500000920E-02 0. -1.
    10030    2    1    2    0    0  0.00000000000E+00  0.00000000000E+00  0.54645073092E+02  0.20760064319E+04  0.20752871178E+04 0.  0.
        1    1    3    3  502    0  0.25479488009E+03 -0.83596305240E+03  0.58693533084E+03  0.10527334603E+04  0.50400001928E-02 0.  1.
       -1    1    3    3    0  502 -0.25479488009E+03  0.83596305240E+03 -0.53229025775E+03  0.10232729716E+04  0.50400001928E-02 0. -1.
</event>
<event>
 5   0  0.3242231E-05  0.2098790E+04  0.7818609E-02  0.8561777E-01
       -2   -1    0    0    0  501  0.00000000000E+00  0.00000000000E+00  0.15246476216E+04  0.15246476216E+04  0.25500000920E-02 0.  1.
        2   -1    0    0  501    0  0.00000000000E+00  0.00000000000E+00 -0.72228469855E+03  0.72228469856E+03  0.25500000920E-02 0. -1.
    10030    2    1    2    0    0  0.00000000000E+00  0.00000000000E+00  0.80236292306E+03  0.22469323202E+04  0.20987897920E+04 0.  0.
        4    1    3    3  502    0 -0.48654615206E+03 -0.49565656322E+03  0.12433618627E+04  0.14242025563E+04  0.12699999809E+01 0.  1.
       -4    1    3    3    0  502  0.48654615206E+03  0.49565656322E+03 -0.44099893965E+03  0.82272976391E+03  0.12699999809E+01 0. -1.
</event>
<event>
 5   0  0.3108326E-05  0.2098486E+04  0.7818609E-02  0.8561911E-01
        2   -1    0    0  501    0  0.00000000000E+00  0.00000000000E+00  0.37072495598E+03  0.37072495599E+03  0.25500000920E-02 0.  1.
       -2   -1    0    0    0  501  0.00000000000E+00  0.00000000000E+00 -0.29696159295E+04  0.29696159295E+04  0.25500000920E-02 0. -1.
    10030    2    1    2    0    0  0.00000000000E+00  0.00000000000E+00 -0.25988909735E+04  0.33403408855E+04  0.20984858682E+04 0.  0.
        5    1    3    3  502    0 -0.31903434976E+03 -0.78722654365E+03 -0.22798877239E+04  0.24329855468E+04  0.46999998093E+01 0. -1.
       -5    1    3    3    0  502  0.31903434976E+03  0.78722654365E+03 -0.31900324958E+03  0.90735533866E+03  0.46999998093E+01 0.  1.
</event>
<event>
 5   0  0.1492552E-05  0.2075130E+04  0.7818609E-02  0.8572279E-01
       -1   -1    0    0    0  501  0.00000000000E+00  0.00000000000E+00  0.94200364912E+03  0.94200364913E+03  0.50400001928E-02 0.  1.
        1   -1    0    0  501    0  0.00000000000E+00  0.00000000000E+00 -0.11428203001E+04  0.11428203001E+04  0.50400001928E-02 0. -1.
    10030    2    1    2    0    0  0.00000000000E+00  0.00000000000E+00 -0.20081665099E+03  0.20848239493E+04  0.20751297723E+04 0.  0.
        4    1    3    3  502    0  0.47316954867E+03  0.54695531792E+03 -0.84785276055E+03  0.11144081201E+04  0.12699999809E+01 0.  1.
       -4    1    3    3    0  502 -0.47316954867E+03 -0.54695531792E+03  0.64703610956E+03  0.97041582920E+03  0.12699999809E+01 0. -1.
</event>
<event>
 5   0  0.3130517E-05  0.2107432E+04  0.7818609E-02  0.8557977E-01
        2   -1    0    0  501    0  0.00000000000E+00  0.00000000000E+00  0.16690912794E+04  0.16690912794E+04  0.25500000920E-02 0.  1.
       -2   -1    0    0    0  501  0.00000000000E+00  0.00000000000E+00 -0.66522258467E+03  0.66522258468E+03  0.25500000920E-02 0. -1.
    10030    2    1    2    0    0  0.00000000000E+00  0.00000000000E+00  0.10038686947E+04  0.23343138641E+04  0.21074318162E+04 0.  0.
        1    1    3    3  502    0  0.24917741533E+03  0.47522339888E+03  0.15064223943E+04  0.15991357332E+04  0.50400001928E-02 0.  1.
       -1    1    3    3    0  502 -0.24917741533E+03 -0.47522339888E+03 -0.50255369957E+03  0.73517813088E+03  0.50400001928E-02 0. -1.
</event>
<event>
 5   0  0.1492552E-05  0.2102194E+04  0.7818609E-02  0.8560277E-01
        1   -1    0    0  501    0  0.00000000000E+00  0.00000000000E+00  0.20314157200E+04  0.20314157200E+04  0.50400001928E-02 0. -1.
       -1   -1    0    0    0  501  0.00000000000E+00  0.00000000000E+00 -0.54385967962E+03  0.54385967964E+03  0.50400001928E-02 0.  1.
    10030    2    1    2    0    0  0.00000000000E+00  0.00000000000E+00  0.14875560404E+04  0.25752753997E+04  0.21021941896E+04 0.  0.
        4    1    3    3  502    0  0.33110036759E+03 -0.70293697512E+03  0.16109272202E+04  0.17885289950E+04  0.12699999809E+01 0. -1.
       -4    1    3    3    0  502 -0.33110036759E+03  0.70293697512E+03 -0.12337117973E+03  0.78674640469E+03  0.12699999809E+01 0.  1.
</event>
<event>
 5   0  0.1435410E-05  0.2076744E+04  0.7818609E-02  0.8571558E-01
       -1   -1    0    0    0  501  0.00000000000E+00  0.00000000000E+00  0.17265509910E+04  0.17265509910E+04  0.50400001928E-02 0.  1.
        1   -1    0    0  501    0  0.00000000000E+00  0.00000000000E+00 -0.62449126733E+03  0.62449126735E+03  0.50400001928E-02 0. -1.
    10030    2    1    2    0    0  0.00000000000E+00  0.00000000000E+00  0.11020597237E+04  0.23510422584E+04  0.20767436207E+04 0.  0.
        2    1    3    3  502    0  0.10018040351E+04  0.65529745841E+02  0.25084569641E+03  0.10348086953E+04  0.25500000920E-02 0. -1.
       -2    1    3    3    0  502 -0.10018040351E+04 -0.65529745841E+02  0.85121402726E+03  0.13162335631E+04  0.25500000920E-02 0.  1.
</event>
<event>
 5   0  0.1435410E-05  0.2102992E+04  0.7818609E-02  0.8559926E-01
        1   -1    0    0  501    0  0.00000000000E+00  0.00000000000E+00  0.11326676731E+04  0.11326676731E+04  0.50400001928E-02 0.  1.
       -1   -1    0    0    0  501  0.00000000000E+00  0.00000000000E+00 -0.97614151437E+03  0.97614151438E+03  0.50400001928E-02 0. -1.
    10030    2    1    2    0    0  0.00000000000E+00  0.00000000000E+00  0.15652615869E+03  0.21088091875E+04  0.21029920948E+04 0.  0.
        2    1    3    3  502    0 -0.47211328881E+03  0.67144907768E+03  0.73727888428E+03  0.11033199783E+04  0.25500000920E-02 0.  1.
       -2    1    3    3    0  502  0.47211328881E+03 -0.67144907768E+03 -0.58075272559E+03  0.10054892091E+04  0.25500000920E-02 0. -1.
</event>
<event>
 5   0  0.1513292E-05  0.2108353E+04  0.7818609E-02  0.8557573E-01
       -1   -1    0    0    0  501  0.00000000000E+00  0.00000000000E+00  0.50871260395E+03  0.50871260397E+03  0.50400001928E-02 0.  1.
        1   -1    0    0  501    0  0.00000000000E+00  0.00000000000E+00 -0.21845108046E+04  0.21845108046E+04  0.50400001928E-02 0. -1.
    10030    2    1    2    0    0  0.00000000000E+00  0.00000000000E+00 -0.16757982006E+04  0.26932234085E+04  0.21083530822E+04 0.  0.
        1    1    3    3  502    0 -0.32079694262E+03 -0.90775062313E+03 -0.13863904925E+04  0.16878982404E+04  0.50400001928E-02 0. -1.
       -1    1    3    3    0  502  0.32079694262E+03  0.90775062313E+03 -0.28940770812E+03  0.10053251682E+04  0.50400001928E-02 0.  1.
</event>
<event>
 5   0  0.1492552E-05  0.2098534E+04  0.7818609E-02  0.8561889E-01
       -1   -1    0    0    0  501  0.00000000000E+00  0.00000000000E+00  0.10097832672E+04  0.10097832673E+04  0.50400001928E-02 0. -1.
        1   -1    0    0  501    0  0.00000000000E+00  0.00000000000E+00 -0.10902949877E+04  0.10902949877E+04  0.50400001928E-02 0.  1.
    10030    2    1    2    0    0  0.00000000000E+00  0.00000000000E+00 -0.80511720477E+02  0.21000782550E+04  0.20985343790E+04 0.  0.
        4    1    3    3  502    0  0.37916810866E+03 -0.75973188792E+03  0.57663826072E+03  0.10263889578E+04  0.12699999809E+01 0. -1.
       -4    1    3    3    0  502 -0.37916810866E+03  0.75973188792E+03 -0.65714998119E+03  0.10736892972E+04  0.12699999809E+01 0.  1.
</event>
<event>
 5   0  0.3242231E-05  0.2098804E+04  0.7818609E-02  0.8561770E-01
       -2   -1    0    0    0  501  0.00000000000E+00  0.00000000000E+00  0.12782629505E+04  0.12782629505E+04  0.25500000920E-02 0. -1.
        2   -1    0    0  501    0  0.00000000000E+00  0.00000000000E+00 -0.86151655663E+03  0.86151655663E+03  0.25500000920E-02 0.  1.
    10030    2    1    2    0    0  0.00000000000E+00  0.00000000000E+00  0.41674639384E+03  0.21397795071E+04  0.20988041315E+04 0.  0.
        4    1    3    3  502    0  0.88708549927E+03  0.50140907067E+03  0.46409137022E+03  0.11196937760E+04  0.12699999809E+01 0. -1.
       -4    1    3    3    0  502 -0.88708549927E+03 -0.50140907067E+03 -0.47344976374E+02  0.10200857311E+04  0.12699999809E+01 0.  1.
</event>
<event>
 5   0  0.3242231E-05  0.2106866E+04  0.7818609E-02  0.8558225E-01
       -2   -1    0    0    0  501  0.00000000000E+00  0.00000000000E+00  0.54313334908E+03  0.54313334908E+03  0.25500000920E-02 0. -1.
        2   -1    0    0  501    0  0.00000000000E+00  0.00000000000E+00 -0.20431832303E+04  0.20431832303E+04  0.25500000920E-02 0.  1.
    10030    2    1    2    0    0  0.00000000000E+00  0.00000000000E+00 -0.15000498812E+04  0.25863165793E+04  0.21068658720E+04 0.  0.
        4    1    3    3  502    0  0.49120827764E+03 -0.78780660928E+03 -0.13895539851E+03  0.93874120040E+03  0.12699999809E+01 0.  1.
       -4    1    3    3    0  502 -0.49120827764E+03  0.78780660928E+03 -0.13610944827E+04  0.16475753789E+04  0.12699999809E+01 0. -1.
</event>
<event>
 5   0  0.1453430E-05  0.2098803E+04  0.7818609E-02  0.8561771E-01
       -1   -1    0    0    0  501  0.00000000000E+00  0.00000000000E+00  0.58358528196E+03  0.58358528198E+03  0.50400001928E-02 0.  1.
        1   -1    0    0  501    0  0.00000000000E+00  0.00000000000E+00 -0.18870307990E+04  0.18870307990E+04  0.50400001928E-02 0. -1.
    10030    2    1    2    0    0  0.00000000000E+00  0.00000000000E+00 -0.13034455171E+04  0.24706160810E+04  0.20988028978E+04 0.  0.
        5    1    3    3  502    0 -0.66614190607E+03  0.34796417222E+03  0.21041539009E+03  0.78046193408E+03  0.46999998093E+01 0.  1.
       -5    1    3    3    0  502  0.66614190607E+03 -0.34796417222E+03 -0.15138609072E+04  0.16901541469E+04  0.46999998093E+01 0. -1.
</event>
<event>
 5   0  0.3279789E-05  0.2114930E+04  0.7818609E-02  0.8554695E-01
        2   -1    0    0  501    0  0.00000000000E+00  0.00000000000E+00  0.10075422739E+04  0.10075422739E+04  0.25500000920E-02 0. -1.
       -2   -1    0    0    0  501  0.00000000000E+00  0.00000000000E+00 -0.11098614447E+04  0.11098614447E+04  0.25500000920E-02 0.  1.
    10030    2    1    2    0    0  0.00000000000E+00  0.00000000000E+00 -0.10231917080E+03  0.21174037186E+04  0.21149300921E+04 0.  0.
        2    1    3    3  502    0  0.51942511970E+03  0.81929533442E+03  0.37026625382E+03  0.10383373241E+04  0.25500000920E-02 0.  1.
       -2    1    3    3    0  502 -0.51942511970E+03 -0.81929533442E+03 -0.47258542462E+03  0.10790663944E+04  0.25500000920E-02 0. -1.
</event>
<event>
 5   0  0.1453430E-05  0.2105897E+04  0.7818609E-02  0.8558650E-01
        1   -1    0    0  501    0  0.00000000000E+00  0.00000000000E+00  0.15264177162E+04  0.15264177163E+04  0.50400001928E-02 0.  1.
       -1   -1    0    0    0  501  0.00000000000E+00  0.00000000000E+00 -0.72634181707E+03  0.72634181708E+03  0.50400001928E-02 0. -1.
    10030    2    1    2    0    0  0.00000000000E+00  0.00000000000E+00  0.80007589918E+03  0.22527595333E+04  0.21058974502E+04 0.  0.
        5    1    3    3  502    0 -0.38004582926E+03 -0.76587002328E+03 -0.25738332252E+03  0.89289416484E+03  0.46999998093E+01 0. -1.
       -5    1    3    3    0  502  0.38004582926E+03  0.76587002328E+03  0.10574592217E+04  0.13598653685E+04  0.46999998093E+01 0.  1.
</event>
<event>
 5   0  0.3130517E-05  0.2080870E+04  0.7818609E-02  0.8569717E-01
       -2   -1    0    0    0  501  0.00000000000E+00  0.00000000000E+00  0.10748550729E+04  0.10748550729E+04  0.25500000920E-02 0.  1.
        2   -1    0    0  501    0  0.00000000000E+00  0.00000000000E+00 -0.10071170937E+04  0.10071170938E+04  0.25500000920E-02 0. -1.
    10030    2    1    2    0    0  0.00000000000E+00  0.00000000000E+00  0.67737979143E+02  0.20819721666E+04  0.20808699308E+04 0.  0.
        1    1    3    3  502    0 -0.24311611460E+03  0.82031380758E+03 -0.55846210926E+03  0.10217143023E+04  0.50400001928E-02 0. -1.
       -1    1    3    3    0  502  0.24311611460E+03 -0.82031380758E+03  0.62620008840E+03  0.10602578643E+04  0.50400001928E-02 0.  1.
</event>
<event>
 5   0  0.3242231E-05  0.2075607E+04  0.7818609E-02  0.8572066E-01
       -2   -1    0    0    0  501  0.00000000000E+00  0.00000000000E+00  0.53708227248E+03  0.53708227249E+03  0.25500000920E-02 0. -1.
        2   -1    0    0  501    0  0.00000000000E+00  0.00000000000E+00 -0.20053460191E+04  0.20053460191E+04  0.25500000920E-02 0.  1.
    10030    2    1    2    0    0  0.00000000000E+00  0.00000000000E+00 -0.14682637466E+04  0.25424282916E+04  0.20756067036E+04 0.  0.
        4    1    3    3  502    0 -0.22957560590E+03 -0.93958921315E+03 -0.27336216743E+03  0.10051175731E+04  0.12699999809E+01 0. -1.
       -4    1    3    3    0  502  0.22957560590E+03  0.93958921315E+03 -0.11949015792E+04  0.15373107185E+04  0.12699999809E+01 0.  1.
</event>
<event>
 5   0  0.1453430E-05  0.2107870E+04  0.7818609E-02  0.8557784E-01
        1   -1    0    0  501    0  0.00000000000E+00  0.00000000000E+00  0.13062993990E+04  0.13062993990E+04  0.50400001928E-02 0.  1.
       -1   -1    0    0    0  501  0.00000000000E+00  0.00000000000E+00 -0.85032535484E+03  0.85032535486E+03  0.50400001928E-02 0. -1.
    10030    2    1    2    0    0  0.00000000000E+00  0.00000000000E+00  0.45597404415E+03  0.21566247539E+04  0.21078704894E+04 0.  0.
        5    1    3    3  502    0 -0.31000192438E+03 -0.63757633272E+03 -0.56989183911E+03  0.90961726646E+03  0.46999998093E+01 0. -1.
       -5    1    3    3    0  502  0.31000192438E+03  0.63757633272E+03  0.10258658833E+04  0.12470074874E+04  0.46999998093E+01 0.  1.
</event>
<event>
 5   0  0.3242231E-05  0.2102984E+04  0.7818609E-02  0.8559930E-01
       -2   -1    0    0    0  501  0.00000000000E+00  0.00000000000E+00  0.42327869779E+03  0.42327869780E+03  0.25500000920E-02 0.  1.
        2   -1    0    0  501    0  0.00000000000E+00  0.00000000000E+00 -0.26120750854E+04  0.26120750854E+04  0.25500000920E-02 0. -1.
    10030    2    1    2    0    0  0.00000000000E+00  0.00000000000E+00 -0.21887963876E+04  0.30353537832E+04  0.21029842992E+04 0.  0.
        4    1    3    3  502    0  0.36037617271E+03  0.64437977014E+03 -0.21750250587E+04  0.22969179116E+04  0.12699999809E+01 0. -1.
       -4    1    3    3    0  502 -0.36037617271E+03 -0.64437977014E+03 -0.13771328942E+02  0.73843587157E+03  0.12699999809E+01 0.  1.
</event>
<event>
 5   0  0.3108326E-05  0.2102429E+04  0.7818609E-02  0.8560174E-01
       -2   -1    0    0    0  501  0.00000000000E+00  0.00000000000E+00  0.86579336897E+03  0.86579336898E+03  0.25500000920E-02 0.  1.
        2   -1    0    0  501    0  0.00000000000E+00  0.00000000000E+00 -0.12763458602E+04  0.12763458602E+04  0.25500000920E-02 0. -1.
    10030    2    1    2    0    0  0.00000000000E+00  0.00000000000E+00 -0.41055249126E+03  0.21421392292E+04  0.21024288643E+04 0.  0.
        5    1    3    3  502    0 -0.97816663335E+03  0.32005293800E+03 -0.42329407360E+03  0.11128539026E+04  0.46999998093E+01 0.  1.
       -5    1    3    3    0  502  0.97816663335E+03 -0.32005293800E+03  0.12741582336E+02  0.10292853266E+04  0.46999998093E+01 0. -1.
</event>
<event>
 5   0  0.3130517E-05  0.2105583E+04  0.7818609E-02  0.8558788E-01
        2   -1    0    0  501    0  0.00000000000E+00  0.00000000000E+00  0.15153876688E+04  0.15153876688E+04  0.25500000920E-02 0.  1.
       -2   -1    0    0    0  501  0.00000000000E+00  0.00000000000E+00 -0.73141004754E+03  0.73141004755E+03  0.25500000920E-02 0. -1.
    10030    2    1    2    0    0  0.00000000000E+00  0.00000000000E+00  0.78397762130E+03  0.22467977164E+04  0.21055828333E+04 0.  0.
        1    1    3    3  502    0 -0.13371409465E+03  0.34644555250E+03 -0.65920248789E+03  0.75660551149E+03  0.50400001928E-02 0. -1.
       -1    1    3    3    0  502  0.13371409465E+03 -0.34644555250E+03  0.14431801092E+04  0.14901922049E+04  0.50400001928E-02 0.  1.
</event>
<event>
 5   0  0.1492552E-05  0.2102737E+04  0.7818609E-02  0.8560039E-01
        1   -1    0    0  501    0  0.00000000000E+00  0.00000000000E+00  0.12909960830E+04  0.12909960830E+04  0.50400001928E-02 0.  1.
       -1   -1    0    0    0  501  0.00000000000E+00  0.00000000000E+00 -0.85621910688E+03  0.85621910689E+03  0.50400001928E-02 0. -1.
    10030    2    1    2    0    0  0.00000000000E+00  0.00000000000E+00  0.43477697613E+03  0.21472151899E+04  0.21027368006E+04 0.  0.
        4    1    3    3  502    0 -0.85516400623E+03  0.38381021371E+03  0.70365246850E+03  0.11720683287E+04  0.12699999809E+01 0.  1.
       -4    1    3    3    0  502  0.85516400623E+03 -0.38381021371E+03 -0.26887549238E+03  0.97514686125E+03  0.12699999809E+01 0. -1.
</event>
<event>
 5   0  0.3130517E-05  0.2103888E+04  0.7818609E-02  0.8559533E-01
       -2   -1    0    0    0  501  0.00000000000E+00  0.00000000000E+00  0.77775021232E+03  0.77775021233E+03  0.25500000920E-02 0. -1.
        2   -1    0    0  501    0  0.00000000000E+00  0.00000000000E+00 -0.14228041950E+04  0.14228041950E+04  0.25500000920E-02 0.  1.
    10030    2    1    2    0    0  0.00000000000E+00  0.00000000000E+00 -0.64505398272E+03  0.22005544074E+04  0.21038880814E+04 0.  0.
        1    1    3    3  502    0 -0.91999427338E+03  0.20735432095E+03  0.16493456961E+03  0.95738638478E+03  0.50400001928E-02 0. -1.
       -1    1    3    3    0  502  0.91999427338E+03 -0.20735432095E+03 -0.80998855233E+03  0.12431680226E+04  0.50400001928E-02 0.  1.
</event>
<event>
 5   0  0.1435410E-05  0.2100855E+04  0.7818609E-02  0.8560867E-01
        1   -1    0    0  501    0  0.00000000000E+00  0.00000000000E+00  0.98274619836E+03  0.98274619837E+03  0.50400001928E-02 0.  1.
       -1   -1    0    0    0  501  0.00000000000E+00  0.00000000000E+00 -0.11227701501E+04  0.11227701501E+04  0.50400001928E-02 0. -1.
    10030    2    1    2    0    0  0.00000000000E+00  0.00000000000E+00 -0.14002395170E+03  0.21055163484E+04  0.21008551560E+04 0.  0.
        2    1    3    3  502    0 -0.96222456880E+03  0.14208797206E+03  0.32752030166E+03  0.10263209345E+04  0.25500000920E-02 0.  1.
       -2    1    3    3    0  502  0.96222456880E+03 -0.14208797206E+03 -0.46754425336E+03  0.10791954139E+04  0.25500000920E-02 0. -1.
</event>
<event>
 5   0  0.3257130E-05  0.2107754E+04  0.7818609E-02  0.8557835E-01
        2   -1    0    0  501    0  0.00000000000E+00  0.00000000000E+00  0.10741714856E+04  0.10741714856E+04  0.25500000920E-02 0.  1.
       -2   -1    0    0    0  501  0.00000000000E+00  0.00000000000E+00 -0.10339660645E+04  0.10339660645E+04  0.25500000920E-02 0. -1.
    10030    2    1    2    0    0  0.00000000000E+00  0.00000000000E+00  0.40205421012E+02  0.21081375501E+04  0.21077541257E+04 0.  0.
        3    1    3    3  502    0 -0.19561845263E+02  0.40019433531E+03  0.99502034178E+03  0.10726619517E+04  0.10100000352E+00 0.  1.
       -3    1    3    3    0  502  0.19561845263E+02 -0.40019433531E+03 -0.95481492077E+03  0.10354755984E+04  0.10100000352E+00 0. -1.
</event>
<event>
 5   0  0.1492552E-05  0.2096876E+04  0.7818609E-02  0.8562621E-01
       -1   -1    0    0    0  501  0.00000000000E+00  0.00000000000E+00  0.50979031695E+03  0.50979031698E+03  0.50400001928E-02 0. -1.
        1   -1    0    0  501    0  0.00000000000E+00  0.00000000000E+00 -0.21562240497E+04  0.21562240497E+04  0.50400001928E-02 0.  1.
    10030    2    1    2    0    0  0.00000000000E+00  0.00000000000E+00 -0.16464337328E+04  0.26660143667E+04  0.20968759064E+04 0.  0.
        4    1    3    3  502    0  0.37200704468E+03 -0.12249267984E+03 -0.20597209949E+04  0.20966272648E+04  0.12699999809E+01 0.  1.
       -4    1    3    3    0  502 -0.37200704468E+03  0.12249267984E+03  0.41328726209E+03  0.56938710191E+03  0.12699999809E+01 0. -1.
</event>
<event>
 5   0  0.1492552E-05  0.2088897E+04  0.7818609E-02  0.8566150E-01
       -1   -1    0    0    0  501  0.00000000000E+00  0.00000000000E+00  0.46697920672E+03  0.46697920674E+03  0.50400001928E-02 0.  1.
        1   -1    0    0  501    0  0.00000000000E+00  0.00000000000E+00 -0.23360186876E+04  0.23360186876E+04  0.50400001928E-02 0. -1.
    10030    2    1    2    0    0  0.00000000000E+00  0.00000000000E+00 -0.18690394808E+04  0.28029978943E+04  0.20888965064E+04 0.  0.
        4    1    3    3  502    0 -0.90531843693E+03 -0.25773897818E+03 -0.15418331918E+04  0.18064556616E+04  0.12699999809E+01 0. -1.
       -4    1    3    3    0  502  0.90531843693E+03  0.25773897818E+03 -0.32720628909E+03  0.99654223274E+03  0.12699999809E+01 0.  1.
</event>
<event>
 5   0  0.3130517E-05  0.2089915E+04  0.7818609E-02  0.8565699E-01
        2   -1    0    0  501    0  0.00000000000E+00  0.00000000000E+00  0.45861350558E+03  0.45861350559E+03  0.25500000920E-02 0. -1.
       -2   -1    0    0    0  501  0.00000000000E+00  0.00000000000E+00 -0.23809500785E+04  0.23809500785E+04  0.25500000920E-02 0.  1.
    10030    2    1    2    0    0  0.00000000000E+00  0.00000000000E+00 -0.19223365729E+04  0.28395635841E+04  0.20899146989E+04 0.  0.
        1    1    3    3  502    0  0.55961841806E+02 -0.47772943618E+03  0.29926057436E+03  0.56649274781E+03  0.50400001928E-02 0. -1.
       -1    1    3    3    0  502 -0.55961841806E+02  0.47772943618E+03 -0.22215971473E+04  0.22730708363E+04  0.50400001928E-02 0.  1.
</event>
<event>
 5   0  0.3242231E-05  0.2103171E+04  0.7818609E-02  0.8559848E-01
       -2   -1    0    0    0  501  0.00000000000E+00  0.00000000000E+00  0.39711130940E+03  0.39711130941E+03  0.25500000920E-02 0. -1.
        2   -1    0    0  501    0  0.00000000000E+00  0.00000000000E+00 -0.27846908722E+04  0.27846908722E+04  0.25500000920E-02 0.  1.
    10030    2    1    2    0    0  0.00000000000E+00  0.00000000000E+00 -0.23875795628E+04  0.31818021816E+04  0.21031711662E+04 0.  0.
        4    1    3    3  502    0 -0.37951644566E+03 -0.85381540461E+03 -0.46384941047E+03  0.10431641128E+04  0.12699999809E+01 0. -1.
       -4    1    3    3    0  502  0.37951644566E+03  0.85381540461E+03 -0.19237301523E+04  0.21386380688E+04  0.12699999809E+01 0.  1.
</event>
<event>
 5   0  0.1453430E-05  0.2102413E+04  0.7818609E-02  0.8560181E-01
       -1   -1    0    0    0  501  0.00000000000E+00  0.00000000000E+00  0.13854303638E+04  0.13854303638E+04  0.50400001928E-02 0. -1.
        1   -1    0    0  501    0  0.00000000000E+00  0.00000000000E+00 -0.79761166801E+03  0.79761166802E+03  0.50400001928E-02 0.  1.
    10030    2    1    2    0    0  0.00000000000E+00  0.00000000000E+00  0.58781869580E+03  0.21830420318E+04  0.21024133023E+04 0.  0.
        5    1    3    3  502    0  0.73554183601E+02  0.10406480681E+04  0.42791175224E+03  0.11276032889E+04  0.46999998093E+01 0. -1.
       -5    1    3    3    0  502 -0.73554183601E+02 -0.10406480681E+04  0.15990694356E+03  0.10554387429E+04  0.46999998093E+01 0.  1.
</event>
<event>
 5   0  0.3130517E-05  0.2101642E+04  0.7818609E-02  0.8560521E-01
       -2   -1    0    0    0  501  0.00000000000E+00  0.00000000000E+00  0.10893296992E+04  0.10893296993E+04  0.25500000920E-02 0. -1.
        2   -1    0    0  501    0  0.00000000000E+00  0.00000000000E+00 -0.10136734011E+04  0.10136734011E+04  0.25500000920E-02 0.  1.
    10030    2    1    2    0    0  0.00000000000E+00  0.00000000000E+00  0.75656298173E+02  0.21030031003E+04  0.21016417784E+04 0.  0.
        1    1    3    3  502    0  0.95962264827E+03  0.20212883406E+03 -0.33989861131E+03  0.10379126932E+04  0.50400001928E-02 0.  1.
       -1    1    3    3    0  502 -0.95962264827E+03 -0.20212883406E+03  0.41555490948E+03  0.10650904072E+04  0.50400001928E-02 0. -1.
</event>
<event>
 5   0  0.3257130E-05  0.2103140E+04  0.7818609E-02  0.8559861E-01
       -2   -1    0    0    0  501  0.00000000000E+00  0.00000000000E+00  0.63267059668E+03  0.63267059669E+03  0.25500000920E-02 0. -1.
        2   -1    0    0  501    0  0.00000000000E+00  0.00000000000E+00 -0.17478279242E+04  0.17478279242E+04  0.25500000920E-02 0.  1.
    10030    2    1    2    0    0  0.00000000000E+00  0.00000000000E+00 -0.11151573276E+04  0.23804985209E+04  0.21031398772E+04 0.  0.
        3    1    3    3  502    0 -0.12476043118E+03 -0.10178363607E+04 -0.82119530511E+03  0.13137418931E+04  0.10100000352E+00 0. -1.
       -3    1    3    3    0  502  0.12476043118E+03  0.10178363607E+04 -0.29396202244E+03  0.10667566279E+04  0.10100000352E+00 0.  1.
</event>
<event>
 5   0  0.1513292E-05  0.2094223E+04  0.7818609E-02  0.8563792E-01
        1   -1    0    0  501    0  0.00000000000E+00  0.00000000000E+00  0.15614244397E+04  0.15614244397E+04  0.50400001928E-02 0. -1.
       -1   -1    0    0    0  501  0.00000000000E+00  0.00000000000E+00 -0.70220673303E+03  0.70220673305E+03  0.50400001928E-02 0.  1.
    10030    2    1    2    0    0  0.00000000000E+00  0.00000000000E+00  0.85921770670E+03  0.22636311728E+04  0.20942232495E+04 0.  0.
        1    1    3    3  502    0 -0.44250056890E+03 -0.44925450065E+03  0.13331774416E+04  0.14747875951E+04  0.50400001928E-02 0. -1.
       -1    1    3    3    0  502  0.44250056890E+03  0.44925450065E+03 -0.47395973486E+03  0.78884357773E+03  0.50400001928E-02 0.  1.
</event>
<event>
 5   0  0.1513292E-05  0.2108112E+04  0.7818609E-02  0.8557678E-01
       -1   -1    0    0    0  501  0.00000000000E+00  0.00000000000E+00  0.16137069097E+04  0.16137069097E+04  0.50400001928E-02 0. -1.
        1   -1    0    0  501    0  0.00000000000E+00  0.00000000000E+00 -0.68849829134E+03  0.68849829136E+03  0.50400001928E-02 0.  1.
    10030    2    1    2    0    0  0.00000000000E+00  0.00000000000E+00  0.92520861840E+03  0.23022052011E+04  0.21081123785E+04 0.  0.
        1    1    3    3  502    0  0.77414133518E+03 -0.61084891727E+02  0.12409735538E+04  0.14639130890E+04  0.50400001928E-02 0. -1.
       -1    1    3    3    0  502 -0.77414133518E+03  0.61084891727E+02 -0.31576493538E+03  0.83829211214E+03  0.50400001928E-02 0.  1.
</event>
<event>
 5   0  0.1466480E-05  0.2101060E+04  0.7818609E-02  0.8560777E-01
       -1   -1    0    0    0  501  0.00000000000E+00  0.00000000000E+00  0.18360538203E+04  0.18360538203E+04  0.50400001928E-02 0.  1.
        1   -1    0    0  501    0  0.00000000000E+00  0.00000000000E+00 -0.60107866121E+03  0.60107866123E+03  0.50400001928E-02 0. -1.
    10030    2    1    2    0    0  0.00000000000E+00  0.00000000000E+00  0.12349751591E+04  0.24371324816E+04  0.21010595158E+04 0.  0.
        3    1    3    3  502    0 -0.53587310441E+03 -0.64649911328E+03  0.13497224541E+04  0.15896137270E+04  0.10100000352E+00 0.  1.
       -3    1    3    3    0  502  0.53587310441E+03  0.64649911328E+03 -0.11474729503E+03  0.84751875461E+03  0.10100000352E+00 0. -1.
</event>
<event>
 5   0  0.1453430E-05  0.2107791E+04  0.7818609E-02  0.8557819E-01
        1   -1    0    0  501    0  0.00000000000E+00  0.00000000000E+00  0.13991680239E+04  0.13991680239E+04  0.50400001928E-02 0. -1.
       -1   -1    0    0    0  501  0.00000000000E+00  0.00000000000E+00 -0.79382575711E+03  0.79382575712E+03  0.50400001928E-02 0.  1.
    10030    2    1    2    0    0  0.00000000000E+00  0.00000000000E+00  0.60534226681E+03  0.21929937810E+04  0.21077908966E+04 0.  0.
        5    1    3    3  502    0 -0.10149700884E+04 -0.94421865800E+02  0.58105717244E+03  0.11733410829E+04  0.46999998093E+01 0. -1.
       -5    1    3    3    0  502  0.10149700884E+04  0.94421865800E+02  0.24285094368E+02  0.10196526982E+04  0.46999998093E+01 0.  1.
</event>
<event>
 5   0  0.1466480E-05  0.2082658E+04  0.7818609E-02  0.8568921E-01
       -1   -1    0    0    0  501  0.00000000000E+00  0.00000000000E+00  0.52233476946E+03  0.52233476948E+03  0.50400001928E-02 0. -1.
        1   -1    0    0  501    0  0.00000000000E+00  0.00000000000E+00 -0.20759989256E+04  0.20759989256E+04  0.50400001928E-02 0.  1.
    10030    2    1    2    0    0  0.00000000000E+00  0.00000000000E+00 -0.15536641561E+04  0.25983336951E+04  0.20826583207E+04 0.  0.
        3    1    3    3  502    0 -0.93037873734E+03  0.39570633830E+03 -0.46573469864E+03  0.11131473042E+04  0.10100000352E+00 0. -1.
       -3    1    3    3    0  502  0.93037873734E+03 -0.39570633830E+03 -0.10879294575E+04  0.14851863909E+04  0.10100000352E+00 0.  1.
</event>
<event>
 5   0  0.3242231E-05  0.2116779E+04  0.7818609E-02  0.8553888E-01
        2   -1    0    0  501    0  0.00000000000E+00  0.00000000000E+00  0.15788009630E+04  0.15788009630E+04  0.25500000920E-02 0.  1.
       -2   -1    0    0    0  501  0.00000000000E+00  0.00000000000E+00 -0.70951839134E+03  0.70951839135E+03  0.25500000920E-02 0. -1.
    10030    2    1    2    0    0  0.00000000000E+00  0.00000000000E+00  0.86928257165E+03  0.22883193543E+04  0.21167789866E+04 0.  0.
        4    1    3    3  502    0  0.63477921551E+03  0.72203510894E+03  0.91312426065E+03  0.13259249146E+04  0.12699999809E+01 0.  1.
       -4    1    3    3    0  502 -0.63477921551E+03 -0.72203510894E+03 -0.43841688998E+02  0.96239443970E+03  0.12699999809E+01 0. -1.
</event>
<event>
 5   0  0.3130517E-05  0.2099417E+04  0.7818609E-02  0.8561500E-01
       -2   -1    0    0    0  501  0.00000000000E+00  0.00000000000E+00  0.92997543448E+03  0.92997543449E+03  0.25500000920E-02 0. -1.
        2   -1    0    0  501    0  0.00000000000E+00  0.00000000000E+00 -0.11848568974E+04  0.11848568974E+04  0.25500000920E-02 0.  1.
    10030    2    1    2    0    0  0.00000000000E+00  0.00000000000E+00 -0.25488146291E+03  0.21148323319E+04  0.20994168790E+04 0.  0.
        1    1    3    3  502    0 -0.62488184176E+03  0.46392092101E+03  0.58213757360E+03  0.97189716109E+03  0.50400001928E-02 0. -1.
       -1    1    3    3    0  502  0.62488184176E+03 -0.46392092101E+03 -0.83701903651E+03  0.11429351708E+04  0.50400001928E-02 0.  1.
</event>
<event>
 5   0  0.1435410E-05  0.2098300E+04  0.7818609E-02  0.8561992E-01
       -1   -1    0    0    0  501  0.00000000000E+00  0.00000000000E+00  0.77025396193E+03  0.77025396195E+03  0.50400001928E-02 0. -1.
        1   -1    0    0  501    0  0.00000000000E+00  0.00000000000E+00 -0.14290301413E+04  0.14290301413E+04  0.50400001928E-02 0.  1.
    10030    2    1    2    0    0  0.00000000000E+00  0.00000000000E+00 -0.65877617932E+03  0.21992841032E+04  0.20983003866E+04 0.  0.
        2    1    3    3  502    0 -0.38853205773E+02 -0.16654389433E+03  0.75554665873E+03  0.77465940507E+03  0.25500000920E-02 0. -1.
       -2    1    3    3    0  502  0.38853205773E+02  0.16654389433E+03 -0.14143228381E+04  0.14246246981E+04  0.25500000920E-02 0.  1.
</event>
<event>
 5   0  0.3108326E-05  0.2106705E+04  0.7818609E-02  0.8558296E-01
       -2   -1    0    0    0  501  0.00000000000E+00  0.00000000000E+00  0.96475862398E+03  0.96475862399E+03  0.25500000920E-02 0.  1.
        2   -1    0    0  501    0  0.00000000000E+00  0.00000000000E+00 -0.11500817638E+04  0.11500817638E+04  0.25500000920E-02 0. -1.
    10030    2    1    2    0    0  0.00000000000E+00  0.00000000000E+00 -0.18532313986E+03  0.21148403878E+04  0.21067048203E+04 0.  0.
        5    1    3    3  502    0  0.55353634621E+03  0.88216975318E+03  0.65755479673E+02  0.10435381321E+04  0.46999998093E+01 0. -1.
       -5    1    3    3    0  502 -0.55353634621E+03 -0.88216975318E+03 -0.25107861953E+03  0.10713022558E+04  0.46999998093E+01 0.  1.
</event>
<event>
 5   0  0.1435410E-05  0.2094372E+04  0.7818609E-02  0.8563727E-01
        1   -1    0    0  501    0  0.00000000000E+00  0.00000000000E+00  0.18202483576E+04  0.18202483576E+04  0.50400001928E-02 0. -1.
       -1   -1    0    0    0  501  0.00000000000E+00  0.00000000000E+00 -0.60244438171E+03  0.60244438173E+03  0.50400001928E-02 0.  1.
    10030    2    1    2    0    0  0.00000000000E+00  0.00000000000E+00  0.12178039759E+04  0.24226927393E+04  0.20943718833E+04 0.  0.
        2    1    3    3  502    0  0.79739522193E+03 -0.16422286086E+03  0.13707781076E+04  0.15943151847E+04  0.25500000920E-02 0. -1.
       -2    1    3    3    0  502 -0.79739522193E+03  0.16422286086E+03 -0.15297413172E+03  0.82837755460E+03  0.25500000920E-02 0.  1.
</event>
<event>
 5   0  0.3279789E-05  0.2106525E+04  0.7818609E-02  0.8558374E-01
        2   -1    0    0  501    0  0.00000000000E+00  0.00000000000E+00  0.13258228260E+04  0.13258228260E+04  0.25500000920E-02 0.  1.
       -2   -1    0    0    0  501  0.00000000000E+00  0.00000000000E+00 -0.83673467728E+03  0.83673467728E+03  0.25500000920E-02 0. -1.
    10030    2    1    2    0    0  0.00000000000E+00  0.00000000000E+00  0.48908814870E+03  0.21625575033E+04  0.21065250385E+04 0.  0.
        2    1    3    3  502    0 -0.74176295749E+02  0.95066933665E+03 -0.21466573038E+03  0.97742298229E+03  0.25500000920E-02 0. -1.
       -2    1    3    3    0  502  0.74176295749E+02 -0.95066933665E+03  0.70375387907E+03  0.11851345210E+04  0.25500000920E-02 0.  1.
</event>
<event>
 5   0  0.3257130E-05  0.2098636E+04  0.7818609E-02  0.8561844E-01
       -2   -1    0    0    0  501  0.00000000000E+00  0.00000000000E+00  0.69817248133E+03  0.69817248134E+03  0.25500000920E-02 0.  1.
        2   -1    0    0  501    0  0.00000000000E+00  0.00000000000E+00 -0.15770719104E+04  0.15770719104E+04  0.25500000920E-02 0. -1.
    10030    2    1    2    0    0  0.00000000000E+00  0.00000000000E+00 -0.87889942904E+03  0.22752443917E+04  0.20986359464E+04 0.  0.
        3    1    3    3  502    0  0.23662983469E+03 -0.40359510585E+03 -0.14577383699E+04  0.15309748050E+04  0.10100000352E+00 0. -1.
       -3    1    3    3    0  502 -0.23662983469E+03  0.40359510585E+03  0.57883894086E+03  0.74426958676E+03  0.10100000352E+00 0.  1.
</event>
<event>
 5   0  0.3130517E-05  0.2103173E+04  0.7818609E-02  0.8559847E-01
       -2   -1    0    0    0  501  0.00000000000E+00  0.00000000000E+00  0.88285133180E+03  0.88285133181E+03  0.25500000920E-02 0.  1.
        2   -1    0    0  501    0  0.00000000000E+00  0.00000000000E+00 -0.12525713918E+04  0.12525713918E+04  0.25500000920E-02 0. -1.
    10030    2    1    2    0    0  0.00000000000E+00  0.00000000000E+00 -0.36972005999E+03  0.21354227236E+04  0.21031731469E+04 0.  0.
        1    1    3    3  502    0  0.89406344930E+03 -0.10724963237E+03 -0.73631096079E+03  0.11631877604E+04  0.50400001928E-02 0. -1.
       -1    1    3    3    0  502 -0.89406344930E+03  0.10724963237E+03  0.36659090080E+03  0.97223496316E+03  0.50400001928E-02 0.  1.
</event>
<event>
 5   0  0.3242231E-05  0.2096737E+04  0.7818609E-02  0.8562682E-01
       -2   -1    0    0    0  501  0.00000000000E+00  0.00000000000E+00  0.80502304245E+03  0.80502304245E+03  0.25500000920E-02 0.  1.
        2   -1    0    0  501    0  0.00000000000E+00  0.00000000000E+00 -0.13652739528E+04  0.13652739529E+04  0.25500000920E-02 0. -1.
    10030    2    1    2    0    0  0.00000000000E+00  0.00000000000E+00 -0.56025091040E+03  0.21702969953E+04  0.20967374574E+04 0.  0.
        4    1    3    3  502    0  0.46758669790E+03 -0.62552592309E+02 -0.12492003137E+04  0.13353101451E+04  0.12699999809E+01 0. -1.
       -4    1    3    3    0  502 -0.46758669790E+03  0.62552592309E+02  0.68894940331E+03  0.83498685024E+03  0.12699999809E+01 0.  1.
</event>
<event>
 5   0  0.1453430E-05  0.2089954E+04  0.7818609E-02  0.8565681E-01
       -1   -1    0    0    0  501  0.00000000000E+00  0.00000000000E+00  0.73893516995E+03  0.73893516997E+03  0.50400001928E-02 0.  1.
        1   -1    0    0  501    0  0.00000000000E+00  0.00000000000E+00 -0.14777716237E+04  0.14777716237E+04  0.50400001928E-02 0. -1.
    10030    2    1    2    0    0  0.00000000000E+00  0.00000000000E+00 -0.73883645375E+03  0.22167067937E+04  0.20899544741E+04 0.  0.
        5    1    3    3  502    0  0.80454300479E+02  0.80130499927E+03 -0.10756800239E+04  0.13437530280E+04  0.46999998093E+01 0. -1.
       -5    1    3    3    0  502 -0.80454300479E+02 -0.80130499927E+03  0.33684357017E+03  0.87295376572E+03  0.46999998093E+01 0.  1.
</event>
<event>
 5   0  0.1492552E-05  0.2109516E+04  0.7818609E-02  0.8557063E-01
       -1   -1    0    0    0  501  0.00000000000E+00  0.00000000000E+00  0.10345496492E+04  0.10345496492E+04  0.50400001928E-02 0. -1.
        1   -1    0    0  501    0  0.00000000000E+00  0.00000000000E+00 -0.10753606223E+04  0.10753606223E+04  0.50400001928E-02 0.  1.
    10030    2    1    2    0    0  0.00000000000E+00  0.00000000000E+00 -0.40810973167E+02  0.21099102715E+04  0.21095155411E+04 0.  0.
        4    1    3    3  502    0 -0.17027409726E+03  0.57935708260E+03  0.84454789353E+03  0.10382247612E+04  0.12699999809E+01 0. -1.
       -4    1    3    3    0  502  0.17027409726E+03 -0.57935708260E+03 -0.88535886669E+03  0.10716855103E+04  0.12699999809E+01 0.  1.
</event>
<event>
 5   0  0.1453430E-05  0.2092547E+04  0.7818609E-02  0.8564534E-01
        1   -1    0    0  501    0  0.00000000000E+00  0.00000000000E+00  0.21185672781E+04  0.21185672781E+04  0.50400001928E-02 0.  1.
       -1   -1    0    0    0  501  0.00000000000E+00  0.00000000000E+00 -0.51671163700E+03  0.51671163703E+03  0.50400001928E-02 0. -1.
    10030    2    1    2    0    0  0.00000000000E+00  0.00000000000E+00  0.16018556411E+04  0.26352789151E+04  0.20925471239E+04 0.  0.
        5    1    3    3  502    0  0.90319127769E+03  0.48222071228E+03  0.10721300114E+04  0.14824898485E+04  0.46999998093E+01 0.  1.
       -5    1    3    3    0  502 -0.90319127769E+03 -0.48222071228E+03  0.52972562965E+03  0.11527890666E+04  0.46999998093E+01 0. -1.
</event>
<event>
 5   0  0.3257130E-05  0.2096450E+04  0.7818609E-02  0.8562809E-01
       -2   -1    0    0    0  501  0.00000000000E+00  0.00000000000E+00  0.13146476787E+04  0.13146476787E+04  0.25500000920E-02 0. -1.
        2   -1    0    0  501    0  0.00000000000E+00  0.00000000000E+00 -0.83579469507E+03  0.83579469507E+03  0.25500000920E-02 0.  1.
    10030    2    1    2    0    0  0.00000000000E+00  0.00000000000E+00  0.47885298361E+03  0.21504423738E+04  0.20964499095E+04 0.  0.
        3    1    3    3  502    0  0.45440663268E+03  0.14347743103E+03 -0.71827008270E+03  0.86196466455E+03  0.10100000352E+00 0.  1.
       -3    1    3    3    0  502 -0.45440663268E+03 -0.14347743103E+03  0.11971230663E+04  0.12884777092E+04  0.10100000352E+00 0. -1.
</event>
<event>
 5   0  0.3279789E-05  0.2108497E+04  0.7818609E-02  0.8557509E-01
        2   -1    0    0  501    0  0.00000000000E+00  0.00000000000E+00  0.10781364794E+04  0.10781364794E+04  0.25500000920E-02 0. -1.
       -2   -1    0    0    0  501  0.00000000000E+00  0.00000000000E+00 -0.10308901123E+04  0.10308901123E+04  0.25500000920E-02 0.  1.
    10030    2    1    2    0    0  0.00000000000E+00  0.00000000000E+00  0.47246367124E+02  0.21090265917E+04  0.21084973193E+04 0.  0.
        2    1    3    3  502    0  0.23503637931E+03 -0.66695630341E+03  0.80571933750E+03  0.10720337966E+04  0.25500000920E-02 0. -1.
       -2    1    3    3    0  502 -0.23503637931E+03  0.66695630341E+03 -0.75847297038E+03  0.10369927951E+04  0.25500000920E-02 0.  1.
</event>
<event>
 5   0  0.3108326E-05  0.2114571E+04  0.7818609E-02  0.8554852E-01
       -2   -1    0    0    0  501  0.00000000000E+00  0.00000000000E+00  0.52113388652E+03  0.52113388652E+03  0.25500000920E-02 0. -1.
        2   -1    0    0  501    0  0.00000000000E+00  0.00000000000E+00 -0.21450392426E+04  0.21450392426E+04  0.25500000920E-02 0.  1.
    10030    2    1    2    0    0  0.00000000000E+00  0.00000000000E+00 -0.16239053561E+04  0.26661731291E+04  0.21145710083E+04 0.  0.
        5    1    3    3  502    0 -0.68972216264E+03  0.72724233875E+03 -0.38767365807E+03  0.10746678724E+04  0.46999998093E+01 0. -1.
       -5    1    3    3    0  502  0.68972216264E+03 -0.72724233875E+03 -0.12362316980E+04  0.15915052567E+04  0.46999998093E+01 0.  1.
</event>
<event>
 5   0  0.1492552E-05  0.2105893E+04  0.7818609E-02  0.8558652E-01
        1   -1    0    0  501    0  0.00000000000E+00  0.00000000000E+00  0.80776634995E+03  0.80776634997E+03  0.50400001928E-02 0.  1.
       -1   -1    0    0    0  501  0.00000000000E+00  0.00000000000E+00 -0.13725462322E+04  0.13725462322E+04  0.50400001928E-02 0. -1.
    10030    2    1    2    0    0  0.00000000000E+00  0.00000000000E+00 -0.56477988226E+03  0.21803125822E+04  0.21058933118E+04 0.  0.
        4    1    3    3  502    0 -0.74218638710E+03 -0.31796909271E+03 -0.98210578373E+03  0.12714080228E+04  0.12699999809E+01 0. -1.
       -4    1    3    3    0  502  0.74218638710E+03  0.31796909271E+03  0.41732590148E+03  0.90890455938E+03  0.12699999809E+01 0.  1.
</event>
<event>
 5   0  0.1513292E-05  0.2090586E+04  0.7818609E-02  0.8565402E-01
       -1   -1    0    0    0  501  0.00000000000E+00  0.00000000000E+00  0.16938135662E+04  0.16938135662E+04  0.50400001928E-02 0.  1.
        1   -1    0    0  501    0  0.00000000000E+00  0.00000000000E+00 -0.64507552413E+03  0.64507552415E+03  0.50400001928E-02 0. -1.
    10030    2    1    2    0    0  0.00000000000E+00  0.00000000000E+00  0.10487380421E+04  0.23388890904E+04  0.20905862087E+04 0.  0.
        1    1    3    3  502    0  0.79516993630E+03 -0.67841815960E+03  0.51368213572E+03  0.11646526364E+04  0.50400001928E-02 0. -1.
       -1    1    3    3    0  502 -0.79516993630E+03  0.67841815960E+03  0.53505590636E+03  0.11742364540E+04  0.50400001928E-02 0.  1.
</event>
<event>
 5   0  0.3279789E-05  0.2103315E+04  0.7818609E-02  0.8559784E-01
       -2   -1    0    0    0  501  0.00000000000E+00  0.00000000000E+00  0.46095946832E+03  0.46095946832E+03  0.25500000920E-02 0. -1.
        2   -1    0    0  501    0  0.00000000000E+00  0.00000000000E+00 -0.23993075353E+04  0.23993075353E+04  0.25500000920E-02 0.  1.
    10030    2    1    2    0    0  0.00000000000E+00  0.00000000000E+00 -0.19383480670E+04  0.28602670036E+04  0.21033150271E+04 0.  0.
        2    1    3    3  502    0 -0.29573684966E+03 -0.62480291750E+02 -0.23389635690E+04  0.23584135872E+04  0.25500000920E-02 0.  1.
       -2    1    3    3    0  502  0.29573684966E+03  0.62480291750E+02  0.40061550203E+03  0.50185341643E+03  0.25500000920E-02 0. -1.
</event>
<event>
 5   0  0.1129987E-05  0.2056077E+04  0.7818609E-02  0.8580842E-01
        3   -1    0    0  501    0  0.00000000000E+00  0.00000000000E+00  0.62625589360E+03  0.62625590175E+03  0.10100000352E+00 0. -1.
       -3   -1    0    0    0  501  0.00000000000E+00  0.00000000000E+00 -0.16875903259E+04  0.16875903290E+04  0.10100000352E+00 0.  1.
    10030    2    1    2    0    0  0.00000000000E+00  0.00000000000E+00 -0.10613344323E+04  0.23138462307E+04  0.20560772364E+04 0.  0.
        3    1    3    3  502    0  0.12214502744E+03  0.98815107521E+03 -0.81868577767E+03  0.12890338894E+04  0.10100000352E+00 0.  1.
       -3    1    3    3    0  502 -0.12214502744E+03 -0.98815107521E+03 -0.24264865467E+03  0.10248123413E+04  0.10100000352E+00 0. -1.
</event>
<event>
 5   0  0.1492552E-05  0.2108025E+04  0.7818609E-02  0.8557716E-01
        1   -1    0    0  501    0  0.00000000000E+00  0.00000000000E+00  0.72659632910E+03  0.72659632912E+03  0.50400001928E-02 0.  1.
       -1   -1    0    0    0  501  0.00000000000E+00  0.00000000000E+00 -0.15289680053E+04  0.15289680053E+04  0.50400001928E-02 0. -1.
    10030    2    1    2    0    0  0.00000000000E+00  0.00000000000E+00 -0.80237167623E+03  0.22555643345E+04  0.21080251801E+04 0.  0.
        4    1    3    3  502    0  0.22424856193E+03  0.33441735391E+03  0.64106200835E+03  0.75702344453E+03  0.12699999809E+01 0.  1.
       -4    1    3    3    0  502 -0.22424856193E+03 -0.33441735391E+03 -0.14434336846E+04  0.14985408899E+04  0.12699999809E+01 0. -1.
</event>
<event>
 5   0  0.3242231E-05  0.2093132E+04  0.7818609E-02  0.8564275E-01
       -2   -1    0    0    0  501  0.00000000000E+00  0.00000000000E+00  0.45428659614E+03  0.45428659615E+03  0.25500000920E-02 0. -1.
        2   -1    0    0  501    0  0.00000000000E+00  0.00000000000E+00 -0.24110331665E+04  0.24110331665E+04  0.25500000920E-02 0.  1.
    10030    2    1    2    0    0  0.00000000000E+00  0.00000000000E+00 -0.19567465703E+04  0.28653197626E+04  0.20931316733E+04 0.  0.
        4    1    3    3  502    0 -0.24293534642E+03 -0.80924576218E+03 -0.13296185574E+03  0.85532260237E+03  0.12699999809E+01 0. -1.
       -4    1    3    3    0  502  0.24293534642E+03  0.80924576218E+03 -0.18237847146E+04  0.20099971603E+04  0.12699999809E+01 0.  1.
</event>
<event>
 5   0  0.1453430E-05  0.2100543E+04  0.7818609E-02  0.8561004E-01
       -1   -1    0    0    0  501  0.00000000000E+00  0.00000000000E+00  0.74253293606E+03  0.74253293608E+03  0.50400001928E-02 0.  1.
        1   -1    0    0  501    0  0.00000000000E+00  0.00000000000E+00 -0.14855499866E+04  0.14855499867E+04  0.50400001928E-02 0. -1.
    10030    2    1    2    0    0  0.00000000000E+00  0.00000000000E+00 -0.74301705058E+03  0.22280829227E+04  0.21005425902E+04 0.  0.
        5    1    3    3  502    0  0.64354069367E+03 -0.47185177809E+03  0.35278309763E+03  0.87250600506E+03  0.46999998093E+01 0.  1.
       -5    1    3    3    0  502 -0.64354069367E+03  0.47185177809E+03 -0.10958001482E+04  0.13555769177E+04  0.46999998093E+01 0. -1.
</event>
<event>
 5   0  0.3108326E-05  0.2106602E+04  0.7818609E-02  0.8558340E-01
       -2   -1    0    0    0  501  0.00000000000E+00  0.00000000000E+00  0.59874081486E+03  0.59874081487E+03  0.25500000920E-02 0. -1.
        2   -1    0    0  501    0  0.00000000000E+00  0.00000000000E+00 -0.18529612132E+04  0.18529612132E+04  0.25500000920E-02 0.  1.
    10030    2    1    2    0    0  0.00000000000E+00  0.00000000000E+00 -0.12542203983E+04  0.24517020280E+04  0.21066024843E+04 0.  0.
        5    1    3    3  502    0  0.45812086716E+03  0.82174724371E+03 -0.75949069132E+02  0.94389279719E+03  0.46999998093E+01 0. -1.
       -5    1    3    3    0  502 -0.45812086716E+03 -0.82174724371E+03 -0.11782713292E+04  0.15078092309E+04  0.46999998093E+01 0.  1.
</event>
<event>
 5   0  0.3130517E-05  0.2090577E+04  0.7818609E-02  0.8565406E-01
        2   -1    0    0  501    0  0.00000000000E+00  0.00000000000E+00  0.19478235352E+04  0.19478235352E+04  0.25500000920E-02 0.  1.
       -2   -1    0    0    0  501  0.00000000000E+00  0.00000000000E+00 -0.56094824920E+03  0.56094824920E+03  0.25500000920E-02 0. -1.
    10030    2    1    2    0    0  0.00000000000E+00  0.00000000000E+00  0.13868752860E+04  0.25087717844E+04  0.20905771469E+04 0.  0.
        1    1    3    3  502    0  0.69149143353E+03 -0.69196012901E+03  0.11354345498E+04  0.14987264059E+04  0.50400001928E-02 0. -1.
       -1    1    3    3    0  502 -0.69149143353E+03  0.69196012901E+03  0.25144073618E+03  0.10100453785E+04  0.50400001928E-02 0.  1.
</event>
<event>
 5   0  0.1466480E-05  0.2106210E+04  0.7818609E-02  0.8558513E-01
        1   -1    0    0  501    0  0.00000000000E+00  0.00000000000E+00  0.88624339572E+03  0.88624339573E+03  0.50400001928E-02 0.  1.
       -1   -1    0    0    0  501  0.00000000000E+00  0.00000000000E+00 -0.12513836575E+04  0.12513836575E+04  0.50400001928E-02 0. -1.
    10030    2    1    2    0    0  0.00000000000E+00  0.00000000000E+00 -0.36514026176E+03  0.21376270532E+04  0.21062103427E+04 0.  0.
        3    1    3    3  502    0  0.73269864277E+03  0.27600656805E+03  0.53221020305E+03  0.94671782341E+03  0.10100000352E+00 0.  1.
       -3    1    3    3    0  502 -0.73269864277E+03 -0.27600656805E+03 -0.89735046481E+03  0.11909092298E+04  0.10100000352E+00 0. -1.
</event>
<event>
 5   0  0.1492552E-05  0.2097588E+04  0.7818609E-02  0.8562307E-01
        1   -1    0    0  501    0  0.00000000000E+00  0.00000000000E+00  0.85247082985E+03  0.85247082986E+03  0.50400001928E-02 0.  1.
       -1   -1    0    0    0  501  0.00000000000E+00  0.00000000000E+00 -0.12903305329E+04  0.12903305330E+04  0.50400001928E-02 0. -1.
    10030    2    1    2    0    0  0.00000000000E+00  0.00000000000E+00 -0.43785970310E+03  0.21428013628E+04  0.20975882725E+04 0.  0.
        4    1    3    3  502    0 -0.84220478254E+03  0.91465259077E+02  0.41269570191E+03  0.94233441231E+03  0.12699999809E+01 0.  1.
       -4    1    3    3    0  502  0.84220478254E+03 -0.91465259077E+02 -0.85055540501E+03  0.12004669505E+04  0.12699999809E+01 0. -1.
</event>
<event>
 5   0  0.1492552E-05  0.2089233E+04  0.7818609E-02  0.8566001E-01
        1   -1    0    0  501    0  0.00000000000E+00  0.00000000000E+00  0.10324934407E+04  0.10324934407E+04  0.50400001928E-02 0. -1.
       -1   -1    0    0    0  501  0.00000000000E+00  0.00000000000E+00 -0.10568816358E+04  0.10568816358E+04  0.50400001928E-02 0.  1.
    10030    2    1    2    0    0  0.00000000000E+00  0.00000000000E+00 -0.24388195144E+02  0.20893750766E+04  0.20892327363E+04 0.  0.
        4    1    3    3  502    0 -0.15896023022E+03 -0.16203317937E+03 -0.10319197041E+04  0.10565902681E+04  0.12699999809E+01 0.  1.
       -4    1    3    3    0  502  0.15896023022E+03  0.16203317937E+03  0.10075315090E+04  0.10327848084E+04  0.12699999809E+01 0. -1.
</event>
<event>
 5   0  0.1492552E-05  0.2102041E+04  0.7818609E-02  0.8560345E-01
       -1   -1    0    0    0  501  0.00000000000E+00  0.00000000000E+00  0.12120953922E+04  0.12120953922E+04  0.50400001928E-02 0.  1.
        1   -1    0    0  501    0  0.00000000000E+00  0.00000000000E+00 -0.91135110723E+03  0.91135110725E+03  0.50400001928E-02 0. -1.
    10030    2    1    2    0    0  0.00000000000E+00  0.00000000000E+00  0.30074428493E+03  0.21234464994E+04  0.21020413676E+04 0.  0.
        4    1    3    3  502    0  0.82896971232E+03  0.91914959817E+02  0.79641851805E+03  0.11532229674E+04  0.12699999809E+01 0.  1.
       -4    1    3    3    0  502 -0.82896971232E+03 -0.91914959817E+02 -0.49567423311E+03  0.97022353201E+03  0.12699999809E+01 0. -1.
</event>
<event>
 5   0  0.1466480E-05  0.2079384E+04  0.7818609E-02  0.8570380E-01
        1   -1    0    0  501    0  0.00000000000E+00  0.00000000000E+00  0.11851354391E+04  0.11851354391E+04  0.50400001928E-02 0.  1.
       -1   -1    0    0    0  501  0.00000000000E+00  0.00000000000E+00 -0.91209757190E+03  0.91209757191E+03  0.50400001928E-02 0. -1.
    10030    2    1    2    0    0  0.00000000000E+00  0.00000000000E+00  0.27303786722E+03  0.20972330110E+04  0.20793837130E+04 0.  0.
        3    1    3    3  502    0 -0.71382331542E+03 -0.66259262190E+03 -0.23045379881E+03  0.10008404827E+04  0.10100000352E+00 0. -1.
       -3    1    3    3    0  502  0.71382331542E+03  0.66259262190E+03  0.50349166603E+03  0.10963925283E+04  0.10100000352E+00 0.  1.
</event>
<event>
 5   0  0.3108326E-05  0.2095430E+04  0.7818609E-02  0.8563259E-01
       -2   -1    0    0    0  501  0.00000000000E+00  0.00000000000E+00  0.69056349281E+03  0.69056349282E+03  0.25500000920E-02 0. -1.
        2   -1    0    0  501    0  0.00000000000E+00  0.00000000000E+00 -0.15895811100E+04  0.15895811100E+04  0.25500000920E-02 0.  1.
    10030    2    1    2    0    0  0.00000000000E+00  0.00000000000E+00 -0.89901761719E+03  0.22801446028E+04  0.20954299639E+04 0.  0.
        5    1    3    3  502    0 -0.43771078748E+02  0.75061287975E+03 -0.12434483969E+04  0.14531075694E+04  0.46999998093E+01 0.  1.
       -5    1    3    3    0  502  0.43771078748E+02 -0.75061287975E+03  0.34443077972E+03  0.82703703339E+03  0.46999998093E+01 0. -1.
</event>
<event>
 5   0  0.3279789E-05  0.2105522E+04  0.7818609E-02  0.8558815E-01
        2   -1    0    0  501    0  0.00000000000E+00  0.00000000000E+00  0.20891010087E+04  0.20891010087E+04  0.25500000920E-02 0. -1.
       -2   -1    0    0    0  501  0.00000000000E+00  0.00000000000E+00 -0.53051820107E+03  0.53051820107E+03  0.25500000920E-02 0.  1.
    10030    2    1    2    0    0  0.00000000000E+00  0.00000000000E+00  0.15585828076E+04  0.26196192098E+04  0.21055223665E+04 0.  0.
        2    1    3    3  502    0  0.52694389263E+03 -0.64447202322E+03  0.15810712181E+04  0.17868408579E+04  0.25500000920E-02 0. -1.
       -2    1    3    3    0  502 -0.52694389263E+03  0.64447202322E+03 -0.22488410514E+02  0.83277835185E+03  0.25500000920E-02 0.  1.
</event>
<event>
 5   0  0.1435410E-05  0.2095779E+04  0.7818609E-02  0.8563105E-01
        1   -1    0    0  501    0  0.00000000000E+00  0.00000000000E+00  0.10910807792E+04  0.10910807792E+04  0.50400001928E-02 0.  1.
       -1   -1    0    0    0  501  0.00000000000E+00  0.00000000000E+00 -0.10064075806E+04  0.10064075806E+04  0.50400001928E-02 0. -1.
    10030    2    1    2    0    0  0.00000000000E+00  0.00000000000E+00  0.84673198615E+02  0.20974883598E+04  0.20957785829E+04 0.  0.
        2    1    3    3  502    0 -0.28792144132E+03  0.97865642123E+02 -0.96127535999E+03  0.10082295165E+04  0.25500000920E-02 0. -1.
       -2    1    3    3    0  502  0.28792144132E+03 -0.97865642123E+02  0.10459485586E+04  0.10892588432E+04  0.25500000920E-02 0.  1.
</event>
<event>
 5   0  0.1513292E-05  0.2096950E+04  0.7818609E-02  0.8562588E-01
        1   -1    0    0  501    0  0.00000000000E+00  0.00000000000E+00  0.91009630449E+03  0.91009630451E+03  0.50400001928E-02 0. -1.
       -1   -1    0    0    0  501  0.00000000000E+00  0.00000000000E+00 -0.12078938852E+04  0.12078938852E+04  0.50400001928E-02 0.  1.
    10030    2    1    2    0    0  0.00000000000E+00  0.00000000000E+00 -0.29779758073E+03  0.21179901897E+04  0.20969499385E+04 0.  0.
        1    1    3    3  502    0  0.26281808253E+03 -0.54517079394E+03  0.71585480917E+03  0.93740740711E+03  0.50400001928E-02 0. -1.
       -1    1    3    3    0  502 -0.26281808253E+03  0.54517079394E+03 -0.10136523899E+04  0.11805827826E+04  0.50400001928E-02 0.  1.
</event>
<event>
 5   0  0.1466480E-05  0.2105065E+04  0.7818609E-02  0.8559015E-01
        1   -1    0    0  501    0  0.00000000000E+00  0.00000000000E+00  0.11423487625E+04  0.11423487625E+04  0.50400001928E-02 0.  1.
       -1   -1    0    0    0  501  0.00000000000E+00  0.00000000000E+00 -0.96977825407E+03  0.96977825408E+03  0.50400001928E-02 0. -1.
    10030    2    1    2    0    0  0.00000000000E+00  0.00000000000E+00  0.17257050847E+03  0.21121270166E+04  0.21050653087E+04 0.  0.
        3    1    3    3  502    0 -0.49236249629E+03  0.36624883462E+03  0.94429482250E+03  0.11261668432E+04  0.10100000352E+00 0.  1.
       -3    1    3    3    0  502  0.49236249629E+03 -0.36624883462E+03 -0.77172431403E+03  0.98596017348E+03  0.10100000352E+00 0. -1.
</event>
<event>
 5   0  0.1513292E-05  0.2080500E+04  0.7818609E-02  0.8569882E-01
        1   -1    0    0  501    0  0.00000000000E+00  0.00000000000E+00  0.12537758764E+04  0.12537758764E+04  0.50400001928E-02 0. -1.
       -1   -1    0    0    0  501  0.00000000000E+00  0.00000000000E+00 -0.86308924373E+03  0.86308924375E+03  0.50400001928E-02 0.  1.
    10030    2    1    2    0    0  0.00000000000E+00  0.00000000000E+00  0.39068663267E+03  0.21168651202E+04  0.20805003946E+04 0.  0.
        1    1    3    3  502    0  0.50627512511E+03  0.36585652053E+03 -0.65103456108E+03  0.90222585624E+03  0.50400001928E-02 0.  1.
       -1    1    3    3    0  502 -0.50627512511E+03 -0.36585652053E+03  0.10417211938E+04  0.12146392639E+04  0.50400001928E-02 0. -1.
</event>
<event>
 5   0  0.1492552E-05  0.2101035E+04  0.7818609E-02  0.8560788E-01
       -1   -1    0    0    0  501  0.00000000000E+00  0.00000000000E+00  0.96327205518E+03  0.96327205519E+03  0.50400001928E-02 0. -1.
        1   -1    0    0  501    0  0.00000000000E+00  0.00000000000E+00 -0.11456651407E+04  0.11456651407E+04  0.50400001928E-02 0.  1.
    10030    2    1    2    0    0  0.00000000000E+00  0.00000000000E+00 -0.18239308552E+03  0.21089371959E+04  0.21010351874E+04 0.  0.
        4    1    3    3  502    0 -0.96333556813E+03  0.88634164536E+02  0.31987290462E+03  0.10189169348E+04  0.12699999809E+01 0. -1.
       -4    1    3    3    0  502  0.96333556813E+03 -0.88634164536E+02 -0.50226599013E+03  0.10900202611E+04  0.12699999809E+01 0.  1.
</event>
<event>
 5   0  0.1492552E-05  0.2102139E+04  0.7818609E-02  0.8560302E-01
        1   -1    0    0  501    0  0.00000000000E+00  0.00000000000E+00  0.24219928583E+04  0.24219928583E+04  0.50400001928E-02 0. -1.
       -1   -1    0    0    0  501  0.00000000000E+00  0.00000000000E+00 -0.45613160624E+03  0.45613160627E+03  0.50400001928E-02 0.  1.
    10030    2    1    2    0    0  0.00000000000E+00  0.00000000000E+00  0.19658612521E+04  0.28781244646E+04  0.21021393796E+04 0.  0.
        4    1    3    3  502    0  0.74904538963E+03  0.22574542772E+03  0.19439814283E+04  0.20954940707E+04  0.12699999809E+01 0. -1.
       -4    1    3    3    0  502 -0.74904538963E+03 -0.22574542772E+03  0.21879823794E+02  0.78263039390E+03  0.12699999809E+01 0.  1.
</event>
<event>
 5   0  0.1466480E-05  0.2091715E+04  0.7818609E-02  0.8564902E-01
       -1   -1    0    0    0  501  0.00000000000E+00  0.00000000000E+00  0.10015248925E+04  0.10015248925E+04  0.50400001928E-02 0. -1.
        1   -1    0    0  501    0  0.00000000000E+00  0.00000000000E+00 -0.10921524819E+04  0.10921524819E+04  0.50400001928E-02 0.  1.
    10030    2    1    2    0    0  0.00000000000E+00  0.00000000000E+00 -0.90627589369E+02  0.20936773744E+04  0.20917149873E+04 0.  0.
        3    1    3    3  502    0  0.19922764454E+02  0.94112603592E+03  0.41085794837E+03  0.10270926910E+04  0.10100000352E+00 0. -1.
       -3    1    3    3    0  502 -0.19922764454E+02 -0.94112603592E+03 -0.50148553774E+03  0.10665846834E+04  0.10100000352E+00 0.  1.
</event>
<event>
 5   0  0.3279789E-05  0.2096760E+04  0.7818609E-02  0.8562672E-01
        2   -1    0    0  501    0  0.00000000000E+00  0.00000000000E+00  0.20687763599E+04  0.20687763599E+04  0.25500000920E-02 0. -1.
       -2   -1    0    0    0  501  0.00000000000E+00  0.00000000000E+00 -0.53128072943E+03  0.53128072944E+03  0.25500000920E-02 0.  1.
    10030    2    1    2    0    0  0.00000000000E+00  0.00000000000E+00  0.15374956305E+04  0.26000570893E+04  0.20967603712E+04 0.  0.
        2    1    3    3  502    0  0.32132325660E+03  0.97355125462E+03  0.49692726670E+03  0.11392924949E+04  0.25500000920E-02 0.  1.
       -2    1    3    3    0  502 -0.32132325660E+03 -0.97355125462E+03  0.10405683638E+04  0.14607645944E+04  0.25500000920E-02 0. -1.
</event>
<event>
 5   0  0.1453430E-05  0.2102391E+04  0.7818609E-02  0.8560191E-01
       -1   -1    0    0    0  501  0.00000000000E+00  0.00000000000E+00  0.10507548633E+04  0.10507548633E+04  0.50400001928E-02 0.  1.
        1   -1    0    0  501    0  0.00000000000E+00  0.00000000000E+00 -0.10516365345E+04  0.10516365345E+04  0.50400001928E-02 0. -1.
    10030    2    1    2    0    0  0.00000000000E+00  0.00000000000E+00 -0.88167123981E+00  0.21023913978E+04  0.21023912130E+04 0.  0.
        5    1    3    3  502    0 -0.24536528264E+03  0.85258671190E+03 -0.56425103929E+03  0.10514321417E+04  0.46999998093E+01 0. -1.
       -5    1    3    3    0  502  0.24536528264E+03 -0.85258671190E+03  0.56336936805E+03  0.10509592562E+04  0.46999998093E+01 0.  1.
</event>
<event>
 5   0  0.3130517E-05  0.2098425E+04  0.7818609E-02  0.8561938E-01
       -2   -1    0    0    0  501  0.00000000000E+00  0.00000000000E+00  0.56474041988E+03  0.56474041989E+03  0.25500000920E-02 0.  1.
        2   -1    0    0  501    0  0.00000000000E+00  0.00000000000E+00 -0.19492969519E+04  0.19492969519E+04  0.25500000920E-02 0. -1.
    10030    2    1    2    0    0  0.00000000000E+00  0.00000000000E+00 -0.13845565320E+04  0.25140373718E+04  0.20984249132E+04 0.  0.
        1    1    3    3  502    0 -0.32991140998E+03  0.31795557299E+03  0.43854592151E+03  0.63423955264E+03  0.50400001928E-02 0.  1.
       -1    1    3    3    0  502  0.32991140998E+03 -0.31795557299E+03 -0.18231024535E+04  0.18797978192E+04  0.50400001928E-02 0. -1.
</event>
<event>
 5   0  0.1466480E-05  0.2092523E+04  0.7818609E-02  0.8564544E-01
       -1   -1    0    0    0  501  0.00000000000E+00  0.00000000000E+00  0.95283778987E+03  0.95283778989E+03  0.50400001928E-02 0. -1.
        1   -1    0    0  501    0  0.00000000000E+00  0.00000000000E+00 -0.11488448162E+04  0.11488448162E+04  0.50400001928E-02 0.  1.
    10030    2    1    2    0    0  0.00000000000E+00  0.00000000000E+00 -0.19600702631E+03  0.21016826061E+04  0.20925226456E+04 0.  0.
        3    1    3    3  502    0 -0.53204411184E+03 -0.42893720304E+03  0.69767943576E+03  0.97663435654E+03  0.10100000352E+00 0. -1.
       -3    1    3    3    0  502  0.53204411184E+03  0.42893720304E+03 -0.89368646207E+03  0.11250482495E+04  0.10100000352E+00 0.  1.
</event>
<event>
 5   0  0.3130517E-05  0.2093339E+04  0.7818609E-02  0.8564183E-01
        2   -1    0    0  501    0  0.00000000000E+00  0.00000000000E+00  0.14789417105E+04  0.14789417105E+04  0.25500000920E-02 0. -1.
       -2   -1    0    0    0  501  0.00000000000E+00  0.00000000000E+00 -0.74074394192E+03  0.74074394193E+03  0.25500000920E-02 0.  1.
    10030    2    1    2    0    0  0.00000000000E+00  0.00000000000E+00  0.73819776860E+03  0.22196856525E+04  0.20933390672E+04 0.  0.
        1    1    3    3  502    0 -0.18706889892E+03 -0.91581944130E+03  0.86847735922E+03  0.12759204307E+04  0.50400001928E-02 0. -1.
       -1    1    3    3    0  502  0.18706889892E+03  0.91581944130E+03 -0.13027959062E+03  0.94376522174E+03  0.50400001928E-02 0.  1.
</event>
<event>
 5   0  0.1513292E-05  0.2100487E+04  0.7818609E-02  0.8561029E-01
       -1   -1    0    0    0  501  0.00000000000E+00  0.00000000000E+00  0.70939024913E+03  0.70939024915E+03  0.50400001928E-02 0.  1.
        1   -1    0    0  501    0  0.00000000000E+00  0.00000000000E+00 -0.15548731486E+04  0.15548731486E+04  0.50400001928E-02 0. -1.
    10030    2    1    2    0    0  0.00000000000E+00  0.00000000000E+00 -0.84548289949E+03  0.22642633978E+04  0.21004874199E+04 0.  0.
        1    1    3    3  502    0  0.60434486432E+03  0.85860964044E+03 -0.44844648183E+03  0.11417300367E+04  0.50400001928E-02 0. -1.
       -1    1    3    3    0  502 -0.60434486432E+03 -0.85860964044E+03 -0.39703641767E+03  0.11225333611E+04  0.50400001928E-02 0.  1.
</event>
<event>
 5   0  0.3108326E-05  0.2098360E+04  0.7818609E-02  0.8561966E-01
       -2   -1    0    0    0  501  0.00000000000E+00  0.00000000000E+00  0.85718531426E+03  0.85718531427E+03  0.25500000920E-02 0. -1.
        2   -1    0    0  501    0  0.00000000000E+00  0.00000000000E+00 -0.12841787409E+04  0.12841787409E+04  0.25500000920E-02 0.  1.
    10030    2    1    2    0    0  0.00000000000E+00  0.00000000000E+00 -0.42699342659E+03  0.21413640551E+04  0.20983604624E+04 0.  0.
        5    1    3    3  502    0  0.24389565326E+03 -0.85758160134E+03  0.35085189208E+03  0.95814948354E+03  0.46999998093E+01 0. -1.
       -5    1    3    3    0  502 -0.24389565326E+03  0.85758160134E+03 -0.77784531867E+03  0.11832145716E+04  0.46999998093E+01 0.  1.
</event>
<event>
 5   0  0.1435410E-05  0.2098286E+04  0.7818609E-02  0.8561999E-01
        1   -1    0    0  501    0  0.00000000000E+00  0.00000000000E+00  0.14473755071E+04  0.14473755071E+04  0.50400001928E-02 0. -1.
       -1   -1    0    0    0  501  0.00000000000E+00  0.00000000000E+00 -0.76048091003E+03  0.76048091005E+03  0.50400001928E-02 0.  1.
    10030    2    1    2    0    0  0.00000000000E+00  0.00000000000E+00  0.68689459709E+03  0.22078564172E+04  0.20982863893E+04 0.  0.
        2    1    3    3  502    0 -0.12612861269E+03 -0.17185305726E+03  0.14243477722E+04  0.14402112610E+04  0.25500000920E-02 0. -1.
       -2    1    3    3    0  502  0.12612861269E+03  0.17185305726E+03 -0.73745317512E+03  0.76764515613E+03  0.25500000920E-02 0.  1.
</event>
<event>
 5   0  0.3257130E-05  0.2098098E+04  0.7818609E-02  0.8562082E-01
        2   -1    0    0  501    0  0.00000000000E+00  0.00000000000E+00  0.97439656318E+03  0.97439656318E+03  0.25500000920E-02 0.  1.
       -2   -1    0    0    0  501  0.00000000000E+00  0.00000000000E+00 -0.11294209820E+04  0.11294209820E+04  0.25500000920E-02 0. -1.
    10030    2    1    2    0    0  0.00000000000E+00  0.00000000000E+00 -0.15502441878E+03  0.21038175451E+04  0.20980981133E+04 0.  0.
        3    1    3    3  502    0  0.63974358146E+03  0.15001217365E+02  0.75602215856E+03  0.99048796104E+03  0.10100000352E+00 0.  1.
       -3    1    3    3    0  502 -0.63974358146E+03 -0.15001217365E+02 -0.91104657734E+03  0.11133295841E+04  0.10100000352E+00 0. -1.
</event>
<event>
 5   0  0.3279789E-05  0.2082344E+04  0.7818609E-02  0.8569061E-01
        2   -1    0    0  501    0  0.00000000000E+00  0.00000000000E+00  0.14614073753E+04  0.14614073753E+04  0.25500000920E-02 0. -1.
       -2   -1    0    0    0  501  0.00000000000E+00  0.00000000000E+00 -0.74177743279E+03  0.74177743280E+03  0.25500000920E-02 0.  1.
    10030    2    1    2    0    0  0.00000000000E+00  0.00000000000E+00  0.71962994252E+03  0.22031848081E+04  0.20823438824E+04 0.  0.
        2    1    3    3  502    0  0.55317325212E+03 -0.75729801847E+03  0.83831895697E+03  0.12578869620E+04  0.25500000920E-02 0. -1.
       -2    1    3    3    0  502 -0.55317325212E+03  0.75729801847E+03 -0.11868901446E+03  0.94529784607E+03  0.25500000920E-02 0.  1.
</event>
<event>
 5   0  0.1435410E-05  0.2106015E+04  0.7818609E-02  0.8558598E-01
       -1   -1    0    0    0  501  0.00000000000E+00  0.00000000000E+00  0.52545056535E+03  0.52545056537E+03  0.50400001928E-02 0.  1.
        1   -1    0    0  501    0  0.00000000000E+00  0.00000000000E+00 -0.21102359578E+04  0.21102359578E+04  0.50400001928E-02 0. -1.
    10030    2    1    2    0    0  0.00000000000E+00  0.00000000000E+00 -0.15847853924E+04  0.26356865231E+04  0.21060148879E+04 0.  0.
        2    1    3    3  502    0 -0.51769133757E+03 -0.85788688382E+01 -0.19399249995E+04  0.20078313977E+04  0.25500000920E-02 0. -1.
       -2    1    3    3    0  502  0.51769133757E+03  0.85788688382E+01  0.35513960709E+03  0.62785512542E+03  0.25500000920E-02 0.  1.
</event>
<event>
 5   0  0.3108326E-05  0.2129389E+04  0.7818609E-02  0.8548407E-01
        2   -1    0    0  501    0  0.00000000000E+00  0.00000000000E+00  0.13347010019E+04  0.13347010019E+04  0.25500000920E-02 0.  1.
       -2   -1    0    0    0  501  0.00000000000E+00  0.00000000000E+00 -0.84930977302E+03  0.84930977302E+03  0.25500000920E-02 0. -1.
    10030    2    1    2    0    0  0.00000000000E+00  0.00000000000E+00  0.48539122883E+03  0.21840107749E+04  0.21293892128E+04 0.  0.
        5    1    3    3  502    0  0.90781472995E+02  0.69977768991E+02  0.13283436689E+04  0.13332880996E+04  0.46999998093E+01 0.  1.
       -5    1    3    3    0  502 -0.90781472995E+02 -0.69977768991E+02 -0.84295244005E+03  0.85072267524E+03  0.46999998093E+01 0. -1.
</event>
<event>
 5   0  0.3108326E-05  0.2098943E+04  0.7818609E-02  0.8561709E-01
       -2   -1    0    0    0  501  0.00000000000E+00  0.00000000000E+00  0.73155774308E+03  0.73155774309E+03  0.25500000920E-02 0.  1.
        2   -1    0    0  501    0  0.00000000000E+00  0.00000000000E+00 -0.15055415233E+04  0.15055415233E+04  0.25500000920E-02 0. -1.
    10030    2    1    2    0    0  0.00000000000E+00  0.00000000000E+00 -0.77398378024E+03  0.22370992664E+04  0.20989431235E+04 0.  0.
        5    1    3    3  502    0 -0.12292692525E+03 -0.56342714927E+03  0.54753828882E+03  0.79522415029E+03  0.46999998093E+01 0.  1.
       -5    1    3    3    0  502  0.12292692525E+03  0.56342714927E+03 -0.13215220691E+04  0.14418751161E+04  0.46999998093E+01 0. -1.
</event>
<event>
 5   0  0.3257130E-05  0.2081736E+04  0.7818609E-02  0.8569332E-01
        2   -1    0    0  501    0  0.00000000000E+00  0.00000000000E+00  0.13149617495E+04  0.13149617495E+04  0.25500000920E-02 0. -1.
       -2   -1    0    0    0  501  0.00000000000E+00  0.00000000000E+00 -0.82390700756E+03  0.82390700756E+03  0.25500000920E-02 0.  1.
    10030    2    1    2    0    0  0.00000000000E+00  0.00000000000E+00  0.49105474191E+03  0.21388687570E+04  0.20817360064E+04 0.  0.
        3    1    3    3  502    0  0.10091088935E+04  0.40984091575E+01 -0.16599209103E+02  0.10092537341E+04  0.10100000352E+00 0. -1.
       -3    1    3    3    0  502 -0.10091088935E+04 -0.40984091575E+01  0.50765395102E+03  0.11296150229E+04  0.10100000352E+00 0.  1.
</event>
<event>
 5   0  0.3130517E-05  0.2098885E+04  0.7818609E-02  0.8561735E-01
        2   -1    0    0  501    0  0.00000000000E+00  0.00000000000E+00  0.11875782711E+04  0.11875782711E+04  0.25500000920E-02 0.  1.
       -2   -1    0    0    0  501  0.00000000000E+00  0.00000000000E+00 -0.92737435427E+03  0.92737435427E+03  0.25500000920E-02 0. -1.
    10030    2    1    2    0    0  0.00000000000E+00  0.00000000000E+00  0.26020391686E+03  0.21149526254E+04  0.20988850682E+04 0.  0.
        1    1    3    3  502    0 -0.23818623294E+02  0.59100293488E+03 -0.74341245198E+03  0.95000729978E+03  0.50400001928E-02 0. -1.
       -1    1    3    3    0  502  0.23818623294E+02 -0.59100293488E+03  0.10036163688E+04  0.11649453256E+04  0.50400001928E-02 0.  1.
</event>
<event>
 5   0  0.1453430E-05  0.2098245E+04  0.7818609E-02  0.8562017E-01
       -1   -1    0    0    0  501  0.00000000000E+00  0.00000000000E+00  0.79691298016E+03  0.79691298018E+03  0.50400001928E-02 0. -1.
        1   -1    0    0  501    0  0.00000000000E+00  0.00000000000E+00 -0.13811522816E+04  0.13811522816E+04  0.50400001928E-02 0.  1.
    10030    2    1    2    0    0  0.00000000000E+00  0.00000000000E+00 -0.58423930144E+03  0.21780652618E+04  0.20982451533E+04 0.  0.
        5    1    3    3  502    0  0.66394863611E+03  0.53588784241E+03  0.34153851594E+03  0.91906159691E+03  0.46999998093E+01 0. -1.
       -5    1    3    3    0  502 -0.66394863611E+03 -0.53588784241E+03 -0.92577781738E+03  0.12590036649E+04  0.46999998093E+01 0.  1.
</event>
<event>
 5   0  0.1513292E-05  0.2099581E+04  0.7818609E-02  0.8561428E-01
        1   -1    0    0  501    0  0.00000000000E+00  0.00000000000E+00  0.14757912136E+04  0.14757912136E+04  0.50400001928E-02 0. -1.
       -1   -1    0    0    0  501  0.00000000000E+00  0.00000000000E+00 -0.74675904645E+03  0.74675904646E+03  0.50400001928E-02 0.  1.
    10030    2    1    2    0    0  0.00000000000E+00  0.00000000000E+00  0.72903216716E+03  0.22225502601E+04  0.20995813292E+04 0.  0.
        1    1    3    3  502    0 -0.78654362987E+03  0.54712941102E+03  0.81866405315E+03  0.12602429552E+04  0.50400001928E-02 0.  1.
       -1    1    3    3    0  502  0.78654362987E+03 -0.54712941102E+03 -0.89631885991E+02  0.96230730492E+03  0.50400001928E-02 0. -1.
</event>
<event>
 5   0  0.3279789E-05  0.2088595E+04  0.7818609E-02  0.8566284E-01
       -2   -1    0    0    0  501  0.00000000000E+00  0.00000000000E+00  0.90923044493E+03  0.90923044494E+03  0.25500000920E-02 0. -1.
        2   -1    0    0  501    0  0.00000000000E+00  0.00000000000E+00 -0.11994293756E+04  0.11994293756E+04  0.25500000920E-02 0.  1.
    10030    2    1    2    0    0  0.00000000000E+00  0.00000000000E+00 -0.29019893068E+03  0.21086598206E+04  0.20885954178E+04 0.  0.
        2    1    3    3  502    0  0.52618025182E+03  0.72685117826E+03  0.39424164074E+03  0.98010446588E+03  0.25500000920E-02 0. -1.
       -2    1    3    3    0  502 -0.52618025182E+03 -0.72685117826E+03 -0.68444057142E+03  0.11285553547E+04  0.25500000920E-02 0.  1.
</event>
<event>
 5   0  0.1435410E-05  0.2102387E+04  0.7818609E-02  0.8560193E-01
        1   -1    0    0  501    0  0.00000000000E+00  0.00000000000E+00  0.24908966384E+04  0.24908966384E+04  0.50400001928E-02 0.  1.
       -1   -1    0    0    0  501  0.00000000000E+00  0.00000000000E+00 -0.44361857686E+03  0.44361857689E+03  0.50400001928E-02 0. -1.
    10030    2    1    2    0    0  0.00000000000E+00  0.00000000000E+00  0.20472780615E+04  0.29345152153E+04  0.21023872354E+04 0.  0.
        2    1    3    3  502    0 -0.14869216706E+03  0.27123772580E+03  0.24259359443E+04  0.24455765109E+04  0.25500000920E-02 0.  1.
       -2    1    3    3    0  502  0.14869216706E+03 -0.27123772580E+03 -0.37865788282E+03  0.48893870441E+03  0.25500000920E-02 0. -1.
</event>
<event>
 5   0  0.3130517E-05  0.2099608E+04  0.7818609E-02  0.8561416E-01
        2   -1    0    0  501    0  0.00000000000E+00  0.00000000000E+00  0.12288761774E+04  0.12288761774E+04  0.25500000920E-02 0. -1.
       -2   -1    0    0    0  501  0.00000000000E+00  0.00000000000E+00 -0.89682640173E+03  0.89682640173E+03  0.25500000920E-02 0.  1.
    10030    2    1    2    0    0  0.00000000000E+00  0.00000000000E+00  0.33204977571E+03  0.21257025792E+04  0.20996081543E+04 0.  0.
        1    1    3    3  502    0 -0.60351189940E+03  0.49197042626E+03 -0.54687635710E+03  0.95149107353E+03  0.50400001928E-02 0.  1.
       -1    1    3    3    0  502  0.60351189940E+03 -0.49197042626E+03  0.87892613280E+03  0.11742115056E+04  0.50400001928E-02 0. -1.
</event>
<event>
 5   0  0.3108326E-05  0.2107030E+04  0.7818609E-02  0.8558153E-01
        2   -1    0    0  501    0  0.00000000000E+00  0.00000000000E+00  0.19630590621E+04  0.19630590621E+04  0.25500000920E-02 0.  1.
       -2   -1    0    0    0  501  0.00000000000E+00  0.00000000000E+00 -0.56539004638E+03  0.56539004638E+03  0.25500000920E-02 0. -1.
    10030    2    1    2    0    0  0.00000000000E+00  0.00000000000E+00  0.13976690157E+04  0.25284491085E+04  0.21070301889E+04 0.  0.
        5    1    3    3  502    0 -0.93107944046E+03  0.13604307325E+03  0.12673579964E+04  0.15784913758E+04  0.46999998093E+01 0.  1.
       -5    1    3    3    0  502  0.93107944046E+03 -0.13604307325E+03  0.13031101930E+03  0.94995773273E+03  0.46999998093E+01 0. -1.
</event>
<event>
 5   0  0.1466480E-05  0.2124457E+04  0.7818609E-02  0.8550546E-01
        1   -1    0    0  501    0  0.00000000000E+00  0.00000000000E+00  0.10932371450E+04  0.10932371450E+04  0.50400001928E-02 0. -1.
       -1   -1    0    0    0  501  0.00000000000E+00  0.00000000000E+00 -0.10320998056E+04  0.10320998056E+04  0.50400001928E-02 0.  1.
    10030    2    1    2    0    0  0.00000000000E+00  0.00000000000E+00  0.61137339448E+02  0.21253369506E+04  0.21244574317E+04 0.  0.
        3    1    3    3  502    0  0.31110984601E+03 -0.10045674716E+03 -0.98051731514E+03  0.10335836250E+04  0.10100000352E+00 0.  1.
       -3    1    3    3    0  502 -0.31110984601E+03  0.10045674716E+03  0.10416546546E+04  0.10917533256E+04  0.10100000352E+00 0. -1.
</event>
<event>
 5   0  0.1453430E-05  0.2099967E+04  0.7818609E-02  0.8561258E-01
        1   -1    0    0  501    0  0.00000000000E+00  0.00000000000E+00  0.14161328132E+04  0.14161328132E+04  0.50400001928E-02 0.  1.
       -1   -1    0    0    0  501  0.00000000000E+00  0.00000000000E+00 -0.77850384737E+03  0.77850384738E+03  0.50400001928E-02 0. -1.
    10030    2    1    2    0    0  0.00000000000E+00  0.00000000000E+00  0.63762896582E+03  0.21946366606E+04  0.20999665173E+04 0.  0.
        5    1    3    3  502    0  0.84482663984E+03 -0.30371686767E+03  0.88784855001E+03  0.12626452886E+04  0.46999998093E+01 0. -1.
       -5    1    3    3    0  502 -0.84482663984E+03  0.30371686767E+03 -0.25021958420E+03  0.93199137196E+03  0.46999998093E+01 0.  1.
</event>
<event>
 5   0  0.3130517E-05  0.2094776E+04  0.7818609E-02  0.8563548E-01
       -2   -1    0    0    0  501  0.00000000000E+00  0.00000000000E+00  0.82926690716E+03  0.82926690716E+03  0.25500000920E-02 0. -1.
        2   -1    0    0  501    0  0.00000000000E+00  0.00000000000E+00 -0.13228815826E+04  0.13228815826E+04  0.25500000920E-02 0.  1.
    10030    2    1    2    0    0  0.00000000000E+00  0.00000000000E+00 -0.49361467543E+03  0.21521484897E+04  0.20947762826E+04 0.  0.
        1    1    3    3  502    0 -0.29784578666E+02 -0.95749128888E+03  0.18828305994E+03  0.97628233626E+03  0.50400001928E-02 0. -1.
       -1    1    3    3    0  502  0.29784578666E+02  0.95749128888E+03 -0.68189773537E+03  0.11758661535E+04  0.50400001928E-02 0.  1.
</event>
<event>
 5   0  0.3242231E-05  0.2089017E+04  0.7818609E-02  0.8566097E-01
       -2   -1    0    0    0  501  0.00000000000E+00  0.00000000000E+00  0.91051412828E+03  0.91051412828E+03  0.25500000920E-02 0.  1.
        2   -1    0    0  501    0  0.00000000000E+00  0.00000000000E+00 -0.11982222626E+04  0.11982222626E+04  0.25500000920E-02 0. -1.
    10030    2    1    2    0    0  0.00000000000E+00  0.00000000000E+00 -0.28770813430E+03  0.21087363909E+04  0.20890172799E+04 0.  0.
        4    1    3    3  502    0 -0.71036573279E+03 -0.70065295012E+03 -0.45574088201E+03  0.10969208701E+04  0.12699999809E+01 0. -1.
       -4    1    3    3    0  502  0.71036573279E+03  0.70065295012E+03  0.16803274771E+03  0.10118155208E+04  0.12699999809E+01 0.  1.
</event>
<event>
 5   0  0.1435410E-05  0.2112202E+04  0.7818609E-02  0.8555887E-01
       -1   -1    0    0    0  501  0.00000000000E+00  0.00000000000E+00  0.84800052717E+03  0.84800052718E+03  0.50400001928E-02 0. -1.
        1   -1    0    0  501    0  0.00000000000E+00  0.00000000000E+00 -0.13152701061E+04  0.13152701061E+04  0.50400001928E-02 0.  1.
    10030    2    1    2    0    0  0.00000000000E+00  0.00000000000E+00 -0.46726957889E+03  0.21632706333E+04  0.21122023988E+04 0.  0.
        2    1    3    3  502    0  0.57428772193E+03 -0.33033944098E+03  0.60869719062E+03  0.89969039325E+03  0.25500000920E-02 0. -1.
       -2    1    3    3    0  502 -0.57428772193E+03  0.33033944098E+03 -0.10759667695E+04  0.12635802400E+04  0.25500000920E-02 0.  1.
</event>
<event>
 5   0  0.1492552E-05  0.2089773E+04  0.7818609E-02  0.8565762E-01
        1   -1    0    0  501    0  0.00000000000E+00  0.00000000000E+00  0.95679484162E+03  0.95679484163E+03  0.50400001928E-02 0.  1.
       -1   -1    0    0    0  501  0.00000000000E+00  0.00000000000E+00 -0.11410885448E+04  0.11410885448E+04  0.50400001928E-02 0. -1.
    10030    2    1    2    0    0  0.00000000000E+00  0.00000000000E+00 -0.18429370321E+03  0.20978833865E+04  0.20897728427E+04 0.  0.
        4    1    3    3  502    0  0.49602086172E+03  0.29157124956E+02 -0.10148982433E+04  0.11300030488E+04  0.12699999809E+01 0. -1.
       -4    1    3    3    0  502 -0.49602086172E+03 -0.29157124956E+02  0.83060454006E+03  0.96788033768E+03  0.12699999809E+01 0.  1.
</event>
<event>
 5   0  0.3257130E-05  0.2091362E+04  0.7818609E-02  0.8565058E-01
        2   -1    0    0  501    0  0.00000000000E+00  0.00000000000E+00  0.12306813864E+04  0.12306813864E+04  0.25500000920E-02 0. -1.
       -2   -1    0    0    0  501  0.00000000000E+00  0.00000000000E+00 -0.88849063195E+03  0.88849063195E+03  0.25500000920E-02 0.  1.
    10030    2    1    2    0    0  0.00000000000E+00  0.00000000000E+00  0.34219075444E+03  0.21191720183E+04  0.20913621233E+04 0.  0.
        3    1    3    3  502    0  0.51791868935E+03  0.47784926026E+03 -0.61175101188E+03  0.93317682946E+03  0.10100000352E+00 0.  1.
       -3    1    3    3    0  502 -0.51791868935E+03 -0.47784926026E+03  0.95394176632E+03  0.11859951889E+04  0.10100000352E+00 0. -1.
</event>
<event>
 5   0  0.1513292E-05  0.2105418E+04  0.7818609E-02  0.8558860E-01
        1   -1    0    0  501    0  0.00000000000E+00  0.00000000000E+00  0.16598426961E+04  0.16598426961E+04  0.50400001928E-02 0.  1.
       -1   -1    0    0    0  501  0.00000000000E+00  0.00000000000E+00 -0.66765160925E+03  0.66765160927E+03  0.50400001928E-02 0. -1.
    10030    2    1    2    0    0  0.00000000000E+00  0.00000000000E+00  0.99219108683E+03  0.23274943054E+04  0.21054183880E+04 0.  0.
        1    1    3    3  502    0  0.52357402549E+03 -0.11182646162E+03 -0.50591044185E+03  0.73660049748E+03  0.50400001928E-02 0. -1.
       -1    1    3    3    0  502 -0.52357402549E+03  0.11182646162E+03  0.14981015287E+04  0.15908938079E+04  0.50400001928E-02 0.  1.
</event>
<event>
 5   0  0.3108326E-05  0.2096590E+04  0.7818609E-02  0.8562747E-01
        2   -1    0    0  501    0  0.00000000000E+00  0.00000000000E+00  0.78877713120E+03  0.78877713120E+03  0.25500000920E-02 0. -1.
       -2   -1    0    0    0  501  0.00000000000E+00  0.00000000000E+00 -0.13931978968E+04  0.13931978968E+04  0.25500000920E-02 0.  1.
    10030    2    1    2    0    0  0.00000000000E+00  0.00000000000E+00 -0.60442076556E+03  0.21819750280E+04  0.20965902224E+04 0.  0.
        5    1    3    3  502    0  0.44062903921E+03 -0.94819441520E+03 -0.38060369435E+03  0.11127029529E+04  0.46999998093E+01 0.  1.
       -5    1    3    3    0  502 -0.44062903921E+03  0.94819441520E+03 -0.22381707121E+03  0.10692720751E+04  0.46999998093E+01 0. -1.
</event>
<event>
 5   0  0.1435410E-05  0.2108630E+04  0.7818609E-02  0.8557451E-01
        1   -1    0    0  501    0  0.00000000000E+00  0.00000000000E+00  0.15067813432E+04  0.15067813432E+04  0.50400001928E-02 0.  1.
       -1   -1    0    0    0  501  0.00000000000E+00  0.00000000000E+00 -0.73771797502E+03  0.73771797504E+03  0.50400001928E-02 0. -1.
    10030    2    1    2    0    0  0.00000000000E+00  0.00000000000E+00  0.76906336820E+03  0.22444993183E+04  0.21086295847E+04 0.  0.
        2    1    3    3  502    0  0.34646042644E+03 -0.68418116323E+03 -0.38557881935E+03  0.85837620957E+03  0.25500000920E-02 0. -1.
       -2    1    3    3    0  502 -0.34646042644E+03  0.68418116323E+03  0.11546421876E+04  0.13861231087E+04  0.25500000920E-02 0.  1.
</event>
<event>
 5   0  0.3130517E-05  0.2111172E+04  0.7818609E-02  0.8556338E-01
       -2   -1    0    0    0  501  0.00000000000E+00  0.00000000000E+00  0.16047693539E+04  0.16047693539E+04  0.25500000920E-02 0.  1.
        2   -1    0    0  501    0  0.00000000000E+00  0.00000000000E+00 -0.69434405307E+03  0.69434405307E+03  0.25500000920E-02 0. -1.
    10030    2    1    2    0    0  0.00000000000E+00  0.00000000000E+00  0.91042530087E+03  0.22991134070E+04  0.21111722407E+04 0.  0.
        1    1    3    3  502    0 -0.28532886090E+03 -0.97977670557E+03  0.16120266542E+03  0.10331317685E+04  0.50400001928E-02 0. -1.
       -1    1    3    3    0  502  0.28532886090E+03  0.97977670557E+03  0.74922263544E+03  0.12659816385E+04  0.50400001928E-02 0.  1.
</event>
<event>
 5   0  0.3279789E-05  0.2094775E+04  0.7818609E-02  0.8563549E-01
       -2   -1    0    0    0  501  0.00000000000E+00  0.00000000000E+00  0.86386227149E+03  0.86386227149E+03  0.25500000920E-02 0. -1.
        2   -1    0    0  501    0  0.00000000000E+00  0.00000000000E+00 -0.12699021897E+04  0.12699021897E+04  0.25500000920E-02 0.  1.
    10030    2    1    2    0    0  0.00000000000E+00  0.00000000000E+00 -0.40603991816E+03  0.21337644611E+04  0.20947750143E+04 0.  0.
        2    1    3    3  502    0 -0.79179246551E+03  0.52922039165E+03  0.24099595010E+03  0.98238921988E+03  0.25500000920E-02 0. -1.
       -2    1    3    3    0  502  0.79179246551E+03 -0.52922039165E+03 -0.64703586826E+03  0.11513752413E+04  0.25500000920E-02 0.  1.
</event>
<event>
 5   0  0.1129987E-05  0.2102436E+04  0.7818609E-02  0.8560171E-01
       -3   -1    0    0    0  501  0.00000000000E+00  0.00000000000E+00  0.62645560253E+03  0.62645561067E+03  0.10100000352E+00 0.  1.
        3   -1    0    0  501    0  0.00000000000E+00  0.00000000000E+00 -0.17639857922E+04  0.17639857950E+04  0.10100000352E+00 0. -1.
    10030    2    1    2    0    0  0.00000000000E+00  0.00000000000E+00 -0.11375301896E+04  0.23904414057E+04  0.21024355357E+04 0.  0.
        1    1    3    3  502    0 -0.21638622168E+03  0.12416265209E+03  0.59230909886E+03  0.64270477649E+03  0.50400001928E-02 0.  1.
       -1    1    3    3    0  502  0.21638622168E+03 -0.12416265209E+03 -0.17298392885E+04  0.17477366292E+04  0.50400001928E-02 0. -1.
</event>
<event>
 5   0  0.1492552E-05  0.2098899E+04  0.7818609E-02  0.8561728E-01
       -1   -1    0    0    0  501  0.00000000000E+00  0.00000000000E+00  0.12752936821E+04  0.12752936821E+04  0.50400001928E-02 0. -1.
        1   -1    0    0  501    0  0.00000000000E+00  0.00000000000E+00 -0.86360080053E+03  0.86360080055E+03  0.50400001928E-02 0.  1.
    10030    2    1    2    0    0  0.00000000000E+00  0.00000000000E+00  0.41169288159E+03  0.21388944827E+04  0.20988993733E+04 0.  0.
        4    1    3    3  502    0 -0.40039047929E+03 -0.68785111562E+03  0.90290657457E+03  0.12036168778E+04  0.12699999809E+01 0. -1.
       -4    1    3    3    0  502  0.40039047929E+03  0.68785111562E+03 -0.49121369298E+03  0.93527760490E+03  0.12699999809E+01 0.  1.
</event>
<event>
 5   0  0.3242231E-05  0.2110921E+04  0.7818609E-02  0.8556448E-01
        2   -1    0    0  501    0  0.00000000000E+00  0.00000000000E+00  0.18063846841E+04  0.18063846841E+04  0.25500000920E-02 0.  1.
       -2   -1    0    0    0  501  0.00000000000E+00  0.00000000000E+00 -0.61669991207E+03  0.61669991207E+03  0.25500000920E-02 0. -1.
    10030    2    1    2    0    0  0.00000000000E+00  0.00000000000E+00  0.11896847721E+04  0.24230845962E+04  0.21109213873E+04 0.  0.
        4    1    3    3  502    0 -0.52003052038E+03  0.27969959213E+03  0.15990452823E+04  0.17045852961E+04  0.12699999809E+01 0.  1.
       -4    1    3    3    0  502  0.52003052038E+03 -0.27969959213E+03 -0.40936051026E+03  0.71849930008E+03  0.12699999809E+01 0. -1.
</event>
<event>
 5   0  0.3108326E-05  0.2100579E+04  0.7818609E-02  0.8560988E-01
       -2   -1    0    0    0  501  0.00000000000E+00  0.00000000000E+00  0.76859612776E+03  0.76859612776E+03  0.25500000920E-02 0.  1.
        2   -1    0    0  501    0  0.00000000000E+00  0.00000000000E+00 -0.14352249360E+04  0.14352249360E+04  0.25500000920E-02 0. -1.
    10030    2    1    2    0    0  0.00000000000E+00  0.00000000000E+00 -0.66662880827E+03  0.22038210638E+04  0.21005792804E+04 0.  0.
        5    1    3    3  502    0  0.59411550296E+03  0.81679398233E+03 -0.31129205096E+02  0.10105032201E+04  0.46999998093E+01 0.  1.
       -5    1    3    3    0  502 -0.59411550296E+03 -0.81679398233E+03 -0.63549960317E+03  0.11933178437E+04  0.46999998093E+01 0. -1.
</event>
<event>
 5   0  0.1513292E-05  0.2104270E+04  0.7818609E-02  0.8559365E-01
       -1   -1    0    0    0  501  0.00000000000E+00  0.00000000000E+00  0.19747170242E+04  0.19747170242E+04  0.50400001928E-02 0.  1.
        1   -1    0    0  501    0  0.00000000000E+00  0.00000000000E+00 -0.56058045796E+03  0.56058045798E+03  0.50400001928E-02 0. -1.
    10030    2    1    2    0    0  0.00000000000E+00  0.00000000000E+00  0.14141365662E+04  0.25352974822E+04  0.21042697297E+04 0.  0.
        1    1    3    3  502    0 -0.18796241984E+03  0.93036335110E+03  0.12540181005E+04  0.15727260514E+04  0.50400001928E-02 0.  1.
       -1    1    3    3    0  502  0.18796241984E+03 -0.93036335110E+03  0.16011846579E+03  0.96257143083E+03  0.50400001928E-02 0. -1.
</event>
<event>
 5   0  0.3242231E-05  0.2099853E+04  0.7818609E-02  0.8561308E-01
        2   -1    0    0  501    0  0.00000000000E+00  0.00000000000E+00  0.85297212242E+03  0.85297212243E+03  0.25500000920E-02 0.  1.
       -2   -1    0    0    0  501  0.00000000000E+00  0.00000000000E+00 -0.12923582383E+04  0.12923582383E+04  0.25500000920E-02 0. -1.
    10030    2    1    2    0    0  0.00000000000E+00  0.00000000000E+00 -0.43938611587E+03  0.21453303607E+04  0.20998528991E+04 0.  0.
        4    1    3    3  502    0  0.48878330849E+03 -0.50463365802E+03 -0.10168344901E+04  0.12359280904E+04  0.12699999809E+01 0. -1.
       -4    1    3    3    0  502 -0.48878330849E+03  0.50463365802E+03  0.57744837424E+03  0.90940227033E+03  0.12699999809E+01 0.  1.
</event>
<event>
 5   0  0.1466480E-05  0.2107407E+04  0.7818609E-02  0.8557987E-01
       -1   -1    0    0    0  501  0.00000000000E+00  0.00000000000E+00  0.53690079938E+03  0.53690079941E+03  0.50400001928E-02 0.  1.
        1   -1    0    0  501    0  0.00000000000E+00  0.00000000000E+00 -0.20679636706E+04  0.20679636707E+04  0.50400001928E-02 0. -1.
    10030    2    1    2    0    0  0.00000000000E+00  0.00000000000E+00 -0.15310628713E+04  0.26048644701E+04  0.21074072676E+04 0.  0.
        3    1    3    3  502    0  0.90948315183E+03 -0.40786735420E+03 -0.34314168285E+03  0.10541639373E+04  0.10100000352E+00 0. -1.
       -3    1    3    3    0  502 -0.90948315183E+03  0.40786735420E+03 -0.11879211884E+04  0.15507005327E+04  0.10100000352E+00 0.  1.
</event>
<event>
 5   0  0.1435410E-05  0.2101377E+04  0.7818609E-02  0.8560637E-01
        1   -1    0    0  501    0  0.00000000000E+00  0.00000000000E+00  0.30165293502E+04  0.30165293502E+04  0.50400001928E-02 0.  1.
       -1   -1    0    0    0  501  0.00000000000E+00  0.00000000000E+00 -0.36596565140E+03  0.36596565143E+03  0.50400001928E-02 0. -1.
    10030    2    1    2    0    0  0.00000000000E+00  0.00000000000E+00  0.26505636988E+04  0.33824950017E+04  0.21013768141E+04 0.  0.
        2    1    3    3  502    0 -0.68875534180E+03  0.44962959670E+03  0.27296102127E+03  0.86663626409E+03  0.25500000920E-02 0. -1.
       -2    1    3    3    0  502  0.68875534180E+03 -0.44962959670E+03  0.23776026776E+04  0.25158587376E+04  0.25500000920E-02 0.  1.
</event>
<event>
 5   0  0.1435410E-05  0.2155616E+04  0.7818609E-02  0.8537132E-01
        1   -1    0    0  501    0  0.00000000000E+00  0.00000000000E+00  0.70709638267E+03  0.70709638269E+03  0.50400001928E-02 0.  1.
       -1   -1    0    0    0  501  0.00000000000E+00  0.00000000000E+00 -0.16428736560E+04  0.16428736561E+04  0.50400001928E-02 0. -1.
    10030    2    1    2    0    0  0.00000000000E+00  0.00000000000E+00 -0.93577727338E+03  0.23499700387E+04  0.21556159393E+04 0.  0.
        2    1    3    3  502    0  0.14468365377E+03  0.53051703074E+03  0.54266739433E+03  0.77257334956E+03  0.25500000920E-02 0.  1.
       -2    1    3    3    0  502 -0.14468365377E+03 -0.53051703074E+03 -0.14784446677E+04  0.15773966892E+04  0.25500000920E-02 0. -1.
</event>
<event>
 5   0  0.1513292E-05  0.2100153E+04  0.7818609E-02  0.8561176E-01
       -1   -1    0    0    0  501  0.00000000000E+00  0.00000000000E+00  0.87569179994E+03  0.87569179995E+03  0.50400001928E-02 0. -1.
        1   -1    0    0  501    0  0.00000000000E+00  0.00000000000E+00 -0.12591877733E+04  0.12591877734E+04  0.50400001928E-02 0.  1.
    10030    2    1    2    0    0  0.00000000000E+00  0.00000000000E+00 -0.38349597341E+03  0.21348795733E+04  0.21001527637E+04 0.  0.
        1    1    3    3  502    0 -0.59799617805E+02  0.97864486085E+03  0.19041882109E+03  0.99878981042E+03  0.50400001928E-02 0. -1.
       -1    1    3    3    0  502  0.59799617805E+02 -0.97864486085E+03 -0.57391479450E+03  0.11360897629E+04  0.50400001928E-02 0.  1.
</event>
<event>
 5   0  0.1453430E-05  0.2090210E+04  0.7818609E-02  0.8565568E-01
        1   -1    0    0  501    0  0.00000000000E+00  0.00000000000E+00  0.68750379881E+03  0.68750379883E+03  0.50400001928E-02 0.  1.
       -1   -1    0    0    0  501  0.00000000000E+00  0.00000000000E+00 -0.15887097345E+04  0.15887097345E+04  0.50400001928E-02 0. -1.
    10030    2    1    2    0    0  0.00000000000E+00  0.00000000000E+00 -0.90120593566E+03  0.22762135333E+04  0.20902095375E+04 0.  0.
        5    1    3    3  502    0 -0.76293305590E+03 -0.30385100642E+03 -0.11545221184E+04  0.14168047479E+04  0.46999998093E+01 0. -1.
       -5    1    3    3    0  502  0.76293305590E+03  0.30385100642E+03  0.25331618276E+03  0.85940878535E+03  0.46999998093E+01 0.  1.
</event>
<event>
 5   0  0.1435410E-05  0.2123848E+04  0.7818609E-02  0.8550810E-01
       -1   -1    0    0    0  501  0.00000000000E+00  0.00000000000E+00  0.89510659773E+03  0.89510659774E+03  0.50400001928E-02 0. -1.
        1   -1    0    0  501    0  0.00000000000E+00  0.00000000000E+00 -0.12598304248E+04  0.12598304248E+04  0.50400001928E-02 0.  1.
    10030    2    1    2    0    0  0.00000000000E+00  0.00000000000E+00 -0.36472382709E+03  0.21549370226E+04  0.21238479468E+04 0.  0.
        2    1    3    3  502    0 -0.53689599420E+03  0.78149313884E+03 -0.66758142161E+03  0.11595920788E+04  0.25500000920E-02 0.  1.
       -2    1    3    3    0  502  0.53689599420E+03 -0.78149313884E+03  0.30285759451E+03  0.99534494382E+03  0.25500000920E-02 0. -1.
</event>
<event>
 5   0  0.3242231E-05  0.2098710E+04  0.7818609E-02  0.8561812E-01
       -2   -1    0    0    0  501  0.00000000000E+00  0.00000000000E+00  0.61391852885E+03  0.61391852885E+03  0.25500000920E-02 0. -1.
        2   -1    0    0  501    0  0.00000000000E+00  0.00000000000E+00 -0.17936359350E+04  0.17936359350E+04  0.25500000920E-02 0.  1.
    10030    2    1    2    0    0  0.00000000000E+00  0.00000000000E+00 -0.11797174061E+04  0.24075544638E+04  0.20987103988E+04 0.  0.
        4    1    3    3  502    0  0.68603814216E+03 -0.67586609149E+03 -0.10679659041E+04  0.14380528820E+04  0.12699999809E+01 0. -1.
       -4    1    3    3    0  502 -0.68603814216E+03  0.67586609149E+03 -0.11175150203E+03  0.96950158186E+03  0.12699999809E+01 0.  1.
</event>
<event>
 5   0  0.3242231E-05  0.2090466E+04  0.7818609E-02  0.8565455E-01
       -2   -1    0    0    0  501  0.00000000000E+00  0.00000000000E+00  0.22598398428E+04  0.22598398428E+04  0.25500000920E-02 0.  1.
        2   -1    0    0  501    0  0.00000000000E+00  0.00000000000E+00 -0.48344684254E+03  0.48344684255E+03  0.25500000920E-02 0. -1.
    10030    2    1    2    0    0  0.00000000000E+00  0.00000000000E+00  0.17763930002E+04  0.27432866853E+04  0.20904663945E+04 0.  0.
        4    1    3    3  502    0 -0.14149762462E+03 -0.13152035714E+03  0.22362082460E+04  0.22445373943E+04  0.12699999809E+01 0.  1.
       -4    1    3    3    0  502  0.14149762462E+03  0.13152035714E+03 -0.45981524578E+03  0.49874929100E+03  0.12699999809E+01 0. -1.
</event>
<event>
 5   0  0.3130517E-05  0.2103325E+04  0.7818609E-02  0.8559780E-01
        2   -1    0    0  501    0  0.00000000000E+00  0.00000000000E+00  0.58637531479E+03  0.58637531479E+03  0.25500000920E-02 0. -1.
       -2   -1    0    0    0  501  0.00000000000E+00  0.00000000000E+00 -0.18861532433E+04  0.18861532433E+04  0.25500000920E-02 0.  1.
    10030    2    1    2    0    0  0.00000000000E+00  0.00000000000E+00 -0.12997779285E+04  0.24725285581E+04  0.21033247032E+04 0.  0.
        1    1    3    3  502    0  0.54011558246E+03  0.18002940235E+03  0.38955004622E+03  0.68984394370E+03  0.50400001928E-02 0. -1.
       -1    1    3    3    0  502 -0.54011558246E+03 -0.18002940235E+03 -0.16893279747E+04  0.17826846144E+04  0.50400001928E-02 0.  1.
</event>
<event>
 5   0  0.1492552E-05  0.2096387E+04  0.7818609E-02  0.8562837E-01
       -1   -1    0    0    0  501  0.00000000000E+00  0.00000000000E+00  0.75781535713E+03  0.75781535715E+03  0.50400001928E-02 0. -1.
        1   -1    0    0  501    0  0.00000000000E+00  0.00000000000E+00 -0.14498382737E+04  0.14498382737E+04  0.50400001928E-02 0.  1.
    10030    2    1    2    0    0  0.00000000000E+00  0.00000000000E+00 -0.69202291660E+03  0.22076536309E+04  0.20963870914E+04 0.  0.
        4    1    3    3  502    0  0.84210383258E+03 -0.30653339138E+03 -0.91856546366E+03  0.12833026567E+04  0.12699999809E+01 0.  1.
       -4    1    3    3    0  502 -0.84210383258E+03  0.30653339138E+03  0.22654254706E+03  0.92435097414E+03  0.12699999809E+01 0. -1.
</event>
<event>
 5   0  0.1492552E-05  0.2084442E+04  0.7818609E-02  0.8568128E-01
       -1   -1    0    0    0  501  0.00000000000E+00  0.00000000000E+00  0.65957688074E+03  0.65957688076E+03  0.50400001928E-02 0. -1.
        1   -1    0    0  501    0  0.00000000000E+00  0.00000000000E+00 -0.16468510187E+04  0.16468510187E+04  0.50400001928E-02 0.  1.
    10030    2    1    2    0    0  0.00000000000E+00  0.00000000000E+00 -0.98727413798E+03  0.23064278995E+04  0.20844422352E+04 0.  0.
        4    1    3    3  502    0  0.27095578651E+03  0.89504362739E+03 -0.10027494275E+04  0.13711411891E+04  0.12699999809E+01 0. -1.
       -4    1    3    3    0  502 -0.27095578651E+03 -0.89504362739E+03  0.15475289512E+02  0.93528671041E+03  0.12699999809E+01 0.  1.
</event>
<event>
 5   0  0.3108326E-05  0.2098781E+04  0.7818609E-02  0.8561780E-01
       -2   -1    0    0    0  501  0.00000000000E+00  0.00000000000E+00  0.64155669185E+03  0.64155669185E+03  0.25500000920E-02 0. -1.
        2   -1    0    0  501    0  0.00000000000E+00  0.00000000000E+00 -0.17164821404E+04  0.17164821404E+04  0.25500000920E-02 0.  1.
    10030    2    1    2    0    0  0.00000000000E+00  0.00000000000E+00 -0.10749254485E+04  0.23580388322E+04  0.20987811735E+04 0.  0.
        5    1    3    3  502    0 -0.38954454931E+03  0.49534873323E+03  0.40528562542E+03  0.74926220483E+03  0.46999998093E+01 0. -1.
       -5    1    3    3    0  502  0.38954454931E+03 -0.49534873323E+03 -0.14802110740E+04  0.16087766274E+04  0.46999998093E+01 0.  1.
</event>
<event>
 5   0  0.1453430E-05  0.2102531E+04  0.7818609E-02  0.8560129E-01
        1   -1    0    0  501    0  0.00000000000E+00  0.00000000000E+00  0.12029815444E+04  0.12029815444E+04  0.50400001928E-02 0. -1.
       -1   -1    0    0    0  501  0.00000000000E+00  0.00000000000E+00 -0.91868354187E+03  0.91868354188E+03  0.50400001928E-02 0.  1.
    10030    2    1    2    0    0  0.00000000000E+00  0.00000000000E+00  0.28429800256E+03  0.21216650863E+04  0.21025311851E+04 0.  0.
        5    1    3    3  502    0 -0.79362024061E+03 -0.63106333293E+03 -0.13797996244E+03  0.10232959379E+04  0.46999998093E+01 0.  1.
       -5    1    3    3    0  502  0.79362024061E+03  0.63106333293E+03  0.42227796500E+03  0.10983691484E+04  0.46999998093E+01 0. -1.
</event>
<event>
 5   0  0.1453430E-05  0.2073110E+04  0.7818609E-02  0.8573182E-01
       -1   -1    0    0    0  501  0.00000000000E+00  0.00000000000E+00  0.81743683209E+03  0.81743683210E+03  0.50400001928E-02 0.  1.
        1   -1    0    0  501    0  0.00000000000E+00  0.00000000000E+00 -0.13144090500E+04  0.13144090500E+04  0.50400001928E-02 0. -1.
    10030    2    1    2    0    0  0.00000000000E+00  0.00000000000E+00 -0.49697221789E+03  0.21318458821E+04  0.20731100983E+04 0.  0.
        5    1    3    3  502    0 -0.85077507017E+03  0.56991625745E+03 -0.41366558276E+03  0.11044292938E+04  0.46999998093E+01 0. -1.
       -5    1    3    3    0  502  0.85077507017E+03 -0.56991625745E+03 -0.83306635127E+02  0.10274165883E+04  0.46999998093E+01 0.  1.
</event>
<event>
 5   0  0.3279789E-05  0.2059814E+04  0.7818609E-02  0.8579155E-01
        2   -1    0    0  501    0  0.00000000000E+00  0.00000000000E+00  0.25656735703E+04  0.25656735703E+04  0.25500000920E-02 0. -1.
       -2   -1    0    0    0  501  0.00000000000E+00  0.00000000000E+00 -0.41342282464E+03  0.41342282465E+03  0.25500000920E-02 0.  1.
    10030    2    1    2    0    0  0.00000000000E+00  0.00000000000E+00  0.21522507457E+04  0.29790963950E+04  0.20598135979E+04 0.  0.
        2    1    3    3  502    0 -0.40197302724E+03  0.41481731752E+03  0.23093422493E+04  0.23804867876E+04  0.25500000920E-02 0. -1.
       -2    1    3    3    0  502  0.40197302724E+03 -0.41481731752E+03 -0.15709150361E+03  0.59860960738E+03  0.25500000920E-02 0.  1.
</event>
<event>
 5   0  0.1466480E-05  0.2100091E+04  0.7818609E-02  0.8561203E-01
        1   -1    0    0  501    0  0.00000000000E+00  0.00000000000E+00  0.18538449296E+04  0.18538449296E+04  0.50400001928E-02 0. -1.
       -1   -1    0    0    0  501  0.00000000000E+00  0.00000000000E+00 -0.59476146887E+03  0.59476146890E+03  0.50400001928E-02 0.  1.
    10030    2    1    2    0    0  0.00000000000E+00  0.00000000000E+00  0.12590834607E+04  0.24486063985E+04  0.21000909822E+04 0.  0.
        3    1    3    3  502    0 -0.28846167323E+03  0.23618368591E+03  0.17740788003E+04  0.18128288585E+04  0.10100000352E+00 0. -1.
       -3    1    3    3    0  502  0.28846167323E+03 -0.23618368591E+03 -0.51499533955E+03  0.63577754001E+03  0.10100000352E+00 0.  1.
</event>
<event>
 5   0  0.3257130E-05  0.2099410E+04  0.7818609E-02  0.8561503E-01
        2   -1    0    0  501    0  0.00000000000E+00  0.00000000000E+00  0.90468594996E+03  0.90468594997E+03  0.25500000920E-02 0.  1.
       -2   -1    0    0    0  501  0.00000000000E+00  0.00000000000E+00 -0.12179697992E+04  0.12179697992E+04  0.25500000920E-02 0. -1.
    10030    2    1    2    0    0  0.00000000000E+00  0.00000000000E+00 -0.31328384921E+03  0.21226557491E+04  0.20994095978E+04 0.  0.
        3    1    3    3  502    0  0.93596919426E+03  0.18729701992E+03 -0.59824076182E+03  0.11265036731E+04  0.10100000352E+00 0. -1.
       -3    1    3    3    0  502 -0.93596919426E+03 -0.18729701992E+03  0.28495691261E+03  0.99615207600E+03  0.10100000352E+00 0.  1.
</event>
<event>
 5   0  0.3242231E-05  0.2101776E+04  0.7818609E-02  0.8560461E-01
        2   -1    0    0  501    0  0.00000000000E+00  0.00000000000E+00  0.14438976213E+04  0.14438976213E+04  0.25500000920E-02 0. -1.
       -2   -1    0    0    0  501  0.00000000000E+00  0.00000000000E+00 -0.76485030275E+03  0.76485030276E+03  0.25500000920E-02 0.  1.
    10030    2    1    2    0    0  0.00000000000E+00  0.00000000000E+00  0.67904731857E+03  0.22087479241E+04  0.21017759470E+04 0.  0.
        4    1    3    3  502    0 -0.26156724146E+03  0.52249947134E+03 -0.57839702670E+03  0.82217264170E+03  0.12699999809E+01 0.  1.
       -4    1    3    3    0  502  0.26156724146E+03 -0.52249947134E+03  0.12574443453E+04  0.13865752824E+04  0.12699999809E+01 0. -1.
</event>
<event>
 5   0  0.3242231E-05  0.2102061E+04  0.7818609E-02  0.8560336E-01
        2   -1    0    0  501    0  0.00000000000E+00  0.00000000000E+00  0.15016293834E+04  0.15016293834E+04  0.25500000920E-02 0.  1.
       -2   -1    0    0    0  501  0.00000000000E+00  0.00000000000E+00 -0.73564437805E+03  0.73564437806E+03  0.25500000920E-02 0. -1.
    10030    2    1    2    0    0  0.00000000000E+00  0.00000000000E+00  0.76598500539E+03  0.22372737615E+04  0.21020610970E+04 0.  0.
        4    1    3    3  502    0  0.62297445253E+03  0.21868466001E+03 -0.48737680096E+03  0.82064481235E+03  0.12699999809E+01 0. -1.
       -4    1    3    3    0  502 -0.62297445253E+03 -0.21868466001E+03  0.12533618064E+04  0.14166289491E+04  0.12699999809E+01 0.  1.
</event>
<event>
 5   0  0.1435410E-05  0.2111434E+04  0.7818609E-02  0.8556223E-01
       -1   -1    0    0    0  501  0.00000000000E+00  0.00000000000E+00  0.95630396833E+03  0.95630396834E+03  0.50400001928E-02 0.  1.
        1   -1    0    0  501    0  0.00000000000E+00  0.00000000000E+00 -0.11654647543E+04  0.11654647544E+04  0.50400001928E-02 0. -1.
    10030    2    1    2    0    0  0.00000000000E+00  0.00000000000E+00 -0.20916078602E+03  0.21217687227E+04  0.21114341757E+04 0.  0.
        2    1    3    3  502    0  0.57420387589E+01 -0.35772258340E+03  0.89352839438E+03  0.96249229049E+03  0.25500000920E-02 0.  1.
       -2    1    3    3    0  502 -0.57420387589E+01  0.35772258340E+03 -0.11026891804E+04  0.11592764322E+04  0.25500000920E-02 0. -1.
</event>
<event>
 5   0  0.3130517E-05  0.2096195E+04  0.7818609E-02  0.8562922E-01
        2   -1    0    0  501    0  0.00000000000E+00  0.00000000000E+00  0.16491909406E+04  0.16491909406E+04  0.25500000920E-02 0.  1.
       -2   -1    0    0    0  501  0.00000000000E+00  0.00000000000E+00 -0.66608902398E+03  0.66608902398E+03  0.25500000920E-02 0. -1.
    10030    2    1    2    0    0  0.00000000000E+00  0.00000000000E+00  0.98310191659E+03  0.23152799645E+04  0.20961946321E+04 0.  0.
        1    1    3    3  502    0  0.10220407510E+04  0.44254628003E+02  0.23972569318E+03  0.10507112719E+04  0.50400001928E-02 0. -1.
       -1    1    3    3    0  502 -0.10220407510E+04 -0.44254628003E+02  0.74337622341E+03  0.12645686927E+04  0.50400001928E-02 0.  1.
</event>
<event>
 5   0  0.1513292E-05  0.2097364E+04  0.7818609E-02  0.8562405E-01
       -1   -1    0    0    0  501  0.00000000000E+00  0.00000000000E+00  0.92546149813E+03  0.92546149814E+03  0.50400001928E-02 0.  1.
        1   -1    0    0  501    0  0.00000000000E+00  0.00000000000E+00 -0.11883088579E+04  0.11883088579E+04  0.50400001928E-02 0. -1.
    10030    2    1    2    0    0  0.00000000000E+00  0.00000000000E+00 -0.26284735978E+03  0.21137703561E+04  0.20973641514E+04 0.  0.
        1    1    3    3  502    0 -0.93159369054E+03 -0.88111612249E+02  0.34567521780E+03  0.99755792649E+03  0.50400001928E-02 0.  1.
       -1    1    3    3    0  502  0.93159369054E+03  0.88111612249E+02 -0.60852257758E+03  0.11162124296E+04  0.50400001928E-02 0. -1.
</event>
<event>
 5   0  0.1453430E-05  0.2097004E+04  0.7818609E-02  0.8562564E-01
        1   -1    0    0  501    0  0.00000000000E+00  0.00000000000E+00  0.16825551401E+04  0.16825551402E+04  0.50400001928E-02 0. -1.
       -1   -1    0    0    0  501  0.00000000000E+00  0.00000000000E+00 -0.65338528428E+03  0.65338528430E+03  0.50400001928E-02 0.  1.
    10030    2    1    2    0    0  0.00000000000E+00  0.00000000000E+00  0.10291698559E+04  0.23359404244E+04  0.20970043096E+04 0.  0.
        5    1    3    3  502    0 -0.44463567606E+03 -0.35833038272E+03 -0.46494490249E+03  0.73640844642E+03  0.46999998093E+01 0.  1.
       -5    1    3    3    0  502  0.44463567606E+03  0.35833038272E+03  0.14941147584E+04  0.15995319780E+04  0.46999998093E+01 0. -1.
</event>
<event>
 5   0  0.3130517E-05  0.2096096E+04  0.7818609E-02  0.8562965E-01
        2   -1    0    0  501    0  0.00000000000E+00  0.00000000000E+00  0.11086015554E+04  0.11086015554E+04  0.25500000920E-02 0. -1.
       -2   -1    0    0    0  501  0.00000000000E+00  0.00000000000E+00 -0.99080229554E+03  0.99080229554E+03  0.25500000920E-02 0.  1.
    10030    2    1    2    0    0  0.00000000000E+00  0.00000000000E+00  0.11779925987E+03  0.20994038510E+04  0.20960963393E+04 0.  0.
        1    1    3    3  502    0 -0.45789633451E+03 -0.25741561994E+03  0.96723370043E+03  0.11006692899E+04  0.50400001928E-02 0. -1.
       -1    1    3    3    0  502  0.45789633451E+03  0.25741561994E+03 -0.84943444055E+03  0.99873456102E+03  0.50400001928E-02 0.  1.
</event>
<event>
 5   0  0.1453430E-05  0.2103677E+04  0.7818609E-02  0.8559625E-01
       -1   -1    0    0    0  501  0.00000000000E+00  0.00000000000E+00  0.69196731191E+03  0.69196731193E+03  0.50400001928E-02 0.  1.
        1   -1    0    0  501    0  0.00000000000E+00  0.00000000000E+00 -0.15988684369E+04  0.15988684370E+04  0.50400001928E-02 0. -1.
    10030    2    1    2    0    0  0.00000000000E+00  0.00000000000E+00 -0.90690112503E+03  0.22908357489E+04  0.21036774415E+04 0.  0.
        5    1    3    3  502    0  0.46933385693E+03  0.59147171361E+03 -0.12508761595E+04  0.14611044842E+04  0.46999998093E+01 0. -1.
       -5    1    3    3    0  502 -0.46933385693E+03 -0.59147171361E+03  0.34397503449E+03  0.82973126469E+03  0.46999998093E+01 0.  1.
</event>
<event>
 5   0  0.1466480E-05  0.2098138E+04  0.7818609E-02  0.8562064E-01
        1   -1    0    0  501    0  0.00000000000E+00  0.00000000000E+00  0.16076516608E+04  0.16076516608E+04  0.50400001928E-02 0.  1.
       -1   -1    0    0    0  501  0.00000000000E+00  0.00000000000E+00 -0.68456751254E+03  0.68456751256E+03  0.50400001928E-02 0. -1.
    10030    2    1    2    0    0  0.00000000000E+00  0.00000000000E+00  0.92308414823E+03  0.22922191733E+04  0.20981383162E+04 0.  0.
        3    1    3    3  502    0 -0.10471870945E+04  0.61590048989E+02  0.47500882516E+03  0.11515326913E+04  0.10100000352E+00 0.  1.
       -3    1    3    3    0  502  0.10471870945E+04 -0.61590048989E+02  0.44807532306E+03  0.11406864820E+04  0.10100000352E+00 0. -1.
</event>
<event>
 5   0  0.1492552E-05  0.2072786E+04  0.7818609E-02  0.8573327E-01
        1   -1    0    0  501    0  0.00000000000E+00  0.00000000000E+00  0.86825693797E+03  0.86825693799E+03  0.50400001928E-02 0. -1.
       -1   -1    0    0    0  501  0.00000000000E+00  0.00000000000E+00 -0.12370886497E+04  0.12370886497E+04  0.50400001928E-02 0.  1.
    10030    2    1    2    0    0  0.00000000000E+00  0.00000000000E+00 -0.36883171175E+03  0.21053455877E+04  0.20727863402E+04 0.  0.
        4    1    3    3  502    0  0.19342753542E+03  0.46864931818E+03  0.73369806887E+03  0.89183006456E+03  0.12699999809E+01 0. -1.
       -4    1    3    3    0  502 -0.19342753542E+03 -0.46864931818E+03 -0.11025297806E+04  0.12135155232E+04  0.12699999809E+01 0.  1.
</event>
<event>
 5   0  0.3108326E-05  0.2098052E+04  0.7818609E-02  0.8562102E-01
       -2   -1    0    0    0  501  0.00000000000E+00  0.00000000000E+00  0.89707331311E+03  0.89707331312E+03  0.25500000920E-02 0. -1.
        2   -1    0    0  501    0  0.00000000000E+00  0.00000000000E+00 -0.12267172718E+04  0.12267172718E+04  0.25500000920E-02 0.  1.
    10030    2    1    2    0    0  0.00000000000E+00  0.00000000000E+00 -0.32964395868E+03  0.21237905849E+04  0.20980517889E+04 0.  0.
        5    1    3    3  502    0 -0.90365376882E+03  0.34390959849E+03  0.24707194130E+03  0.99796321576E+03  0.46999998093E+01 0. -1.
       -5    1    3    3    0  502  0.90365376882E+03 -0.34390959849E+03 -0.57671589998E+03  0.11258273692E+04  0.46999998093E+01 0.  1.
</event>
<event>
 5   0  0.3130517E-05  0.2116178E+04  0.7818609E-02  0.8554150E-01
       -2   -1    0    0    0  501  0.00000000000E+00  0.00000000000E+00  0.68138036886E+03  0.68138036886E+03  0.25500000920E-02 0.  1.
        2   -1    0    0  501    0  0.00000000000E+00  0.00000000000E+00 -0.16430650395E+04  0.16430650395E+04  0.25500000920E-02 0. -1.
    10030    2    1    2    0    0  0.00000000000E+00  0.00000000000E+00 -0.96168467066E+03  0.23244454084E+04  0.21161779346E+04 0.  0.
        1    1    3    3  502    0  0.43472330574E+03  0.18335161843E+03 -0.15211248746E+04  0.15926151615E+04  0.50400001928E-02 0. -1.
       -1    1    3    3    0  502 -0.43472330574E+03 -0.18335161843E+03  0.55944020390E+03  0.73183024691E+03  0.50400001928E-02 0.  1.
</event>
<event>
 5   0  0.1435410E-05  0.2111136E+04  0.7818609E-02  0.8556354E-01
       -1   -1    0    0    0  501  0.00000000000E+00  0.00000000000E+00  0.64559235567E+03  0.64559235569E+03  0.50400001928E-02 0.  1.
        1   -1    0    0  501    0  0.00000000000E+00  0.00000000000E+00 -0.17258934879E+04  0.17258934879E+04  0.50400001928E-02 0. -1.
    10030    2    1    2    0    0  0.00000000000E+00  0.00000000000E+00 -0.10803011322E+04  0.23714858436E+04  0.21111358483E+04 0.  0.
        2    1    3    3  502    0 -0.83731425698E+03 -0.65450689383E+02  0.17811249846E+03  0.85854703994E+03  0.25500000920E-02 0.  1.
       -2    1    3    3    0  502  0.83731425698E+03  0.65450689383E+02 -0.12584136307E+04  0.15129388036E+04  0.25500000920E-02 0. -1.
</event>
<event>
 5   0  0.1453430E-05  0.2113311E+04  0.7818609E-02  0.8555402E-01
       -1   -1    0    0    0  501  0.00000000000E+00  0.00000000000E+00  0.61454377289E+03  0.61454377291E+03  0.50400001928E-02 0. -1.
        1   -1    0    0  501    0  0.00000000000E+00  0.00000000000E+00 -0.18168293938E+04  0.18168293938E+04  0.50400001928E-02 0.  1.
    10030    2    1    2    0    0  0.00000000000E+00  0.00000000000E+00 -0.12022856209E+04  0.24313731667E+04  0.21133113262E+04 0.  0.
        5    1    3    3  502    0 -0.62807104347E+03  0.58321846517E+03 -0.13121152767E+04  0.15672541604E+04  0.46999998093E+01 0.  1.
       -5    1    3    3    0  502  0.62807104347E+03 -0.58321846517E+03  0.10982965586E+03  0.86411900631E+03  0.46999998093E+01 0. -1.
</event>
<event>
 5   0  0.3257130E-05  0.2104923E+04  0.7818609E-02  0.8559078E-01
        2   -1    0    0  501    0  0.00000000000E+00  0.00000000000E+00  0.22080639709E+04  0.22080639709E+04  0.25500000920E-02 0.  1.
       -2   -1    0    0    0  501  0.00000000000E+00  0.00000000000E+00 -0.50164973100E+03  0.50164973101E+03  0.25500000920E-02 0. -1.
    10030    2    1    2    0    0  0.00000000000E+00  0.00000000000E+00  0.17064142399E+04  0.27097137019E+04  0.21049225136E+04 0.  0.
        3    1    3    3  502    0 -0.49478891059E+03  0.38353143890E+03 -0.23590274249E+03  0.66900115455E+03  0.10100000352E+00 0. -1.
       -3    1    3    3    0  502  0.49478891059E+03 -0.38353143890E+03  0.19423169823E+04  0.20407125473E+04  0.10100000352E+00 0.  1.
</event>
<event>
 5   0  0.3130517E-05  0.2107373E+04  0.7818609E-02  0.8558002E-01
        2   -1    0    0  501    0  0.00000000000E+00  0.00000000000E+00  0.15308724217E+04  0.15308724217E+04  0.25500000920E-02 0. -1.
       -2   -1    0    0    0  501  0.00000000000E+00  0.00000000000E+00 -0.72524364933E+03  0.72524364934E+03  0.25500000920E-02 0.  1.
    10030    2    1    2    0    0  0.00000000000E+00  0.00000000000E+00  0.80562877234E+03  0.22561160710E+04  0.21073732482E+04 0.  0.
        1    1    3    3  502    0  0.76853414781E+02 -0.13287122224E+03  0.15188387342E+04  0.15265753534E+04  0.50400001928E-02 0. -1.
       -1    1    3    3    0  502 -0.76853414781E+02  0.13287122224E+03 -0.71320996182E+03  0.72954071766E+03  0.50400001928E-02 0.  1.
</event>
<event>
 5   0  0.1129987E-05  0.2100124E+04  0.7818609E-02  0.8561189E-01
        3   -1    0    0  501    0  0.00000000000E+00  0.00000000000E+00  0.56673108975E+03  0.56673109875E+03  0.10100000352E+00 0. -1.
       -3   -1    0    0    0  501  0.00000000000E+00  0.00000000000E+00 -0.19455959916E+04  0.19455959942E+04  0.10100000352E+00 0.  1.
    10030    2    1    2    0    0  0.00000000000E+00  0.00000000000E+00 -0.13788649018E+04  0.25123270929E+04  0.21001235688E+04 0.  0.
        2    1    3    3  502    0  0.61338365471E+03 -0.71729228647E+03 -0.13877897591E+03  0.95394304665E+03  0.25500000920E-02 0. -1.
       -2    1    3    3    0  502 -0.61338365471E+03  0.71729228647E+03 -0.12400859259E+04  0.15583840463E+04  0.25500000920E-02 0.  1.
</event>
<event>
 5   0  0.1435410E-05  0.2120131E+04  0.7818609E-02  0.8552427E-01
        1   -1    0    0  501    0  0.00000000000E+00  0.00000000000E+00  0.13507829604E+04  0.13507829604E+04  0.50400001928E-02 0.  1.
       -1   -1    0    0    0  501  0.00000000000E+00  0.00000000000E+00 -0.83191640697E+03  0.83191640699E+03  0.50400001928E-02 0. -1.
    10030    2    1    2    0    0  0.00000000000E+00  0.00000000000E+00  0.51886655346E+03  0.21826993674E+04  0.21201306630E+04 0.  0.
        2    1    3    3  502    0  0.18273602198E+02 -0.49371846069E+03  0.12250069708E+04  0.13208837653E+04  0.25500000920E-02 0.  1.
       -2    1    3    3    0  502 -0.18273602198E+02  0.49371846069E+03 -0.70614041736E+03  0.86181560209E+03  0.25500000920E-02 0. -1.
</event>
<event>
 5   0  0.1453430E-05  0.2096395E+04  0.7818609E-02  0.8562833E-01
        1   -1    0    0  501    0  0.00000000000E+00  0.00000000000E+00  0.23795817867E+04  0.23795817867E+04  0.50400001928E-02 0.  1.
       -1   -1    0    0    0  501  0.00000000000E+00  0.00000000000E+00 -0.46172745126E+03  0.46172745129E+03  0.50400001928E-02 0. -1.
    10030    2    1    2    0    0  0.00000000000E+00  0.00000000000E+00  0.19178543354E+04  0.28413092380E+04  0.20963952237E+04 0.  0.
        5    1    3    3  502    0 -0.79440364336E+03 -0.50841767025E+03  0.15787306271E+04  0.18390155407E+04  0.46999998093E+01 0.  1.
       -5    1    3    3    0  502  0.79440364336E+03  0.50841767025E+03  0.33912370830E+03  0.10022936972E+04  0.46999998093E+01 0. -1.
</event>
<event>
 5   0  0.1435410E-05  0.2103852E+04  0.7818609E-02  0.8559549E-01
       -1   -1    0    0    0  501  0.00000000000E+00  0.00000000000E+00  0.11283220957E+04  0.11283220958E+04  0.50400001928E-02 0.  1.
        1   -1    0    0  501    0  0.00000000000E+00  0.00000000000E+00 -0.98070225391E+03  0.98070225393E+03  0.50400001928E-02 0. -1.
    10030    2    1    2    0    0  0.00000000000E+00  0.00000000000E+00  0.14761984183E+03  0.21090243497E+04  0.21038517272E+04 0.  0.
        2    1    3    3  502    0 -0.74234589305E+03 -0.51755017709E+03  0.61142355859E+03  0.10921421056E+04  0.25500000920E-02 0.  1.
       -2    1    3    3    0  502  0.74234589305E+03  0.51755017709E+03 -0.46380371676E+03  0.10168822441E+04  0.25500000920E-02 0. -1.
</event>
<event>
 5   0  0.1453430E-05  0.2098573E+04  0.7818609E-02  0.8561872E-01
        1   -1    0    0  501    0  0.00000000000E+00  0.00000000000E+00  0.11569686367E+04  0.11569686367E+04  0.50400001928E-02 0. -1.
       -1   -1    0    0    0  501  0.00000000000E+00  0.00000000000E+00 -0.95162665763E+03  0.95162665764E+03  0.50400001928E-02 0.  1.
    10030    2    1    2    0    0  0.00000000000E+00  0.00000000000E+00  0.20534197907E+03  0.21085952943E+04  0.20985730359E+04 0.  0.
        5    1    3    3  502    0 -0.11993860540E+03 -0.10192644738E+04 -0.11676331607E+03  0.10329284092E+04  0.46999998093E+01 0.  1.
       -5    1    3    3    0  502  0.11993860540E+03  0.10192644738E+04  0.32210529514E+03  0.10756668851E+04  0.46999998093E+01 0. -1.
</event>
<event>
 5   0  0.1435410E-05  0.2100467E+04  0.7818609E-02  0.8561037E-01
        1   -1    0    0  501    0  0.00000000000E+00  0.00000000000E+00  0.60871529103E+03  0.60871529106E+03  0.50400001928E-02 0.  1.
       -1   -1    0    0    0  501  0.00000000000E+00  0.00000000000E+00 -0.18119979676E+04  0.18119979676E+04  0.50400001928E-02 0. -1.
    10030    2    1    2    0    0  0.00000000000E+00  0.00000000000E+00 -0.12032826766E+04  0.24207132587E+04  0.21004674435E+04 0.  0.
        2    1    3    3  502    0 -0.10440799633E+04 -0.11223841523E+03 -0.62128192784E+03  0.12201195292E+04  0.25500000920E-02 0. -1.
       -2    1    3    3    0  502  0.10440799633E+04  0.11223841523E+03 -0.58200074876E+03  0.12005937295E+04  0.25500000920E-02 0.  1.
</event>
<event>
 5   0  0.3257130E-05  0.2085329E+04  0.7818609E-02  0.8567734E-01
        2   -1    0    0  501    0  0.00000000000E+00  0.00000000000E+00  0.12017330629E+04  0.12017330630E+04  0.25500000920E-02 0.  1.
       -2   -1    0    0    0  501  0.00000000000E+00  0.00000000000E+00 -0.90465085244E+03  0.90465085244E+03  0.25500000920E-02 0. -1.
    10030    2    1    2    0    0  0.00000000000E+00  0.00000000000E+00  0.29708221051E+03  0.21063839154E+04  0.20853285974E+04 0.  0.
        3    1    3    3  502    0  0.44028546604E+03 -0.24578086131E+03  0.10703834930E+04  0.11832076554E+04  0.10100000352E+00 0.  1.
       -3    1    3    3    0  502 -0.44028546604E+03  0.24578086131E+03 -0.77330128249E+03  0.92317626004E+03  0.10100000352E+00 0. -1.
</event>
<event>
 5   0  0.3279789E-05  0.2096162E+04  0.7818609E-02  0.8562936E-01
       -2   -1    0    0    0  501  0.00000000000E+00  0.00000000000E+00  0.80215569130E+03  0.80215569130E+03  0.25500000920E-02 0. -1.
        2   -1    0    0  501    0  0.00000000000E+00  0.00000000000E+00 -0.13694024193E+04  0.13694024193E+04  0.25500000920E-02 0.  1.
    10030    2    1    2    0    0  0.00000000000E+00  0.00000000000E+00 -0.56724672796E+03  0.21715581106E+04  0.20961621543E+04 0.  0.
        2    1    3    3  502    0 -0.21265827121E+03 -0.96796130891E+03 -0.63691949399E+03  0.11780658206E+04  0.25500000920E-02 0.  1.
       -2    1    3    3    0  502  0.21265827121E+03  0.96796130891E+03  0.69672766031E+02  0.99349228995E+03  0.25500000920E-02 0. -1.
</event>
<event>
 5   0  0.3130517E-05  0.2115779E+04  0.7818609E-02  0.8554324E-01
        2   -1    0    0  501    0  0.00000000000E+00  0.00000000000E+00  0.61098874590E+03  0.61098874590E+03  0.25500000920E-02 0.  1.
       -2   -1    0    0    0  501  0.00000000000E+00  0.00000000000E+00 -0.18316715130E+04  0.18316715130E+04  0.25500000920E-02 0. -1.
    10030    2    1    2    0    0  0.00000000000E+00  0.00000000000E+00 -0.12206827671E+04  0.24426602589E+04  0.21157794598E+04 0.  0.
        1    1    3    3  502    0  0.96711343039E+03 -0.18031204643E+02 -0.11579463119E+03  0.97418781978E+03  0.50400001928E-02 0. -1.
       -1    1    3    3    0  502 -0.96711343039E+03  0.18031204643E+02 -0.11048881359E+04  0.14684724392E+04  0.50400001928E-02 0.  1.
</event>
<event>
 5   0  0.1435410E-05  0.2095239E+04  0.7818609E-02  0.8563344E-01
        1   -1    0    0  501    0  0.00000000000E+00  0.00000000000E+00  0.15532587303E+04  0.15532587303E+04  0.50400001928E-02 0. -1.
       -1   -1    0    0    0  501  0.00000000000E+00  0.00000000000E+00 -0.70658330089E+03  0.70658330091E+03  0.50400001928E-02 0.  1.
    10030    2    1    2    0    0  0.00000000000E+00  0.00000000000E+00  0.84667542940E+03  0.22598420312E+04  0.20952390611E+04 0.  0.
        2    1    3    3  502    0  0.73658513333E+03  0.14446256625E+03 -0.36488235806E+03  0.83460543188E+03  0.25500000920E-02 0.  1.
       -2    1    3    3    0  502 -0.73658513333E+03 -0.14446256625E+03  0.12115577875E+04  0.14252365993E+04  0.25500000920E-02 0. -1.
</event>
<event>
 5   0  0.3242231E-05  0.2097995E+04  0.7818609E-02  0.8562127E-01
       -2   -1    0    0    0  501  0.00000000000E+00  0.00000000000E+00  0.10222773315E+04  0.10222773315E+04  0.25500000920E-02 0. -1.
        2   -1    0    0  501    0  0.00000000000E+00  0.00000000000E+00 -0.10764160280E+04  0.10764160280E+04  0.25500000920E-02 0.  1.
    10030    2    1    2    0    0  0.00000000000E+00  0.00000000000E+00 -0.54138696559E+02  0.20986933595E+04  0.20979949520E+04 0.  0.
        4    1    3    3  502    0 -0.59424855180E+03  0.24803077950E+03 -0.85544131608E+03  0.10707156798E+04  0.12699999809E+01 0.  1.
       -4    1    3    3    0  502  0.59424855180E+03 -0.24803077950E+03  0.80130261952E+03  0.10279776796E+04  0.12699999809E+01 0. -1.
</event>
<event>
 5   0  0.1513292E-05  0.2103535E+04  0.7818609E-02  0.8559688E-01
        1   -1    0    0  501    0  0.00000000000E+00  0.00000000000E+00  0.17078506537E+04  0.17078506537E+04  0.50400001928E-02 0.  1.
       -1   -1    0    0    0  501  0.00000000000E+00  0.00000000000E+00 -0.64772313992E+03  0.64772313994E+03  0.50400001928E-02 0. -1.
    10030    2    1    2    0    0  0.00000000000E+00  0.00000000000E+00  0.10601275138E+04  0.23555737937E+04  0.21035345378E+04 0.  0.
        1    1    3    3  502    0 -0.15885293671E+03  0.10374135879E+04  0.45285986410E+03  0.11430412348E+04  0.50400001928E-02 0. -1.
       -1    1    3    3    0  502  0.15885293671E+03 -0.10374135879E+04  0.60726764968E+03  0.12125325589E+04  0.50400001928E-02 0.  1.
</event>
<event>
 5   0  0.1492552E-05  0.2107072E+04  0.7818609E-02  0.8558135E-01
       -1   -1    0    0    0  501  0.00000000000E+00  0.00000000000E+00  0.78902262798E+03  0.78902262800E+03  0.50400001928E-02 0.  1.
        1   -1    0    0  501    0  0.00000000000E+00  0.00000000000E+00 -0.14067251650E+04  0.14067251650E+04  0.50400001928E-02 0. -1.
    10030    2    1    2    0    0  0.00000000000E+00  0.00000000000E+00 -0.61770253706E+03  0.21957477930E+04  0.21070718892E+04 0.  0.
        4    1    3    3  502    0 -0.19994638682E+02 -0.99380855379E+02  0.78392768575E+03  0.79045592500E+03  0.12699999809E+01 0.  1.
       -4    1    3    3    0  502  0.19994638682E+02  0.99380855379E+02 -0.14016302228E+04  0.14052918680E+04  0.12699999809E+01 0. -1.
</event>
<event>
 5   0  0.3257130E-05  0.2098975E+04  0.7818609E-02  0.8561695E-01
        2   -1    0    0  501    0  0.00000000000E+00  0.00000000000E+00  0.21211736075E+04  0.21211736075E+04  0.25500000920E-02 0. -1.
       -2   -1    0    0    0  501  0.00000000000E+00  0.00000000000E+00 -0.51925236507E+03  0.51925236508E+03  0.25500000920E-02 0.  1.
    10030    2    1    2    0    0  0.00000000000E+00  0.00000000000E+00  0.16019212424E+04  0.26404259726E+04  0.20989753809E+04 0.  0.
        3    1    3    3  502    0 -0.61006223042E+02 -0.62438405129E+03 -0.25740667208E+03  0.67811164847E+03  0.10100000352E+00 0.  1.
       -3    1    3    3    0  502  0.61006223042E+02  0.62438405129E+03  0.18593279145E+04  0.19623143241E+04  0.10100000352E+00 0. -1.
</event>
<event>
 5   0  0.1453430E-05  0.2107424E+04  0.7818609E-02  0.8557980E-01
       -1   -1    0    0    0  501  0.00000000000E+00  0.00000000000E+00  0.54050065594E+03  0.54050065597E+03  0.50400001928E-02 0.  1.
        1   -1    0    0  501    0  0.00000000000E+00  0.00000000000E+00 -0.20542232855E+04  0.20542232855E+04  0.50400001928E-02 0. -1.
    10030    2    1    2    0    0  0.00000000000E+00  0.00000000000E+00 -0.15137226295E+04  0.25947239414E+04  0.21074240516E+04 0.  0.
        5    1    3    3  502    0  0.93055191501E+03  0.43813939310E+03 -0.47503613468E+03  0.11329494312E+04  0.46999998093E+01 0. -1.
       -5    1    3    3    0  502 -0.93055191501E+03 -0.43813939310E+03 -0.10386864948E+04  0.14617745103E+04  0.46999998093E+01 0.  1.
</event>
<event>
 5   0  0.3257130E-05  0.2062350E+04  0.7818609E-02  0.8578012E-01
        2   -1    0    0  501    0  0.00000000000E+00  0.00000000000E+00  0.81561157789E+03  0.81561157789E+03  0.25500000920E-02 0. -1.
       -2   -1    0    0    0  501  0.00000000000E+00  0.00000000000E+00 -0.13037107400E+04  0.13037107400E+04  0.25500000920E-02 0.  1.
    10030    2    1    2    0    0  0.00000000000E+00  0.00000000000E+00 -0.48809916215E+03  0.21193223179E+04  0.20623497025E+04 0.  0.
        3    1    3    3  502    0  0.27019303008E+03 -0.95639531703E+03  0.38547858706E+02  0.99457640408E+03  0.10100000352E+00 0.  1.
       -3    1    3    3    0  502 -0.27019303008E+03  0.95639531703E+03 -0.52664702086E+03  0.11247459139E+04  0.10100000352E+00 0. -1.
</event>
<event>
 5   0  0.1492552E-05  0.2101049E+04  0.7818609E-02  0.8560782E-01
       -1   -1    0    0    0  501  0.00000000000E+00  0.00000000000E+00  0.63014908568E+03  0.63014908570E+03  0.50400001928E-02 0. -1.
        1   -1    0    0  501    0  0.00000000000E+00  0.00000000000E+00 -0.17513339034E+04  0.17513339034E+04  0.50400001928E-02 0.  1.
    10030    2    1    2    0    0  0.00000000000E+00  0.00000000000E+00 -0.11211848177E+04  0.23814829891E+04  0.21010487457E+04 0.  0.
        4    1    3    3  502    0 -0.10231846286E+04  0.15094546318E+03 -0.35187156374E+03  0.10924772433E+04  0.12699999809E+01 0. -1.
       -4    1    3    3    0  502  0.10231846286E+04 -0.15094546318E+03 -0.76931325399E+03  0.12890057458E+04  0.12699999809E+01 0.  1.
</event>
<event>
 5   0  0.1453430E-05  0.2102934E+04  0.7818609E-02  0.8559952E-01
       -1   -1    0    0    0  501  0.00000000000E+00  0.00000000000E+00  0.50427764793E+03  0.50427764796E+03  0.50400001928E-02 0.  1.
        1   -1    0    0  501    0  0.00000000000E+00  0.00000000000E+00 -0.21924081436E+04  0.21924081436E+04  0.50400001928E-02 0. -1.
    10030    2    1    2    0    0  0.00000000000E+00  0.00000000000E+00 -0.16881304956E+04  0.26966857915E+04  0.21029335909E+04 0.  0.
        5    1    3    3  502    0  0.66717524739E+02 -0.43545822142E+03 -0.20683420182E+04  0.21147425103E+04  0.46999998093E+01 0. -1.
       -5    1    3    3    0  502 -0.66717524739E+02  0.43545822142E+03  0.38021152254E+03  0.58194328124E+03  0.46999998093E+01 0.  1.
</event>
<event>
 5   0  0.3108326E-05  0.2089548E+04  0.7818609E-02  0.8565862E-01
       -2   -1    0    0    0  501  0.00000000000E+00  0.00000000000E+00  0.75238983487E+03  0.75238983488E+03  0.25500000920E-02 0. -1.
        2   -1    0    0  501    0  0.00000000000E+00  0.00000000000E+00 -0.14507808264E+04  0.14507808264E+04  0.25500000920E-02 0.  1.
    10030    2    1    2    0    0  0.00000000000E+00  0.00000000000E+00 -0.69839099153E+03  0.22031706613E+04  0.20895480338E+04 0.  0.
        5    1    3    3  502    0  0.25000790728E+03  0.95769215704E+03 -0.70182488283E+03  0.12133665883E+04  0.46999998093E+01 0. -1.
       -5    1    3    3    0  502 -0.25000790728E+03 -0.95769215704E+03  0.34338912960E+01  0.98980407302E+03  0.46999998093E+01 0.  1.
</event>
<event>
 5   0  0.1513292E-05  0.2129801E+04  0.7818609E-02  0.8548228E-01
       -1   -1    0    0    0  501  0.00000000000E+00  0.00000000000E+00  0.94611157773E+03  0.94611157774E+03  0.50400001928E-02 0. -1.
        1   -1    0    0  501    0  0.00000000000E+00  0.00000000000E+00 -0.11986044278E+04  0.11986044278E+04  0.50400001928E-02 0.  1.
    10030    2    1    2    0    0  0.00000000000E+00  0.00000000000E+00 -0.25249285004E+03  0.21447160055E+04  0.21298014238E+04 0.  0.
        1    1    3    3  502    0 -0.25669204133E+03  0.89379272038E+02  0.91059197994E+03  0.95029322438E+03  0.50400001928E-02 0. -1.
       -1    1    3    3    0  502  0.25669204133E+03 -0.89379272038E+02 -0.11630848300E+04  0.11944227811E+04  0.50400001928E-02 0.  1.
</event>
<event>
 5   0  0.3108326E-05  0.2103798E+04  0.7818609E-02  0.8559572E-01
       -2   -1    0    0    0  501  0.00000000000E+00  0.00000000000E+00  0.80474214120E+03  0.80474214121E+03  0.25500000920E-02 0. -1.
        2   -1    0    0  501    0  0.00000000000E+00  0.00000000000E+00 -0.13749634722E+04  0.13749634722E+04  0.25500000920E-02 0.  1.
    10030    2    1    2    0    0  0.00000000000E+00  0.00000000000E+00 -0.57022133103E+03  0.21797056134E+04  0.21037975651E+04 0.  0.
        5    1    3    3  502    0  0.76081529436E+03  0.54027605775E+03 -0.78815016206E+03  0.12214503259E+04  0.46999998093E+01 0.  1.
       -5    1    3    3    0  502 -0.76081529436E+03 -0.54027605775E+03  0.21792883103E+03  0.95825528754E+03  0.46999998093E+01 0. -1.
</event>
<event>
 5   0  0.1435410E-05  0.2104748E+04  0.7818609E-02  0.8559155E-01
       -1   -1    0    0    0  501  0.00000000000E+00  0.00000000000E+00  0.86359803247E+03  0.86359803248E+03  0.50400001928E-02 0.  1.
        1   -1    0    0  501    0  0.00000000000E+00  0.00000000000E+00 -0.12824148689E+04  0.12824148689E+04  0.50400001928E-02 0. -1.
    10030    2    1    2    0    0  0.00000000000E+00  0.00000000000E+00 -0.41881683642E+03  0.21460129014E+04  0.21047479256E+04 0.  0.
        2    1    3    3  502    0  0.55442483129E+03  0.35998651319E+03 -0.10443115504E+04  0.12359465189E+04  0.25500000920E-02 0. -1.
       -2    1    3    3    0  502 -0.55442483129E+03 -0.35998651319E+03  0.62549471402E+03  0.91006638247E+03  0.25500000920E-02 0.  1.
</event>
<event>
 5   0  0.1466480E-05  0.2088977E+04  0.7818609E-02  0.8566115E-01
        1   -1    0    0  501    0  0.00000000000E+00  0.00000000000E+00  0.81574399894E+03  0.81574399896E+03  0.50400001928E-02 0.  1.
       -1   -1    0    0    0  501  0.00000000000E+00  0.00000000000E+00 -0.13373760174E+04  0.13373760174E+04  0.50400001928E-02 0. -1.
    10030    2    1    2    0    0  0.00000000000E+00  0.00000000000E+00 -0.52163201843E+03  0.21531200163E+04  0.20889772239E+04 0.  0.
        3    1    3    3  502    0  0.93591238740E+03 -0.52868319756E+01  0.21709851722E+03  0.96077662537E+03  0.10100000352E+00 0.  1.
       -3    1    3    3    0  502 -0.93591238740E+03  0.52868319756E+01 -0.73873053565E+03  0.11923433910E+04  0.10100000352E+00 0. -1.
</event>
<event>
 5   0  0.1453430E-05  0.2095668E+04  0.7818609E-02  0.8563154E-01
        1   -1    0    0  501    0  0.00000000000E+00  0.00000000000E+00  0.13168257446E+04  0.13168257447E+04  0.50400001928E-02 0. -1.
       -1   -1    0    0    0  501  0.00000000000E+00  0.00000000000E+00 -0.83378987432E+03  0.83378987434E+03  0.50400001928E-02 0.  1.
    10030    2    1    2    0    0  0.00000000000E+00  0.00000000000E+00  0.48303587032E+03  0.21506156190E+04  0.20956678860E+04 0.  0.
        5    1    3    3  502    0 -0.91467499264E+03  0.45091257261E+03 -0.55888414000E+01  0.10198067540E+04  0.46999998093E+01 0. -1.
       -5    1    3    3    0  502  0.91467499264E+03 -0.45091257261E+03  0.48862471172E+03  0.11308088650E+04  0.46999998093E+01 0.  1.
</event>
<event>
 5   0  0.3279789E-05  0.2097853E+04  0.7818609E-02  0.8562190E-01
        2   -1    0    0  501    0  0.00000000000E+00  0.00000000000E+00  0.77491342732E+03  0.77491342732E+03  0.25500000920E-02 0. -1.
       -2   -1    0    0    0  501  0.00000000000E+00  0.00000000000E+00 -0.14198315947E+04  0.14198315947E+04  0.25500000920E-02 0.  1.
    10030    2    1    2    0    0  0.00000000000E+00  0.00000000000E+00 -0.64491816733E+03  0.21947450220E+04  0.20978527758E+04 0.  0.
        2    1    3    3  502    0  0.40585948070E+03 -0.89770067913E+03  0.54252486535E+02  0.98667713041E+03  0.25500000920E-02 0.  1.
       -2    1    3    3    0  502 -0.40585948070E+03  0.89770067913E+03 -0.69917065387E+03  0.12080678916E+04  0.25500000920E-02 0. -1.
</event>
<event>
 5   0  0.3130517E-05  0.2099055E+04  0.7818609E-02  0.8561660E-01
       -2   -1    0    0    0  501  0.00000000000E+00  0.00000000000E+00  0.85987167994E+03  0.85987167994E+03  0.25500000920E-02 0. -1.
        2   -1    0    0  501    0  0.00000000000E+00  0.00000000000E+00 -0.12810147941E+04  0.12810147941E+04  0.25500000920E-02 0.  1.
    10030    2    1    2    0    0  0.00000000000E+00  0.00000000000E+00 -0.42114311415E+03  0.21408864740E+04  0.20990553523E+04 0.  0.
        1    1    3    3  502    0  0.47161130463E+03 -0.74325122312E+03 -0.79351112629E+03  0.11851158217E+04  0.50400001928E-02 0.  1.
       -1    1    3    3    0  502 -0.47161130463E+03  0.74325122312E+03  0.37236801214E+03  0.95577065231E+03  0.50400001928E-02 0. -1.
</event>
<event>
 5   0  0.1513292E-05  0.2094709E+04  0.7818609E-02  0.8563577E-01
       -1   -1    0    0    0  501  0.00000000000E+00  0.00000000000E+00  0.10542201883E+04  0.10542201883E+04  0.50400001928E-02 0. -1.
        1   -1    0    0  501    0  0.00000000000E+00  0.00000000000E+00 -0.10405340042E+04  0.10405340042E+04  0.50400001928E-02 0.  1.
    10030    2    1    2    0    0  0.00000000000E+00  0.00000000000E+00  0.13686184170E+02  0.20947541925E+04  0.20947094823E+04 0.  0.
        1    1    3    3  502    0  0.83493422964E+03 -0.57094132174E+03 -0.26493981071E+03  0.10456013887E+04  0.50400001928E-02 0.  1.
       -1    1    3    3    0  502 -0.83493422964E+03  0.57094132174E+03  0.27862599488E+03  0.10491528038E+04  0.50400001928E-02 0. -1.
</event>
<event>
 5   0  0.1466480E-05  0.2107068E+04  0.7818609E-02  0.8558136E-01
       -1   -1    0    0    0  501  0.00000000000E+00  0.00000000000E+00  0.10856189500E+04  0.10856189500E+04  0.50400001928E-02 0.  1.
        1   -1    0    0  501    0  0.00000000000E+00  0.00000000000E+00 -0.10223972803E+04  0.10223972803E+04  0.50400001928E-02 0. -1.
    10030    2    1    2    0    0  0.00000000000E+00  0.00000000000E+00  0.63221669672E+02  0.21080162303E+04  0.21070679741E+04 0.  0.
        3    1    3    3  502    0  0.28490662723E+03 -0.22235326150E+03 -0.95844105780E+03  0.10243153961E+04  0.10100000352E+00 0. -1.
       -3    1    3    3    0  502 -0.28490662723E+03  0.22235326150E+03  0.10216627275E+04  0.10837008342E+04  0.10100000352E+00 0.  1.
</event>
<event>
 5   0  0.1466480E-05  0.2076535E+04  0.7818609E-02  0.8571651E-01
        1   -1    0    0  501    0  0.00000000000E+00  0.00000000000E+00  0.84616536883E+03  0.84616536885E+03  0.50400001928E-02 0. -1.
       -1   -1    0    0    0  501  0.00000000000E+00  0.00000000000E+00 -0.12739824859E+04  0.12739824860E+04  0.50400001928E-02 0.  1.
    10030    2    1    2    0    0  0.00000000000E+00  0.00000000000E+00 -0.42781711711E+03  0.21201478548E+04  0.20765354417E+04 0.  0.
        3    1    3    3  502    0  0.45663680458E+03 -0.86410821590E+03  0.14387913662E+03  0.98787721718E+03  0.10100000352E+00 0.  1.
       -3    1    3    3    0  502 -0.45663680458E+03  0.86410821590E+03 -0.57169625374E+03  0.11322706376E+04  0.10100000352E+00 0. -1.
</event>
<event>
 5   0  0.1435410E-05  0.2084377E+04  0.7818609E-02  0.8568157E-01
       -1   -1    0    0    0  501  0.00000000000E+00  0.00000000000E+00  0.88131723267E+03  0.88131723268E+03  0.50400001928E-02 0. -1.
        1   -1    0    0  501    0  0.00000000000E+00  0.00000000000E+00 -0.12324244809E+04  0.12324244809E+04  0.50400001928E-02 0.  1.
    10030    2    1    2    0    0  0.00000000000E+00  0.00000000000E+00 -0.35110724819E+03  0.21137417136E+04  0.20843770609E+04 0.  0.
        2    1    3    3  502    0 -0.61518807048E+03 -0.16536495394E+03 -0.10120102474E+04  0.11958121387E+04  0.25500000920E-02 0.  1.
       -2    1    3    3    0  502  0.61518807048E+03  0.16536495394E+03  0.66090299924E+03  0.91792957489E+03  0.25500000920E-02 0. -1.
</event>
<event>
 5   0  0.3130517E-05  0.2058820E+04  0.7818609E-02  0.8579604E-01
       -2   -1    0    0    0  501  0.00000000000E+00  0.00000000000E+00  0.98696264443E+03  0.98696264443E+03  0.25500000920E-02 0.  1.
        2   -1    0    0  501    0  0.00000000000E+00  0.00000000000E+00 -0.10736828667E+04  0.10736828667E+04  0.25500000920E-02 0. -1.
    10030    2    1    2    0    0  0.00000000000E+00  0.00000000000E+00 -0.86720222291E+02  0.20606455112E+04  0.20588199352E+04 0.  0.
        1    1    3    3  502    0  0.33819642483E+03 -0.67366613638E+02  0.92743282166E+03  0.98946789797E+03  0.50400001928E-02 0.  1.
       -1    1    3    3    0  502 -0.33819642483E+03  0.67366613638E+02 -0.10141530440E+04  0.10711776132E+04  0.50400001928E-02 0. -1.
</event>
<event>
 5   0  0.3257130E-05  0.2072709E+04  0.7818609E-02  0.8573361E-01
        2   -1    0    0  501    0  0.00000000000E+00  0.00000000000E+00  0.10951088332E+04  0.10951088332E+04  0.25500000920E-02 0.  1.
       -2   -1    0    0    0  501  0.00000000000E+00  0.00000000000E+00 -0.98075271682E+03  0.98075271682E+03  0.25500000920E-02 0. -1.
    10030    2    1    2    0    0  0.00000000000E+00  0.00000000000E+00  0.11435611634E+03  0.20758615500E+04  0.20727093027E+04 0.  0.
        3    1    3    3  502    0 -0.27895209219E+03 -0.68647126560E+03  0.78283079582E+03  0.10779059019E+04  0.10100000352E+00 0. -1.
       -3    1    3    3    0  502  0.27895209219E+03  0.68647126560E+03 -0.66847467949E+03  0.99795564809E+03  0.10100000352E+00 0.  1.
</event>
<event>
 5   0  0.1466480E-05  0.2097485E+04  0.7818609E-02  0.8562352E-01
       -1   -1    0    0    0  501  0.00000000000E+00  0.00000000000E+00  0.10162634886E+04  0.10162634886E+04  0.50400001928E-02 0. -1.
        1   -1    0    0  501    0  0.00000000000E+00  0.00000000000E+00 -0.10822593983E+04  0.10822593984E+04  0.50400001928E-02 0.  1.
    10030    2    1    2    0    0  0.00000000000E+00  0.00000000000E+00 -0.65995909787E+02  0.20985228869E+04  0.20974848860E+04 0.  0.
        3    1    3    3  502    0 -0.26987929319E+03 -0.19380923881E+03 -0.10282081937E+04  0.10805595558E+04  0.10100000352E+00 0.  1.
       -3    1    3    3    0  502  0.26987929319E+03  0.19380923881E+03  0.96221228390E+03  0.10179633311E+04  0.10100000352E+00 0. -1.
</event>
<event>
 5   0  0.3242231E-05  0.2104794E+04  0.7818609E-02  0.8559135E-01
       -2   -1    0    0    0  501  0.00000000000E+00  0.00000000000E+00  0.45857139998E+03  0.45857139999E+03  0.25500000920E-02 0.  1.
        2   -1    0    0  501    0  0.00000000000E+00  0.00000000000E+00 -0.24151944988E+04  0.24151944988E+04  0.25500000920E-02 0. -1.
    10030    2    1    2    0    0  0.00000000000E+00  0.00000000000E+00 -0.19566230988E+04  0.28737658988E+04  0.21047936930E+04 0.  0.
        4    1    3    3  502    0 -0.75190399354E+03 -0.23895796662E+03 -0.19292385693E+04  0.20843280921E+04  0.12699999809E+01 0. -1.
       -4    1    3    3    0  502  0.75190399354E+03  0.23895796662E+03 -0.27384529535E+02  0.78943780671E+03  0.12699999809E+01 0.  1.
</event>
<event>
 5   0  0.1466480E-05  0.2065909E+04  0.7818609E-02  0.8576411E-01
        1   -1    0    0  501    0  0.00000000000E+00  0.00000000000E+00  0.20172679173E+04  0.20172679173E+04  0.50400001928E-02 0. -1.
       -1   -1    0    0    0  501  0.00000000000E+00  0.00000000000E+00 -0.52893094779E+03  0.52893094781E+03  0.50400001928E-02 0.  1.
    10030    2    1    2    0    0  0.00000000000E+00  0.00000000000E+00  0.14883369695E+04  0.25461988651E+04  0.20659094186E+04 0.  0.
        3    1    3    3  502    0  0.49945524591E+03  0.71760862592E+02  0.18550388924E+04  0.19224397173E+04  0.10100000352E+00 0. -1.
       -3    1    3    3    0  502 -0.49945524591E+03 -0.71760862592E+02 -0.36670192288E+03  0.62375914784E+03  0.10100000352E+00 0.  1.
</event>
<event>
 5   0  0.1466480E-05  0.2095716E+04  0.7818609E-02  0.8563133E-01
        1   -1    0    0  501    0  0.00000000000E+00  0.00000000000E+00  0.98088509515E+03  0.98088509516E+03  0.50400001928E-02 0. -1.
       -1   -1    0    0    0  501  0.00000000000E+00  0.00000000000E+00 -0.11194037329E+04  0.11194037329E+04  0.50400001928E-02 0.  1.
    10030    2    1    2    0    0  0.00000000000E+00  0.00000000000E+00 -0.13851863773E+03  0.21002888280E+04  0.20957160467E+04 0.  0.
        3    1    3    3  502    0  0.74742945993E+03  0.41318357598E+03 -0.67773726823E+03  0.10902748644E+04  0.10100000352E+00 0. -1.
       -3    1    3    3    0  502 -0.74742945993E+03 -0.41318357598E+03  0.53921863050E+03  0.10100139636E+04  0.10100000352E+00 0.  1.
</event>
<event>
 5   0  0.3108326E-05  0.2021936E+04  0.7818609E-02  0.8596433E-01
       -2   -1    0    0    0  501  0.00000000000E+00  0.00000000000E+00  0.74624537473E+03  0.74624537473E+03  0.25500000920E-02 0.  1.
        2   -1    0    0  501    0  0.00000000000E+00  0.00000000000E+00 -0.13695982874E+04  0.13695982874E+04  0.25500000920E-02 0. -1.
    10030    2    1    2    0    0  0.00000000000E+00  0.00000000000E+00 -0.62335291271E+03  0.21158436622E+04  0.20219360892E+04 0.  0.
        5    1    3    3  502    0  0.19977833850E+03  0.97708897864E+03 -0.13839575500E+03  0.10068712588E+04  0.46999998093E+01 0.  1.
       -5    1    3    3    0  502 -0.19977833850E+03 -0.97708897864E+03 -0.48495715771E+03  0.11089724034E+04  0.46999998093E+01 0. -1.
</event>
<event>
 5   0  0.1492552E-05  0.2102825E+04  0.7818609E-02  0.8560000E-01
        1   -1    0    0  501    0  0.00000000000E+00  0.00000000000E+00  0.11138482539E+04  0.11138482539E+04  0.50400001928E-02 0. -1.
       -1   -1    0    0    0  501  0.00000000000E+00  0.00000000000E+00 -0.99247634824E+03  0.99247634826E+03  0.50400001928E-02 0.  1.
    10030    2    1    2    0    0  0.00000000000E+00  0.00000000000E+00  0.12137190566E+03  0.21063246022E+04  0.21028248121E+04 0.  0.
        4    1    3    3  502    0  0.35216062752E+03  0.66610235652E+03  0.79522558772E+03  0.10954883866E+04  0.12699999809E+01 0. -1.
       -4    1    3    3    0  502 -0.35216062752E+03 -0.66610235652E+03 -0.67385368207E+03  0.10108362156E+04  0.12699999809E+01 0.  1.
</event>
<event>
 5   0  0.1466480E-05  0.2102339E+04  0.7818609E-02  0.8560214E-01
        1   -1    0    0  501    0  0.00000000000E+00  0.00000000000E+00  0.88819510679E+03  0.88819510680E+03  0.50400001928E-02 0.  1.
       -1   -1    0    0    0  501  0.00000000000E+00  0.00000000000E+00 -0.12440481921E+04  0.12440481921E+04  0.50400001928E-02 0. -1.
    10030    2    1    2    0    0  0.00000000000E+00  0.00000000000E+00 -0.35585308535E+03  0.21322432989E+04  0.21023391895E+04 0.  0.
        3    1    3    3  502    0 -0.63340993571E+03 -0.83612249720E+03 -0.24707647793E+03  0.10776621795E+04  0.10100000352E+00 0.  1.
       -3    1    3    3    0  502  0.63340993571E+03  0.83612249720E+03 -0.10877660742E+03  0.10545811194E+04  0.10100000352E+00 0. -1.
</event>
<event>
 5   0  0.3279789E-05  0.2103692E+04  0.7818609E-02  0.8559619E-01
        2   -1    0    0  501    0  0.00000000000E+00  0.00000000000E+00  0.16581451055E+04  0.16581451055E+04  0.25500000920E-02 0. -1.
       -2   -1    0    0    0  501  0.00000000000E+00  0.00000000000E+00 -0.66723950444E+03  0.66723950445E+03  0.25500000920E-02 0.  1.
    10030    2    1    2    0    0  0.00000000000E+00  0.00000000000E+00  0.99090560106E+03  0.23253846100E+04  0.21036919152E+04 0.  0.
        2    1    3    3  502    0  0.74185462193E+03 -0.74554580728E+03  0.51081275404E+03  0.11692375723E+04  0.25500000920E-02 0. -1.
       -2    1    3    3    0  502 -0.74185462193E+03  0.74554580728E+03  0.48009284701E+03  0.11561470376E+04  0.25500000920E-02 0.  1.
</event>
<event>
 5   0  0.1492552E-05  0.2090380E+04  0.7818609E-02  0.8565493E-01
        1   -1    0    0  501    0  0.00000000000E+00  0.00000000000E+00  0.80607885874E+03  0.80607885876E+03  0.50400001928E-02 0. -1.
       -1   -1    0    0    0  501  0.00000000000E+00  0.00000000000E+00 -0.13552298360E+04  0.13552298360E+04  0.50400001928E-02 0.  1.
    10030    2    1    2    0    0  0.00000000000E+00  0.00000000000E+00 -0.54915097723E+03  0.21613086947E+04  0.20903799842E+04 0.  0.
        4    1    3    3  502    0 -0.47100776301E+03 -0.93304028477E+03 -0.27164728869E+03  0.10799103427E+04  0.12699999809E+01 0.  1.
       -4    1    3    3    0  502  0.47100776301E+03  0.93304028477E+03 -0.27750368853E+03  0.10813983521E+04  0.12699999809E+01 0. -1.
</event>
<event>
 5   0  0.3130517E-05  0.2097562E+04  0.7818609E-02  0.8562318E-01
        2   -1    0    0  501    0  0.00000000000E+00  0.00000000000E+00  0.88966053827E+03  0.88966053827E+03  0.25500000920E-02 0. -1.
       -2   -1    0    0    0  501  0.00000000000E+00  0.00000000000E+00 -0.12363612007E+04  0.12363612007E+04  0.25500000920E-02 0.  1.
    10030    2    1    2    0    0  0.00000000000E+00  0.00000000000E+00 -0.34670066241E+03  0.21260217389E+04  0.20975621767E+04 0.  0.
        1    1    3    3  502    0  0.86737696933E+03 -0.49665959921E+03 -0.49535275182E+03  0.11155213638E+04  0.50400001928E-02 0.  1.
       -1    1    3    3    0  502 -0.86737696933E+03  0.49665959921E+03  0.14865208941E+03  0.10105003751E+04  0.50400001928E-02 0. -1.
</event>
<event>
 5   0  0.1435410E-05  0.2098918E+04  0.7818609E-02  0.8561720E-01
        1   -1    0    0  501    0  0.00000000000E+00  0.00000000000E+00  0.18777165043E+04  0.18777165043E+04  0.50400001928E-02 0.  1.
       -1   -1    0    0    0  501  0.00000000000E+00  0.00000000000E+00 -0.58654451859E+03  0.58654451861E+03  0.50400001928E-02 0. -1.
    10030    2    1    2    0    0  0.00000000000E+00  0.00000000000E+00  0.12911719857E+04  0.24642610229E+04  0.20989181243E+04 0.  0.
        2    1    3    3  502    0  0.20117737289E+03  0.95017906816E+03  0.11123429843E+04  0.14766920842E+04  0.25500000920E-02 0.  1.
       -2    1    3    3    0  502 -0.20117737289E+03 -0.95017906816E+03  0.17882900145E+03  0.98756893871E+03  0.25500000920E-02 0. -1.
</event>
<event>
 5   0  0.1492552E-05  0.2091736E+04  0.7818609E-02  0.8564892E-01
       -1   -1    0    0    0  501  0.00000000000E+00  0.00000000000E+00  0.12008259773E+04  0.12008259773E+04  0.50400001928E-02 0. -1.
        1   -1    0    0  501    0  0.00000000000E+00  0.00000000000E+00 -0.91090645002E+03  0.91090645004E+03  0.50400001928E-02 0.  1.
    10030    2    1    2    0    0  0.00000000000E+00  0.00000000000E+00  0.28991952725E+03  0.21117324273E+04  0.20917362435E+04 0.  0.
        4    1    3    3  502    0 -0.17887394196E+02  0.13853636819E+03 -0.90144584141E+03  0.91220529602E+03  0.12699999809E+01 0.  1.
       -4    1    3    3    0  502  0.17887394196E+02 -0.13853636819E+03  0.11913653687E+04  0.11995271313E+04  0.12699999809E+01 0. -1.
</event>
<event>
 5   0  0.3257130E-05  0.2111693E+04  0.7818609E-02  0.8556110E-01
       -2   -1    0    0    0  501  0.00000000000E+00  0.00000000000E+00  0.45500581815E+03  0.45500581816E+03  0.25500000920E-02 0. -1.
        2   -1    0    0  501    0  0.00000000000E+00  0.00000000000E+00 -0.24501054636E+04  0.24501054636E+04  0.25500000920E-02 0.  1.
    10030    2    1    2    0    0  0.00000000000E+00  0.00000000000E+00 -0.19950996454E+04  0.29051112817E+04  0.21116933878E+04 0.  0.
        3    1    3    3  502    0  0.56767739460E+03  0.37515397877E+03  0.11314254576E+03  0.68978212356E+03  0.10100000352E+00 0. -1.
       -3    1    3    3    0  502 -0.56767739460E+03 -0.37515397877E+03 -0.21082421912E+04  0.22153291582E+04  0.10100000352E+00 0.  1.
</event>
<event>
 5   0  0.1466480E-05  0.2101083E+04  0.7818609E-02  0.8560766E-01
       -1   -1    0    0    0  501  0.00000000000E+00  0.00000000000E+00  0.14024618795E+04  0.14024618795E+04  0.50400001928E-02 0.  1.
        1   -1    0    0  501    0  0.00000000000E+00  0.00000000000E+00 -0.78692879442E+03  0.78692879444E+03  0.50400001928E-02 0. -1.
    10030    2    1    2    0    0  0.00000000000E+00  0.00000000000E+00  0.61553308511E+03  0.21893906740E+04  0.21010831836E+04 0.  0.
        3    1    3    3  502    0  0.42090269322E+03  0.51451070458E+03 -0.53990847126E+03  0.85637696712E+03  0.10100000352E+00 0. -1.
       -3    1    3    3    0  502 -0.42090269322E+03 -0.51451070458E+03  0.11554415564E+04  0.13330137069E+04  0.10100000352E+00 0.  1.
</event>
<event>
 5   0  0.3279789E-05  0.2103290E+04  0.7818609E-02  0.8559795E-01
        2   -1    0    0  501    0  0.00000000000E+00  0.00000000000E+00  0.54487958542E+03  0.54487958543E+03  0.25500000920E-02 0. -1.
       -2   -1    0    0    0  501  0.00000000000E+00  0.00000000000E+00 -0.20297283334E+04  0.20297283334E+04  0.25500000920E-02 0.  1.
    10030    2    1    2    0    0  0.00000000000E+00  0.00000000000E+00 -0.14848487480E+04  0.25746079188E+04  0.21032903108E+04 0.  0.
        2    1    3    3  502    0 -0.64316355603E+03 -0.63993587438E+03 -0.91491183560E+02  0.91189249355E+03  0.25500000920E-02 0. -1.
       -2    1    3    3    0  502  0.64316355603E+03  0.63993587438E+03 -0.13933575644E+04  0.16627154253E+04  0.25500000920E-02 0.  1.
</event>
<event>
 5   0  0.3257130E-05  0.2090890E+04  0.7818609E-02  0.8565267E-01
       -2   -1    0    0    0  501  0.00000000000E+00  0.00000000000E+00  0.12290785087E+04  0.12290785087E+04  0.25500000920E-02 0.  1.
        2   -1    0    0  501    0  0.00000000000E+00  0.00000000000E+00 -0.88924734466E+03  0.88924734466E+03  0.25500000920E-02 0. -1.
    10030    2    1    2    0    0  0.00000000000E+00  0.00000000000E+00  0.33983116402E+03  0.21183258533E+04  0.20908895717E+04 0.  0.
        3    1    3    3  502    0 -0.23713846506E+02 -0.27171664860E+03  0.11923972089E+04  0.12231939330E+04  0.10100000352E+00 0.  1.
       -3    1    3    3    0  502  0.23713846506E+02  0.27171664860E+03 -0.85256604493E+03  0.89513192034E+03  0.10100000352E+00 0. -1.
</event>
<event>
 5   0  0.3279789E-05  0.2090173E+04  0.7818609E-02  0.8565585E-01
       -2   -1    0    0    0  501  0.00000000000E+00  0.00000000000E+00  0.11334699801E+04  0.11334699801E+04  0.25500000920E-02 0.  1.
        2   -1    0    0  501    0  0.00000000000E+00  0.00000000000E+00 -0.96359440941E+03  0.96359440941E+03  0.25500000920E-02 0. -1.
    10030    2    1    2    0    0  0.00000000000E+00  0.00000000000E+00  0.16987557067E+03  0.20970643895E+04  0.20901725633E+04 0.  0.
        2    1    3    3  502    0 -0.50569166159E+03 -0.86210494578E+03 -0.22144813982E+03  0.10237129836E+04  0.25500000920E-02 0. -1.
       -2    1    3    3    0  502  0.50569166159E+03  0.86210494578E+03  0.39132371049E+03  0.10733514059E+04  0.25500000920E-02 0.  1.
</event>
<event>
 5   0  0.3279789E-05  0.2104962E+04  0.7818609E-02  0.8559061E-01
        2   -1    0    0  501    0  0.00000000000E+00  0.00000000000E+00  0.23421294913E+04  0.23421294913E+04  0.25500000920E-02 0.  1.
       -2   -1    0    0    0  501  0.00000000000E+00  0.00000000000E+00 -0.47295277764E+03  0.47295277765E+03  0.25500000920E-02 0. -1.
    10030    2    1    2    0    0  0.00000000000E+00  0.00000000000E+00  0.18691767137E+04  0.28150822690E+04  0.21049623736E+04 0.  0.
        2    1    3    3  502    0 -0.10200144061E+04 -0.18521534516E+03  0.11774666910E+04  0.15688090773E+04  0.25500000920E-02 0.  1.
       -2    1    3    3    0  502  0.10200144061E+04  0.18521534516E+03  0.69171002271E+03  0.12462731917E+04  0.25500000920E-02 0. -1.
</event>
<event>
 5   0  0.1453430E-05  0.2106126E+04  0.7818609E-02  0.8558550E-01
        1   -1    0    0  501    0  0.00000000000E+00  0.00000000000E+00  0.91805867910E+03  0.91805867912E+03  0.50400001928E-02 0. -1.
       -1   -1    0    0    0  501  0.00000000000E+00  0.00000000000E+00 -0.12079203418E+04  0.12079203418E+04  0.50400001928E-02 0.  1.
    10030    2    1    2    0    0  0.00000000000E+00  0.00000000000E+00 -0.28986166273E+03  0.21259790210E+04  0.21061260679E+04 0.  0.
        5    1    3    3  502    0  0.63716644592E+03 -0.38653638358E+03 -0.89593870438E+03  0.11653839314E+04  0.46999998093E+01 0.  1.
       -5    1    3    3    0  502 -0.63716644592E+03  0.38653638358E+03  0.60607704165E+03  0.96059508953E+03  0.46999998093E+01 0. -1.
</event>
<event>
 5   0  0.1492552E-05  0.2092665E+04  0.7818609E-02  0.8564482E-01
       -1   -1    0    0    0  501  0.00000000000E+00  0.00000000000E+00  0.61545453134E+03  0.61545453136E+03  0.50400001928E-02 0.  1.
        1   -1    0    0  501    0  0.00000000000E+00  0.00000000000E+00 -0.17788663680E+04  0.17788663680E+04  0.50400001928E-02 0. -1.
    10030    2    1    2    0    0  0.00000000000E+00  0.00000000000E+00 -0.11634118366E+04  0.23943208993E+04  0.20926646811E+04 0.  0.
        4    1    3    3  502    0 -0.81997865531E+03 -0.44088099349E+03 -0.35299787856E+02  0.93165912946E+03  0.12699999809E+01 0. -1.
       -4    1    3    3    0  502  0.81997865531E+03  0.44088099349E+03 -0.11281120488E+04  0.14626617699E+04  0.12699999809E+01 0.  1.
</event>
<event>
 5   0  0.3279789E-05  0.2098342E+04  0.7818609E-02  0.8561974E-01
        2   -1    0    0  501    0  0.00000000000E+00  0.00000000000E+00  0.12934611957E+04  0.12934611957E+04  0.25500000920E-02 0. -1.
       -2   -1    0    0    0  501  0.00000000000E+00  0.00000000000E+00 -0.85101899280E+03  0.85101899281E+03  0.25500000920E-02 0.  1.
    10030    2    1    2    0    0  0.00000000000E+00  0.00000000000E+00  0.44244220289E+03  0.21444801885E+04  0.20983422447E+04 0.  0.
        2    1    3    3  502    0  0.65466608789E+03 -0.76724770830E+03  0.51654430003E+03  0.11331702195E+04  0.25500000920E-02 0. -1.
       -2    1    3    3    0  502 -0.65466608789E+03  0.76724770830E+03 -0.74102097147E+02  0.10113099690E+04  0.25500000920E-02 0.  1.
</event>
<event>
 5   0  0.3279789E-05  0.2109854E+04  0.7818609E-02  0.8556915E-01
        2   -1    0    0  501    0  0.00000000000E+00  0.00000000000E+00  0.68811063758E+03  0.68811063759E+03  0.25500000920E-02 0. -1.
       -2   -1    0    0    0  501  0.00000000000E+00  0.00000000000E+00 -0.16172845139E+04  0.16172845139E+04  0.25500000920E-02 0.  1.
    10030    2    1    2    0    0  0.00000000000E+00  0.00000000000E+00 -0.92917387634E+03  0.23053951515E+04  0.21098537182E+04 0.  0.
        2    1    3    3  502    0 -0.97395790791E+03 -0.25402221536E+03 -0.80968946957E+03  0.12917888099E+04  0.25500000920E-02 0.  1.
       -2    1    3    3    0  502  0.97395790791E+03  0.25402221536E+03 -0.11948440677E+03  0.10136063416E+04  0.25500000920E-02 0. -1.
</event>
<event>
 5   0  0.1129987E-05  0.2103767E+04  0.7818609E-02  0.8559586E-01
       -3   -1    0    0    0  501  0.00000000000E+00  0.00000000000E+00  0.18526904395E+04  0.18526904422E+04  0.10100000352E+00 0.  1.
        3   -1    0    0  501    0  0.00000000000E+00  0.00000000000E+00 -0.59721707281E+03  0.59721708135E+03  0.10100000352E+00 0. -1.
    10030    2    1    2    0    0  0.00000000000E+00  0.00000000000E+00  0.12554733666E+04  0.24499075236E+04  0.21037665031E+04 0.  0.
        5    1    3    3  502    0 -0.66313073655E+03 -0.61436035354E+03  0.12540516552E+04  0.15459135363E+04  0.46999998093E+01 0.  1.
       -5    1    3    3    0  502  0.66313073655E+03  0.61436035354E+03  0.14217114319E+01  0.90399398727E+03  0.46999998093E+01 0. -1.
</event>
<event>
 5   0  0.3257130E-05  0.2095522E+04  0.7818609E-02  0.8563219E-01
        2   -1    0    0  501    0  0.00000000000E+00  0.00000000000E+00  0.85448925316E+03  0.85448925316E+03  0.25500000920E-02 0. -1.
       -2   -1    0    0    0  501  0.00000000000E+00  0.00000000000E+00 -0.12847476159E+04  0.12847476159E+04  0.25500000920E-02 0.  1.
    10030    2    1    2    0    0  0.00000000000E+00  0.00000000000E+00 -0.43025836271E+03  0.21392368690E+04  0.20955219214E+04 0.  0.
        3    1    3    3  502    0  0.94492142778E+03 -0.16586211647E+02 -0.67695056787E+03  0.11625031994E+04  0.10100000352E+00 0.  1.
       -3    1    3    3    0  502 -0.94492142778E+03  0.16586211647E+02  0.24669220516E+03  0.97673366963E+03  0.10100000352E+00 0. -1.
</event>
<event>
 5   0  0.1435410E-05  0.2098723E+04  0.7818609E-02  0.8561806E-01
       -1   -1    0    0    0  501  0.00000000000E+00  0.00000000000E+00  0.12946587023E+04  0.12946587023E+04  0.50400001928E-02 0. -1.
        1   -1    0    0  501    0  0.00000000000E+00  0.00000000000E+00 -0.85054066704E+03  0.85054066706E+03  0.50400001928E-02 0.  1.
    10030    2    1    2    0    0  0.00000000000E+00  0.00000000000E+00  0.44411803526E+03  0.21451993694E+04  0.20987233036E+04 0.  0.
        2    1    3    3  502    0 -0.82529045417E+02  0.86120561779E+03  0.82907345874E+03  0.11982691515E+04  0.25500000920E-02 0. -1.
       -2    1    3    3    0  502  0.82529045417E+02 -0.86120561779E+03 -0.38495542348E+03  0.94693021787E+03  0.25500000920E-02 0.  1.
</event>
<event>
 5   0  0.1513292E-05  0.2093953E+04  0.7818609E-02  0.8563912E-01
        1   -1    0    0  501    0  0.00000000000E+00  0.00000000000E+00  0.12252114134E+04  0.12252114134E+04  0.50400001928E-02 0. -1.
       -1   -1    0    0    0  501  0.00000000000E+00  0.00000000000E+00 -0.89466971515E+03  0.89466971516E+03  0.50400001928E-02 0.  1.
    10030    2    1    2    0    0  0.00000000000E+00  0.00000000000E+00  0.33054169827E+03  0.21198811286E+04  0.20939527657E+04 0.  0.
        1    1    3    3  502    0  0.91169489378E+03 -0.43542073353E+03  0.44322608537E+03  0.11032806340E+04  0.50400001928E-02 0. -1.
       -1    1    3    3    0  502 -0.91169489378E+03  0.43542073353E+03 -0.11268438710E+03  0.10166004946E+04  0.50400001928E-02 0.  1.
</event>
<event>
 5   0  0.3279789E-05  0.2099412E+04  0.7818609E-02  0.8561502E-01
       -2   -1    0    0    0  501  0.00000000000E+00  0.00000000000E+00  0.50093281199E+03  0.50093281200E+03  0.25500000920E-02 0.  1.
        2   -1    0    0  501    0  0.00000000000E+00  0.00000000000E+00 -0.21996624935E+04  0.21996624935E+04  0.25500000920E-02 0. -1.
    10030    2    1    2    0    0  0.00000000000E+00  0.00000000000E+00 -0.16987296815E+04  0.27005953054E+04  0.20994124114E+04 0.  0.
        2    1    3    3  502    0 -0.88646624503E+03  0.43756053159E+03 -0.39529424820E+03  0.10646779631E+04  0.25500000920E-02 0.  1.
       -2    1    3    3    0  502  0.88646624503E+03 -0.43756053159E+03 -0.13034354333E+04  0.16359173424E+04  0.25500000920E-02 0. -1.
</event>
<event>
 5   0  0.3108326E-05  0.2098455E+04  0.7818609E-02  0.8561924E-01
       -2   -1    0    0    0  501  0.00000000000E+00  0.00000000000E+00  0.55600074838E+03  0.55600074839E+03  0.25500000920E-02 0.  1.
        2   -1    0    0  501    0  0.00000000000E+00  0.00000000000E+00 -0.19799936178E+04  0.19799936178E+04  0.25500000920E-02 0. -1.
    10030    2    1    2    0    0  0.00000000000E+00  0.00000000000E+00 -0.14239928694E+04  0.25359943662E+04  0.20984546060E+04 0.  0.
        5    1    3    3  502    0 -0.89281865524E+03  0.12150538253E+03 -0.13616366939E+04  0.16327783944E+04  0.46999998093E+01 0. -1.
       -5    1    3    3    0  502  0.89281865524E+03 -0.12150538253E+03 -0.62356175580E+02  0.90321597182E+03  0.46999998093E+01 0.  1.
</event>
<event>
 5   0  0.1435410E-05  0.2096819E+04  0.7818609E-02  0.8562646E-01
       -1   -1    0    0    0  501  0.00000000000E+00  0.00000000000E+00  0.78109907806E+03  0.78109907807E+03  0.50400001928E-02 0.  1.
        1   -1    0    0  501    0  0.00000000000E+00  0.00000000000E+00 -0.14072001883E+04  0.14072001883E+04  0.50400001928E-02 0. -1.
    10030    2    1    2    0    0  0.00000000000E+00  0.00000000000E+00 -0.62610111028E+03  0.21882992664E+04  0.20968192767E+04 0.  0.
        2    1    3    3  502    0 -0.76979171463E+03 -0.56121509239E+03 -0.76989398704E+03  0.12248585286E+04  0.25500000920E-02 0. -1.
       -2    1    3    3    0  502  0.76979171463E+03  0.56121509239E+03  0.14379287676E+03  0.96344073780E+03  0.25500000920E-02 0.  1.
</event>
<event>
 5   0  0.1453430E-05  0.2107242E+04  0.7818609E-02  0.8558060E-01
       -1   -1    0    0    0  501  0.00000000000E+00  0.00000000000E+00  0.10453805599E+04  0.10453805599E+04  0.50400001928E-02 0. -1.
        1   -1    0    0  501    0  0.00000000000E+00  0.00000000000E+00 -0.10619259961E+04  0.10619259961E+04  0.50400001928E-02 0.  1.
    10030    2    1    2    0    0  0.00000000000E+00  0.00000000000E+00 -0.16545436164E+02  0.21073065560E+04  0.21072416020E+04 0.  0.
        5    1    3    3  502    0 -0.51235867567E+03  0.91663581089E+03 -0.94077926928E+02  0.10543269743E+04  0.46999998093E+01 0. -1.
       -5    1    3    3    0  502  0.51235867567E+03 -0.91663581089E+03  0.77532490764E+02  0.10529795817E+04  0.46999998093E+01 0.  1.
</event>
<event>
 5   0  0.3242231E-05  0.2105449E+04  0.7818609E-02  0.8558847E-01
       -2   -1    0    0    0  501  0.00000000000E+00  0.00000000000E+00  0.51912385911E+03  0.51912385911E+03  0.25500000920E-02 0. -1.
        2   -1    0    0  501    0  0.00000000000E+00  0.00000000000E+00 -0.21348054089E+04  0.21348054090E+04  0.25500000920E-02 0.  1.
    10030    2    1    2    0    0  0.00000000000E+00  0.00000000000E+00 -0.16156815498E+04  0.26539292681E+04  0.21054485720E+04 0.  0.
        4    1    3    3  502    0 -0.31874210311E+03 -0.99683781180E+03 -0.66442728691E+03  0.12396561555E+04  0.12699999809E+01 0. -1.
       -4    1    3    3    0  502  0.31874210311E+03  0.99683781180E+03 -0.95125426293E+03  0.14142731126E+04  0.12699999809E+01 0.  1.
</event>
<event>
 5   0  0.1466480E-05  0.2108247E+04  0.7818609E-02  0.8557619E-01
       -1   -1    0    0    0  501  0.00000000000E+00  0.00000000000E+00  0.58275612959E+03  0.58275612961E+03  0.50400001928E-02 0.  1.
        1   -1    0    0  501    0  0.00000000000E+00  0.00000000000E+00 -0.19067603713E+04  0.19067603713E+04  0.50400001928E-02 0. -1.
    10030    2    1    2    0    0  0.00000000000E+00  0.00000000000E+00 -0.13240042417E+04  0.24895165009E+04  0.21082469439E+04 0.  0.
        3    1    3    3  502    0 -0.31116414722E+03  0.29433268017E+03 -0.17993735756E+04  0.18496486498E+04  0.10100000352E+00 0. -1.
       -3    1    3    3    0  502  0.31116414722E+03 -0.29433268017E+03  0.47536933384E+03  0.63986785111E+03  0.10100000352E+00 0.  1.
</event>
<event>
 5   0  0.1435410E-05  0.2099441E+04  0.7818609E-02  0.8561490E-01
        1   -1    0    0  501    0  0.00000000000E+00  0.00000000000E+00  0.97585484242E+03  0.97585484243E+03  0.50400001928E-02 0. -1.
       -1   -1    0    0    0  501  0.00000000000E+00  0.00000000000E+00 -0.11291770335E+04  0.11291770335E+04  0.50400001928E-02 0.  1.
    10030    2    1    2    0    0  0.00000000000E+00  0.00000000000E+00 -0.15332219107E+03  0.21050318759E+04  0.20994407599E+04 0.  0.
        2    1    3    3  502    0 -0.13745739736E+03 -0.68871733854E+03  0.70560045111E+03  0.99553910275E+03  0.25500000920E-02 0. -1.
       -2    1    3    3    0  502  0.13745739736E+03  0.68871733854E+03 -0.85892264218E+03  0.11094927732E+04  0.25500000920E-02 0.  1.
</event>
<event>
 5   0  0.3279789E-05  0.2102542E+04  0.7818609E-02  0.8560125E-01
       -2   -1    0    0    0  501  0.00000000000E+00  0.00000000000E+00  0.81050567079E+03  0.81050567079E+03  0.25500000920E-02 0.  1.
        2   -1    0    0  501    0  0.00000000000E+00  0.00000000000E+00 -0.13635565631E+04  0.13635565631E+04  0.25500000920E-02 0. -1.
    10030    2    1    2    0    0  0.00000000000E+00  0.00000000000E+00 -0.55305089229E+03  0.21740622339E+04  0.21025416303E+04 0.  0.
        2    1    3    3  502    0 -0.88868054826E+03  0.47698404108E+03 -0.58309589537E+03  0.11650183327E+04  0.25500000920E-02 0.  1.
       -2    1    3    3    0  502  0.88868054826E+03 -0.47698404108E+03  0.30045003076E+02  0.10090439012E+04  0.25500000920E-02 0. -1.
</event>
<event>
 5   0  0.3108326E-05  0.2102070E+04  0.7818609E-02  0.8560332E-01
        2   -1    0    0  501    0  0.00000000000E+00  0.00000000000E+00  0.18094706455E+04  0.18094706455E+04  0.25500000920E-02 0.  1.
       -2   -1    0    0    0  501  0.00000000000E+00  0.00000000000E+00 -0.61049622495E+03  0.61049622496E+03  0.25500000920E-02 0. -1.
    10030    2    1    2    0    0  0.00000000000E+00  0.00000000000E+00  0.11989744206E+04  0.24199668705E+04  0.21020704063E+04 0.  0.
        5    1    3    3  502    0 -0.48522116145E+03 -0.92711447616E+03  0.71270694195E+03  0.12660782371E+04  0.46999998093E+01 0.  1.
       -5    1    3    3    0  502  0.48522116145E+03  0.92711447616E+03  0.48626747863E+03  0.11538886334E+04  0.46999998093E+01 0. -1.
</event>
<event>
 5   0  0.1492552E-05  0.2094759E+04  0.7818609E-02  0.8563555E-01
        1   -1    0    0  501    0  0.00000000000E+00  0.00000000000E+00  0.99428116089E+03  0.99428116090E+03  0.50400001928E-02 0.  1.
       -1   -1    0    0    0  501  0.00000000000E+00  0.00000000000E+00 -0.11033139247E+04  0.11033139247E+04  0.50400001928E-02 0. -1.
    10030    2    1    2    0    0  0.00000000000E+00  0.00000000000E+00 -0.10903276378E+03  0.20975950856E+04  0.20947594133E+04 0.  0.
        4    1    3    3  502    0  0.76700840231E+02 -0.85683449896E+03  0.54374888566E+03  0.10176997794E+04  0.12699999809E+01 0.  1.
       -4    1    3    3    0  502 -0.76700840231E+02  0.85683449896E+03 -0.65278164945E+03  0.10798953062E+04  0.12699999809E+01 0. -1.
</event>
<event>
 5   0  0.3108326E-05  0.2063308E+04  0.7818609E-02  0.8577581E-01
       -2   -1    0    0    0  501  0.00000000000E+00  0.00000000000E+00  0.15209616558E+04  0.15209616558E+04  0.25500000920E-02 0.  1.
        2   -1    0    0  501    0  0.00000000000E+00  0.00000000000E+00 -0.69976118113E+03  0.69976118113E+03  0.25500000920E-02 0. -1.
    10030    2    1    2    0    0  0.00000000000E+00  0.00000000000E+00  0.82120047465E+03  0.22207228369E+04  0.20633079506E+04 0.  0.
        5    1    3    3  502    0  0.54806936055E+03  0.72484109238E+03  0.93623795145E+03  0.13047368412E+04  0.46999998093E+01 0.  1.
       -5    1    3    3    0  502 -0.54806936055E+03 -0.72484109238E+03 -0.11503747680E+03  0.91598599566E+03  0.46999998093E+01 0. -1.
</event>
<event>
 5   0  0.1466480E-05  0.2106100E+04  0.7818609E-02  0.8558561E-01
       -1   -1    0    0    0  501  0.00000000000E+00  0.00000000000E+00  0.10267902285E+04  0.10267902285E+04  0.50400001928E-02 0.  1.
        1   -1    0    0  501    0  0.00000000000E+00  0.00000000000E+00 -0.10799814243E+04  0.10799814243E+04  0.50400001928E-02 0. -1.
    10030    2    1    2    0    0  0.00000000000E+00  0.00000000000E+00 -0.53191195779E+02  0.21067716529E+04  0.21061000674E+04 0.  0.
        3    1    3    3  502    0 -0.83420799335E+03  0.21656814252E+03 -0.63185847581E+03  0.10686673384E+04  0.10100000352E+00 0. -1.
       -3    1    3    3    0  502  0.83420799335E+03 -0.21656814252E+03  0.57866728003E+03  0.10381043145E+04  0.10100000352E+00 0.  1.
</event>
<event>
 5   0  0.3279789E-05  0.2095343E+04  0.7818609E-02  0.8563298E-01
        2   -1    0    0  501    0  0.00000000000E+00  0.00000000000E+00  0.10168326478E+04  0.10168326478E+04  0.25500000920E-02 0. -1.
       -2   -1    0    0    0  501  0.00000000000E+00  0.00000000000E+00 -0.10794454275E+04  0.10794454275E+04  0.25500000920E-02 0.  1.
    10030    2    1    2    0    0  0.00000000000E+00  0.00000000000E+00 -0.62612779750E+02  0.20962780753E+04  0.20953427903E+04 0.  0.
        2    1    3    3  502    0 -0.73917541241E+03  0.13522818889E+03 -0.76166539931E+03  0.10699537999E+04  0.25500000920E-02 0.  1.
       -2    1    3    3    0  502  0.73917541241E+03 -0.13522818889E+03  0.69905261956E+03  0.10263242754E+04  0.25500000920E-02 0. -1.
</event>
<event>
 5   0  0.3257130E-05  0.2098316E+04  0.7818609E-02  0.8561986E-01
       -2   -1    0    0    0  501  0.00000000000E+00  0.00000000000E+00  0.17992540008E+04  0.17992540008E+04  0.25500000920E-02 0.  1.
        2   -1    0    0  501    0  0.00000000000E+00  0.00000000000E+00 -0.61177156265E+03  0.61177156265E+03  0.25500000920E-02 0. -1.
    10030    2    1    2    0    0  0.00000000000E+00  0.00000000000E+00  0.11874824382E+04  0.24110255635E+04  0.20983159263E+04 0.  0.
        3    1    3    3  502    0 -0.15851713438E+02 -0.70317097868E+03  0.14882376579E+04  0.16460716992E+04  0.10100000352E+00 0.  1.
       -3    1    3    3    0  502  0.15851713438E+02  0.70317097868E+03 -0.30075521977E+03  0.76495386430E+03  0.10100000352E+00 0. -1.
</event>
<event>
 5   0  0.3130517E-05  0.2097769E+04  0.7818609E-02  0.8562227E-01
        2   -1    0    0  501    0  0.00000000000E+00  0.00000000000E+00  0.10849637786E+04  0.10849637786E+04  0.25500000920E-02 0.  1.
       -2   -1    0    0    0  501  0.00000000000E+00  0.00000000000E+00 -0.10140053150E+04  0.10140053150E+04  0.25500000920E-02 0. -1.
    10030    2    1    2    0    0  0.00000000000E+00  0.00000000000E+00  0.70958463614E+02  0.20989690937E+04  0.20977693278E+04 0.  0.
        1    1    3    3  502    0 -0.16921608449E+03 -0.74602106725E+03 -0.68255053580E+03  0.10252105881E+04  0.50400001928E-02 0. -1.
       -1    1    3    3    0  502  0.16921608449E+03  0.74602106725E+03  0.75350899941E+03  0.10737585056E+04  0.50400001928E-02 0.  1.
</event>
<event>
 5   0  0.1513292E-05  0.2097520E+04  0.7818609E-02  0.8562336E-01
       -1   -1    0    0    0  501  0.00000000000E+00  0.00000000000E+00  0.17520541085E+04  0.17520541085E+04  0.50400001928E-02 0.  1.
        1   -1    0    0  501    0  0.00000000000E+00  0.00000000000E+00 -0.62777618509E+03  0.62777618511E+03  0.50400001928E-02 0. -1.
    10030    2    1    2    0    0  0.00000000000E+00  0.00000000000E+00  0.11242779234E+04  0.23798302936E+04  0.20975202925E+04 0.  0.
        1    1    3    3  502    0 -0.62285646789E+03 -0.18763483318E+03  0.14955028811E+04  0.16308543398E+04  0.50400001928E-02 0.  1.
       -1    1    3    3    0  502  0.62285646789E+03  0.18763483318E+03 -0.37122495766E+03  0.74897595384E+03  0.50400001928E-02 0. -1.
</event>
<event>
 5   0  0.3257130E-05  0.2098767E+04  0.7818609E-02  0.8561787E-01
        2   -1    0    0  501    0  0.00000000000E+00  0.00000000000E+00  0.95496331182E+03  0.95496331182E+03  0.25500000920E-02 0. -1.
       -2   -1    0    0    0  501  0.00000000000E+00  0.00000000000E+00 -0.11531394594E+04  0.11531394594E+04  0.25500000920E-02 0.  1.
    10030    2    1    2    0    0  0.00000000000E+00  0.00000000000E+00 -0.19817614756E+03  0.21081027712E+04  0.20987671401E+04 0.  0.
        3    1    3    3  502    0 -0.34613474510E+03 -0.97910017758E+03 -0.25062147805E+03  0.10682965670E+04  0.10100000352E+00 0. -1.
       -3    1    3    3    0  502  0.34613474510E+03  0.97910017758E+03  0.52445330499E+02  0.10398062042E+04  0.10100000352E+00 0.  1.
</event>
<event>
 5   0  0.1492552E-05  0.2102625E+04  0.7818609E-02  0.8560088E-01
        1   -1    0    0  501    0  0.00000000000E+00  0.00000000000E+00  0.18899234409E+04  0.18899234409E+04  0.50400001928E-02 0.  1.
       -1   -1    0    0    0  501  0.00000000000E+00  0.00000000000E+00 -0.58481615106E+03  0.58481615109E+03  0.50400001928E-02 0. -1.
    10030    2    1    2    0    0  0.00000000000E+00  0.00000000000E+00  0.13051072899E+04  0.24747395920E+04  0.21026247907E+04 0.  0.
        4    1    3    3  502    0 -0.35024815580E+03 -0.26015296391E+03 -0.47323070037E+03  0.64366314477E+03  0.12699999809E+01 0. -1.
       -4    1    3    3    0  502  0.35024815580E+03  0.26015296391E+03  0.17783379902E+04  0.18310764473E+04  0.12699999809E+01 0.  1.
</event>
<event>
 5   0  0.3108326E-05  0.2123003E+04  0.7818609E-02  0.8551178E-01
       -2   -1    0    0    0  501  0.00000000000E+00  0.00000000000E+00  0.50591052937E+03  0.50591052938E+03  0.25500000920E-02 0. -1.
        2   -1    0    0  501    0  0.00000000000E+00  0.00000000000E+00 -0.22272419850E+04  0.22272419850E+04  0.25500000920E-02 0.  1.
    10030    2    1    2    0    0  0.00000000000E+00  0.00000000000E+00 -0.17213314556E+04  0.27331525143E+04  0.21230027524E+04 0.  0.
        5    1    3    3  502    0  0.73743937245E+03  0.24088249634E+03  0.72074367222E+02  0.77913927477E+03  0.46999998093E+01 0. -1.
       -5    1    3    3    0  502 -0.73743937245E+03 -0.24088249634E+03 -0.17934058228E+04  0.19540132396E+04  0.46999998093E+01 0.  1.
</event>
<event>
 5   0  0.1492552E-05  0.2112482E+04  0.7818609E-02  0.8555765E-01
       -1   -1    0    0    0  501  0.00000000000E+00  0.00000000000E+00  0.87935814978E+03  0.87935814979E+03  0.50400001928E-02 0.  1.
        1   -1    0    0  501    0  0.00000000000E+00  0.00000000000E+00 -0.12687033798E+04  0.12687033798E+04  0.50400001928E-02 0. -1.
    10030    2    1    2    0    0  0.00000000000E+00  0.00000000000E+00 -0.38934523002E+03  0.21480615296E+04  0.21124816276E+04 0.  0.
        4    1    3    3  502    0 -0.13043763727E+03 -0.87766553705E+03 -0.77732638714E+03  0.11796392233E+04  0.12699999809E+01 0. -1.
       -4    1    3    3    0  502  0.13043763727E+03  0.87766553705E+03  0.38798115712E+03  0.96842230629E+03  0.12699999809E+01 0.  1.
</event>
<event>
 5   0  0.1466480E-05  0.2105729E+04  0.7818609E-02  0.8558724E-01
       -1   -1    0    0    0  501  0.00000000000E+00  0.00000000000E+00  0.85082316968E+03  0.85082316970E+03  0.50400001928E-02 0.  1.
        1   -1    0    0  501    0  0.00000000000E+00  0.00000000000E+00 -0.13028832743E+04  0.13028832743E+04  0.50400001928E-02 0. -1.
    10030    2    1    2    0    0  0.00000000000E+00  0.00000000000E+00 -0.45206010463E+03  0.21537064440E+04  0.21057286408E+04 0.  0.
        3    1    3    3  502    0  0.19596693380E+03  0.28049177395E+03 -0.12444299043E+04  0.12906139901E+04  0.10100000352E+00 0. -1.
       -3    1    3    3    0  502 -0.19596693380E+03 -0.28049177395E+03  0.79236979969E+03  0.86309245395E+03  0.10100000352E+00 0.  1.
</event>
<event>
 5   0  0.3130517E-05  0.2106096E+04  0.7818609E-02  0.8558563E-01
        2   -1    0    0  501    0  0.00000000000E+00  0.00000000000E+00  0.10913869822E+04  0.10913869822E+04  0.25500000920E-02 0.  1.
       -2   -1    0    0    0  501  0.00000000000E+00  0.00000000000E+00 -0.10160554053E+04  0.10160554053E+04  0.25500000920E-02 0. -1.
    10030    2    1    2    0    0  0.00000000000E+00  0.00000000000E+00  0.75331576885E+02  0.21074423876E+04  0.21060955749E+04 0.  0.
        1    1    3    3  502    0  0.53186925359E+03 -0.30556912019E+03 -0.81883265853E+03  0.10231052306E+04  0.50400001928E-02 0. -1.
       -1    1    3    3    0  502 -0.53186925359E+03  0.30556912019E+03  0.89416423542E+03  0.10843371570E+04  0.50400001928E-02 0.  1.
</event>
<event>
 5   0  0.3242231E-05  0.2101220E+04  0.7818609E-02  0.8560706E-01
        2   -1    0    0  501    0  0.00000000000E+00  0.00000000000E+00  0.81208755730E+03  0.81208755730E+03  0.25500000920E-02 0. -1.
       -2   -1    0    0    0  501  0.00000000000E+00  0.00000000000E+00 -0.13591905602E+04  0.13591905602E+04  0.25500000920E-02 0.  1.
    10030    2    1    2    0    0  0.00000000000E+00  0.00000000000E+00 -0.54710300285E+03  0.21712781175E+04  0.21012203520E+04 0.  0.
        4    1    3    3  502    0 -0.35849393490E+03  0.33146088012E+02 -0.12934566823E+04  0.13426274116E+04  0.12699999809E+01 0.  1.
       -4    1    3    3    0  502  0.35849393490E+03 -0.33146088012E+02  0.74635367947E+03  0.82865070583E+03  0.12699999809E+01 0. -1.
</event>
<event>
 5   0  0.3257130E-05  0.2096370E+04  0.7818609E-02  0.8562844E-01
        2   -1    0    0  501    0  0.00000000000E+00  0.00000000000E+00  0.46940091595E+03  0.46940091596E+03  0.25500000920E-02 0. -1.
       -2   -1    0    0    0  501  0.00000000000E+00  0.00000000000E+00 -0.23406260637E+04  0.23406260637E+04  0.25500000920E-02 0.  1.
    10030    2    1    2    0    0  0.00000000000E+00  0.00000000000E+00 -0.18712251477E+04  0.28100269796E+04  0.20963702137E+04 0.  0.
        3    1    3    3  502    0 -0.15502239154E+03 -0.75484386463E+03 -0.18880416354E+04  0.20392455539E+04  0.10100000352E+00 0.  1.
       -3    1    3    3    0  502  0.15502239154E+03  0.75484386463E+03  0.16816487655E+02  0.77078142577E+03  0.10100000352E+00 0. -1.
</event>
<event>
 5   0  0.1492552E-05  0.2098723E+04  0.7818609E-02  0.8561806E-01
        1   -1    0    0  501    0  0.00000000000E+00  0.00000000000E+00  0.18823599360E+04  0.18823599360E+04  0.50400001928E-02 0. -1.
       -1   -1    0    0    0  501  0.00000000000E+00  0.00000000000E+00 -0.58498897644E+03  0.58498897647E+03  0.50400001928E-02 0.  1.
    10030    2    1    2    0    0  0.00000000000E+00  0.00000000000E+00  0.12973709596E+04  0.24673489125E+04  0.20987232426E+04 0.  0.
        4    1    3    3  502    0 -0.64992522650E+03  0.13947350176E+03 -0.30590647757E+03  0.73173495452E+03  0.12699999809E+01 0.  1.
       -4    1    3    3    0  502  0.64992522650E+03 -0.13947350176E+03  0.16032774371E+04  0.17356139579E+04  0.12699999809E+01 0. -1.
</event>
<event>
 5   0  0.1435410E-05  0.2068258E+04  0.7818609E-02  0.8575356E-01
       -1   -1    0    0    0  501  0.00000000000E+00  0.00000000000E+00  0.79646782761E+03  0.79646782763E+03  0.50400001928E-02 0. -1.
        1   -1    0    0  501    0  0.00000000000E+00  0.00000000000E+00 -0.13427065655E+04  0.13427065655E+04  0.50400001928E-02 0.  1.
    10030    2    1    2    0    0  0.00000000000E+00  0.00000000000E+00 -0.54623873791E+03  0.21391743932E+04  0.20682577996E+04 0.  0.
        2    1    3    3  502    0 -0.78709733343E+03  0.15449070907E+03 -0.94821163941E+03  0.12419721835E+04  0.25500000920E-02 0.  1.
       -2    1    3    3    0  502  0.78709733343E+03 -0.15449070907E+03  0.40197290150E+03  0.89720220966E+03  0.25500000920E-02 0. -1.
</event>
<event>
 5   0  0.3108326E-05  0.2100747E+04  0.7818609E-02  0.8560915E-01
        2   -1    0    0  501    0  0.00000000000E+00  0.00000000000E+00  0.90526480088E+03  0.90526480088E+03  0.25500000920E-02 0. -1.
       -2   -1    0    0    0  501  0.00000000000E+00  0.00000000000E+00 -0.12187419032E+04  0.12187419032E+04  0.25500000920E-02 0.  1.
    10030    2    1    2    0    0  0.00000000000E+00  0.00000000000E+00 -0.31347710236E+03  0.21240067041E+04  0.21007466733E+04 0.  0.
        5    1    3    3  502    0 -0.24794833681E+03  0.10077227111E+04  0.71631434626E+01  0.10378134904E+04  0.46999998093E+01 0. -1.
       -5    1    3    3    0  502  0.24794833681E+03 -0.10077227111E+04 -0.32064024583E+03  0.10861932137E+04  0.46999998093E+01 0.  1.
</event>
<event>
 5   0  0.1513292E-05  0.2102540E+04  0.7818609E-02  0.8560125E-01
       -1   -1    0    0    0  501  0.00000000000E+00  0.00000000000E+00  0.77968182567E+03  0.77968182569E+03  0.50400001928E-02 0.  1.
        1   -1    0    0  501    0  0.00000000000E+00  0.00000000000E+00 -0.14174609220E+04  0.14174609221E+04  0.50400001928E-02 0. -1.
    10030    2    1    2    0    0  0.00000000000E+00  0.00000000000E+00 -0.63777909637E+03  0.21971427477E+04  0.21025399112E+04 0.  0.
        1    1    3    3  502    0  0.72508030569E+03 -0.50959311413E+03 -0.90978931681E+03  0.12700957415E+04  0.50400001928E-02 0. -1.
       -1    1    3    3    0  502 -0.72508030569E+03  0.50959311413E+03  0.27201022044E+03  0.92704700621E+03  0.50400001928E-02 0.  1.
</event>
<event>
 5   0  0.3257130E-05  0.2100511E+04  0.7818609E-02  0.8561018E-01
       -2   -1    0    0    0  501  0.00000000000E+00  0.00000000000E+00  0.12301537414E+04  0.12301537414E+04  0.25500000920E-02 0.  1.
        2   -1    0    0  501    0  0.00000000000E+00  0.00000000000E+00 -0.89666595463E+03  0.89666595463E+03  0.25500000920E-02 0. -1.
    10030    2    1    2    0    0  0.00000000000E+00  0.00000000000E+00  0.33348778678E+03  0.21268196960E+04  0.21005113462E+04 0.  0.
        3    1    3    3  502    0  0.49845915763E+03  0.11957646378E+03 -0.76140329980E+03  0.91787529526E+03  0.10100000352E+00 0. -1.
       -3    1    3    3    0  502 -0.49845915763E+03 -0.11957646378E+03  0.10948910866E+04  0.12089444008E+04  0.10100000352E+00 0.  1.
</event>
<event>
 5   0  0.1435410E-05  0.2103284E+04  0.7818609E-02  0.8559798E-01
       -1   -1    0    0    0  501  0.00000000000E+00  0.00000000000E+00  0.69244831197E+03  0.69244831199E+03  0.50400001928E-02 0. -1.
        1   -1    0    0  501    0  0.00000000000E+00  0.00000000000E+00 -0.15971595258E+04  0.15971595258E+04  0.50400001928E-02 0.  1.
    10030    2    1    2    0    0  0.00000000000E+00  0.00000000000E+00 -0.90471121379E+03  0.22896078378E+04  0.21032835449E+04 0.  0.
        2    1    3    3  502    0  0.24353388211E+03  0.45688228609E+03 -0.14488146137E+04  0.15385428041E+04  0.25500000920E-02 0.  1.
       -2    1    3    3    0  502 -0.24353388211E+03 -0.45688228609E+03  0.54410339989E+03  0.75106503371E+03  0.25500000920E-02 0. -1.
</event>
<event>
 5   0  0.1492552E-05  0.2100368E+04  0.7818609E-02  0.8561081E-01
       -1   -1    0    0    0  501  0.00000000000E+00  0.00000000000E+00  0.84861245950E+03  0.84861245951E+03  0.50400001928E-02 0. -1.
        1   -1    0    0  501    0  0.00000000000E+00  0.00000000000E+00 -0.12996347932E+04  0.12996347932E+04  0.50400001928E-02 0.  1.
    10030    2    1    2    0    0  0.00000000000E+00  0.00000000000E+00 -0.45102233372E+03  0.21482472527E+04  0.21003678519E+04 0.  0.
        4    1    3    3  502    0  0.71964902655E+03 -0.11175290187E+03  0.54837505719E+03  0.91164699787E+03  0.12699999809E+01 0. -1.
       -4    1    3    3    0  502 -0.71964902655E+03  0.11175290187E+03 -0.99939739090E+03  0.12366002549E+04  0.12699999809E+01 0.  1.
</event>
<event>
 5   0  0.1129987E-05  0.2097859E+04  0.7818609E-02  0.8562187E-01
       -3   -1    0    0    0  501  0.00000000000E+00  0.00000000000E+00  0.82626906291E+03  0.82626906908E+03  0.10100000352E+00 0.  1.
        3   -1    0    0  501    0  0.00000000000E+00  0.00000000000E+00 -0.13315921561E+04  0.13315921599E+04  0.10100000352E+00 0. -1.
    10030    2    1    2    0    0  0.00000000000E+00  0.00000000000E+00 -0.50532309315E+03  0.21578612290E+04  0.20978593030E+04 0.  0.
        2    1    3    3  502    0  0.10982938258E+02  0.76027392430E+02 -0.13286950551E+04  0.13309137233E+04  0.25500000920E-02 0. -1.
       -2    1    3    3    0  502 -0.10982938258E+02 -0.76027392430E+02  0.82337196199E+03  0.82694750567E+03  0.25500000920E-02 0.  1.
</event>
<event>
 5   0  0.3242231E-05  0.2101230E+04  0.7818609E-02  0.8560702E-01
       -2   -1    0    0    0  501  0.00000000000E+00  0.00000000000E+00  0.81400679822E+03  0.81400679822E+03  0.25500000920E-02 0. -1.
        2   -1    0    0  501    0  0.00000000000E+00  0.00000000000E+00 -0.13559977268E+04  0.13559977268E+04  0.25500000920E-02 0.  1.
    10030    2    1    2    0    0  0.00000000000E+00  0.00000000000E+00 -0.54199092856E+03  0.21700045250E+04  0.21012295143E+04 0.  0.
        4    1    3    3  502    0 -0.33139628658E+03  0.98510169871E+03 -0.11254311820E+03  0.10454264307E+04  0.12699999809E+01 0.  1.
       -4    1    3    3    0  502  0.33139628658E+03 -0.98510169871E+03 -0.42944781036E+03  0.11245780943E+04  0.12699999809E+01 0. -1.
</event>
<event>
 5   0  0.1453430E-05  0.2101432E+04  0.7818609E-02  0.8560613E-01
       -1   -1    0    0    0  501  0.00000000000E+00  0.00000000000E+00  0.71239093657E+03  0.71239093659E+03  0.50400001928E-02 0.  1.
        1   -1    0    0  501    0  0.00000000000E+00  0.00000000000E+00 -0.15497171889E+04  0.15497171889E+04  0.50400001928E-02 0. -1.
    10030    2    1    2    0    0  0.00000000000E+00  0.00000000000E+00 -0.83732625230E+03  0.22621081255E+04  0.21014323493E+04 0.  0.
        5    1    3    3  502    0 -0.37801524541E+03 -0.82350530275E+03  0.15391438192E+03  0.91911274411E+03  0.46999998093E+01 0.  1.
       -5    1    3    3    0  502  0.37801524541E+03  0.82350530275E+03 -0.99124063423E+03  0.13429953814E+04  0.46999998093E+01 0. -1.
</event>
<event>
 5   0  0.3279789E-05  0.2103885E+04  0.7818609E-02  0.8559534E-01
       -2   -1    0    0    0  501  0.00000000000E+00  0.00000000000E+00  0.43925031978E+03  0.43925031978E+03  0.25500000920E-02 0.  1.
        2   -1    0    0  501    0  0.00000000000E+00  0.00000000000E+00 -0.25192534497E+04  0.25192534497E+04  0.25500000920E-02 0. -1.
    10030    2    1    2    0    0  0.00000000000E+00  0.00000000000E+00 -0.20800031299E+04  0.29585037694E+04  0.21038848670E+04 0.  0.
        2    1    3    3  502    0  0.50664237947E+03  0.17842245897E+03 -0.23118730076E+04  0.23734527334E+04  0.25500000920E-02 0. -1.
       -2    1    3    3    0  502 -0.50664237947E+03 -0.17842245897E+03  0.23186987772E+03  0.58505103601E+03  0.25500000920E-02 0.  1.
</event>
<event>
 5   0  0.1435410E-05  0.2091870E+04  0.7818609E-02  0.8564833E-01
        1   -1    0    0  501    0  0.00000000000E+00  0.00000000000E+00  0.81752308459E+03  0.81752308461E+03  0.50400001928E-02 0.  1.
       -1   -1    0    0    0  501  0.00000000000E+00  0.00000000000E+00 -0.13381643404E+04  0.13381643404E+04  0.50400001928E-02 0. -1.
    10030    2    1    2    0    0  0.00000000000E+00  0.00000000000E+00 -0.52064125580E+03  0.21556874250E+04  0.20918702056E+04 0.  0.
        2    1    3    3  502    0  0.42220844422E+03  0.93725516459E+03 -0.45927265862E+03  0.11258945727E+04  0.25500000920E-02 0. -1.
       -2    1    3    3    0  502 -0.42220844422E+03 -0.93725516459E+03 -0.61368597182E+02  0.10297928523E+04  0.25500000920E-02 0.  1.
</event>
<event>
 5   0  0.1513292E-05  0.2106536E+04  0.7818609E-02  0.8558370E-01
       -1   -1    0    0    0  501  0.00000000000E+00  0.00000000000E+00  0.11140505131E+04  0.11140505131E+04  0.50400001928E-02 0.  1.
        1   -1    0    0  501    0  0.00000000000E+00  0.00000000000E+00 -0.99580146657E+03  0.99580146658E+03  0.50400001928E-02 0. -1.
    10030    2    1    2    0    0  0.00000000000E+00  0.00000000000E+00  0.11824904654E+03  0.21098519797E+04  0.21065356724E+04 0.  0.
        1    1    3    3  502    0  0.10080337182E+04 -0.24870622907E+03  0.23656541455E+03  0.10648708658E+04  0.50400001928E-02 0. -1.
       -1    1    3    3    0  502 -0.10080337182E+04  0.24870622907E+03 -0.11831636800E+03  0.10449811139E+04  0.50400001928E-02 0.  1.
</event>
<event>
 5   0  0.3279789E-05  0.2088800E+04  0.7818609E-02  0.8566193E-01
        2   -1    0    0  501    0  0.00000000000E+00  0.00000000000E+00  0.13714906236E+04  0.13714906236E+04  0.25500000920E-02 0.  1.
       -2   -1    0    0    0  501  0.00000000000E+00  0.00000000000E+00 -0.79531837067E+03  0.79531837067E+03  0.25500000920E-02 0. -1.
    10030    2    1    2    0    0  0.00000000000E+00  0.00000000000E+00  0.57617225289E+03  0.21668089942E+04  0.20888003142E+04 0.  0.
        2    1    3    3  502    0  0.55447916923E+03  0.43726544704E+03 -0.51014717564E+03  0.87114772634E+03  0.25500000920E-02 0. -1.
       -2    1    3    3    0  502 -0.55447916923E+03 -0.43726544704E+03  0.10863194285E+04  0.12956612679E+04  0.25500000920E-02 0.  1.
</event>
<event>
 5   0  0.3130517E-05  0.2056280E+04  0.7818609E-02  0.8580751E-01
       -2   -1    0    0    0  501  0.00000000000E+00  0.00000000000E+00  0.55236195540E+03  0.55236195541E+03  0.25500000920E-02 0.  1.
        2   -1    0    0  501    0  0.00000000000E+00  0.00000000000E+00 -0.19137308004E+04  0.19137308004E+04  0.25500000920E-02 0. -1.
    10030    2    1    2    0    0  0.00000000000E+00  0.00000000000E+00 -0.13613688450E+04  0.24660927558E+04  0.20562802212E+04 0.  0.
        1    1    3    3  502    0  0.70510730637E+03  0.73788372586E+03 -0.82962632504E+03  0.13152674806E+04  0.50400001928E-02 0. -1.
       -1    1    3    3    0  502 -0.70510730637E+03 -0.73788372586E+03 -0.53174251994E+03  0.11508252751E+04  0.50400001928E-02 0.  1.
</event>
<event>
 5   0  0.1435410E-05  0.2107241E+04  0.7818609E-02  0.8558060E-01
        1   -1    0    0  501    0  0.00000000000E+00  0.00000000000E+00  0.14211942612E+04  0.14211942612E+04  0.50400001928E-02 0.  1.
       -1   -1    0    0    0  501  0.00000000000E+00  0.00000000000E+00 -0.78111499689E+03  0.78111499691E+03  0.50400001928E-02 0. -1.
    10030    2    1    2    0    0  0.00000000000E+00  0.00000000000E+00  0.64007926430E+03  0.22023092581E+04  0.21072409933E+04 0.  0.
        2    1    3    3  502    0  0.57565229266E+03  0.41197311562E+03  0.11356437819E+04  0.13382018567E+04  0.25500000920E-02 0.  1.
       -2    1    3    3    0  502 -0.57565229266E+03 -0.41197311562E+03 -0.49556451757E+03  0.86410740138E+03  0.25500000920E-02 0. -1.
</event>
<event>
 5   0  0.1513292E-05  0.2104250E+04  0.7818609E-02  0.8559373E-01
        1   -1    0    0  501    0  0.00000000000E+00  0.00000000000E+00  0.91173534921E+03  0.91173534922E+03  0.50400001928E-02 0.  1.
       -1   -1    0    0    0  501  0.00000000000E+00  0.00000000000E+00 -0.12141321846E+04  0.12141321846E+04  0.50400001928E-02 0. -1.
    10030    2    1    2    0    0  0.00000000000E+00  0.00000000000E+00 -0.30239683540E+03  0.21258675338E+04  0.21042502050E+04 0.  0.
        1    1    3    3  502    0  0.90844202788E+03 -0.37656194453E+03  0.22667807451E+03  0.10091822261E+04  0.50400001928E-02 0.  1.
       -1    1    3    3    0  502 -0.90844202788E+03  0.37656194453E+03 -0.52907490991E+03  0.11166853077E+04  0.50400001928E-02 0. -1.
</event>
<event>
 5   0  0.1492552E-05  0.2104176E+04  0.7818609E-02  0.8559406E-01
       -1   -1    0    0    0  501  0.00000000000E+00  0.00000000000E+00  0.10607788397E+04  0.10607788397E+04  0.50400001928E-02 0. -1.
        1   -1    0    0  501    0  0.00000000000E+00  0.00000000000E+00 -0.10434683406E+04  0.10434683406E+04  0.50400001928E-02 0.  1.
    10030    2    1    2    0    0  0.00000000000E+00  0.00000000000E+00  0.17310499106E+02  0.21042471803E+04  0.21041759771E+04 0.  0.
        4    1    3    3  502    0  0.38732053324E+03 -0.29436201041E+03  0.94154336177E+03  0.10597979542E+04  0.12699999809E+01 0. -1.
       -4    1    3    3    0  502 -0.38732053324E+03  0.29436201041E+03 -0.92423286267E+03  0.10444492261E+04  0.12699999809E+01 0.  1.
</event>
<event>
 5   0  0.3242231E-05  0.2104962E+04  0.7818609E-02  0.8559061E-01
       -2   -1    0    0    0  501  0.00000000000E+00  0.00000000000E+00  0.11822731215E+04  0.11822731215E+04  0.25500000920E-02 0. -1.
        2   -1    0    0  501    0  0.00000000000E+00  0.00000000000E+00 -0.93693801442E+03  0.93693801442E+03  0.25500000920E-02 0.  1.
    10030    2    1    2    0    0  0.00000000000E+00  0.00000000000E+00  0.24533510711E+03  0.21192111360E+04  0.21049623569E+04 0.  0.
        4    1    3    3  502    0 -0.91147227794E+03 -0.52330548632E+03  0.66751767619E+02  0.10531323549E+04  0.12699999809E+01 0. -1.
       -4    1    3    3    0  502  0.91147227794E+03  0.52330548632E+03  0.17858333950E+03  0.10660787811E+04  0.12699999809E+01 0.  1.
</event>
<event>
 5   0  0.1466480E-05  0.2094260E+04  0.7818609E-02  0.8563776E-01
       -1   -1    0    0    0  501  0.00000000000E+00  0.00000000000E+00  0.12986661820E+04  0.12986661820E+04  0.50400001928E-02 0.  1.
        1   -1    0    0  501    0  0.00000000000E+00  0.00000000000E+00 -0.84431343670E+03  0.84431343672E+03  0.50400001928E-02 0. -1.
    10030    2    1    2    0    0  0.00000000000E+00  0.00000000000E+00  0.45435274526E+03  0.21429796187E+04  0.20942600672E+04 0.  0.
        3    1    3    3  502    0  0.59826751834E+03  0.63370370190E+03 -0.36682505510E+03  0.94555012377E+03  0.10100000352E+00 0. -1.
       -3    1    3    3    0  502 -0.59826751834E+03 -0.63370370190E+03  0.82117780036E+03  0.11974294949E+04  0.10100000352E+00 0.  1.
</event>
<event>
 5   0  0.1513292E-05  0.2074702E+04  0.7818609E-02  0.8572470E-01
       -1   -1    0    0    0  501  0.00000000000E+00  0.00000000000E+00  0.97683673784E+03  0.97683673786E+03  0.50400001928E-02 0. -1.
        1   -1    0    0  501    0  0.00000000000E+00  0.00000000000E+00 -0.11016141888E+04  0.11016141889E+04  0.50400001928E-02 0.  1.
    10030    2    1    2    0    0  0.00000000000E+00  0.00000000000E+00 -0.12477745100E+03  0.20784509267E+04  0.20747021093E+04 0.  0.
        1    1    3    3  502    0  0.32847325380E+03  0.92730767144E+03  0.26730015455E+03  0.10194329643E+04  0.50400001928E-02 0.  1.
       -1    1    3    3    0  502 -0.32847325380E+03 -0.92730767144E+03 -0.39207760555E+03  0.10590179624E+04  0.50400001928E-02 0. -1.
</event>
<event>
 5   0  0.1513292E-05  0.2104682E+04  0.7818609E-02  0.8559184E-01
       -1   -1    0    0    0  501  0.00000000000E+00  0.00000000000E+00  0.87162156074E+03  0.87162156076E+03  0.50400001928E-02 0.  1.
        1   -1    0    0  501    0  0.00000000000E+00  0.00000000000E+00 -0.12705306599E+04  0.12705306599E+04  0.50400001928E-02 0. -1.
    10030    2    1    2    0    0  0.00000000000E+00  0.00000000000E+00 -0.39890909915E+03  0.21421522207E+04  0.21046823198E+04 0.  0.
        1    1    3    3  502    0 -0.50246268859E+03  0.73682952823E+03  0.36909159101E+03  0.96520210820E+03  0.50400001928E-02 0.  1.
       -1    1    3    3    0  502  0.50246268859E+03 -0.73682952823E+03 -0.76800069016E+03  0.11769501125E+04  0.50400001928E-02 0. -1.
</event>
<event>
 5   0  0.3242231E-05  0.2106505E+04  0.7818609E-02  0.8558383E-01
       -2   -1    0    0    0  501  0.00000000000E+00  0.00000000000E+00  0.39594454147E+03  0.39594454147E+03  0.25500000920E-02 0.  1.
        2   -1    0    0  501    0  0.00000000000E+00  0.00000000000E+00 -0.28017593044E+04  0.28017593044E+04  0.25500000920E-02 0. -1.
    10030    2    1    2    0    0  0.00000000000E+00  0.00000000000E+00 -0.24058147630E+04  0.31977038459E+04  0.21065054504E+04 0.  0.
        4    1    3    3  502    0 -0.84892700925E+02  0.79804046027E+03 -0.16746595283E+03  0.81983035145E+03  0.12699999809E+01 0.  1.
       -4    1    3    3    0  502  0.84892700925E+02 -0.79804046027E+03 -0.22383488101E+04  0.23778734944E+04  0.12699999809E+01 0. -1.
</event>
<event>
 5   0  0.3257130E-05  0.2103802E+04  0.7818609E-02  0.8559571E-01
        2   -1    0    0  501    0  0.00000000000E+00  0.00000000000E+00  0.10371424766E+04  0.10371424766E+04  0.25500000920E-02 0.  1.
       -2   -1    0    0    0  501  0.00000000000E+00  0.00000000000E+00 -0.10668692739E+04  0.10668692739E+04  0.25500000920E-02 0. -1.
    10030    2    1    2    0    0  0.00000000000E+00  0.00000000000E+00 -0.29726797346E+02  0.21040117505E+04  0.21038017406E+04 0.  0.
        3    1    3    3  502    0  0.15855057473E+03 -0.10388264064E+04 -0.61738574365E+02  0.10526681571E+04  0.10100000352E+00 0. -1.
       -3    1    3    3    0  502 -0.15855057473E+03  0.10388264064E+04  0.32011777019E+02  0.10513435934E+04  0.10100000352E+00 0.  1.
</event>
<event>
 5   0  0.3108326E-05  0.2099977E+04  0.7818609E-02  0.8561253E-01
        2   -1    0    0  501    0  0.00000000000E+00  0.00000000000E+00  0.15970832192E+04  0.15970832192E+04  0.25500000920E-02 0.  1.
       -2   -1    0    0    0  501  0.00000000000E+00  0.00000000000E+00 -0.69030584492E+03  0.69030584493E+03  0.25500000920E-02 0. -1.
    10030    2    1    2    0    0  0.00000000000E+00  0.00000000000E+00  0.90677737427E+03  0.22873890641E+04  0.20999770294E+04 0.  0.
        5    1    3    3  502    0 -0.19193467585E+03  0.58657405483E+03  0.13786351479E+04  0.15104850223E+04  0.46999998093E+01 0.  1.
       -5    1    3    3    0  502  0.19193467585E+03 -0.58657405483E+03 -0.47185777366E+03  0.77690404179E+03  0.46999998093E+01 0. -1.
</event>
<event>
 5   0  0.3257130E-05  0.2103110E+04  0.7818609E-02  0.8559875E-01
       -2   -1    0    0    0  501  0.00000000000E+00  0.00000000000E+00  0.80370239927E+03  0.80370239927E+03  0.25500000920E-02 0. -1.
        2   -1    0    0  501    0  0.00000000000E+00  0.00000000000E+00 -0.13758419317E+04  0.13758419317E+04  0.25500000920E-02 0.  1.
    10030    2    1    2    0    0  0.00000000000E+00  0.00000000000E+00 -0.57213953241E+03  0.21795443309E+04  0.21031095659E+04 0.  0.
        3    1    3    3  502    0  0.87651042155E+03  0.45309065627E+03  0.90745982021E+02  0.99085645042E+03  0.10100000352E+00 0. -1.
       -3    1    3    3    0  502 -0.87651042155E+03 -0.45309065627E+03 -0.66288551443E+03  0.11886878805E+04  0.10100000352E+00 0.  1.
</event>
<event>
 5   0  0.1453430E-05  0.2098567E+04  0.7818609E-02  0.8561875E-01
       -1   -1    0    0    0  501  0.00000000000E+00  0.00000000000E+00  0.42831580529E+03  0.42831580532E+03  0.50400001928E-02 0. -1.
        1   -1    0    0  501    0  0.00000000000E+00  0.00000000000E+00 -0.25705244830E+04  0.25705244830E+04  0.50400001928E-02 0.  1.
    10030    2    1    2    0    0  0.00000000000E+00  0.00000000000E+00 -0.21422086777E+04  0.29988402883E+04  0.20985673818E+04 0.  0.
        5    1    3    3  502    0 -0.76337578523E+03 -0.65852047191E+03 -0.65550930424E+03  0.12025416165E+04  0.46999998093E+01 0. -1.
       -5    1    3    3    0  502  0.76337578523E+03  0.65852047191E+03 -0.14866993734E+04  0.17962986718E+04  0.46999998093E+01 0.  1.
</event>
<event>
 5   0  0.3108326E-05  0.2125318E+04  0.7818609E-02  0.8550172E-01
        2   -1    0    0  501    0  0.00000000000E+00  0.00000000000E+00  0.15062841783E+04  0.15062841783E+04  0.25500000920E-02 0.  1.
       -2   -1    0    0    0  501  0.00000000000E+00  0.00000000000E+00 -0.74968857693E+03  0.74968857693E+03  0.25500000920E-02 0. -1.
    10030    2    1    2    0    0  0.00000000000E+00  0.00000000000E+00  0.75659560135E+03  0.22559727552E+04  0.21253178982E+04 0.  0.
        5    1    3    3  502    0 -0.83847375935E+03  0.64791088913E+03  0.46318389748E+03  0.11564550049E+04  0.46999998093E+01 0.  1.
       -5    1    3    3    0  502  0.83847375935E+03 -0.64791088913E+03  0.29341170387E+03  0.10995177504E+04  0.46999998093E+01 0. -1.
</event>
<event>
 5   0  0.3279789E-05  0.2100069E+04  0.7818609E-02  0.8561213E-01
        2   -1    0    0  501    0  0.00000000000E+00  0.00000000000E+00  0.12183087812E+04  0.12183087812E+04  0.25500000920E-02 0.  1.
       -2   -1    0    0    0  501  0.00000000000E+00  0.00000000000E+00 -0.90500215970E+03  0.90500215971E+03  0.25500000920E-02 0. -1.
    10030    2    1    2    0    0  0.00000000000E+00  0.00000000000E+00  0.31330662151E+03  0.21233109409E+04  0.21000686448E+04 0.  0.
        2    1    3    3  502    0  0.53320355418E+03  0.54847587831E+03 -0.57064104069E+03  0.95433904699E+03  0.25500000920E-02 0. -1.
       -2    1    3    3    0  502 -0.53320355418E+03 -0.54847587831E+03  0.88394766220E+03  0.11689718939E+04  0.25500000920E-02 0.  1.
</event>
<event>
 5   0  0.3108326E-05  0.2091488E+04  0.7818609E-02  0.8565002E-01
       -2   -1    0    0    0  501  0.00000000000E+00  0.00000000000E+00  0.77126272690E+03  0.77126272690E+03  0.25500000920E-02 0. -1.
        2   -1    0    0  501    0  0.00000000000E+00  0.00000000000E+00 -0.14179088201E+04  0.14179088201E+04  0.25500000920E-02 0.  1.
    10030    2    1    2    0    0  0.00000000000E+00  0.00000000000E+00 -0.64664609323E+03  0.21891715470E+04  0.20914877223E+04 0.  0.
        5    1    3    3  502    0  0.79807311012E+03  0.52354859304E+03  0.12387174352E+03  0.96249161929E+03  0.46999998093E+01 0. -1.
       -5    1    3    3    0  502 -0.79807311012E+03 -0.52354859304E+03 -0.77051783675E+03  0.12266799277E+04  0.46999998093E+01 0.  1.
</event>
<event>
 5   0  0.1513292E-05  0.2137638E+04  0.7818609E-02  0.8544842E-01
       -1   -1    0    0    0  501  0.00000000000E+00  0.00000000000E+00  0.61024313960E+03  0.61024313962E+03  0.50400001928E-02 0.  1.
        1   -1    0    0  501    0  0.00000000000E+00  0.00000000000E+00 -0.18719982546E+04  0.18719982546E+04  0.50400001928E-02 0. -1.
    10030    2    1    2    0    0  0.00000000000E+00  0.00000000000E+00 -0.12617551150E+04  0.24822413942E+04  0.21376380351E+04 0.  0.
        1    1    3    3  502    0  0.31825448296E+03 -0.60037432480E+03 -0.15888835187E+04  0.17280874057E+04  0.50400001928E-02 0. -1.
       -1    1    3    3    0  502 -0.31825448296E+03  0.60037432480E+03  0.32712840371E+03  0.75415398848E+03  0.50400001928E-02 0.  1.
</event>
<event>
 5   0  0.3279789E-05  0.2088969E+04  0.7818609E-02  0.8566118E-01
       -2   -1    0    0    0  501  0.00000000000E+00  0.00000000000E+00  0.64680076459E+03  0.64680076460E+03  0.25500000920E-02 0. -1.
        2   -1    0    0  501    0  0.00000000000E+00  0.00000000000E+00 -0.16866830693E+04  0.16866830693E+04  0.25500000920E-02 0.  1.
    10030    2    1    2    0    0  0.00000000000E+00  0.00000000000E+00 -0.10398823047E+04  0.23334838339E+04  0.20889690269E+04 0.  0.
        2    1    3    3  502    0  0.66820966071E+03  0.71268941886E+01 -0.14166432543E+04  0.15663438490E+04  0.25500000920E-02 0.  1.
       -2    1    3    3    0  502 -0.66820966071E+03 -0.71268941886E+01  0.37676094960E+03  0.76713998490E+03  0.25500000920E-02 0. -1.
</event>
<event>
 5   0  0.1453430E-05  0.2116423E+04  0.7818609E-02  0.8554043E-01
       -1   -1    0    0    0  501  0.00000000000E+00  0.00000000000E+00  0.74892419256E+03  0.74892419257E+03  0.50400001928E-02 0. -1.
        1   -1    0    0  501    0  0.00000000000E+00  0.00000000000E+00 -0.14952266489E+04  0.14952266489E+04  0.50400001928E-02 0.  1.
    10030    2    1    2    0    0  0.00000000000E+00  0.00000000000E+00 -0.74630245638E+03  0.22441508415E+04  0.21164228413E+04 0.  0.
        5    1    3    3  502    0 -0.38922642667E+02 -0.64187223732E+03 -0.12642715157E+04  0.14184214806E+04  0.46999998093E+01 0.  1.
       -5    1    3    3    0  502  0.38922642667E+02  0.64187223732E+03  0.51796905930E+03  0.82572936096E+03  0.46999998093E+01 0. -1.
</event>
<event>
 5   0  0.1466480E-05  0.2088192E+04  0.7818609E-02  0.8566463E-01
       -1   -1    0    0    0  501  0.00000000000E+00  0.00000000000E+00  0.82398670759E+03  0.82398670761E+03  0.50400001928E-02 0.  1.
        1   -1    0    0  501    0  0.00000000000E+00  0.00000000000E+00 -0.13230020949E+04  0.13230020949E+04  0.50400001928E-02 0. -1.
    10030    2    1    2    0    0  0.00000000000E+00  0.00000000000E+00 -0.49901538733E+03  0.21469888025E+04  0.20881916965E+04 0.  0.
        3    1    3    3  502    0  0.84717714932E+03  0.32290734044E+03  0.28291269521E+03  0.94974621671E+03  0.10100000352E+00 0.  1.
       -3    1    3    3    0  502 -0.84717714932E+03 -0.32290734044E+03 -0.78192808255E+03  0.11972425858E+04  0.10100000352E+00 0. -1.
</event>
<event>
 5   0  0.3242231E-05  0.2096509E+04  0.7818609E-02  0.8562783E-01
        2   -1    0    0  501    0  0.00000000000E+00  0.00000000000E+00  0.15110355262E+04  0.15110355262E+04  0.25500000920E-02 0.  1.
       -2   -1    0    0    0  501  0.00000000000E+00  0.00000000000E+00 -0.72720816992E+03  0.72720816992E+03  0.25500000920E-02 0. -1.
    10030    2    1    2    0    0  0.00000000000E+00  0.00000000000E+00  0.78382735632E+03  0.22382436962E+04  0.20965088883E+04 0.  0.
        4    1    3    3  502    0 -0.19658337722E+03  0.15160725599E+03 -0.69537075094E+03  0.73835755459E+03  0.12699999809E+01 0. -1.
       -4    1    3    3    0  502  0.19658337722E+03 -0.15160725599E+03  0.14791981073E+04  0.14998861416E+04  0.12699999809E+01 0.  1.
</event>
<event>
 5   0  0.1453430E-05  0.2094311E+04  0.7818609E-02  0.8563754E-01
        1   -1    0    0  501    0  0.00000000000E+00  0.00000000000E+00  0.19535744979E+04  0.19535744979E+04  0.50400001928E-02 0. -1.
       -1   -1    0    0    0  501  0.00000000000E+00  0.00000000000E+00 -0.56129659046E+03  0.56129659049E+03  0.50400001928E-02 0.  1.
    10030    2    1    2    0    0  0.00000000000E+00  0.00000000000E+00  0.13922779074E+04  0.25148710884E+04  0.20943110609E+04 0.  0.
        5    1    3    3  502    0  0.84265257338E+03 -0.51648509352E+03  0.11115785007E+04  0.14874303562E+04  0.46999998093E+01 0. -1.
       -5    1    3    3    0  502 -0.84265257338E+03  0.51648509352E+03  0.28069940671E+03  0.10274407322E+04  0.46999998093E+01 0.  1.
</event>
<event>
 5   0  0.1513292E-05  0.2103749E+04  0.7818609E-02  0.8559594E-01
        1   -1    0    0  501    0  0.00000000000E+00  0.00000000000E+00  0.17453260845E+04  0.17453260845E+04  0.50400001928E-02 0.  1.
       -1   -1    0    0    0  501  0.00000000000E+00  0.00000000000E+00 -0.63394436200E+03  0.63394436202E+03  0.50400001928E-02 0. -1.
    10030    2    1    2    0    0  0.00000000000E+00  0.00000000000E+00  0.11113817225E+04  0.23792704466E+04  0.21037486838E+04 0.  0.
        1    1    3    3  502    0 -0.94509637188E+03  0.14752909911E+03  0.60813428769E+02  0.95847287931E+03  0.50400001928E-02 0. -1.
       -1    1    3    3    0  502  0.94509637188E+03 -0.14752909911E+03  0.10505682938E+04  0.14207975672E+04  0.50400001928E-02 0.  1.
</event>
<event>
 5   0  0.1466480E-05  0.2099516E+04  0.7818609E-02  0.8561457E-01
       -1   -1    0    0    0  501  0.00000000000E+00  0.00000000000E+00  0.18671642281E+04  0.18671642281E+04  0.50400001928E-02 0.  1.
        1   -1    0    0  501    0  0.00000000000E+00  0.00000000000E+00 -0.59019543037E+03  0.59019543039E+03  0.50400001928E-02 0. -1.
    10030    2    1    2    0    0  0.00000000000E+00  0.00000000000E+00  0.12769687977E+04  0.24573596585E+04  0.20995159396E+04 0.  0.
        3    1    3    3  502    0 -0.11482379753E+03 -0.54366423829E+03  0.16809239644E+04  0.17703843348E+04  0.10100000352E+00 0.  1.
       -3    1    3    3    0  502  0.11482379753E+03  0.54366423829E+03 -0.40395516670E+03  0.68697532371E+03  0.10100000352E+00 0. -1.
</event>
<event>
 5   0  0.3108326E-05  0.2100800E+04  0.7818609E-02  0.8560891E-01
        2   -1    0    0  501    0  0.00000000000E+00  0.00000000000E+00  0.16628693011E+04  0.16628693011E+04  0.25500000920E-02 0. -1.
       -2   -1    0    0    0  501  0.00000000000E+00  0.00000000000E+00 -0.66351597973E+03  0.66351597973E+03  0.25500000920E-02 0.  1.
    10030    2    1    2    0    0  0.00000000000E+00  0.00000000000E+00  0.99935332137E+03  0.23263852808E+04  0.21008001842E+04 0.  0.
        5    1    3    3  502    0  0.14038755786E+03  0.74506329759E+03  0.13047128362E+04  0.15090147974E+04  0.46999998093E+01 0. -1.
       -5    1    3    3    0  502 -0.14038755786E+03 -0.74506329759E+03 -0.30535951488E+03  0.81737048340E+03  0.46999998093E+01 0.  1.
</event>
<event>
 5   0  0.1492552E-05  0.2049275E+04  0.7818609E-02  0.8583923E-01
        1   -1    0    0  501    0  0.00000000000E+00  0.00000000000E+00  0.19045004206E+04  0.19045004206E+04  0.50400001928E-02 0.  1.
       -1   -1    0    0    0  501  0.00000000000E+00  0.00000000000E+00 -0.55126362556E+03  0.55126362559E+03  0.50400001928E-02 0. -1.
    10030    2    1    2    0    0  0.00000000000E+00  0.00000000000E+00  0.13532367950E+04  0.24557640462E+04  0.20492748052E+04 0.  0.
        4    1    3    3  502    0 -0.94879023321E+03 -0.33713427004E+03  0.90404687999E+03  0.13532053786E+04  0.12699999809E+01 0.  1.
       -4    1    3    3    0  502  0.94879023321E+03  0.33713427004E+03  0.44918991503E+03  0.11025586675E+04  0.12699999809E+01 0. -1.
</event>
<event>
 5   0  0.1453430E-05  0.2100879E+04  0.7818609E-02  0.8560856E-01
        1   -1    0    0  501    0  0.00000000000E+00  0.00000000000E+00  0.65220300112E+03  0.65220300114E+03  0.50400001928E-02 0. -1.
       -1   -1    0    0    0  501  0.00000000000E+00  0.00000000000E+00 -0.16918399722E+04  0.16918399722E+04  0.50400001928E-02 0.  1.
    10030    2    1    2    0    0  0.00000000000E+00  0.00000000000E+00 -0.10396369711E+04  0.23440429734E+04  0.21008789659E+04 0.  0.
        5    1    3    3  502    0  0.16009924066E+03 -0.74378672767E+03 -0.13279056556E+04  0.15304267324E+04  0.46999998093E+01 0.  1.
       -5    1    3    3    0  502 -0.16009924066E+03  0.74378672767E+03  0.28826868448E+03  0.81361624097E+03  0.46999998093E+01 0. -1.
</event>
<event>
 5   0  0.3108326E-05  0.2105270E+04  0.7818609E-02  0.8558925E-01
        2   -1    0    0  501    0  0.00000000000E+00  0.00000000000E+00  0.13120314367E+04  0.13120314367E+04  0.25500000920E-02 0. -1.
       -2   -1    0    0    0  501  0.00000000000E+00  0.00000000000E+00 -0.84452308853E+03  0.84452308854E+03  0.25500000920E-02 0.  1.
    10030    2    1    2    0    0  0.00000000000E+00  0.00000000000E+00  0.46750834816E+03  0.21565545252E+04  0.21052703781E+04 0.  0.
        5    1    3    3  502    0 -0.17427151331E+03  0.36457903820E+03  0.12294036952E+04  0.12941189942E+04  0.46999998093E+01 0. -1.
       -5    1    3    3    0  502  0.17427151331E+03 -0.36457903820E+03 -0.76189534699E+03  0.86243553105E+03  0.46999998093E+01 0.  1.
</event>
<event>
 5   0  0.1453430E-05  0.2103432E+04  0.7818609E-02  0.8559733E-01
       -1   -1    0    0    0  501  0.00000000000E+00  0.00000000000E+00  0.65818721318E+03  0.65818721320E+03  0.50400001928E-02 0. -1.
        1   -1    0    0  501    0  0.00000000000E+00  0.00000000000E+00 -0.16805354214E+04  0.16805354214E+04  0.50400001928E-02 0.  1.
    10030    2    1    2    0    0  0.00000000000E+00  0.00000000000E+00 -0.10223482082E+04  0.23387226346E+04  0.21034323623E+04 0.  0.
        5    1    3    3  502    0 -0.59202103530E+03 -0.38178934805E+03  0.35709743436E+03  0.78980546982E+03  0.46999998093E+01 0. -1.
       -5    1    3    3    0  502  0.59202103530E+03  0.38178934805E+03 -0.13794456426E+04  0.15489171648E+04  0.46999998093E+01 0.  1.
</event>
<event>
 5   0  0.3242231E-05  0.2099079E+04  0.7818609E-02  0.8561649E-01
        2   -1    0    0  501    0  0.00000000000E+00  0.00000000000E+00  0.15633519430E+04  0.15633519430E+04  0.25500000920E-02 0.  1.
       -2   -1    0    0    0  501  0.00000000000E+00  0.00000000000E+00 -0.70459726228E+03  0.70459726228E+03  0.25500000920E-02 0. -1.
    10030    2    1    2    0    0  0.00000000000E+00  0.00000000000E+00  0.85875468070E+03  0.22679492053E+04  0.20990793210E+04 0.  0.
        4    1    3    3  502    0 -0.59080301465E+03 -0.45465004791E+03 -0.36882334315E+03  0.83173742223E+03  0.12699999809E+01 0. -1.
       -4    1    3    3    0  502  0.59080301465E+03  0.45465004791E+03  0.12275780238E+04  0.14362117830E+04  0.12699999809E+01 0.  1.
</event>
<event>
 5   0  0.1492552E-05  0.2094837E+04  0.7818609E-02  0.8563521E-01
        1   -1    0    0  501    0  0.00000000000E+00  0.00000000000E+00  0.13022595865E+04  0.13022595866E+04  0.50400001928E-02 0.  1.
       -1   -1    0    0    0  501  0.00000000000E+00  0.00000000000E+00 -0.84244757345E+03  0.84244757347E+03  0.50400001928E-02 0. -1.
    10030    2    1    2    0    0  0.00000000000E+00  0.00000000000E+00  0.45981201310E+03  0.21447071600E+04  0.20948369184E+04 0.  0.
        4    1    3    3  502    0  0.60013883734E+03  0.78624569058E+03 -0.12287645689E+03  0.99671919145E+03  0.12699999809E+01 0. -1.
       -4    1    3    3    0  502 -0.60013883734E+03 -0.78624569058E+03  0.58268846999E+03  0.11479879686E+04  0.12699999809E+01 0.  1.
</event>
<event>
 5   0  0.1435410E-05  0.2096667E+04  0.7818609E-02  0.8562713E-01
       -1   -1    0    0    0  501  0.00000000000E+00  0.00000000000E+00  0.12688541258E+04  0.12688541258E+04  0.50400001928E-02 0.  1.
        1   -1    0    0  501    0  0.00000000000E+00  0.00000000000E+00 -0.86613787030E+03  0.86613787032E+03  0.50400001928E-02 0. -1.
    10030    2    1    2    0    0  0.00000000000E+00  0.00000000000E+00  0.40271625549E+03  0.21349919961E+04  0.20966665069E+04 0.  0.
        2    1    3    3  502    0  0.14562944566E+03  0.17063173122E+03  0.12441275320E+04  0.12641900328E+04  0.25500000920E-02 0.  1.
       -2    1    3    3    0  502 -0.14562944566E+03 -0.17063173122E+03 -0.84141127649E+03  0.87080196334E+03  0.25500000920E-02 0. -1.
</event>
<event>
 5   0  0.1466480E-05  0.2084209E+04  0.7818609E-02  0.8568231E-01
       -1   -1    0    0    0  501  0.00000000000E+00  0.00000000000E+00  0.13972793306E+04  0.13972793306E+04  0.50400001928E-02 0.  1.
        1   -1    0    0  501    0  0.00000000000E+00  0.00000000000E+00 -0.77721174130E+03  0.77721174132E+03  0.50400001928E-02 0. -1.
    10030    2    1    2    0    0  0.00000000000E+00  0.00000000000E+00  0.62006758929E+03  0.21744910719E+04  0.20842091082E+04 0.  0.
        3    1    3    3  502    0  0.76102322317E+03  0.27905882398E+03  0.99334815081E+03  0.12820962259E+04  0.10100000352E+00 0.  1.
       -3    1    3    3    0  502 -0.76102322317E+03 -0.27905882398E+03 -0.37328056153E+03  0.89239484606E+03  0.10100000352E+00 0. -1.
</event>
<event>
 5   0  0.3257130E-05  0.2096911E+04  0.7818609E-02  0.8562605E-01
        2   -1    0    0  501    0  0.00000000000E+00  0.00000000000E+00  0.98563437896E+03  0.98563437896E+03  0.25500000920E-02 0.  1.
       -2   -1    0    0    0  501  0.00000000000E+00  0.00000000000E+00 -0.11152805855E+04  0.11152805855E+04  0.25500000920E-02 0. -1.
    10030    2    1    2    0    0  0.00000000000E+00  0.00000000000E+00 -0.12964620650E+03  0.21009149644E+04  0.20969109540E+04 0.  0.
        3    1    3    3  502    0 -0.41938169382E+03  0.10779381839E+03 -0.10215067806E+04  0.11094938600E+04  0.10100000352E+00 0. -1.
       -3    1    3    3    0  502  0.41938169382E+03 -0.10779381839E+03  0.89186057411E+03  0.99142110440E+03  0.10100000352E+00 0.  1.
</event>
<event>
 5   0  0.1435410E-05  0.2102871E+04  0.7818609E-02  0.8559980E-01
       -1   -1    0    0    0  501  0.00000000000E+00  0.00000000000E+00  0.52289004879E+03  0.52289004881E+03  0.50400001928E-02 0.  1.
        1   -1    0    0  501    0  0.00000000000E+00  0.00000000000E+00 -0.21142420833E+04  0.21142420833E+04  0.50400001928E-02 0. -1.
    10030    2    1    2    0    0  0.00000000000E+00  0.00000000000E+00 -0.15913520345E+04  0.26371321321E+04  0.21028705582E+04 0.  0.
        2    1    3    3  502    0 -0.24529852507E+03  0.29731661797E+03 -0.20224468182E+04  0.20588491130E+04  0.25500000920E-02 0. -1.
       -2    1    3    3    0  502  0.24529852507E+03 -0.29731661797E+03  0.43109478365E+03  0.57828301914E+03  0.25500000920E-02 0.  1.
</event>
<event>
 5   0  0.1435410E-05  0.2101071E+04  0.7818609E-02  0.8560772E-01
       -1   -1    0    0    0  501  0.00000000000E+00  0.00000000000E+00  0.95077396126E+03  0.95077396128E+03  0.50400001928E-02 0. -1.
        1   -1    0    0  501    0  0.00000000000E+00  0.00000000000E+00 -0.11607652159E+04  0.11607652159E+04  0.50400001928E-02 0.  1.
    10030    2    1    2    0    0  0.00000000000E+00  0.00000000000E+00 -0.20999125465E+03  0.21115391772E+04  0.21010714814E+04 0.  0.
        2    1    3    3  502    0  0.73829846880E+03  0.63344787398E+03 -0.50356257872E+03  0.10954068234E+04  0.25500000920E-02 0.  1.
       -2    1    3    3    0  502 -0.73829846880E+03 -0.63344787398E+03  0.29357132407E+03  0.10161323538E+04  0.25500000920E-02 0. -1.
</event>
<event>
 5   0  0.3108326E-05  0.2093408E+04  0.7818609E-02  0.8564153E-01
        2   -1    0    0  501    0  0.00000000000E+00  0.00000000000E+00  0.30218826383E+04  0.30218826383E+04  0.25500000920E-02 0. -1.
       -2   -1    0    0    0  501  0.00000000000E+00  0.00000000000E+00 -0.36255175952E+03  0.36255175953E+03  0.25500000920E-02 0.  1.
    10030    2    1    2    0    0  0.00000000000E+00  0.00000000000E+00  0.26593308788E+04  0.33844343979E+04  0.20934076217E+04 0.  0.
        5    1    3    3  502    0 -0.60270047035E+03 -0.56580953938E+03  0.23676119162E+04  0.25077871855E+04  0.46999998093E+01 0. -1.
       -5    1    3    3    0  502  0.60270047035E+03  0.56580953938E+03  0.29171896257E+03  0.87664721236E+03  0.46999998093E+01 0.  1.
</event>
<event>
 5   0  0.3242231E-05  0.2098307E+04  0.7818609E-02  0.8561990E-01
       -2   -1    0    0    0  501  0.00000000000E+00  0.00000000000E+00  0.10534501663E+04  0.10534501663E+04  0.25500000920E-02 0. -1.
        2   -1    0    0  501    0  0.00000000000E+00  0.00000000000E+00 -0.10448742308E+04  0.10448742308E+04  0.25500000920E-02 0.  1.
    10030    2    1    2    0    0  0.00000000000E+00  0.00000000000E+00  0.85759355107E+01  0.20983243971E+04  0.20983068719E+04 0.  0.
        4    1    3    3  502    0 -0.73567983468E+03 -0.42536475124E+03 -0.61099054810E+03  0.10466475307E+04  0.12699999809E+01 0.  1.
       -4    1    3    3    0  502  0.73567983468E+03  0.42536475124E+03  0.61956648361E+03  0.10516768664E+04  0.12699999809E+01 0. -1.
</event>
<event>
 5   0  0.1435410E-05  0.2096404E+04  0.7818609E-02  0.8562829E-01
       -1   -1    0    0    0  501  0.00000000000E+00  0.00000000000E+00  0.76463570265E+03  0.76463570266E+03  0.50400001928E-02 0.  1.
        1   -1    0    0  501    0  0.00000000000E+00  0.00000000000E+00 -0.14369286762E+04  0.14369286762E+04  0.50400001928E-02 0. -1.
    10030    2    1    2    0    0  0.00000000000E+00  0.00000000000E+00 -0.67229297358E+03  0.22015643789E+04  0.20964035566E+04 0.  0.
        2    1    3    3  502    0  0.21051138708E+03 -0.43142423437E+03  0.64241397572E+03  0.80195862132E+03  0.25500000920E-02 0.  1.
       -2    1    3    3    0  502 -0.21051138708E+03  0.43142423437E+03 -0.13147069493E+04  0.13996057576E+04  0.25500000920E-02 0. -1.
</event>
<event>
 5   0  0.1466480E-05  0.2100253E+04  0.7818609E-02  0.8561132E-01
        1   -1    0    0  501    0  0.00000000000E+00  0.00000000000E+00  0.22674142635E+04  0.22674142635E+04  0.50400001928E-02 0.  1.
       -1   -1    0    0    0  501  0.00000000000E+00  0.00000000000E+00 -0.48635400680E+03  0.48635400683E+03  0.50400001928E-02 0. -1.
    10030    2    1    2    0    0  0.00000000000E+00  0.00000000000E+00  0.17810602567E+04  0.27537682703E+04  0.21002533296E+04 0.  0.
        3    1    3    3  502    0 -0.92006009482E+03  0.83556018784E+01  0.15541709214E+04  0.18061084290E+04  0.10100000352E+00 0.  1.
       -3    1    3    3    0  502  0.92006009482E+03 -0.83556018784E+01  0.22688933527E+03  0.94765984131E+03  0.10100000352E+00 0. -1.
</event>
<event>
 5   0  0.1466480E-05  0.2070987E+04  0.7818609E-02  0.8574132E-01
       -1   -1    0    0    0  501  0.00000000000E+00  0.00000000000E+00  0.11981885172E+04  0.11981885172E+04  0.50400001928E-02 0.  1.
        1   -1    0    0  501    0  0.00000000000E+00  0.00000000000E+00 -0.89489019913E+03  0.89489019914E+03  0.50400001928E-02 0. -1.
    10030    2    1    2    0    0  0.00000000000E+00  0.00000000000E+00  0.30329831809E+03  0.20930787164E+04  0.20709873595E+04 0.  0.
        3    1    3    3  502    0  0.98210297094E+03 -0.10081245817E+03  0.46732330096E+03  0.10922822323E+04  0.10100000352E+00 0. -1.
       -3    1    3    3    0  502 -0.98210297094E+03  0.10081245817E+03 -0.16402498287E+03  0.10007964840E+04  0.10100000352E+00 0.  1.
</event>
<event>
 5   0  0.3279789E-05  0.2092010E+04  0.7818609E-02  0.8564771E-01
       -2   -1    0    0    0  501  0.00000000000E+00  0.00000000000E+00  0.83667376989E+03  0.83667376989E+03  0.25500000920E-02 0. -1.
        2   -1    0    0  501    0  0.00000000000E+00  0.00000000000E+00 -0.13077099720E+04  0.13077099720E+04  0.25500000920E-02 0.  1.
    10030    2    1    2    0    0  0.00000000000E+00  0.00000000000E+00 -0.47103620214E+03  0.21443837419E+04  0.20920101646E+04 0.  0.
        2    1    3    3  502    0  0.49889754622E+03 -0.18485294378E+03  0.68761531812E+03  0.86941600984E+03  0.25500000920E-02 0. -1.
       -2    1    3    3    0  502 -0.49889754622E+03  0.18485294378E+03 -0.11586515203E+04  0.12749677321E+04  0.25500000920E-02 0.  1.
</event>
<event>
 5   0  0.1513292E-05  0.1955461E+04  0.7818609E-02  0.8627732E-01
        1   -1    0    0  501    0  0.00000000000E+00  0.00000000000E+00  0.13111318020E+04  0.13111318020E+04  0.50400001928E-02 0. -1.
       -1   -1    0    0    0  501  0.00000000000E+00  0.00000000000E+00 -0.72910833752E+03  0.72910833754E+03  0.50400001928E-02 0.  1.
    10030    2    1    2    0    0  0.00000000000E+00  0.00000000000E+00  0.58202346443E+03  0.20402401395E+04  0.19554612023E+04 0.  0.
        1    1    3    3  502    0  0.16033754048E+03 -0.75228577924E+03 -0.33874189072E+03  0.84046896974E+03  0.50400001928E-02 0.  1.
       -1    1    3    3    0  502 -0.16033754048E+03  0.75228577924E+03  0.92076535515E+03  0.11997711698E+04  0.50400001928E-02 0. -1.
</event>
<event>
 5   0  0.3108326E-05  0.2100630E+04  0.7818609E-02  0.8560966E-01
       -2   -1    0    0    0  501  0.00000000000E+00  0.00000000000E+00  0.65622041943E+03  0.65622041944E+03  0.25500000920E-02 0.  1.
        2   -1    0    0  501    0  0.00000000000E+00  0.00000000000E+00 -0.16810833855E+04  0.16810833855E+04  0.25500000920E-02 0. -1.
    10030    2    1    2    0    0  0.00000000000E+00  0.00000000000E+00 -0.10248629660E+04  0.23373038049E+04  0.21006296621E+04 0.  0.
        5    1    3    3  502    0 -0.19318876489E+02 -0.86420382515E+03  0.15137341973E+03  0.87758616249E+03  0.46999998093E+01 0.  1.
       -5    1    3    3    0  502  0.19318876489E+02  0.86420382515E+03 -0.11762363858E+04  0.14597176424E+04  0.46999998093E+01 0. -1.
</event>
<event>
 5   0  0.1466480E-05  0.2101971E+04  0.7818609E-02  0.8560375E-01
       -1   -1    0    0    0  501  0.00000000000E+00  0.00000000000E+00  0.12612473640E+04  0.12612473640E+04  0.50400001928E-02 0.  1.
        1   -1    0    0  501    0  0.00000000000E+00  0.00000000000E+00 -0.87577657841E+03  0.87577657843E+03  0.50400001928E-02 0. -1.
    10030    2    1    2    0    0  0.00000000000E+00  0.00000000000E+00  0.38547078556E+03  0.21370239424E+04  0.21019713613E+04 0.  0.
        3    1    3    3  502    0  0.49187245174E+03 -0.53327788019E+03  0.96584188289E+03  0.12079628965E+04  0.10100000352E+00 0.  1.
       -3    1    3    3    0  502 -0.49187245174E+03  0.53327788019E+03 -0.58037109733E+03  0.92906104595E+03  0.10100000352E+00 0. -1.
</event>
<event>
 5   0  0.3279789E-05  0.2084160E+04  0.7818609E-02  0.8568253E-01
       -2   -1    0    0    0  501  0.00000000000E+00  0.00000000000E+00  0.11288509444E+04  0.11288509444E+04  0.25500000920E-02 0.  1.
        2   -1    0    0  501    0  0.00000000000E+00  0.00000000000E+00 -0.96197917452E+03  0.96197917453E+03  0.25500000920E-02 0. -1.
    10030    2    1    2    0    0  0.00000000000E+00  0.00000000000E+00  0.16687176984E+03  0.20908301189E+04  0.20841603582E+04 0.  0.
        2    1    3    3  502    0  0.96561459511E+03 -0.34244586319E+03 -0.10756875744E+03  0.10301707398E+04  0.25500000920E-02 0. -1.
       -2    1    3    3    0  502 -0.96561459511E+03  0.34244586319E+03  0.27444052728E+03  0.10606593791E+04  0.25500000920E-02 0.  1.
</event>
<event>
 5   0  0.1129987E-05  0.2096552E+04  0.7818609E-02  0.8562764E-01
        3   -1    0    0  501    0  0.00000000000E+00  0.00000000000E+00  0.86717558303E+03  0.86717558891E+03  0.10100000352E+00 0. -1.
       -3   -1    0    0    0  501  0.00000000000E+00  0.00000000000E+00 -0.12671973368E+04  0.12671973408E+04  0.10100000352E+00 0.  1.
    10030    2    1    2    0    0  0.00000000000E+00  0.00000000000E+00 -0.40002175374E+03  0.21343729297E+04  0.20965520264E+04 0.  0.
        3    1    3    3  502    0  0.47895176643E+03 -0.72884096192E+03 -0.79212027283E+03  0.11781589363E+04  0.10100000352E+00 0.  1.
       -3    1    3    3    0  502 -0.47895176643E+03  0.72884096192E+03  0.39209851909E+03  0.95621399342E+03  0.10100000352E+00 0. -1.
</event>
<event>
 5   0  0.3108326E-05  0.1997746E+04  0.7818609E-02  0.8607675E-01
        2   -1    0    0  501    0  0.00000000000E+00  0.00000000000E+00  0.10543348023E+04  0.10543348023E+04  0.25500000920E-02 0. -1.
       -2   -1    0    0    0  501  0.00000000000E+00  0.00000000000E+00 -0.94632901615E+03  0.94632901616E+03  0.25500000920E-02 0.  1.
    10030    2    1    2    0    0  0.00000000000E+00  0.00000000000E+00  0.10800578610E+03  0.20006638184E+04  0.19977463464E+04 0.  0.
        5    1    3    3  502    0 -0.25089021126E+03  0.45287284633E+03 -0.80146107976E+03  0.95414970807E+03  0.46999998093E+01 0.  1.
       -5    1    3    3    0  502  0.25089021126E+03 -0.45287284633E+03  0.90946686586E+03  0.10465141103E+04  0.46999998093E+01 0. -1.
</event>
<event>
 5   0  0.1513292E-05  0.2050338E+04  0.7818609E-02  0.8583441E-01
       -1   -1    0    0    0  501  0.00000000000E+00  0.00000000000E+00  0.71806490975E+03  0.71806490977E+03  0.50400001928E-02 0.  1.
        1   -1    0    0  501    0  0.00000000000E+00  0.00000000000E+00 -0.14636161214E+04  0.14636161214E+04  0.50400001928E-02 0. -1.
    10030    2    1    2    0    0  0.00000000000E+00  0.00000000000E+00 -0.74555121164E+03  0.21816810312E+04  0.20503379020E+04 0.  0.
        1    1    3    3  502    0  0.43604002992E+02 -0.30619967404E+03  0.66723649678E+03  0.73543462804E+03  0.50400001928E-02 0.  1.
       -1    1    3    3    0  502 -0.43604002992E+02  0.30619967404E+03 -0.14127877084E+04  0.14462464031E+04  0.50400001928E-02 0. -1.
</event>
<event>
 5   0  0.1492552E-05  0.2094712E+04  0.7818609E-02  0.8563576E-01
        1   -1    0    0  501    0  0.00000000000E+00  0.00000000000E+00  0.13414580500E+04  0.13414580500E+04  0.50400001928E-02 0. -1.
       -1   -1    0    0    0  501  0.00000000000E+00  0.00000000000E+00 -0.81773291714E+03  0.81773291716E+03  0.50400001928E-02 0.  1.
    10030    2    1    2    0    0  0.00000000000E+00  0.00000000000E+00  0.52372513288E+03  0.21591909672E+04  0.20947118222E+04 0.  0.
        4    1    3    3  502    0  0.52253150791E+02  0.43717566586E+03 -0.71770557674E+03  0.84199516767E+03  0.12699999809E+01 0.  1.
       -4    1    3    3    0  502 -0.52253150791E+02 -0.43717566586E+03  0.12414307096E+04  0.13171957995E+04  0.12699999809E+01 0. -1.
</event>
<event>
 5   0  0.3257130E-05  0.2083472E+04  0.7818609E-02  0.8568559E-01
        2   -1    0    0  501    0  0.00000000000E+00  0.00000000000E+00  0.11468482929E+04  0.11468482929E+04  0.25500000920E-02 0. -1.
       -2   -1    0    0    0  501  0.00000000000E+00  0.00000000000E+00 -0.94625803179E+03  0.94625803179E+03  0.25500000920E-02 0.  1.
    10030    2    1    2    0    0  0.00000000000E+00  0.00000000000E+00  0.20059026115E+03  0.20931063247E+04  0.20834724941E+04 0.  0.
        3    1    3    3  502    0 -0.50140038447E+03  0.87784108096E+03  0.35286783492E+03  0.10707581557E+04  0.10100000352E+00 0.  1.
       -3    1    3    3    0  502  0.50140038447E+03 -0.87784108096E+03 -0.15227757377E+03  0.10223481690E+04  0.10100000352E+00 0. -1.
</event>
<event>
 5   0  0.1453430E-05  0.2113602E+04  0.7818609E-02  0.8555275E-01
        1   -1    0    0  501    0  0.00000000000E+00  0.00000000000E+00  0.17259606602E+04  0.17259606602E+04  0.50400001928E-02 0.  1.
       -1   -1    0    0    0  501  0.00000000000E+00  0.00000000000E+00 -0.64707658873E+03  0.64707658875E+03  0.50400001928E-02 0. -1.
    10030    2    1    2    0    0  0.00000000000E+00  0.00000000000E+00  0.10788840715E+04  0.23730372490E+04  0.21136023621E+04 0.  0.
        5    1    3    3  502    0 -0.16168450139E+03 -0.67728459630E+03 -0.35308780859E+03  0.78073644269E+03  0.46999998093E+01 0. -1.
       -5    1    3    3    0  502  0.16168450139E+03  0.67728459630E+03  0.14319718801E+04  0.15923008063E+04  0.46999998093E+01 0.  1.
</event>
<event>
 5   0  0.3130517E-05  0.2063586E+04  0.7818609E-02  0.8577456E-01
       -2   -1    0    0    0  501  0.00000000000E+00  0.00000000000E+00  0.80539426910E+03  0.80539426910E+03  0.25500000920E-02 0.  1.
        2   -1    0    0  501    0  0.00000000000E+00  0.00000000000E+00 -0.13218334914E+04  0.13218334914E+04  0.25500000920E-02 0. -1.
    10030    2    1    2    0    0  0.00000000000E+00  0.00000000000E+00 -0.51643922232E+03  0.21272277605E+04  0.20635863139E+04 0.  0.
        1    1    3    3  502    0  0.12778576335E+03  0.83523151544E+03 -0.86864436192E+03  0.12118101804E+04  0.50400001928E-02 0. -1.
       -1    1    3    3    0  502 -0.12778576335E+03 -0.83523151544E+03  0.35220513960E+03  0.91541758017E+03  0.50400001928E-02 0.  1.
</event>
<event>
 5   0  0.1513292E-05  0.2095116E+04  0.7818609E-02  0.8563398E-01
       -1   -1    0    0    0  501  0.00000000000E+00  0.00000000000E+00  0.17771260779E+04  0.17771260779E+04  0.50400001928E-02 0. -1.
        1   -1    0    0  501    0  0.00000000000E+00  0.00000000000E+00 -0.61750122018E+03  0.61750122020E+03  0.50400001928E-02 0.  1.
    10030    2    1    2    0    0  0.00000000000E+00  0.00000000000E+00  0.11596248577E+04  0.23946272981E+04  0.20951157691E+04 0.  0.
        1    1    3    3  502    0 -0.37004011603E+03 -0.71403448609E+03 -0.18741963366E+03  0.82577300386E+03  0.50400001928E-02 0.  1.
       -1    1    3    3    0  502  0.37004011603E+03  0.71403448609E+03  0.13470444913E+04  0.15688542942E+04  0.50400001928E-02 0. -1.
</event>
<event>
 5   0  0.3279789E-05  0.1996812E+04  0.7818609E-02  0.8608112E-01
       -2   -1    0    0    0  501  0.00000000000E+00  0.00000000000E+00  0.92926406385E+03  0.92926406386E+03  0.25500000920E-02 0.  1.
        2   -1    0    0  501    0  0.00000000000E+00  0.00000000000E+00 -0.10726928409E+04  0.10726928409E+04  0.25500000920E-02 0. -1.
    10030    2    1    2    0    0  0.00000000000E+00  0.00000000000E+00 -0.14342877703E+03  0.20019569047E+04  0.19968123683E+04 0.  0.
        2    1    3    3  502    0  0.37533661211E+03  0.65120008349E+03 -0.73058008167E+03  0.10481824158E+04  0.25500000920E-02 0. -1.
       -2    1    3    3    0  502 -0.37533661211E+03 -0.65120008349E+03  0.58715130464E+03  0.95377448890E+03  0.25500000920E-02 0.  1.
</event>
<event>
 5   0  0.1466480E-05  0.2101884E+04  0.7818609E-02  0.8560414E-01
        1   -1    0    0  501    0  0.00000000000E+00  0.00000000000E+00  0.17086225784E+04  0.17086225784E+04  0.50400001928E-02 0.  1.
       -1   -1    0    0    0  501  0.00000000000E+00  0.00000000000E+00 -0.64641488853E+03  0.64641488855E+03  0.50400001928E-02 0. -1.
    10030    2    1    2    0    0  0.00000000000E+00  0.00000000000E+00  0.10622076898E+04  0.23550374669E+04  0.21018839869E+04 0.  0.
        3    1    3    3  502    0 -0.57556697518E+03 -0.63353733605E+03 -0.15211927859E+03  0.86936021545E+03  0.10100000352E+00 0. -1.
       -3    1    3    3    0  502  0.57556697518E+03  0.63353733605E+03  0.12143269684E+04  0.14856772515E+04  0.10100000352E+00 0.  1.
</event>
<event>
 5   0  0.3242231E-05  0.2097727E+04  0.7818609E-02  0.8562245E-01
       -2   -1    0    0    0  501  0.00000000000E+00  0.00000000000E+00  0.10823139476E+04  0.10823139476E+04  0.25500000920E-02 0.  1.
        2   -1    0    0  501    0  0.00000000000E+00  0.00000000000E+00 -0.10164471224E+04  0.10164471224E+04  0.25500000920E-02 0. -1.
    10030    2    1    2    0    0  0.00000000000E+00  0.00000000000E+00  0.65866825235E+02  0.20987610700E+04  0.20977272440E+04 0.  0.
        4    1    3    3  502    0 -0.44374202966E+03  0.26221104606E+03 -0.88100003892E+03  0.10206979490E+04  0.12699999809E+01 0. -1.
       -4    1    3    3    0  502  0.44374202966E+03 -0.26221104606E+03  0.94686686415E+03  0.10780631210E+04  0.12699999809E+01 0.  1.
</event>
<event>
 5   0  0.3130517E-05  0.2059768E+04  0.7818609E-02  0.8579176E-01
        2   -1    0    0  501    0  0.00000000000E+00  0.00000000000E+00  0.26625689780E+04  0.26625689780E+04  0.25500000920E-02 0.  1.
       -2   -1    0    0    0  501  0.00000000000E+00  0.00000000000E+00 -0.39836004486E+03  0.39836004487E+03  0.25500000920E-02 0. -1.
    10030    2    1    2    0    0  0.00000000000E+00  0.00000000000E+00  0.22642089332E+04  0.30609290229E+04  0.20597680428E+04 0.  0.
        1    1    3    3  502    0 -0.44570254070E+03 -0.45559710492E+03 -0.70078026434E+02  0.64119451543E+03  0.50400001928E-02 0. -1.
       -1    1    3    3    0  502  0.44570254070E+03  0.45559710492E+03  0.23342869596E+04  0.24197345075E+04  0.50400001928E-02 0.  1.
</event>
<event>
 5   0  0.1466480E-05  0.2084914E+04  0.7818609E-02  0.8567918E-01
        1   -1    0    0  501    0  0.00000000000E+00  0.00000000000E+00  0.98429537513E+03  0.98429537514E+03  0.50400001928E-02 0. -1.
       -1   -1    0    0    0  501  0.00000000000E+00  0.00000000000E+00 -0.11040555930E+04  0.11040555930E+04  0.50400001928E-02 0.  1.
    10030    2    1    2    0    0  0.00000000000E+00  0.00000000000E+00 -0.11976021790E+03  0.20883509682E+04  0.20849142084E+04 0.  0.
        3    1    3    3  502    0  0.33704487459E+03 -0.41265670016E+03 -0.95736601546E+03  0.10956434171E+04  0.10100000352E+00 0.  1.
       -3    1    3    3    0  502 -0.33704487459E+03  0.41265670016E+03  0.83760579756E+03  0.99270755108E+03  0.10100000352E+00 0. -1.
</event>
<event>
 5   0  0.1453430E-05  0.2078703E+04  0.7818609E-02  0.8570683E-01
       -1   -1    0    0    0  501  0.00000000000E+00  0.00000000000E+00  0.11535122935E+04  0.11535122935E+04  0.50400001928E-02 0.  1.
        1   -1    0    0  501    0  0.00000000000E+00  0.00000000000E+00 -0.93648913583E+03  0.93648913585E+03  0.50400001928E-02 0. -1.
    10030    2    1    2    0    0  0.00000000000E+00  0.00000000000E+00  0.21702315766E+03  0.20900014293E+04  0.20787031832E+04 0.  0.
        5    1    3    3  502    0  0.90307678354E+03 -0.50665725604E+03  0.19833014728E+03  0.10543273635E+04  0.46999998093E+01 0.  1.
       -5    1    3    3    0  502 -0.90307678354E+03  0.50665725604E+03  0.18693010384E+02  0.10356740659E+04  0.46999998093E+01 0. -1.
</event>
<event>
 5   0  0.1466480E-05  0.2081116E+04  0.7818609E-02  0.8569608E-01
       -1   -1    0    0    0  501  0.00000000000E+00  0.00000000000E+00  0.89630959463E+03  0.89630959464E+03  0.50400001928E-02 0.  1.
        1   -1    0    0  501    0  0.00000000000E+00  0.00000000000E+00 -0.12080210442E+04  0.12080210443E+04  0.50400001928E-02 0. -1.
    10030    2    1    2    0    0  0.00000000000E+00  0.00000000000E+00 -0.31171144962E+03  0.21043306389E+04  0.20811159050E+04 0.  0.
        3    1    3    3  502    0 -0.31195417597E+03 -0.78414629046E+03 -0.77138256665E+03  0.11433424190E+04  0.10100000352E+00 0. -1.
       -3    1    3    3    0  502  0.31195417597E+03  0.78414629046E+03  0.45967111703E+03  0.96098821990E+03  0.10100000352E+00 0.  1.
</event>
<event>
 5   0  0.1453430E-05  0.2104243E+04  0.7818609E-02  0.8559377E-01
       -1   -1    0    0    0  501  0.00000000000E+00  0.00000000000E+00  0.68728223662E+03  0.68728223664E+03  0.50400001928E-02 0.  1.
        1   -1    0    0  501    0  0.00000000000E+00  0.00000000000E+00 -0.16106332433E+04  0.16106332433E+04  0.50400001928E-02 0. -1.
    10030    2    1    2    0    0  0.00000000000E+00  0.00000000000E+00 -0.92335100669E+03  0.22979154800E+04  0.21042429687E+04 0.  0.
        5    1    3    3  502    0  0.25697614766E+03 -0.22619567162E+03  0.62474490897E+03  0.71241105663E+03  0.46999998093E+01 0.  1.
       -5    1    3    3    0  502 -0.25697614766E+03  0.22619567162E+03 -0.15480959157E+04  0.15855044233E+04  0.46999998093E+01 0. -1.
</event>
<event>
 5   0  0.3279789E-05  0.2104216E+04  0.7818609E-02  0.8559389E-01
        2   -1    0    0  501    0  0.00000000000E+00  0.00000000000E+00  0.12931649685E+04  0.12931649685E+04  0.25500000920E-02 0.  1.
       -2   -1    0    0    0  501  0.00000000000E+00  0.00000000000E+00 -0.85598571553E+03  0.85598571554E+03  0.25500000920E-02 0. -1.
    10030    2    1    2    0    0  0.00000000000E+00  0.00000000000E+00  0.43717925294E+03  0.21491506840E+04  0.21042155221E+04 0.  0.
        2    1    3    3  502    0  0.49686310740E+03  0.27172035821E+03  0.11242185891E+04  0.12587979730E+04  0.25500000920E-02 0.  1.
       -2    1    3    3    0  502 -0.49686310740E+03 -0.27172035821E+03 -0.68703933621E+03  0.89035271104E+03  0.25500000920E-02 0. -1.
</event>
<event>
 5   0  0.1466480E-05  0.2042126E+04  0.7818609E-02  0.8587175E-01
       -1   -1    0    0    0  501  0.00000000000E+00  0.00000000000E+00  0.47659944798E+03  0.47659944801E+03  0.50400001928E-02 0. -1.
        1   -1    0    0  501    0  0.00000000000E+00  0.00000000000E+00 -0.21875183464E+04  0.21875183464E+04  0.50400001928E-02 0.  1.
    10030    2    1    2    0    0  0.00000000000E+00  0.00000000000E+00 -0.17109188984E+04  0.26641177944E+04  0.20421263785E+04 0.  0.
        3    1    3    3  502    0 -0.44832132056E+03  0.57247255500E+03 -0.17906289578E+04  0.19326326364E+04  0.10100000352E+00 0.  1.
       -3    1    3    3    0  502  0.44832132056E+03 -0.57247255500E+03  0.79710059308E+02  0.73148515805E+03  0.10100000352E+00 0. -1.
</event>
<event>
 5   0  0.3130517E-05  0.2103587E+04  0.7818609E-02  0.8559665E-01
        2   -1    0    0  501    0  0.00000000000E+00  0.00000000000E+00  0.12306347872E+04  0.12306347872E+04  0.25500000920E-02 0. -1.
       -2   -1    0    0    0  501  0.00000000000E+00  0.00000000000E+00 -0.89894252044E+03  0.89894252044E+03  0.25500000920E-02 0.  1.
    10030    2    1    2    0    0  0.00000000000E+00  0.00000000000E+00  0.33169226675E+03  0.21295773076E+04  0.21035873524E+04 0.  0.
        1    1    3    3  502    0 -0.19280735327E+03  0.10110181536E+04 -0.53481367906E+02  0.10306273037E+04  0.50400001928E-02 0. -1.
       -1    1    3    3    0  502  0.19280735327E+03 -0.10110181536E+04  0.38517363466E+03  0.10989500040E+04  0.50400001928E-02 0.  1.
</event>
<event>
 5   0  0.3242231E-05  0.2099677E+04  0.7818609E-02  0.8561386E-01
        2   -1    0    0  501    0  0.00000000000E+00  0.00000000000E+00  0.14909627026E+04  0.14909627026E+04  0.25500000920E-02 0. -1.
       -2   -1    0    0    0  501  0.00000000000E+00  0.00000000000E+00 -0.73922767821E+03  0.73922767821E+03  0.25500000920E-02 0.  1.
    10030    2    1    2    0    0  0.00000000000E+00  0.00000000000E+00  0.75173502436E+03  0.22301903808E+04  0.20996770199E+04 0.  0.
        4    1    3    3  502    0 -0.69612416854E+03 -0.78577818723E+02 -0.45465368793E+03  0.83514963957E+03  0.12699999809E+01 0.  1.
       -4    1    3    3    0  502  0.69612416854E+03  0.78577818723E+02  0.12063887123E+04  0.13950407412E+04  0.12699999809E+01 0. -1.
</event>
<event>
 5   0  0.1466480E-05  0.2087995E+04  0.7818609E-02  0.8566550E-01
        1   -1    0    0  501    0  0.00000000000E+00  0.00000000000E+00  0.93391323709E+03  0.93391323710E+03  0.50400001928E-02 0. -1.
       -1   -1    0    0    0  501  0.00000000000E+00  0.00000000000E+00 -0.11670581218E+04  0.11670581218E+04  0.50400001928E-02 0.  1.
    10030    2    1    2    0    0  0.00000000000E+00  0.00000000000E+00 -0.23314488471E+03  0.21009713589E+04  0.20879952379E+04 0.  0.
        3    1    3    3  502    0 -0.37996753359E+03 -0.36921938412E+02  0.86116195143E+03  0.94198645049E+03  0.10100000352E+00 0. -1.
       -3    1    3    3    0  502  0.37996753359E+03  0.36921938412E+02 -0.10943068361E+04  0.11589849084E+04  0.10100000352E+00 0.  1.
</event>
<event>
 5   0  0.3257130E-05  0.2097353E+04  0.7818609E-02  0.8562410E-01
        2   -1    0    0  501    0  0.00000000000E+00  0.00000000000E+00  0.13297213007E+04  0.13297213007E+04  0.25500000920E-02 0.  1.
       -2   -1    0    0    0  501  0.00000000000E+00  0.00000000000E+00 -0.82703191118E+03  0.82703191118E+03  0.25500000920E-02 0. -1.
    10030    2    1    2    0    0  0.00000000000E+00  0.00000000000E+00  0.50268938952E+03  0.21567532119E+04  0.20973525680E+04 0.  0.
        3    1    3    3  502    0 -0.71714089692E+02  0.11854999296E+03 -0.81757826723E+03  0.82923533737E+03  0.10100000352E+00 0. -1.
       -3    1    3    3    0  502  0.71714089692E+02 -0.11854999296E+03  0.13202676567E+04  0.13275178745E+04  0.10100000352E+00 0.  1.
</event>
<event>
 5   0  0.3257130E-05  0.2098575E+04  0.7818609E-02  0.8561871E-01
       -2   -1    0    0    0  501  0.00000000000E+00  0.00000000000E+00  0.11353209630E+04  0.11353209630E+04  0.25500000920E-02 0.  1.
        2   -1    0    0  501    0  0.00000000000E+00  0.00000000000E+00 -0.96977361883E+03  0.96977361883E+03  0.25500000920E-02 0. -1.
    10030    2    1    2    0    0  0.00000000000E+00  0.00000000000E+00  0.16554734417E+03  0.21050945818E+04  0.20985750583E+04 0.  0.
        3    1    3    3  502    0  0.53927670077E+03  0.88857712302E+03  0.22680122135E+03  0.10638738025E+04  0.10100000352E+00 0. -1.
       -3    1    3    3    0  502 -0.53927670077E+03 -0.88857712302E+03 -0.61253877180E+02  0.10412207793E+04  0.10100000352E+00 0.  1.
</event>
<event>
 5   0  0.1435410E-05  0.2108399E+04  0.7818609E-02  0.8557552E-01
       -1   -1    0    0    0  501  0.00000000000E+00  0.00000000000E+00  0.64146364509E+03  0.64146364511E+03  0.50400001928E-02 0.  1.
        1   -1    0    0  501    0  0.00000000000E+00  0.00000000000E+00 -0.17325019019E+04  0.17325019019E+04  0.50400001928E-02 0. -1.
    10030    2    1    2    0    0  0.00000000000E+00  0.00000000000E+00 -0.10910382568E+04  0.23739655470E+04  0.21083993788E+04 0.  0.
        2    1    3    3  502    0  0.47118183051E+03  0.40137699160E+03  0.41532554027E+03  0.74539325942E+03  0.25500000920E-02 0.  1.
       -2    1    3    3    0  502 -0.47118183051E+03 -0.40137699160E+03 -0.15063637971E+04  0.16285722876E+04  0.25500000920E-02 0. -1.
</event>
<event>
 5   0  0.1453430E-05  0.2114931E+04  0.7818609E-02  0.8554695E-01
       -1   -1    0    0    0  501  0.00000000000E+00  0.00000000000E+00  0.84544424400E+03  0.84544424402E+03  0.50400001928E-02 0.  1.
        1   -1    0    0  501    0  0.00000000000E+00  0.00000000000E+00 -0.13226575905E+04  0.13226575905E+04  0.50400001928E-02 0. -1.
    10030    2    1    2    0    0  0.00000000000E+00  0.00000000000E+00 -0.47721334652E+03  0.21681018346E+04  0.21149309650E+04 0.  0.
        5    1    3    3  502    0  0.50803908553E+03 -0.27011740441E+03  0.67090983181E+03  0.88386040584E+03  0.46999998093E+01 0.  1.
       -5    1    3    3    0  502 -0.50803908553E+03  0.27011740441E+03 -0.11481231783E+04  0.12842414287E+04  0.46999998093E+01 0. -1.
</event>
<event>
 5   0  0.1513292E-05  0.2103742E+04  0.7818609E-02  0.8559597E-01
       -1   -1    0    0    0  501  0.00000000000E+00  0.00000000000E+00  0.10077186123E+04  0.10077186123E+04  0.50400001928E-02 0. -1.
        1   -1    0    0  501    0  0.00000000000E+00  0.00000000000E+00 -0.10979580089E+04  0.10979580089E+04  0.50400001928E-02 0.  1.
    10030    2    1    2    0    0  0.00000000000E+00  0.00000000000E+00 -0.90239396604E+02  0.21056766212E+04  0.21037421145E+04 0.  0.
        1    1    3    3  502    0 -0.89474535031E+03 -0.38421052997E+03  0.35304724279E+03  0.10357747481E+04  0.50400001928E-02 0. -1.
       -1    1    3    3    0  502  0.89474535031E+03  0.38421052997E+03 -0.44328663939E+03  0.10699018730E+04  0.50400001928E-02 0.  1.
</event>
<event>
 5   0  0.3108326E-05  0.2102424E+04  0.7818609E-02  0.8560176E-01
       -2   -1    0    0    0  501  0.00000000000E+00  0.00000000000E+00  0.13556255748E+04  0.13556255748E+04  0.25500000920E-02 0. -1.
        2   -1    0    0  501    0  0.00000000000E+00  0.00000000000E+00 -0.81515660021E+03  0.81515660022E+03  0.25500000920E-02 0.  1.
    10030    2    1    2    0    0  0.00000000000E+00  0.00000000000E+00  0.54046897455E+03  0.21707821750E+04  0.21024244431E+04 0.  0.
        5    1    3    3  502    0  0.79419167088E+03 -0.64579985527E+03  0.51723452995E+03  0.11468877505E+04  0.46999998093E+01 0.  1.
       -5    1    3    3    0  502 -0.79419167088E+03  0.64579985527E+03  0.23234444604E+02  0.10238944245E+04  0.46999998093E+01 0. -1.
</event>
<event>
 5   0  0.3257130E-05  0.2094038E+04  0.7818609E-02  0.8563874E-01
        2   -1    0    0  501    0  0.00000000000E+00  0.00000000000E+00  0.75536045328E+03  0.75536045329E+03  0.25500000920E-02 0. -1.
       -2   -1    0    0    0  501  0.00000000000E+00  0.00000000000E+00 -0.14512919195E+04  0.14512919195E+04  0.25500000920E-02 0.  1.
    10030    2    1    2    0    0  0.00000000000E+00  0.00000000000E+00 -0.69593146620E+03  0.22066523728E+04  0.20940377477E+04 0.  0.
        3    1    3    3  502    0  0.39651456616E+03 -0.45926658211E+03  0.55121006289E+03  0.81974516665E+03  0.10100000352E+00 0. -1.
       -3    1    3    3    0  502 -0.39651456616E+03  0.45926658211E+03 -0.12471415291E+04  0.13869072061E+04  0.10100000352E+00 0.  1.
</event>
<event>
 5   0  0.3242231E-05  0.2060534E+04  0.7818609E-02  0.8578830E-01
       -2   -1    0    0    0  501  0.00000000000E+00  0.00000000000E+00  0.97363990545E+03  0.97363990546E+03  0.25500000920E-02 0. -1.
        2   -1    0    0  501    0  0.00000000000E+00  0.00000000000E+00 -0.10901879795E+04  0.10901879795E+04  0.25500000920E-02 0.  1.
    10030    2    1    2    0    0  0.00000000000E+00  0.00000000000E+00 -0.11654807400E+03  0.20638278849E+04  0.20605344173E+04 0.  0.
        4    1    3    3  502    0  0.57761253503E+03 -0.28766736669E+03 -0.86271413631E+03  0.10773421223E+04  0.12699999809E+01 0.  1.
       -4    1    3    3    0  502 -0.57761253503E+03  0.28766736669E+03  0.74616606231E+03  0.98648576266E+03  0.12699999809E+01 0. -1.
</event>
<event>
 5   0  0.3257130E-05  0.2099513E+04  0.7818609E-02  0.8561458E-01
       -2   -1    0    0    0  501  0.00000000000E+00  0.00000000000E+00  0.12637241477E+04  0.12637241477E+04  0.25500000920E-02 0. -1.
        2   -1    0    0  501    0  0.00000000000E+00  0.00000000000E+00 -0.87201701614E+03  0.87201701614E+03  0.25500000920E-02 0.  1.
    10030    2    1    2    0    0  0.00000000000E+00  0.00000000000E+00  0.39170713157E+03  0.21357411638E+04  0.20995132393E+04 0.  0.
        3    1    3    3  502    0  0.26587800881E+03  0.54188988038E+03  0.10695410487E+04  0.12281098579E+04  0.10100000352E+00 0. -1.
       -3    1    3    3    0  502 -0.26587800881E+03 -0.54188988038E+03 -0.67783391716E+03  0.90763130592E+03  0.10100000352E+00 0.  1.
</event>
<event>
 5   0  0.1453430E-05  0.2097815E+04  0.7818609E-02  0.8562206E-01
       -1   -1    0    0    0  501  0.00000000000E+00  0.00000000000E+00  0.12852546757E+04  0.12852546757E+04  0.50400001928E-02 0. -1.
        1   -1    0    0  501    0  0.00000000000E+00  0.00000000000E+00 -0.85602275819E+03  0.85602275821E+03  0.50400001928E-02 0.  1.
    10030    2    1    2    0    0  0.00000000000E+00  0.00000000000E+00  0.42923191750E+03  0.21412774339E+04  0.20978152945E+04 0.  0.
        5    1    3    3  502    0  0.60729813971E+03 -0.83896288857E+03  0.38393025763E+03  0.11045787847E+04  0.46999998093E+01 0. -1.
       -5    1    3    3    0  502 -0.60729813971E+03  0.83896288857E+03  0.45301659875E+02  0.10366986492E+04  0.46999998093E+01 0.  1.
</event>
<event>
 5   0  0.1492552E-05  0.2104347E+04  0.7818609E-02  0.8559331E-01
        1   -1    0    0  501    0  0.00000000000E+00  0.00000000000E+00  0.11086822029E+04  0.11086822029E+04  0.50400001928E-02 0. -1.
       -1   -1    0    0    0  501  0.00000000000E+00  0.00000000000E+00 -0.99854461206E+03  0.99854461208E+03  0.50400001928E-02 0.  1.
    10030    2    1    2    0    0  0.00000000000E+00  0.00000000000E+00  0.11013759084E+03  0.21072268150E+04  0.21043465876E+04 0.  0.
        4    1    3    3  502    0 -0.65247632858E+03 -0.40451454868E+03  0.77557403492E+03  0.10912717700E+04  0.12699999809E+01 0. -1.
       -4    1    3    3    0  502  0.65247632858E+03  0.40451454868E+03 -0.66543644408E+03  0.10159550450E+04  0.12699999809E+01 0.  1.
</event>
<event>
 5   0  0.1453430E-05  0.2095797E+04  0.7818609E-02  0.8563097E-01
       -1   -1    0    0    0  501  0.00000000000E+00  0.00000000000E+00  0.53151182398E+03  0.53151182401E+03  0.50400001928E-02 0. -1.
        1   -1    0    0  501    0  0.00000000000E+00  0.00000000000E+00 -0.20659766126E+04  0.20659766126E+04  0.50400001928E-02 0.  1.
    10030    2    1    2    0    0  0.00000000000E+00  0.00000000000E+00 -0.15344647886E+04  0.25974884366E+04  0.20957967437E+04 0.  0.
        5    1    3    3  502    0 -0.68817032841E+03 -0.74133184082E+03 -0.42800070532E+03  0.10983432946E+04  0.46999998093E+01 0. -1.
       -5    1    3    3    0  502  0.68817032841E+03  0.74133184082E+03 -0.11064640833E+04  0.14991451420E+04  0.46999998093E+01 0.  1.
</event>
<event>
 5   0  0.1492552E-05  0.2101854E+04  0.7818609E-02  0.8560427E-01
       -1   -1    0    0    0  501  0.00000000000E+00  0.00000000000E+00  0.11594130578E+04  0.11594130578E+04  0.50400001928E-02 0.  1.
        1   -1    0    0  501    0  0.00000000000E+00  0.00000000000E+00 -0.95259188563E+03  0.95259188564E+03  0.50400001928E-02 0. -1.
    10030    2    1    2    0    0  0.00000000000E+00  0.00000000000E+00  0.20682117220E+03  0.21120049435E+04  0.21018539160E+04 0.  0.
        4    1    3    3  502    0  0.21070004804E+03 -0.99599100169E+03  0.36554069564E+03  0.10816719460E+04  0.12699999809E+01 0.  1.
       -4    1    3    3    0  502 -0.21070004804E+03  0.99599100169E+03 -0.15871952344E+03  0.10303329975E+04  0.12699999809E+01 0. -1.
</event>
<event>
 5   0  0.3257130E-05  0.2102086E+04  0.7818609E-02  0.8560325E-01
        2   -1    0    0  501    0  0.00000000000E+00  0.00000000000E+00  0.20276677305E+04  0.20276677305E+04  0.25500000920E-02 0. -1.
       -2   -1    0    0    0  501  0.00000000000E+00  0.00000000000E+00 -0.54480891043E+03  0.54480891044E+03  0.25500000920E-02 0.  1.
    10030    2    1    2    0    0  0.00000000000E+00  0.00000000000E+00  0.14828588201E+04  0.25724766409E+04  0.21020860563E+04 0.  0.
        3    1    3    3  502    0  0.72152754353E+03 -0.49135591791E+03  0.14577903456E+04  0.16991719560E+04  0.10100000352E+00 0.  1.
       -3    1    3    3    0  502 -0.72152754353E+03  0.49135591791E+03  0.25068474479E+02  0.87330468495E+03  0.10100000352E+00 0. -1.
</event>
<event>
 5   0  0.1466480E-05  0.2095583E+04  0.7818609E-02  0.8563192E-01
       -1   -1    0    0    0  501  0.00000000000E+00  0.00000000000E+00  0.83169911107E+03  0.83169911108E+03  0.50400001928E-02 0.  1.
        1   -1    0    0  501    0  0.00000000000E+00  0.00000000000E+00 -0.13200290234E+04  0.13200290234E+04  0.50400001928E-02 0. -1.
    10030    2    1    2    0    0  0.00000000000E+00  0.00000000000E+00 -0.48832991235E+03  0.21517281345E+04  0.20955829407E+04 0.  0.
        3    1    3    3  502    0 -0.31595472987E+03 -0.77847046525E+03  0.39872772747E+03  0.92996100319E+03  0.10100000352E+00 0.  1.
       -3    1    3    3    0  502  0.31595472987E+03  0.77847046525E+03 -0.88705763982E+03  0.12217671313E+04  0.10100000352E+00 0. -1.
</event>
<event>
 5   0  0.3108326E-05  0.2096115E+04  0.7818609E-02  0.8562957E-01
        2   -1    0    0  501    0  0.00000000000E+00  0.00000000000E+00  0.15627223060E+04  0.15627223060E+04  0.25500000920E-02 0. -1.
       -2   -1    0    0    0  501  0.00000000000E+00  0.00000000000E+00 -0.70289163415E+03  0.70289163415E+03  0.25500000920E-02 0.  1.
    10030    2    1    2    0    0  0.00000000000E+00  0.00000000000E+00  0.85983067190E+03  0.22656139402E+04  0.20961149161E+04 0.  0.
        5    1    3    3  502    0 -0.85788087968E+03 -0.60093838542E+03  0.46912250965E+03  0.11476866148E+04  0.46999998093E+01 0.  1.
       -5    1    3    3    0  502  0.85788087968E+03  0.60093838542E+03  0.39070816225E+03  0.11179273254E+04  0.46999998093E+01 0. -1.
</event>
<event>
 5   0  0.3257130E-05  0.2096695E+04  0.7818609E-02  0.8562700E-01
        2   -1    0    0  501    0  0.00000000000E+00  0.00000000000E+00  0.10241069544E+04  0.10241069544E+04  0.25500000920E-02 0. -1.
       -2   -1    0    0    0  501  0.00000000000E+00  0.00000000000E+00 -0.10731621647E+04  0.10731621647E+04  0.25500000920E-02 0.  1.
    10030    2    1    2    0    0  0.00000000000E+00  0.00000000000E+00 -0.49055210265E+02  0.20972691191E+04  0.20966953390E+04 0.  0.
        3    1    3    3  502    0 -0.56367063381E+02  0.10322843584E+04 -0.19848489608E+03  0.10527034277E+04  0.10100000352E+00 0.  1.
       -3    1    3    3    0  502  0.56367063381E+02 -0.10322843584E+04  0.14942968582E+03  0.10445656914E+04  0.10100000352E+00 0. -1.
</event>
<event>
 5   0  0.1466480E-05  0.2165596E+04  0.7818609E-02  0.8532886E-01
        1   -1    0    0  501    0  0.00000000000E+00  0.00000000000E+00  0.13191064405E+04  0.13191064405E+04  0.50400001928E-02 0. -1.
       -1   -1    0    0    0  501  0.00000000000E+00  0.00000000000E+00 -0.88882225304E+03  0.88882225305E+03  0.50400001928E-02 0.  1.
    10030    2    1    2    0    0  0.00000000000E+00  0.00000000000E+00  0.43028418750E+03  0.22079286936E+04  0.21655956765E+04 0.  0.
        3    1    3    3  502    0  0.25578419204E+03 -0.59139364991E+03  0.11023709666E+04  0.12768687326E+04  0.10100000352E+00 0. -1.
       -3    1    3    3    0  502 -0.25578419204E+03  0.59139364991E+03 -0.67208677914E+03  0.93105996098E+03  0.10100000352E+00 0.  1.
</event>
<event>
 5   0  0.3242231E-05  0.2095429E+04  0.7818609E-02  0.8563259E-01
       -2   -1    0    0    0  501  0.00000000000E+00  0.00000000000E+00  0.10470546114E+04  0.10470546114E+04  0.25500000920E-02 0. -1.
        2   -1    0    0  501    0  0.00000000000E+00  0.00000000000E+00 -0.10483752531E+04  0.10483752531E+04  0.25500000920E-02 0.  1.
    10030    2    1    2    0    0  0.00000000000E+00  0.00000000000E+00 -0.13206417424E+01  0.20954298645E+04  0.20954294484E+04 0.  0.
        4    1    3    3  502    0  0.48423398762E+03 -0.17411167354E+03 -0.91329794425E+03  0.10482901209E+04  0.12699999809E+01 0.  1.
       -4    1    3    3    0  502 -0.48423398762E+03  0.17411167354E+03  0.91197730250E+03  0.10471397437E+04  0.12699999809E+01 0. -1.
</event>
<event>
 5   0  0.1129987E-05  0.2101916E+04  0.7818609E-02  0.8560400E-01
        4   -1    0    0  501    0  0.00000000000E+00  0.00000000000E+00  0.66256995909E+03  0.66257117625E+03  0.12699999809E+01 0. -1.
       -4   -1    0    0    0  501  0.00000000000E+00  0.00000000000E+00 -0.16670105124E+04  0.16670109962E+04  0.12699999809E+01 0.  1.
    10030    2    1    2    0    0  0.00000000000E+00  0.00000000000E+00 -0.10044405533E+04  0.23295821724E+04  0.21019163335E+04 0.  0.
        4    1    3    3  502    0  0.67734145913E+03  0.73323435564E+03 -0.86659656665E+03  0.13218983678E+04  0.12699999809E+01 0.  1.
       -4    1    3    3    0  502 -0.67734145913E+03 -0.73323435564E+03 -0.13784398665E+03  0.10076838046E+04  0.12699999809E+01 0. -1.
</event>
<event>
 5   0  0.1435410E-05  0.2100228E+04  0.7818609E-02  0.8561143E-01
        1   -1    0    0  501    0  0.00000000000E+00  0.00000000000E+00  0.11193719159E+04  0.11193719159E+04  0.50400001928E-02 0. -1.
       -1   -1    0    0    0  501  0.00000000000E+00  0.00000000000E+00 -0.98514109105E+03  0.98514109106E+03  0.50400001928E-02 0.  1.
    10030    2    1    2    0    0  0.00000000000E+00  0.00000000000E+00  0.13423082487E+03  0.21045130070E+04  0.21002278644E+04 0.  0.
        2    1    3    3  502    0 -0.10157594974E+04  0.26123549718E+03  0.11945155767E+03  0.10555946268E+04  0.25500000920E-02 0. -1.
       -2    1    3    3    0  502  0.10157594974E+04 -0.26123549718E+03  0.14779267199E+02  0.10489183802E+04  0.25500000920E-02 0.  1.
</event>
<event>
 5   0  0.1492552E-05  0.2069719E+04  0.7818609E-02  0.8574701E-01
        1   -1    0    0  501    0  0.00000000000E+00  0.00000000000E+00  0.97863995510E+03  0.97863995512E+03  0.50400001928E-02 0. -1.
       -1   -1    0    0    0  501  0.00000000000E+00  0.00000000000E+00 -0.10943090846E+04  0.10943090846E+04  0.50400001928E-02 0.  1.
    10030    2    1    2    0    0  0.00000000000E+00  0.00000000000E+00 -0.11566912950E+03  0.20729490397E+04  0.20697193949E+04 0.  0.
        4    1    3    3  502    0  0.26036958998E+03 -0.68807075147E+03 -0.78677468675E+03  0.10771488769E+04  0.12699999809E+01 0.  1.
       -4    1    3    3    0  502 -0.26036958998E+03  0.68807075147E+03  0.67110555725E+03  0.99580016282E+03  0.12699999809E+01 0. -1.
</event>
<event>
 5   0  0.1466480E-05  0.2107483E+04  0.7818609E-02  0.8557954E-01
       -1   -1    0    0    0  501  0.00000000000E+00  0.00000000000E+00  0.16647909195E+04  0.16647909195E+04  0.50400001928E-02 0. -1.
        1   -1    0    0  501    0  0.00000000000E+00  0.00000000000E+00 -0.66697343362E+03  0.66697343364E+03  0.50400001928E-02 0.  1.
    10030    2    1    2    0    0  0.00000000000E+00  0.00000000000E+00  0.99781748589E+03  0.23317643532E+04  0.21074831585E+04 0.  0.
        3    1    3    3  502    0  0.13748354164E+03 -0.10419812272E+04  0.41504883897E+03  0.11299965270E+04  0.10100000352E+00 0. -1.
       -3    1    3    3    0  502 -0.13748354164E+03  0.10419812272E+04  0.58276864691E+03  0.12017678262E+04  0.10100000352E+00 0.  1.
</event>
<event>
 5   0  0.1453430E-05  0.2151805E+04  0.7818609E-02  0.8538760E-01
        1   -1    0    0  501    0  0.00000000000E+00  0.00000000000E+00  0.18835208385E+04  0.18835208385E+04  0.50400001928E-02 0.  1.
       -1   -1    0    0    0  501  0.00000000000E+00  0.00000000000E+00 -0.61457586217E+03  0.61457586219E+03  0.50400001928E-02 0. -1.
    10030    2    1    2    0    0  0.00000000000E+00  0.00000000000E+00  0.12689449764E+04  0.24980967007E+04  0.21518052359E+04 0.  0.
        5    1    3    3  502    0 -0.24133978912E+03 -0.50527781779E+03 -0.43206447262E+03  0.70728520800E+03  0.46999998093E+01 0. -1.
       -5    1    3    3    0  502  0.24133978912E+03  0.50527781779E+03  0.17010094490E+04  0.17908114927E+04  0.46999998093E+01 0.  1.
</event>
<event>
 5   0  0.3257130E-05  0.2117456E+04  0.7818609E-02  0.8553593E-01
       -2   -1    0    0    0  501  0.00000000000E+00  0.00000000000E+00  0.70742659347E+03  0.70742659348E+03  0.25500000920E-02 0.  1.
        2   -1    0    0  501    0  0.00000000000E+00  0.00000000000E+00 -0.15844825632E+04  0.15844825632E+04  0.25500000920E-02 0. -1.
    10030    2    1    2    0    0  0.00000000000E+00  0.00000000000E+00 -0.87705596974E+03  0.22919091567E+04  0.21174561172E+04 0.  0.
        3    1    3    3  502    0  0.67314997182E+03 -0.57010736632E+03  0.19515617616E+03  0.90345959344E+03  0.10100000352E+00 0.  1.
       -3    1    3    3    0  502 -0.67314997182E+03  0.57010736632E+03 -0.10722121459E+04  0.13884495633E+04  0.10100000352E+00 0. -1.
</event>
<event>
 5   0  0.1513292E-05  0.2099303E+04  0.7818609E-02  0.8561551E-01
       -1   -1    0    0    0  501  0.00000000000E+00  0.00000000000E+00  0.17173272613E+04  0.17173272614E+04  0.50400001928E-02 0.  1.
        1   -1    0    0  501    0  0.00000000000E+00  0.00000000000E+00 -0.64155978166E+03  0.64155978168E+03  0.50400001928E-02 0. -1.
    10030    2    1    2    0    0  0.00000000000E+00  0.00000000000E+00  0.10757674797E+04  0.23588870430E+04  0.20993028394E+04 0.  0.
        1    1    3    3  502    0  0.10233248802E+04  0.94712552672E+02  0.29792714753E+03  0.10700116183E+04  0.50400001928E-02 0. -1.
       -1    1    3    3    0  502 -0.10233248802E+04 -0.94712552672E+02  0.77784033216E+03  0.12888754247E+04  0.50400001928E-02 0.  1.
</event>
<event>
 5   0  0.3130517E-05  0.2099258E+04  0.7818609E-02  0.8561570E-01
        2   -1    0    0  501    0  0.00000000000E+00  0.00000000000E+00  0.18234559322E+04  0.18234559322E+04  0.25500000920E-02 0. -1.
       -2   -1    0    0    0  501  0.00000000000E+00  0.00000000000E+00 -0.60419392982E+03  0.60419392982E+03  0.25500000920E-02 0.  1.
    10030    2    1    2    0    0  0.00000000000E+00  0.00000000000E+00  0.12192620024E+04  0.24276498620E+04  0.20992579694E+04 0.  0.
        1    1    3    3  502    0 -0.61319846728E+02 -0.39485326672E+03 -0.51279475948E+03  0.65009821659E+03  0.50400001928E-02 0.  1.
       -1    1    3    3    0  502  0.61319846728E+02  0.39485326672E+03  0.17320567619E+04  0.17775516454E+04  0.50400001928E-02 0. -1.
</event>
<event>
 5   0  0.1466480E-05  0.2097969E+04  0.7818609E-02  0.8562139E-01
        1   -1    0    0  501    0  0.00000000000E+00  0.00000000000E+00  0.17706987874E+04  0.17706987874E+04  0.50400001928E-02 0. -1.
       -1   -1    0    0    0  501  0.00000000000E+00  0.00000000000E+00 -0.62143153923E+03  0.62143153925E+03  0.50400001928E-02 0.  1.
    10030    2    1    2    0    0  0.00000000000E+00  0.00000000000E+00  0.11492672482E+04  0.23921303267E+04  0.20979686108E+04 0.  0.
        3    1    3    3  502    0  0.66723384944E+03 -0.48740025484E+03 -0.16220143017E+03  0.84206254661E+03  0.10100000352E+00 0.  1.
       -3    1    3    3    0  502 -0.66723384944E+03  0.48740025484E+03  0.13114686784E+04  0.15500677801E+04  0.10100000352E+00 0. -1.
</event>
<event>
 5   0  0.1435410E-05  0.2091536E+04  0.7818609E-02  0.8564981E-01
       -1   -1    0    0    0  501  0.00000000000E+00  0.00000000000E+00  0.75636697035E+03  0.75636697037E+03  0.50400001928E-02 0. -1.
        1   -1    0    0  501    0  0.00000000000E+00  0.00000000000E+00 -0.14458990074E+04  0.14458990074E+04  0.50400001928E-02 0.  1.
    10030    2    1    2    0    0  0.00000000000E+00  0.00000000000E+00 -0.68953203702E+03  0.22022659778E+04  0.20915355619E+04 0.  0.
        2    1    3    3  502    0 -0.77093345900E+03 -0.22604617470E+03 -0.10496830610E+04  0.13218433341E+04  0.25500000920E-02 0.  1.
       -2    1    3    3    0  502  0.77093345900E+03  0.22604617470E+03  0.36015102403E+03  0.88042264363E+03  0.25500000920E-02 0. -1.
</event>
<event>
 5   0  0.1453430E-05  0.2093280E+04  0.7818609E-02  0.8564209E-01
       -1   -1    0    0    0  501  0.00000000000E+00  0.00000000000E+00  0.39941806251E+03  0.39941806254E+03  0.50400001928E-02 0. -1.
        1   -1    0    0  501    0  0.00000000000E+00  0.00000000000E+00 -0.27426290216E+04  0.27426290216E+04  0.50400001928E-02 0.  1.
    10030    2    1    2    0    0  0.00000000000E+00  0.00000000000E+00 -0.23432109591E+04  0.31420470842E+04  0.20932802680E+04 0.  0.
        5    1    3    3  502    0 -0.53843427758E+03  0.40248364030E+03 -0.23757243047E+04  0.24690064022E+04  0.46999998093E+01 0.  1.
       -5    1    3    3    0  502  0.53843427758E+03 -0.40248364030E+03  0.32513345594E+02  0.67304068200E+03  0.46999998093E+01 0. -1.
</event>
<event>
 5   0  0.3108326E-05  0.2131110E+04  0.7818609E-02  0.8547662E-01
        2   -1    0    0  501    0  0.00000000000E+00  0.00000000000E+00  0.83561582578E+03  0.83561582578E+03  0.25500000920E-02 0. -1.
       -2   -1    0    0    0  501  0.00000000000E+00  0.00000000000E+00 -0.13587675758E+04  0.13587675758E+04  0.25500000920E-02 0.  1.
    10030    2    1    2    0    0  0.00000000000E+00  0.00000000000E+00 -0.52315175001E+03  0.21943834016E+04  0.21311102176E+04 0.  0.
        5    1    3    3  502    0 -0.27345944655E+03  0.10297153638E+04 -0.24398653308E+03  0.10929983155E+04  0.46999998093E+01 0.  1.
       -5    1    3    3    0  502  0.27345944655E+03 -0.10297153638E+04 -0.27916521693E+03  0.11013850860E+04  0.46999998093E+01 0. -1.
</event>
<event>
 5   0  0.3108326E-05  0.2104564E+04  0.7818609E-02  0.8559235E-01
        2   -1    0    0  501    0  0.00000000000E+00  0.00000000000E+00  0.18586370905E+04  0.18586370905E+04  0.25500000920E-02 0.  1.
       -2   -1    0    0    0  501  0.00000000000E+00  0.00000000000E+00 -0.59575788942E+03  0.59575788943E+03  0.25500000920E-02 0. -1.
    10030    2    1    2    0    0  0.00000000000E+00  0.00000000000E+00  0.12628792011E+04  0.24543949799E+04  0.21045642877E+04 0.  0.
        5    1    3    3  502    0 -0.77111277168E+03 -0.20744356154E+03  0.14306464443E+04  0.16384196888E+04  0.46999998093E+01 0.  1.
       -5    1    3    3    0  502  0.77111277168E+03  0.20744356154E+03 -0.16776724326E+03  0.81597529116E+03  0.46999998093E+01 0. -1.
</event>
<event>
 5   0  0.3108326E-05  0.2102173E+04  0.7818609E-02  0.8560287E-01
        2   -1    0    0  501    0  0.00000000000E+00  0.00000000000E+00  0.10438846418E+04  0.10438846418E+04  0.25500000920E-02 0. -1.
       -2   -1    0    0    0  501  0.00000000000E+00  0.00000000000E+00 -0.10583385013E+04  0.10583385013E+04  0.25500000920E-02 0.  1.
    10030    2    1    2    0    0  0.00000000000E+00  0.00000000000E+00 -0.14453859536E+02  0.21022231431E+04  0.21021734537E+04 0.  0.
        5    1    3    3  502    0 -0.65801996259E+02  0.55753005539E+03 -0.89583757556E+03  0.10572212243E+04  0.46999998093E+01 0.  1.
       -5    1    3    3    0  502  0.65801996259E+02 -0.55753005539E+03  0.88138371603E+03  0.10450019188E+04  0.46999998093E+01 0. -1.
</event>
<event>
 5   0  0.1492552E-05  0.2065816E+04  0.7818609E-02  0.8576453E-01
        1   -1    0    0  501    0  0.00000000000E+00  0.00000000000E+00  0.12637321315E+04  0.12637321315E+04  0.50400001928E-02 0. -1.
       -1   -1    0    0    0  501  0.00000000000E+00  0.00000000000E+00 -0.84424491098E+03  0.84424491099E+03  0.50400001928E-02 0.  1.
    10030    2    1    2    0    0  0.00000000000E+00  0.00000000000E+00  0.41948722048E+03  0.21079770425E+04  0.20658164690E+04 0.  0.
        4    1    3    3  502    0 -0.16111896053E+03 -0.50655095720E+03 -0.69396329626E+03  0.87415093728E+03  0.12699999809E+01 0.  1.
       -4    1    3    3    0  502  0.16111896053E+03  0.50655095720E+03  0.11134505167E+04  0.12338261052E+04  0.12699999809E+01 0. -1.
</event>
<event>
 5   0  0.3279789E-05  0.2102399E+04  0.7818609E-02  0.8560187E-01
        2   -1    0    0  501    0  0.00000000000E+00  0.00000000000E+00  0.13628030814E+04  0.13628030814E+04  0.25500000920E-02 0. -1.
       -2   -1    0    0    0  501  0.00000000000E+00  0.00000000000E+00 -0.81084381963E+03  0.81084381963E+03  0.25500000920E-02 0.  1.
    10030    2    1    2    0    0  0.00000000000E+00  0.00000000000E+00  0.55195926178E+03  0.21736469010E+04  0.21023990639E+04 0.  0.
        2    1    3    3  502    0  0.28067678167E+03  0.75031830097E+03 -0.42772086839E+03  0.90813113029E+03  0.25500000920E-02 0.  1.
       -2    1    3    3    0  502 -0.28067678167E+03 -0.75031830097E+03  0.97968013016E+03  0.12655157707E+04  0.25500000920E-02 0. -1.
</event>
<event>
 5   0  0.3257130E-05  0.2077589E+04  0.7818609E-02  0.8571180E-01
        2   -1    0    0  501    0  0.00000000000E+00  0.00000000000E+00  0.99806520835E+03  0.99806520835E+03  0.25500000920E-02 0. -1.
       -2   -1    0    0    0  501  0.00000000000E+00  0.00000000000E+00 -0.10811863011E+04  0.10811863011E+04  0.25500000920E-02 0.  1.
    10030    2    1    2    0    0  0.00000000000E+00  0.00000000000E+00 -0.83121092740E+02  0.20792515094E+04  0.20775894020E+04 0.  0.
        3    1    3    3  502    0 -0.61388917160E+03 -0.60312137198E+03  0.54069447613E+03  0.10163492663E+04  0.10100000352E+00 0. -1.
       -3    1    3    3    0  502  0.61388917160E+03  0.60312137198E+03 -0.62381556887E+03  0.10629022432E+04  0.10100000352E+00 0.  1.
</event>
<event>
 5   0  0.1513292E-05  0.2101221E+04  0.7818609E-02  0.8560706E-01
        1   -1    0    0  501    0  0.00000000000E+00  0.00000000000E+00  0.16173695971E+04  0.16173695971E+04  0.50400001928E-02 0. -1.
       -1   -1    0    0    0  501  0.00000000000E+00  0.00000000000E+00 -0.68245508729E+03  0.68245508731E+03  0.50400001928E-02 0.  1.
    10030    2    1    2    0    0  0.00000000000E+00  0.00000000000E+00  0.93491450976E+03  0.22998246844E+04  0.21012207019E+04 0.  0.
        1    1    3    3  502    0 -0.50055810240E+03  0.74405014221E+03  0.10665629468E+04  0.13934581255E+04  0.50400001928E-02 0. -1.
       -1    1    3    3    0  502  0.50055810240E+03 -0.74405014221E+03 -0.13164843707E+03  0.90636655885E+03  0.50400001928E-02 0.  1.
</event>
<event>
 5   0  0.3257130E-05  0.2116139E+04  0.7818609E-02  0.8554167E-01
       -2   -1    0    0    0  501  0.00000000000E+00  0.00000000000E+00  0.13723771061E+04  0.13723771061E+04  0.25500000920E-02 0.  1.
        2   -1    0    0  501    0  0.00000000000E+00  0.00000000000E+00 -0.81574582386E+03  0.81574582387E+03  0.25500000920E-02 0. -1.
    10030    2    1    2    0    0  0.00000000000E+00  0.00000000000E+00  0.55663128226E+03  0.21881229300E+04  0.21161388358E+04 0.  0.
        3    1    3    3  502    0  0.33783914090E+03  0.54399277608E+03  0.11492545201E+04  0.13156174929E+04  0.10100000352E+00 0.  1.
       -3    1    3    3    0  502 -0.33783914090E+03 -0.54399277608E+03 -0.59262323781E+03  0.87250543708E+03  0.10100000352E+00 0. -1.
</event>
<event>
 5   0  0.1492552E-05  0.2095842E+04  0.7818609E-02  0.8563077E-01
       -1   -1    0    0    0  501  0.00000000000E+00  0.00000000000E+00  0.74500862610E+03  0.74500862612E+03  0.50400001928E-02 0.  1.
        1   -1    0    0  501    0  0.00000000000E+00  0.00000000000E+00 -0.14739945117E+04  0.14739945117E+04  0.50400001928E-02 0. -1.
    10030    2    1    2    0    0  0.00000000000E+00  0.00000000000E+00 -0.72898588558E+03  0.22190031378E+04  0.20958421945E+04 0.  0.
        4    1    3    3  502    0 -0.38822936868E+03 -0.96291913920E+03 -0.51497797824E+03  0.11589388432E+04  0.12699999809E+01 0.  1.
       -4    1    3    3    0  502  0.38822936868E+03  0.96291913920E+03 -0.21400790734E+03  0.10600642946E+04  0.12699999809E+01 0. -1.
</event>
<event>
 5   0  0.3108326E-05  0.2054372E+04  0.7818609E-02  0.8581614E-01
        2   -1    0    0  501    0  0.00000000000E+00  0.00000000000E+00  0.85359476224E+03  0.85359476224E+03  0.25500000920E-02 0.  1.
       -2   -1    0    0    0  501  0.00000000000E+00  0.00000000000E+00 -0.12360795176E+04  0.12360795176E+04  0.25500000920E-02 0. -1.
    10030    2    1    2    0    0  0.00000000000E+00  0.00000000000E+00 -0.38248475535E+03  0.20896742798E+04  0.20543719254E+04 0.  0.
        5    1    3    3  502    0 -0.79384604742E+03  0.44518595465E+03  0.29307698125E+03  0.95618946248E+03  0.46999998093E+01 0.  1.
       -5    1    3    3    0  502  0.79384604742E+03 -0.44518595465E+03 -0.67556173660E+03  0.11334848174E+04  0.46999998093E+01 0. -1.
</event>
<event>
 5   0  0.1466480E-05  0.2086890E+04  0.7818609E-02  0.8567040E-01
        1   -1    0    0  501    0  0.00000000000E+00  0.00000000000E+00  0.10297718783E+04  0.10297718783E+04  0.50400001928E-02 0.  1.
       -1   -1    0    0    0  501  0.00000000000E+00  0.00000000000E+00 -0.10573001653E+04  0.10573001653E+04  0.50400001928E-02 0. -1.
    10030    2    1    2    0    0  0.00000000000E+00  0.00000000000E+00 -0.27528286960E+02  0.20870720436E+04  0.20868904880E+04 0.  0.
        3    1    3    3  502    0 -0.58777659010E+03 -0.85540350933E+03 -0.12139080636E+03  0.10449556075E+04  0.10100000352E+00 0.  1.
       -3    1    3    3    0  502  0.58777659010E+03  0.85540350933E+03  0.93862519400E+02  0.10421164361E+04  0.10100000352E+00 0. -1.
</event>
<event>
 5   0  0.3279789E-05  0.2088346E+04  0.7818609E-02  0.8566395E-01
        2   -1    0    0  501    0  0.00000000000E+00  0.00000000000E+00  0.87459110941E+03  0.87459110941E+03  0.25500000920E-02 0. -1.
       -2   -1    0    0    0  501  0.00000000000E+00  0.00000000000E+00 -0.12466363578E+04  0.12466363578E+04  0.25500000920E-02 0.  1.
    10030    2    1    2    0    0  0.00000000000E+00  0.00000000000E+00 -0.37204524839E+03  0.21212274672E+04  0.20883458288E+04 0.  0.
        2    1    3    3  502    0 -0.46835809015E+03  0.61066778075E+03 -0.90284138656E+03  0.11863376452E+04  0.25500000920E-02 0.  1.
       -2    1    3    3    0  502  0.46835809015E+03 -0.61066778075E+03  0.53079613817E+03  0.93488982204E+03  0.25500000920E-02 0. -1.
</event>
<event>
 5   0  0.1453430E-05  0.2113755E+04  0.7818609E-02  0.8555208E-01
       -1   -1    0    0    0  501  0.00000000000E+00  0.00000000000E+00  0.10389455501E+04  0.10389455501E+04  0.50400001928E-02 0.  1.
        1   -1    0    0  501    0  0.00000000000E+00  0.00000000000E+00 -0.10751191526E+04  0.10751191526E+04  0.50400001928E-02 0. -1.
    10030    2    1    2    0    0  0.00000000000E+00  0.00000000000E+00 -0.36173602501E+02  0.21140647027E+04  0.21137551982E+04 0.  0.
        5    1    3    3  502    0  0.78388191620E+03  0.70346960688E+03  0.69263396572E+02  0.10555377087E+04  0.46999998093E+01 0.  1.
       -5    1    3    3    0  502 -0.78388191620E+03 -0.70346960688E+03 -0.10543699907E+03  0.10585269940E+04  0.46999998093E+01 0. -1.
</event>
<event>
 5   0  0.1435410E-05  0.2102940E+04  0.7818609E-02  0.8559949E-01
        1   -1    0    0  501    0  0.00000000000E+00  0.00000000000E+00  0.17915353015E+04  0.17915353015E+04  0.50400001928E-02 0.  1.
       -1   -1    0    0    0  501  0.00000000000E+00  0.00000000000E+00 -0.61711853381E+03  0.61711853383E+03  0.50400001928E-02 0. -1.
    10030    2    1    2    0    0  0.00000000000E+00  0.00000000000E+00  0.11744167677E+04  0.24086538354E+04  0.21029404543E+04 0.  0.
        2    1    3    3  502    0  0.52316442248E+03 -0.81166111410E+03  0.11067920218E+03  0.97197976465E+03  0.25500000920E-02 0. -1.
       -2    1    3    3    0  502 -0.52316442248E+03  0.81166111410E+03  0.10637375655E+04  0.14366740707E+04  0.25500000920E-02 0.  1.
</event>
<event>
 5   0  0.1453430E-05  0.2109009E+04  0.7818609E-02  0.8557285E-01
        1   -1    0    0  501    0  0.00000000000E+00  0.00000000000E+00  0.61869734668E+03  0.61869734670E+03  0.50400001928E-02 0.  1.
       -1   -1    0    0    0  501  0.00000000000E+00  0.00000000000E+00 -0.17972920515E+04  0.17972920515E+04  0.50400001928E-02 0. -1.
    10030    2    1    2    0    0  0.00000000000E+00  0.00000000000E+00 -0.11785947048E+04  0.24159893982E+04  0.21090090787E+04 0.  0.
        5    1    3    3  502    0 -0.32439703873E+03 -0.98298092282E+03 -0.35883594953E+03  0.10955684652E+04  0.46999998093E+01 0.  1.
       -5    1    3    3    0  502  0.32439703873E+03  0.98298092282E+03 -0.81975875532E+03  0.13204209330E+04  0.46999998093E+01 0. -1.
</event>
<event>
 5   0  0.3108326E-05  0.2085341E+04  0.7818609E-02  0.8567728E-01
        2   -1    0    0  501    0  0.00000000000E+00  0.00000000000E+00  0.59194599374E+03  0.59194599374E+03  0.25500000920E-02 0.  1.
       -2   -1    0    0    0  501  0.00000000000E+00  0.00000000000E+00 -0.18365897451E+04  0.18365897452E+04  0.25500000920E-02 0. -1.
    10030    2    1    2    0    0  0.00000000000E+00  0.00000000000E+00 -0.12446437514E+04  0.24285357389E+04  0.20853411633E+04 0.  0.
        5    1    3    3  502    0 -0.85318576851E+03 -0.10728021290E+03  0.64387154863E+02  0.86232406634E+03  0.46999998093E+01 0. -1.
       -5    1    3    3    0  502  0.85318576851E+03  0.10728021290E+03 -0.13090309063E+04  0.15662116726E+04  0.46999998093E+01 0.  1.
</event>
<event>
 5   0  0.1453430E-05  0.2102452E+04  0.7818609E-02  0.8560164E-01
       -1   -1    0    0    0  501  0.00000000000E+00  0.00000000000E+00  0.79738316486E+03  0.79738316487E+03  0.50400001928E-02 0. -1.
        1   -1    0    0  501    0  0.00000000000E+00  0.00000000000E+00 -0.13858777648E+04  0.13858777648E+04  0.50400001928E-02 0.  1.
    10030    2    1    2    0    0  0.00000000000E+00  0.00000000000E+00 -0.58849459995E+03  0.21832609297E+04  0.21024515198E+04 0.  0.
        5    1    3    3  502    0  0.42088092549E+02 -0.10483666749E+04 -0.36162102424E+03  0.11097909478E+04  0.46999998093E+01 0.  1.
       -5    1    3    3    0  502 -0.42088092549E+02  0.10483666749E+04 -0.22687357571E+03  0.10734699819E+04  0.46999998093E+01 0. -1.
</event>
<event>
 5   0  0.3130517E-05  0.2092619E+04  0.7818609E-02  0.8564502E-01
        2   -1    0    0  501    0  0.00000000000E+00  0.00000000000E+00  0.11001496343E+04  0.11001496343E+04  0.25500000920E-02 0. -1.
       -2   -1    0    0    0  501  0.00000000000E+00  0.00000000000E+00 -0.99510446685E+03  0.99510446685E+03  0.25500000920E-02 0.  1.
    10030    2    1    2    0    0  0.00000000000E+00  0.00000000000E+00  0.10504516741E+03  0.20952541011E+04  0.20926192346E+04 0.  0.
        1    1    3    3  502    0  0.35303394193E+03 -0.93827749563E+03 -0.24746472947E+03  0.10325872434E+04  0.50400001928E-02 0.  1.
       -1    1    3    3    0  502 -0.35303394193E+03  0.93827749563E+03  0.35250989688E+03  0.10626668577E+04  0.50400001928E-02 0. -1.
</event>
<event>
 5   0  0.3108326E-05  0.2097874E+04  0.7818609E-02  0.8562180E-01
        2   -1    0    0  501    0  0.00000000000E+00  0.00000000000E+00  0.15854560264E+04  0.15854560264E+04  0.25500000920E-02 0. -1.
       -2   -1    0    0    0  501  0.00000000000E+00  0.00000000000E+00 -0.69397628019E+03  0.69397628019E+03  0.25500000920E-02 0.  1.
    10030    2    1    2    0    0  0.00000000000E+00  0.00000000000E+00  0.89147974620E+03  0.22794323066E+04  0.20978740435E+04 0.  0.
        5    1    3    3  502    0  0.95968133713E+02 -0.12407787339E+03 -0.68114897627E+03  0.69899300370E+03  0.46999998093E+01 0.  1.
       -5    1    3    3    0  502 -0.95968133713E+02  0.12407787339E+03  0.15726287225E+04  0.15804393029E+04  0.46999998093E+01 0. -1.
</event>
<event>
 5   0  0.3108326E-05  0.2102904E+04  0.7818609E-02  0.8559965E-01
       -2   -1    0    0    0  501  0.00000000000E+00  0.00000000000E+00  0.69939469582E+03  0.69939469582E+03  0.25500000920E-02 0.  1.
        2   -1    0    0  501    0  0.00000000000E+00  0.00000000000E+00 -0.15807259352E+04  0.15807259352E+04  0.25500000920E-02 0. -1.
    10030    2    1    2    0    0  0.00000000000E+00  0.00000000000E+00 -0.88133123934E+03  0.22801206310E+04  0.21029040250E+04 0.  0.
        5    1    3    3  502    0  0.13587071816E+03  0.19138178384E+03 -0.15519476402E+04  0.15696023086E+04  0.46999998093E+01 0. -1.
       -5    1    3    3    0  502 -0.13587071816E+03 -0.19138178384E+03  0.67061640090E+03  0.71051832234E+03  0.46999998093E+01 0.  1.
</event>
<event>
 5   0  0.1453430E-05  0.2063456E+04  0.7818609E-02  0.8577514E-01
       -1   -1    0    0    0  501  0.00000000000E+00  0.00000000000E+00  0.12809181494E+04  0.12809181494E+04  0.50400001928E-02 0. -1.
        1   -1    0    0  501    0  0.00000000000E+00  0.00000000000E+00 -0.83101543701E+03  0.83101543702E+03  0.50400001928E-02 0.  1.
    10030    2    1    2    0    0  0.00000000000E+00  0.00000000000E+00  0.44990271235E+03  0.21119335864E+04  0.20634560869E+04 0.  0.
        5    1    3    3  502    0 -0.34118686056E+03 -0.63868641654E+03  0.97714018659E+03  0.12162046895E+04  0.46999998093E+01 0. -1.
       -5    1    3    3    0  502  0.34118686056E+03  0.63868641654E+03 -0.52723747425E+03  0.89572889689E+03  0.46999998093E+01 0.  1.
</event>
<event>
 5   0  0.1453430E-05  0.2097314E+04  0.7818609E-02  0.8562428E-01
        1   -1    0    0  501    0  0.00000000000E+00  0.00000000000E+00  0.22171030239E+04  0.22171030239E+04  0.50400001928E-02 0. -1.
       -1   -1    0    0    0  501  0.00000000000E+00  0.00000000000E+00 -0.49599907693E+03  0.49599907695E+03  0.50400001928E-02 0.  1.
    10030    2    1    2    0    0  0.00000000000E+00  0.00000000000E+00  0.17211039470E+04  0.27131021009E+04  0.20973135706E+04 0.  0.
        5    1    3    3  502    0 -0.78835067516E+03 -0.68782084659E+03  0.95261344013E+03  0.14149518580E+04  0.46999998093E+01 0.  1.
       -5    1    3    3    0  502  0.78835067516E+03  0.68782084659E+03  0.76849050684E+03  0.12981502429E+04  0.46999998093E+01 0. -1.
</event>
<event>
 5   0  0.3108326E-05  0.2108931E+04  0.7818609E-02  0.8557319E-01
        2   -1    0    0  501    0  0.00000000000E+00  0.00000000000E+00  0.95457682253E+03  0.95457682253E+03  0.25500000920E-02 0. -1.
       -2   -1    0    0    0  501  0.00000000000E+00  0.00000000000E+00 -0.11648072332E+04  0.11648072332E+04  0.25500000920E-02 0.  1.
    10030    2    1    2    0    0  0.00000000000E+00  0.00000000000E+00 -0.21023041071E+03  0.21193840558E+04  0.21089314712E+04 0.  0.
        5    1    3    3  502    0  0.78713739201E+03 -0.52993445892E+03 -0.56724227053E+03  0.11055323098E+04  0.46999998093E+01 0.  1.
       -5    1    3    3    0  502 -0.78713739201E+03  0.52993445892E+03  0.35701185982E+03  0.10138517459E+04  0.46999998093E+01 0. -1.
</event>
<event>
 5   0  0.1492552E-05  0.2059443E+04  0.7818609E-02  0.8579322E-01
        1   -1    0    0  501    0  0.00000000000E+00  0.00000000000E+00  0.10011244673E+04  0.10011244673E+04  0.50400001928E-02 0. -1.
       -1   -1    0    0    0  501  0.00000000000E+00  0.00000000000E+00 -0.10591357712E+04  0.10591357712E+04  0.50400001928E-02 0.  1.
    10030    2    1    2    0    0  0.00000000000E+00  0.00000000000E+00 -0.58011303963E+02  0.20602602385E+04  0.20594433566E+04 0.  0.
        4    1    3    3  502    0  0.35046651973E+03 -0.34266703601E+03  0.87693493238E+03  0.10046213055E+04  0.12699999809E+01 0. -1.
       -4    1    3    3    0  502 -0.35046651973E+03  0.34266703601E+03 -0.93494623634E+03  0.10556389330E+04  0.12699999809E+01 0.  1.
</event>
<event>
 5   0  0.3130517E-05  0.2094531E+04  0.7818609E-02  0.8563657E-01
       -2   -1    0    0    0  501  0.00000000000E+00  0.00000000000E+00  0.71285816130E+03  0.71285816130E+03  0.25500000920E-02 0. -1.
        2   -1    0    0  501    0  0.00000000000E+00  0.00000000000E+00 -0.15385452824E+04  0.15385452824E+04  0.25500000920E-02 0.  1.
    10030    2    1    2    0    0  0.00000000000E+00  0.00000000000E+00 -0.82568712111E+03  0.22514034437E+04  0.20945305546E+04 0.  0.
        1    1    3    3  502    0  0.50718438582E+03 -0.57438849623E+03 -0.11801769020E+04  0.14071160811E+04  0.50400001928E-02 0.  1.
       -1    1    3    3    0  502 -0.50718438582E+03  0.57438849623E+03  0.35448978087E+03  0.84428736256E+03  0.50400001928E-02 0. -1.
</event>
<event>
 5   0  0.1453430E-05  0.2089793E+04  0.7818609E-02  0.8565753E-01
        1   -1    0    0  501    0  0.00000000000E+00  0.00000000000E+00  0.15297800580E+04  0.15297800580E+04  0.50400001928E-02 0. -1.
       -1   -1    0    0    0  501  0.00000000000E+00  0.00000000000E+00 -0.71370303796E+03  0.71370303797E+03  0.50400001928E-02 0.  1.
    10030    2    1    2    0    0  0.00000000000E+00  0.00000000000E+00  0.81607702008E+03  0.22434830960E+04  0.20897929800E+04 0.  0.
        5    1    3    3  502    0  0.92602388181E+03  0.23444990584E+03 -0.46540304906E+02  0.95638646896E+03  0.46999998093E+01 0.  1.
       -5    1    3    3    0  502 -0.92602388181E+03 -0.23444990584E+03  0.86261732499E+03  0.12870966271E+04  0.46999998093E+01 0. -1.
</event>
<event>
 5   0  0.1513292E-05  0.2094539E+04  0.7818609E-02  0.8563653E-01
       -1   -1    0    0    0  501  0.00000000000E+00  0.00000000000E+00  0.73731385334E+03  0.73731385336E+03  0.50400001928E-02 0. -1.
        1   -1    0    0  501    0  0.00000000000E+00  0.00000000000E+00 -0.14875265188E+04  0.14875265188E+04  0.50400001928E-02 0.  1.
    10030    2    1    2    0    0  0.00000000000E+00  0.00000000000E+00 -0.75021266544E+03  0.22248403721E+04  0.20945394812E+04 0.  0.
        1    1    3    3  502    0 -0.51236163105E+03  0.37403704692E+03  0.51001197890E+03  0.81395968702E+03  0.50400001928E-02 0. -1.
       -1    1    3    3    0  502  0.51236163105E+03 -0.37403704692E+03 -0.12602246443E+04  0.14108806851E+04  0.50400001928E-02 0.  1.
</event>
<event>
 5   0  0.1513292E-05  0.2078998E+04  0.7818609E-02  0.8570552E-01
       -1   -1    0    0    0  501  0.00000000000E+00  0.00000000000E+00  0.82322142488E+03  0.82322142489E+03  0.50400001928E-02 0.  1.
        1   -1    0    0  501    0  0.00000000000E+00  0.00000000000E+00 -0.13125976729E+04  0.13125976729E+04  0.50400001928E-02 0. -1.
    10030    2    1    2    0    0  0.00000000000E+00  0.00000000000E+00 -0.48937624805E+03  0.21358190978E+04  0.20789983421E+04 0.  0.
        1    1    3    3  502    0 -0.20394006554E+03  0.16329182064E+03  0.78894289153E+03  0.83107560133E+03  0.50400001928E-02 0.  1.
       -1    1    3    3    0  502  0.20394006554E+03 -0.16329182064E+03 -0.12783191396E+04  0.13047434965E+04  0.50400001928E-02 0. -1.
</event>
<event>
 5   0  0.1492552E-05  0.2106946E+04  0.7818609E-02  0.8558190E-01
        1   -1    0    0  501    0  0.00000000000E+00  0.00000000000E+00  0.15097220175E+04  0.15097220175E+04  0.50400001928E-02 0.  1.
       -1   -1    0    0    0  501  0.00000000000E+00  0.00000000000E+00 -0.73510546241E+03  0.73510546242E+03  0.50400001928E-02 0. -1.
    10030    2    1    2    0    0  0.00000000000E+00  0.00000000000E+00  0.77461655505E+03  0.22448274799E+04  0.21069455634E+04 0.  0.
        4    1    3    3  502    0 -0.18871259705E+02  0.99710638050E+03  0.74897200608E+03  0.12472120659E+04  0.12699999809E+01 0.  1.
       -4    1    3    3    0  502  0.18871259705E+02 -0.99710638050E+03  0.25644548971E+02  0.99761541401E+03  0.12699999809E+01 0. -1.
</event>
<event>
 5   0  0.3242231E-05  0.2096090E+04  0.7818609E-02  0.8562968E-01
       -2   -1    0    0    0  501  0.00000000000E+00  0.00000000000E+00  0.45441948248E+03  0.45441948249E+03  0.25500000920E-02 0.  1.
        2   -1    0    0  501    0  0.00000000000E+00  0.00000000000E+00 -0.24171452980E+04  0.24171452980E+04  0.25500000920E-02 0. -1.
    10030    2    1    2    0    0  0.00000000000E+00  0.00000000000E+00 -0.19627258155E+04  0.28715647805E+04  0.20960896120E+04 0.  0.
        4    1    3    3  502    0  0.37858956986E+03 -0.18819211524E+03 -0.22951350614E+04  0.23337508217E+04  0.12699999809E+01 0. -1.
       -4    1    3    3    0  502 -0.37858956986E+03  0.18819211524E+03  0.33240924589E+03  0.53781395882E+03  0.12699999809E+01 0.  1.
</event>
<event>
 5   0  0.3257130E-05  0.2098441E+04  0.7818609E-02  0.8561930E-01
       -2   -1    0    0    0  501  0.00000000000E+00  0.00000000000E+00  0.10672660082E+04  0.10672660082E+04  0.25500000920E-02 0.  1.
        2   -1    0    0  501    0  0.00000000000E+00  0.00000000000E+00 -0.10314804043E+04  0.10314804043E+04  0.25500000920E-02 0. -1.
    10030    2    1    2    0    0  0.00000000000E+00  0.00000000000E+00  0.35785603890E+02  0.20987464124E+04  0.20984413011E+04 0.  0.
        3    1    3    3  502    0  0.36083759477E+03  0.68672312625E+02  0.10008603610E+04  0.10661337293E+04  0.10100000352E+00 0.  1.
       -3    1    3    3    0  502 -0.36083759477E+03 -0.68672312625E+02 -0.96507475713E+03  0.10326126831E+04  0.10100000352E+00 0. -1.
</event>
<event>
 5   0  0.1492552E-05  0.2104075E+04  0.7818609E-02  0.8559451E-01
        1   -1    0    0  501    0  0.00000000000E+00  0.00000000000E+00  0.11661010703E+04  0.11661010703E+04  0.50400001928E-02 0. -1.
       -1   -1    0    0    0  501  0.00000000000E+00  0.00000000000E+00 -0.94913081134E+03  0.94913081136E+03  0.50400001928E-02 0.  1.
    10030    2    1    2    0    0  0.00000000000E+00  0.00000000000E+00  0.21697025898E+03  0.21152318817E+04  0.21040745757E+04 0.  0.
        4    1    3    3  502    0  0.68846040558E+03 -0.16698832931E+03  0.89037414595E+03  0.11378183356E+04  0.12699999809E+01 0. -1.
       -4    1    3    3    0  502 -0.68846040558E+03  0.16698832931E+03 -0.67340388697E+03  0.97741354608E+03  0.12699999809E+01 0.  1.
</event>
<event>
 5   0  0.3108326E-05  0.2097588E+04  0.7818609E-02  0.8562307E-01
        2   -1    0    0  501    0  0.00000000000E+00  0.00000000000E+00  0.95263590603E+03  0.95263590604E+03  0.25500000920E-02 0.  1.
       -2   -1    0    0    0  501  0.00000000000E+00  0.00000000000E+00 -0.11546584288E+04  0.11546584288E+04  0.25500000920E-02 0. -1.
    10030    2    1    2    0    0  0.00000000000E+00  0.00000000000E+00 -0.20202252280E+03  0.21072943349E+04  0.20975882137E+04 0.  0.
        5    1    3    3  502    0 -0.57597672425E+03  0.19671585717E+02  0.77929153703E+03  0.96925411934E+03  0.46999998093E+01 0.  1.
       -5    1    3    3    0  502  0.57597672425E+03 -0.19671585717E+02 -0.98131405983E+03  0.11380402155E+04  0.46999998093E+01 0. -1.
</event>
<event>
 5   0  0.3257130E-05  0.2099844E+04  0.7818609E-02  0.8561312E-01
        2   -1    0    0  501    0  0.00000000000E+00  0.00000000000E+00  0.23254881456E+04  0.23254881456E+04  0.25500000920E-02 0.  1.
       -2   -1    0    0    0  501  0.00000000000E+00  0.00000000000E+00 -0.47402353124E+03  0.47402353125E+03  0.25500000920E-02 0. -1.
    10030    2    1    2    0    0  0.00000000000E+00  0.00000000000E+00  0.18514646144E+04  0.27995116769E+04  0.20998439015E+04 0.  0.
        3    1    3    3  502    0 -0.53712579848E+03  0.47276425227E+03 -0.98600782668E+02  0.72231038076E+03  0.10100000352E+00 0. -1.
       -3    1    3    3    0  502  0.53712579848E+03 -0.47276425227E+03  0.19500653970E+04  0.20772012961E+04  0.10100000352E+00 0.  1.
</event>
<event>
 5   0  0.3242231E-05  0.2097663E+04  0.7818609E-02  0.8562273E-01
        2   -1    0    0  501    0  0.00000000000E+00  0.00000000000E+00  0.26717539145E+04  0.26717539145E+04  0.25500000920E-02 0. -1.
       -2   -1    0    0    0  501  0.00000000000E+00  0.00000000000E+00 -0.41173248049E+03  0.41173248050E+03  0.25500000920E-02 0.  1.
    10030    2    1    2    0    0  0.00000000000E+00  0.00000000000E+00  0.22600214340E+04  0.30834863950E+04  0.20976633347E+04 0.  0.
        4    1    3    3  502    0  0.34917434624E+03  0.63594731044E+03  0.16622526155E+02  0.72569251546E+03  0.12699999809E+01 0.  1.
       -4    1    3    3    0  502 -0.34917434624E+03 -0.63594731044E+03  0.22433989078E+04  0.23577938795E+04  0.12699999809E+01 0. -1.
</event>
<event>
 5   0  0.3279789E-05  0.2100779E+04  0.7818609E-02  0.8560900E-01
        2   -1    0    0  501    0  0.00000000000E+00  0.00000000000E+00  0.14028951448E+04  0.14028951448E+04  0.25500000920E-02 0.  1.
       -2   -1    0    0    0  501  0.00000000000E+00  0.00000000000E+00 -0.78645766637E+03  0.78645766637E+03  0.25500000920E-02 0. -1.
    10030    2    1    2    0    0  0.00000000000E+00  0.00000000000E+00  0.61643747839E+03  0.21893528111E+04  0.21007785621E+04 0.  0.
        2    1    3    3  502    0 -0.29331747016E+03  0.16454450029E+03  0.13452661375E+04  0.13866690346E+04  0.25500000920E-02 0.  1.
       -2    1    3    3    0  502  0.29331747016E+03 -0.16454450029E+03 -0.72882865906E+03  0.80268377656E+03  0.25500000920E-02 0. -1.
</event>
<event>
 5   0  0.3279789E-05  0.2086336E+04  0.7818609E-02  0.8567287E-01
       -2   -1    0    0    0  501  0.00000000000E+00  0.00000000000E+00  0.13543456347E+04  0.13543456347E+04  0.25500000920E-02 0. -1.
        2   -1    0    0  501    0  0.00000000000E+00  0.00000000000E+00 -0.80348701589E+03  0.80348701590E+03  0.25500000920E-02 0.  1.
    10030    2    1    2    0    0  0.00000000000E+00  0.00000000000E+00  0.55085861880E+03  0.21578326506E+04  0.20863356705E+04 0.  0.
        2    1    3    3  502    0 -0.56797912028E+03 -0.65909159350E+03 -0.31978978466E+03  0.92696683656E+03  0.25500000920E-02 0.  1.
       -2    1    3    3    0  502  0.56797912028E+03  0.65909159350E+03  0.87064840346E+03  0.12308658140E+04  0.25500000920E-02 0. -1.
</event>
<event>
 5   0  0.3279789E-05  0.2102448E+04  0.7818609E-02  0.8560166E-01
       -2   -1    0    0    0  501  0.00000000000E+00  0.00000000000E+00  0.62109346025E+03  0.62109346026E+03  0.25500000920E-02 0. -1.
        2   -1    0    0  501    0  0.00000000000E+00  0.00000000000E+00 -0.17792366548E+04  0.17792366548E+04  0.25500000920E-02 0.  1.
    10030    2    1    2    0    0  0.00000000000E+00  0.00000000000E+00 -0.11581431946E+04  0.24003301151E+04  0.21024483352E+04 0.  0.
        2    1    3    3  502    0  0.10599981241E+03  0.28838877175E+02  0.61452243363E+03  0.62426393657E+03  0.25500000920E-02 0. -1.
       -2    1    3    3    0  502 -0.10599981241E+03 -0.28838877175E+02 -0.17726656282E+04  0.17760661785E+04  0.25500000920E-02 0.  1.
</event>
<event>
 5   0  0.3257130E-05  0.2098043E+04  0.7818609E-02  0.8562106E-01
       -2   -1    0    0    0  501  0.00000000000E+00  0.00000000000E+00  0.86115887187E+03  0.86115887187E+03  0.25500000920E-02 0.  1.
        2   -1    0    0  501    0  0.00000000000E+00  0.00000000000E+00 -0.12778668613E+04  0.12778668613E+04  0.25500000920E-02 0. -1.
    10030    2    1    2    0    0  0.00000000000E+00  0.00000000000E+00 -0.41670798939E+03  0.21390257331E+04  0.20980432642E+04 0.  0.
        3    1    3    3  502    0 -0.76316614473E+03  0.49986381666E+03 -0.73631098897E+03  0.11723652513E+04  0.10100000352E+00 0. -1.
       -3    1    3    3    0  502  0.76316614473E+03 -0.49986381666E+03  0.31960299958E+03  0.96666048187E+03  0.10100000352E+00 0.  1.
</event>
<event>
 5   0  0.3242231E-05  0.2095579E+04  0.7818609E-02  0.8563193E-01
       -2   -1    0    0    0  501  0.00000000000E+00  0.00000000000E+00  0.88218174292E+03  0.88218174292E+03  0.25500000920E-02 0. -1.
        2   -1    0    0  501    0  0.00000000000E+00  0.00000000000E+00 -0.12444859857E+04  0.12444859857E+04  0.25500000920E-02 0.  1.
    10030    2    1    2    0    0  0.00000000000E+00  0.00000000000E+00 -0.36230424273E+03  0.21266677286E+04  0.20955789805E+04 0.  0.
        4    1    3    3  502    0 -0.96985352018E+03  0.30899402188E+03  0.71066728825E+02  0.10203652527E+04  0.12699999809E+01 0. -1.
       -4    1    3    3    0  502  0.96985352018E+03 -0.30899402188E+03 -0.43337097156E+03  0.11063024758E+04  0.12699999809E+01 0.  1.
</event>
<event>
 5   0  0.3130517E-05  0.2156586E+04  0.7818609E-02  0.8536718E-01
       -2   -1    0    0    0  501  0.00000000000E+00  0.00000000000E+00  0.10176993984E+04  0.10176993984E+04  0.25500000920E-02 0. -1.
        2   -1    0    0  501    0  0.00000000000E+00  0.00000000000E+00 -0.11424947365E+04  0.11424947365E+04  0.25500000920E-02 0.  1.
    10030    2    1    2    0    0  0.00000000000E+00  0.00000000000E+00 -0.12479533816E+03  0.21601941349E+04  0.21565863822E+04 0.  0.
        1    1    3    3  502    0 -0.45802123752E+03  0.95576354786E+03  0.13655179866E+03  0.10686036717E+04  0.50400001928E-02 0.  1.
       -1    1    3    3    0  502  0.45802123752E+03 -0.95576354786E+03 -0.26134713682E+03  0.10915904632E+04  0.50400001928E-02 0. -1.
</event>
<event>
 5   0  0.1513292E-05  0.2104649E+04  0.7818609E-02  0.8559198E-01
        1   -1    0    0  501    0  0.00000000000E+00  0.00000000000E+00  0.79534233891E+03  0.79534233893E+03  0.50400001928E-02 0. -1.
       -1   -1    0    0    0  501  0.00000000000E+00  0.00000000000E+00 -0.13923401148E+04  0.13923401148E+04  0.50400001928E-02 0.  1.
    10030    2    1    2    0    0  0.00000000000E+00  0.00000000000E+00 -0.59699777586E+03  0.21876824537E+04  0.21046491807E+04 0.  0.
        1    1    3    3  502    0  0.48476347478E+03 -0.78190928180E+02 -0.12659590933E+04  0.13578519337E+04  0.50400001928E-02 0.  1.
       -1    1    3    3    0  502 -0.48476347478E+03  0.78190928180E+02  0.66896131746E+03  0.82983052006E+03  0.50400001928E-02 0. -1.
</event>
<event>
 5   0  0.1466480E-05  0.2095411E+04  0.7818609E-02  0.8563268E-01
       -1   -1    0    0    0  501  0.00000000000E+00  0.00000000000E+00  0.11321920543E+04  0.11321920543E+04  0.50400001928E-02 0.  1.
        1   -1    0    0  501    0  0.00000000000E+00  0.00000000000E+00 -0.96952336084E+03  0.96952336085E+03  0.50400001928E-02 0. -1.
    10030    2    1    2    0    0  0.00000000000E+00  0.00000000000E+00  0.16266869346E+03  0.21017154152E+04  0.20954108386E+04 0.  0.
        3    1    3    3  502    0  0.81282506715E+03 -0.64478619757E+03  0.22755639159E+03  0.10621750100E+04  0.10100000352E+00 0.  1.
       -3    1    3    3    0  502 -0.81282506715E+03  0.64478619757E+03 -0.64887698130E+02  0.10395404051E+04  0.10100000352E+00 0. -1.
</event>
<event>
 5   0  0.1513292E-05  0.2102921E+04  0.7818609E-02  0.8559958E-01
        1   -1    0    0  501    0  0.00000000000E+00  0.00000000000E+00  0.11108968975E+04  0.11108968975E+04  0.50400001928E-02 0. -1.
       -1   -1    0    0    0  501  0.00000000000E+00  0.00000000000E+00 -0.99520414466E+03  0.99520414468E+03  0.50400001928E-02 0.  1.
    10030    2    1    2    0    0  0.00000000000E+00  0.00000000000E+00  0.11569275287E+03  0.21061010422E+04  0.21029210130E+04 0.  0.
        1    1    3    3  502    0 -0.82526657329E+03  0.62944433850E+03  0.22633902287E+03  0.10623061920E+04  0.50400001928E-02 0. -1.
       -1    1    3    3    0  502  0.82526657329E+03 -0.62944433850E+03 -0.11064627000E+03  0.10437948502E+04  0.50400001928E-02 0.  1.
</event>
<event>
 5   0  0.3242231E-05  0.2101653E+04  0.7818609E-02  0.8560516E-01
        2   -1    0    0  501    0  0.00000000000E+00  0.00000000000E+00  0.21343947433E+04  0.21343947433E+04  0.25500000920E-02 0. -1.
       -2   -1    0    0    0  501  0.00000000000E+00  0.00000000000E+00 -0.51735334784E+03  0.51735334784E+03  0.25500000920E-02 0.  1.
    10030    2    1    2    0    0  0.00000000000E+00  0.00000000000E+00  0.16170413954E+04  0.26517480911E+04  0.21016529362E+04 0.  0.
        4    1    3    3  502    0  0.95513790276E+03 -0.34028212596E+03  0.11567124847E+04  0.15382021076E+04  0.12699999809E+01 0. -1.
       -4    1    3    3    0  502 -0.95513790276E+03  0.34028212596E+03  0.46032891071E+03  0.11135459835E+04  0.12699999809E+01 0.  1.
</event>
<event>
 5   0  0.3279789E-05  0.2102847E+04  0.7818609E-02  0.8559990E-01
        2   -1    0    0  501    0  0.00000000000E+00  0.00000000000E+00  0.16801359091E+04  0.16801359091E+04  0.25500000920E-02 0. -1.
       -2   -1    0    0    0  501  0.00000000000E+00  0.00000000000E+00 -0.65797763595E+03  0.65797763596E+03  0.25500000920E-02 0.  1.
    10030    2    1    2    0    0  0.00000000000E+00  0.00000000000E+00  0.10221582731E+04  0.23381135451E+04  0.21028474539E+04 0.  0.
        2    1    3    3  502    0 -0.10249174976E+04  0.22024815615E+03  0.42125241812E+03  0.11297870272E+04  0.25500000920E-02 0.  1.
       -2    1    3    3    0  502  0.10249174976E+04 -0.22024815615E+03  0.60090585502E+03  0.12083265178E+04  0.25500000920E-02 0. -1.
</event>
<event>
 5   0  0.3279789E-05  0.2146118E+04  0.7818609E-02  0.8541196E-01
       -2   -1    0    0    0  501  0.00000000000E+00  0.00000000000E+00  0.84991033035E+03  0.84991033035E+03  0.25500000920E-02 0. -1.
        2   -1    0    0  501    0  0.00000000000E+00  0.00000000000E+00 -0.13547970407E+04  0.13547970407E+04  0.25500000920E-02 0.  1.
    10030    2    1    2    0    0  0.00000000000E+00  0.00000000000E+00 -0.50488671037E+03  0.22047073711E+04  0.21461183569E+04 0.  0.
        2    1    3    3  502    0  0.37608520170E+03  0.97084498460E+03  0.14409434938E+02  0.10412433409E+04  0.25500000920E-02 0. -1.
       -2    1    3    3    0  502 -0.37608520170E+03 -0.97084498460E+03 -0.51929614531E+03  0.11634640302E+04  0.25500000920E-02 0.  1.
</event>
<event>
 5   0  0.3130517E-05  0.2088865E+04  0.7818609E-02  0.8566165E-01
        2   -1    0    0  501    0  0.00000000000E+00  0.00000000000E+00  0.20234830022E+04  0.20234830022E+04  0.25500000920E-02 0.  1.
       -2   -1    0    0    0  501  0.00000000000E+00  0.00000000000E+00 -0.53908968333E+03  0.53908968333E+03  0.25500000920E-02 0. -1.
    10030    2    1    2    0    0  0.00000000000E+00  0.00000000000E+00  0.14843933189E+04  0.25625726855E+04  0.20888645824E+04 0.  0.
        1    1    3    3  502    0 -0.30436293601E+03 -0.87844980526E+03  0.15831234654E+03  0.94306609327E+03  0.50400001928E-02 0. -1.
       -1    1    3    3    0  502  0.30436293601E+03  0.87844980526E+03  0.13260809723E+04  0.16195065923E+04  0.50400001928E-02 0.  1.
</event>
<event>
 5   0  0.3108326E-05  0.2099412E+04  0.7818609E-02  0.8561502E-01
       -2   -1    0    0    0  501  0.00000000000E+00  0.00000000000E+00  0.65677816298E+03  0.65677816298E+03  0.25500000920E-02 0. -1.
        2   -1    0    0  501    0  0.00000000000E+00  0.00000000000E+00 -0.16777092236E+04  0.16777092236E+04  0.25500000920E-02 0.  1.
    10030    2    1    2    0    0  0.00000000000E+00  0.00000000000E+00 -0.10209310606E+04  0.23344873866E+04  0.20994120909E+04 0.  0.
        5    1    3    3  502    0  0.88778624538E+03 -0.41449387542E+03 -0.91603090620E+02  0.98406443207E+03  0.46999998093E+01 0. -1.
       -5    1    3    3    0  502 -0.88778624538E+03  0.41449387542E+03 -0.92932797000E+03  0.13504229545E+04  0.46999998093E+01 0.  1.
</event>
<event>
 5   0  0.1435410E-05  0.2093548E+04  0.7818609E-02  0.8564091E-01
       -1   -1    0    0    0  501  0.00000000000E+00  0.00000000000E+00  0.10615875873E+04  0.10615875873E+04  0.50400001928E-02 0.  1.
        1   -1    0    0  501    0  0.00000000000E+00  0.00000000000E+00 -0.10321669401E+04  0.10321669402E+04  0.50400001928E-02 0. -1.
    10030    2    1    2    0    0  0.00000000000E+00  0.00000000000E+00  0.29420647174E+02  0.20937545275E+04  0.20935478134E+04 0.  0.
        2    1    3    3  502    0  0.72286315260E+03  0.63790439436E+03  0.42252804834E+03  0.10526077643E+04  0.25500000920E-02 0.  1.
       -2    1    3    3    0  502 -0.72286315260E+03 -0.63790439436E+03 -0.39310740117E+03  0.10411467632E+04  0.25500000920E-02 0. -1.
</event>
<event>
 5   0  0.1466480E-05  0.2098746E+04  0.7818609E-02  0.8561796E-01
       -1   -1    0    0    0  501  0.00000000000E+00  0.00000000000E+00  0.63395868616E+03  0.63395868618E+03  0.50400001928E-02 0.  1.
        1   -1    0    0  501    0  0.00000000000E+00  0.00000000000E+00 -0.17369955646E+04  0.17369955646E+04  0.50400001928E-02 0. -1.
    10030    2    1    2    0    0  0.00000000000E+00  0.00000000000E+00 -0.11030368784E+04  0.23709542508E+04  0.20987457454E+04 0.  0.
        3    1    3    3  502    0 -0.89756736337E+03 -0.54365081078E+03 -0.55129263159E+03  0.11853720731E+04  0.10100000352E+00 0.  1.
       -3    1    3    3    0  502  0.89756736337E+03  0.54365081078E+03 -0.55174424682E+03  0.11855821776E+04  0.10100000352E+00 0. -1.
</event>
<event>
 5   0  0.1513292E-05  0.2103928E+04  0.7818609E-02  0.8559515E-01
        1   -1    0    0  501    0  0.00000000000E+00  0.00000000000E+00  0.13648871525E+04  0.13648871525E+04  0.50400001928E-02 0. -1.
       -1   -1    0    0    0  501  0.00000000000E+00  0.00000000000E+00 -0.81078387252E+03  0.81078387253E+03  0.50400001928E-02 0.  1.
    10030    2    1    2    0    0  0.00000000000E+00  0.00000000000E+00  0.55410328000E+03  0.21756710251E+04  0.21039282222E+04 0.  0.
        1    1    3    3  502    0 -0.81698987085E+03 -0.81891703389E+02 -0.40298162015E+03  0.91464358433E+03  0.50400001928E-02 0. -1.
       -1    1    3    3    0  502  0.81698987085E+03  0.81891703389E+02  0.95708490015E+03  0.12610274407E+04  0.50400001928E-02 0.  1.
</event>
<event>
 5   0  0.1435410E-05  0.2098600E+04  0.7818609E-02  0.8561860E-01
       -1   -1    0    0    0  501  0.00000000000E+00  0.00000000000E+00  0.12146095669E+04  0.12146095669E+04  0.50400001928E-02 0.  1.
        1   -1    0    0  501    0  0.00000000000E+00  0.00000000000E+00 -0.90648936706E+03  0.90648936707E+03  0.50400001928E-02 0. -1.
    10030    2    1    2    0    0  0.00000000000E+00  0.00000000000E+00  0.30812019983E+03  0.21210989340E+04  0.20986001597E+04 0.  0.
        2    1    3    3  502    0 -0.61398609405E+03 -0.64518885505E+03  0.71478984063E+03  0.11420035458E+04  0.25500000920E-02 0.  1.
       -2    1    3    3    0  502  0.61398609405E+03  0.64518885505E+03 -0.40666964080E+03  0.97909538816E+03  0.25500000920E-02 0. -1.
</event>
<event>
 5   0  0.3257130E-05  0.2046658E+04  0.7818609E-02  0.8585112E-01
       -2   -1    0    0    0  501  0.00000000000E+00  0.00000000000E+00  0.87114618548E+03  0.87114618548E+03  0.25500000920E-02 0.  1.
        2   -1    0    0  501    0  0.00000000000E+00  0.00000000000E+00 -0.12020973813E+04  0.12020973813E+04  0.25500000920E-02 0. -1.
    10030    2    1    2    0    0  0.00000000000E+00  0.00000000000E+00 -0.33095119578E+03  0.20732435667E+04  0.20466582990E+04 0.  0.
        3    1    3    3  502    0  0.19193056024E+02  0.61666331942E+03 -0.99251228957E+03  0.11686413813E+04  0.10100000352E+00 0. -1.
       -3    1    3    3    0  502 -0.19193056024E+02 -0.61666331942E+03  0.66156109379E+03  0.90460218546E+03  0.10100000352E+00 0.  1.
</event>
<event>
 5   0  0.1435410E-05  0.2098645E+04  0.7818609E-02  0.8561840E-01
        1   -1    0    0  501    0  0.00000000000E+00  0.00000000000E+00  0.94041708049E+03  0.94041708051E+03  0.50400001928E-02 0.  1.
       -1   -1    0    0    0  501  0.00000000000E+00  0.00000000000E+00 -0.11708399311E+04  0.11708399311E+04  0.50400001928E-02 0. -1.
    10030    2    1    2    0    0  0.00000000000E+00  0.00000000000E+00 -0.23042285057E+03  0.21112570116E+04  0.20986451532E+04 0.  0.
        2    1    3    3  502    0 -0.13978826255E+02  0.13045664866E+03 -0.11625555310E+04  0.11699357706E+04  0.25500000920E-02 0. -1.
       -2    1    3    3    0  502  0.13978826255E+02 -0.13045664866E+03  0.93213268042E+03  0.94132124095E+03  0.25500000920E-02 0.  1.
</event>
<event>
 5   0  0.3108326E-05  0.2107281E+04  0.7818609E-02  0.8558043E-01
       -2   -1    0    0    0  501  0.00000000000E+00  0.00000000000E+00  0.82511357884E+03  0.82511357885E+03  0.25500000920E-02 0. -1.
        2   -1    0    0  501    0  0.00000000000E+00  0.00000000000E+00 -0.13454606290E+04  0.13454606291E+04  0.25500000920E-02 0.  1.
    10030    2    1    2    0    0  0.00000000000E+00  0.00000000000E+00 -0.52034705020E+03  0.21705742079E+04  0.21072805554E+04 0.  0.
        5    1    3    3  502    0 -0.88418482823E+03 -0.50987589855E+03 -0.52952245007E+03  0.11498575379E+04  0.46999998093E+01 0.  1.
       -5    1    3    3    0  502  0.88418482823E+03  0.50987589855E+03  0.91753998651E+01  0.10207166700E+04  0.46999998093E+01 0. -1.
</event>
<event>
 5   0  0.3130517E-05  0.2100903E+04  0.7818609E-02  0.8560846E-01
        2   -1    0    0  501    0  0.00000000000E+00  0.00000000000E+00  0.23362779040E+04  0.23362779040E+04  0.25500000920E-02 0. -1.
       -2   -1    0    0    0  501  0.00000000000E+00  0.00000000000E+00 -0.47231047378E+03  0.47231047378E+03  0.25500000920E-02 0.  1.
    10030    2    1    2    0    0  0.00000000000E+00  0.00000000000E+00  0.18639674302E+04  0.28085883778E+04  0.21009031617E+04 0.  0.
        1    1    3    3  502    0 -0.52164976761E+03 -0.84544039633E+03  0.13883966137E+04  0.17072003692E+04  0.50400001928E-02 0.  1.
       -1    1    3    3    0  502  0.52164976761E+03  0.84544039633E+03  0.47557081653E+03  0.11013880085E+04  0.50400001928E-02 0. -1.
</event>
<event>
 5   0  0.1453430E-05  0.2106741E+04  0.7818609E-02  0.8558280E-01
        1   -1    0    0  501    0  0.00000000000E+00  0.00000000000E+00  0.61164378909E+03  0.61164378911E+03  0.50400001928E-02 0. -1.
       -1   -1    0    0    0  501  0.00000000000E+00  0.00000000000E+00 -0.18141105827E+04  0.18141105827E+04  0.50400001928E-02 0.  1.
    10030    2    1    2    0    0  0.00000000000E+00  0.00000000000E+00 -0.12024667937E+04  0.24257543719E+04  0.21067410574E+04 0.  0.
        5    1    3    3  502    0 -0.44843012372E+03  0.17361409591E+03  0.47787728893E+03  0.67795296550E+03  0.46999998093E+01 0. -1.
       -5    1    3    3    0  502  0.44843012372E+03 -0.17361409591E+03 -0.16803440826E+04  0.17478014064E+04  0.46999998093E+01 0.  1.
</event>
<event>
 5   0  0.1466480E-05  0.2098424E+04  0.7818609E-02  0.8561938E-01
        1   -1    0    0  501    0  0.00000000000E+00  0.00000000000E+00  0.84599106659E+03  0.84599106660E+03  0.50400001928E-02 0. -1.
       -1   -1    0    0    0  501  0.00000000000E+00  0.00000000000E+00 -0.13012503671E+04  0.13012503671E+04  0.50400001928E-02 0.  1.
    10030    2    1    2    0    0  0.00000000000E+00  0.00000000000E+00 -0.45525930049E+03  0.21472414337E+04  0.20984243479E+04 0.  0.
        3    1    3    3  502    0  0.53896252166E+03 -0.63244444524E+02  0.69123932780E+03  0.87880161471E+03  0.10100000352E+00 0. -1.
       -3    1    3    3    0  502 -0.53896252166E+03  0.63244444524E+02 -0.11464986283E+04  0.12684398190E+04  0.10100000352E+00 0.  1.
</event>
<event>
 5   0  0.1513292E-05  0.2056594E+04  0.7818609E-02  0.8580609E-01
        1   -1    0    0  501    0  0.00000000000E+00  0.00000000000E+00  0.26700512039E+04  0.26700512039E+04  0.50400001928E-02 0.  1.
       -1   -1    0    0    0  501  0.00000000000E+00  0.00000000000E+00 -0.39602044860E+03  0.39602044863E+03  0.50400001928E-02 0. -1.
    10030    2    1    2    0    0  0.00000000000E+00  0.00000000000E+00  0.22740307553E+04  0.30660716525E+04  0.20565941511E+04 0.  0.
        1    1    3    3  502    0  0.14024637409E+03  0.57319388680E+03 -0.11846604022E+03  0.60187580116E+03  0.50400001928E-02 0. -1.
       -1    1    3    3    0  502 -0.14024637409E+03 -0.57319388680E+03  0.23924967955E+04  0.24641958514E+04  0.50400001928E-02 0.  1.
</event>
<event>
 5   0  0.1453430E-05  0.2105310E+04  0.7818609E-02  0.8558908E-01
       -1   -1    0    0    0  501  0.00000000000E+00  0.00000000000E+00  0.16244555971E+04  0.16244555971E+04  0.50400001928E-02 0. -1.
        1   -1    0    0  501    0  0.00000000000E+00  0.00000000000E+00 -0.68212527506E+03  0.68212527508E+03  0.50400001928E-02 0.  1.
    10030    2    1    2    0    0  0.00000000000E+00  0.00000000000E+00  0.94233032205E+03  0.23065808722E+04  0.21053096884E+04 0.  0.
        5    1    3    3  502    0  0.92717949492E+03 -0.49829730416E+03  0.46031306738E+03  0.11488569228E+04  0.46999998093E+01 0. -1.
       -5    1    3    3    0  502 -0.92717949492E+03  0.49829730416E+03  0.48201725468E+03  0.11577239494E+04  0.46999998093E+01 0.  1.
</event>
<event>
 5   0  0.3279789E-05  0.2112948E+04  0.7818609E-02  0.8555561E-01
       -2   -1    0    0    0  501  0.00000000000E+00  0.00000000000E+00  0.54757915281E+03  0.54757915282E+03  0.25500000920E-02 0. -1.
        2   -1    0    0  501    0  0.00000000000E+00  0.00000000000E+00 -0.20383118700E+04  0.20383118700E+04  0.25500000920E-02 0.  1.
    10030    2    1    2    0    0  0.00000000000E+00  0.00000000000E+00 -0.14907327172E+04  0.25858910228E+04  0.21129477863E+04 0.  0.
        2    1    3    3  502    0 -0.19660169858E+03 -0.30064207234E+03  0.47054482772E+03  0.59198844452E+03  0.25500000920E-02 0. -1.
       -2    1    3    3    0  502  0.19660169858E+03  0.30064207234E+03 -0.19612775449E+04  0.19939025783E+04  0.25500000920E-02 0.  1.
</event>
<event>
 5   0  0.1435410E-05  0.2103648E+04  0.7818609E-02  0.8559638E-01
        1   -1    0    0  501    0  0.00000000000E+00  0.00000000000E+00  0.10666828912E+04  0.10666828912E+04  0.50400001928E-02 0. -1.
       -1   -1    0    0    0  501  0.00000000000E+00  0.00000000000E+00 -0.10371721100E+04  0.10371721100E+04  0.50400001928E-02 0.  1.
    10030    2    1    2    0    0  0.00000000000E+00  0.00000000000E+00  0.29510781220E+02  0.21038550012E+04  0.21036480171E+04 0.  0.
        2    1    3    3  502    0 -0.32185922509E+03 -0.38483003914E+03 -0.90980635189E+03  0.10389586699E+04  0.25500000920E-02 0.  1.
       -2    1    3    3    0  502  0.32185922509E+03  0.38483003914E+03  0.93931713311E+03  0.10648963313E+04  0.25500000920E-02 0. -1.
</event>
<event>
 5   0  0.3108326E-05  0.2099177E+04  0.7818609E-02  0.8561606E-01
       -2   -1    0    0    0  501  0.00000000000E+00  0.00000000000E+00  0.51292925695E+03  0.51292925696E+03  0.25500000920E-02 0.  1.
        2   -1    0    0  501    0  0.00000000000E+00  0.00000000000E+00 -0.21477350949E+04  0.21477350949E+04  0.25500000920E-02 0. -1.
    10030    2    1    2    0    0  0.00000000000E+00  0.00000000000E+00 -0.16348058379E+04  0.26606643518E+04  0.20991771401E+04 0.  0.
        5    1    3    3  502    0 -0.20825586077E+03 -0.95689069179E+02 -0.21156184232E+04  0.21280014813E+04  0.46999998093E+01 0. -1.
       -5    1    3    3    0  502  0.20825586077E+03  0.95689069179E+02  0.48081258531E+03  0.53266287058E+03  0.46999998093E+01 0.  1.
</event>
<event>
 5   0  0.1513292E-05  0.2096936E+04  0.7818609E-02  0.8562594E-01
        1   -1    0    0  501    0  0.00000000000E+00  0.00000000000E+00  0.19965268613E+04  0.19965268613E+04  0.50400001928E-02 0. -1.
       -1   -1    0    0    0  501  0.00000000000E+00  0.00000000000E+00 -0.55059897799E+03  0.55059897801E+03  0.50400001928E-02 0.  1.
    10030    2    1    2    0    0  0.00000000000E+00  0.00000000000E+00  0.14459278833E+04  0.25471258393E+04  0.20969364791E+04 0.  0.
        1    1    3    3  502    0  0.76973991040E+03 -0.62273129528E+03  0.30395456524E+03  0.10357037093E+04  0.50400001928E-02 0.  1.
       -1    1    3    3    0  502 -0.76973991040E+03  0.62273129528E+03  0.11419733180E+04  0.15114221299E+04  0.50400001928E-02 0. -1.
</event>
<event>
 5   0  0.3257130E-05  0.2093251E+04  0.7818609E-02  0.8564222E-01
        2   -1    0    0  501    0  0.00000000000E+00  0.00000000000E+00  0.14747295462E+04  0.14747295462E+04  0.25500000920E-02 0. -1.
       -2   -1    0    0    0  501  0.00000000000E+00  0.00000000000E+00 -0.74279707035E+03  0.74279707036E+03  0.25500000920E-02 0.  1.
    10030    2    1    2    0    0  0.00000000000E+00  0.00000000000E+00  0.73193247582E+03  0.22175266165E+04  0.20932508559E+04 0.  0.
        3    1    3    3  502    0 -0.10750115773E+03 -0.12336414526E+03  0.14610950888E+04  0.14702292610E+04  0.10100000352E+00 0. -1.
       -3    1    3    3    0  502  0.10750115773E+03  0.12336414526E+03 -0.72916261296E+03  0.74729735553E+03  0.10100000352E+00 0.  1.
</event>
<event>
 5   0  0.3108326E-05  0.2108181E+04  0.7818609E-02  0.8557648E-01
        2   -1    0    0  501    0  0.00000000000E+00  0.00000000000E+00  0.14613419819E+04  0.14613419819E+04  0.25500000920E-02 0.  1.
       -2   -1    0    0    0  501  0.00000000000E+00  0.00000000000E+00 -0.76033304030E+03  0.76033304031E+03  0.25500000920E-02 0. -1.
    10030    2    1    2    0    0  0.00000000000E+00  0.00000000000E+00  0.70100894157E+03  0.22216750222E+04  0.21081808196E+04 0.  0.
        5    1    3    3  502    0  0.58599310156E+03  0.83668322844E+03  0.76390299025E+02  0.10243457949E+04  0.46999998093E+01 0.  1.
       -5    1    3    3    0  502 -0.58599310156E+03 -0.83668322844E+03  0.62461864255E+03  0.11973292273E+04  0.46999998093E+01 0. -1.
</event>
<event>
 5   0  0.3108326E-05  0.2104824E+04  0.7818609E-02  0.8559121E-01
       -2   -1    0    0    0  501  0.00000000000E+00  0.00000000000E+00  0.60285036289E+03  0.60285036290E+03  0.25500000920E-02 0.  1.
        2   -1    0    0  501    0  0.00000000000E+00  0.00000000000E+00 -0.18372240314E+04  0.18372240314E+04  0.25500000920E-02 0. -1.
    10030    2    1    2    0    0  0.00000000000E+00  0.00000000000E+00 -0.12343736685E+04  0.24400743943E+04  0.21048241485E+04 0.  0.
        5    1    3    3  502    0  0.90820644556E+03 -0.46413090125E+03 -0.91791287885E+03  0.13721671124E+04  0.46999998093E+01 0. -1.
       -5    1    3    3    0  502 -0.90820644556E+03  0.46413090125E+03 -0.31646078963E+03  0.10679072818E+04  0.46999998093E+01 0.  1.
</event>
<event>
 5   0  0.3257130E-05  0.2129525E+04  0.7818609E-02  0.8548348E-01
       -2   -1    0    0    0  501  0.00000000000E+00  0.00000000000E+00  0.85496723494E+03  0.85496723494E+03  0.25500000920E-02 0. -1.
        2   -1    0    0  501    0  0.00000000000E+00  0.00000000000E+00 -0.13260378805E+04  0.13260378805E+04  0.25500000920E-02 0.  1.
    10030    2    1    2    0    0  0.00000000000E+00  0.00000000000E+00 -0.47107064553E+03  0.21810051154E+04  0.21295247734E+04 0.  0.
        3    1    3    3  502    0 -0.72723736545E+03 -0.75269574628E+03 -0.43595416414E+03  0.11337905960E+04  0.10100000352E+00 0.  1.
       -3    1    3    3    0  502  0.72723736545E+03  0.75269574628E+03 -0.35116481388E+02  0.10472145194E+04  0.10100000352E+00 0. -1.
</event>
<event>
 5   0  0.1513292E-05  0.2069401E+04  0.7818609E-02  0.8574843E-01
        1   -1    0    0  501    0  0.00000000000E+00  0.00000000000E+00  0.92778727734E+03  0.92778727735E+03  0.50400001928E-02 0. -1.
       -1   -1    0    0    0  501  0.00000000000E+00  0.00000000000E+00 -0.11539343167E+04  0.11539343167E+04  0.50400001928E-02 0.  1.
    10030    2    1    2    0    0  0.00000000000E+00  0.00000000000E+00 -0.22614703934E+03  0.20817215940E+04  0.20694014380E+04 0.  0.
        1    1    3    3  502    0  0.95333037409E+03 -0.14981458595E+03 -0.48855482641E+03  0.10816510670E+04  0.50400001928E-02 0.  1.
       -1    1    3    3    0  502 -0.95333037409E+03  0.14981458595E+03  0.26240778707E+03  0.10000705270E+04  0.50400001928E-02 0. -1.
</event>
<event>
 5   0  0.1492552E-05  0.2099441E+04  0.7818609E-02  0.8561490E-01
       -1   -1    0    0    0  501  0.00000000000E+00  0.00000000000E+00  0.11181390034E+04  0.11181390034E+04  0.50400001928E-02 0.  1.
        1   -1    0    0  501    0  0.00000000000E+00  0.00000000000E+00 -0.98548864303E+03  0.98548864304E+03  0.50400001928E-02 0. -1.
    10030    2    1    2    0    0  0.00000000000E+00  0.00000000000E+00  0.13265036037E+03  0.21036276465E+04  0.20994411535E+04 0.  0.
        4    1    3    3  502    0  0.59601670120E+03  0.29401376435E+02  0.93165097768E+03  0.11063794585E+04  0.12699999809E+01 0.  1.
       -4    1    3    3    0  502 -0.59601670120E+03 -0.29401376435E+02 -0.79900061731E+03  0.99724818797E+03  0.12699999809E+01 0. -1.
</event>
<event>
 5   0  0.1453430E-05  0.2110764E+04  0.7818609E-02  0.8556517E-01
        1   -1    0    0  501    0  0.00000000000E+00  0.00000000000E+00  0.66081824881E+03  0.66081824883E+03  0.50400001928E-02 0. -1.
       -1   -1    0    0    0  501  0.00000000000E+00  0.00000000000E+00 -0.16855332390E+04  0.16855332390E+04  0.50400001928E-02 0.  1.
    10030    2    1    2    0    0  0.00000000000E+00  0.00000000000E+00 -0.10247149902E+04  0.23463514879E+04  0.21107639597E+04 0.  0.
        5    1    3    3  502    0 -0.13018752308E+03 -0.12015159521E+03 -0.16688746371E+04  0.16782579782E+04  0.46999998093E+01 0.  1.
       -5    1    3    3    0  502  0.13018752308E+03  0.12015159521E+03  0.64415964688E+03  0.66809350967E+03  0.46999998093E+01 0. -1.
</event>
<event>
 5   0  0.3279789E-05  0.2092895E+04  0.7818609E-02  0.8564380E-01
       -2   -1    0    0    0  501  0.00000000000E+00  0.00000000000E+00  0.94763835988E+03  0.94763835988E+03  0.25500000920E-02 0. -1.
        2   -1    0    0  501    0  0.00000000000E+00  0.00000000000E+00 -0.11555594633E+04  0.11555594633E+04  0.25500000920E-02 0.  1.
    10030    2    1    2    0    0  0.00000000000E+00  0.00000000000E+00 -0.20792110343E+03  0.21031978232E+04  0.20928950997E+04 0.  0.
        2    1    3    3  502    0 -0.30182905888E+02 -0.95947106719E+03 -0.52261277501E+03  0.10929866647E+04  0.25500000920E-02 0.  1.
       -2    1    3    3    0  502  0.30182905888E+02  0.95947106719E+03  0.31469167158E+03  0.10102111585E+04  0.25500000920E-02 0. -1.
</event>
<event>
 5   0  0.1466480E-05  0.2106686E+04  0.7818609E-02  0.8558304E-01
       -1   -1    0    0    0  501  0.00000000000E+00  0.00000000000E+00  0.47838733060E+03  0.47838733063E+03  0.50400001928E-02 0.  1.
        1   -1    0    0  501    0  0.00000000000E+00  0.00000000000E+00 -0.23193168548E+04  0.23193168548E+04  0.50400001928E-02 0. -1.
    10030    2    1    2    0    0  0.00000000000E+00  0.00000000000E+00 -0.18409295242E+04  0.27977041854E+04  0.21066863070E+04 0.  0.
        3    1    3    3  502    0  0.37329210001E+03  0.95193821752E+03 -0.12564239863E+04  0.16199180860E+04  0.10100000352E+00 0. -1.
       -3    1    3    3    0  502 -0.37329210001E+03 -0.95193821752E+03 -0.58450553792E+03  0.11777860994E+04  0.10100000352E+00 0.  1.
</event>
<event>
 5   0  0.1492552E-05  0.2106089E+04  0.7818609E-02  0.8558566E-01
       -1   -1    0    0    0  501  0.00000000000E+00  0.00000000000E+00  0.71046366184E+03  0.71046366186E+03  0.50400001928E-02 0. -1.
        1   -1    0    0  501    0  0.00000000000E+00  0.00000000000E+00 -0.15608148980E+04  0.15608148980E+04  0.50400001928E-02 0.  1.
    10030    2    1    2    0    0  0.00000000000E+00  0.00000000000E+00 -0.85035123614E+03  0.22712785598E+04  0.21060885716E+04 0.  0.
        4    1    3    3  502    0  0.55352797877E+03  0.62660932576E+03 -0.11155996090E+04  0.13941293236E+04  0.12699999809E+01 0.  1.
       -4    1    3    3    0  502 -0.55352797877E+03 -0.62660932576E+03  0.26524837288E+03  0.87714923623E+03  0.12699999809E+01 0. -1.
</event>
<event>
 5   0  0.3242231E-05  0.2107964E+04  0.7818609E-02  0.8557743E-01
        2   -1    0    0  501    0  0.00000000000E+00  0.00000000000E+00  0.12348928616E+04  0.12348928616E+04  0.25500000920E-02 0.  1.
       -2   -1    0    0    0  501  0.00000000000E+00  0.00000000000E+00 -0.89957446184E+03  0.89957446184E+03  0.25500000920E-02 0. -1.
    10030    2    1    2    0    0  0.00000000000E+00  0.00000000000E+00  0.33531839973E+03  0.21344673234E+04  0.21079640238E+04 0.  0.
        4    1    3    3  502    0  0.21682964292E+03  0.55377394672E+03 -0.71345137062E+03  0.92881383994E+03  0.12699999809E+01 0. -1.
       -4    1    3    3    0  502 -0.21682964292E+03 -0.55377394672E+03  0.10487697704E+04  0.12056534835E+04  0.12699999809E+01 0.  1.
</event>
<event>
 5   0  0.1492552E-05  0.2095231E+04  0.7818609E-02  0.8563347E-01
        1   -1    0    0  501    0  0.00000000000E+00  0.00000000000E+00  0.95005350624E+03  0.95005350626E+03  0.50400001928E-02 0. -1.
       -1   -1    0    0    0  501  0.00000000000E+00  0.00000000000E+00 -0.11551965886E+04  0.11551965886E+04  0.50400001928E-02 0.  1.
    10030    2    1    2    0    0  0.00000000000E+00  0.00000000000E+00 -0.20514308232E+03  0.21052500948E+04  0.20952313184E+04 0.  0.
        4    1    3    3  502    0  0.20439100258E+03  0.86917339539E+03  0.44800746948E+03  0.99897466375E+03  0.12699999809E+01 0. -1.
       -4    1    3    3    0  502 -0.20439100258E+03 -0.86917339539E+03 -0.65315055180E+03  0.11062754311E+04  0.12699999809E+01 0.  1.
</event>
<event>
 5   0  0.1492552E-05  0.2091554E+04  0.7818609E-02  0.8564973E-01
       -1   -1    0    0    0  501  0.00000000000E+00  0.00000000000E+00  0.57202292107E+03  0.57202292109E+03  0.50400001928E-02 0.  1.
        1   -1    0    0  501    0  0.00000000000E+00  0.00000000000E+00 -0.19118989133E+04  0.19118989133E+04  0.50400001928E-02 0. -1.
    10030    2    1    2    0    0  0.00000000000E+00  0.00000000000E+00 -0.13398759923E+04  0.24839218344E+04  0.20915544470E+04 0.  0.
        4    1    3    3  502    0 -0.87717148155E+03 -0.55471697866E+03 -0.51735314174E+03  0.11596536641E+04  0.12699999809E+01 0. -1.
       -4    1    3    3    0  502  0.87717148155E+03  0.55471697866E+03 -0.82252285052E+03  0.13242681703E+04  0.12699999809E+01 0.  1.
</event>
<event>
 5   0  0.1513292E-05  0.2111890E+04  0.7818609E-02  0.8556024E-01
        1   -1    0    0  501    0  0.00000000000E+00  0.00000000000E+00  0.10216047248E+04  0.10216047248E+04  0.50400001928E-02 0. -1.
       -1   -1    0    0    0  501  0.00000000000E+00  0.00000000000E+00 -0.10914395536E+04  0.10914395536E+04  0.50400001928E-02 0.  1.
    10030    2    1    2    0    0  0.00000000000E+00  0.00000000000E+00 -0.69834828771E+02  0.21130442785E+04  0.21118899639E+04 0.  0.
        1    1    3    3  502    0  0.50999741179E+03 -0.52706877133E+02  0.88870383532E+03  0.10259970184E+04  0.50400001928E-02 0. -1.
       -1    1    3    3    0  502 -0.50999741179E+03  0.52706877133E+02 -0.95853866409E+03  0.10870472600E+04  0.50400001928E-02 0.  1.
</event>
<event>
 5   0  0.3130517E-05  0.2082506E+04  0.7818609E-02  0.8568989E-01
        2   -1    0    0  501    0  0.00000000000E+00  0.00000000000E+00  0.13276032027E+04  0.13276032027E+04  0.25500000920E-02 0.  1.
       -2   -1    0    0    0  501  0.00000000000E+00  0.00000000000E+00 -0.81666586988E+03  0.81666586989E+03  0.25500000920E-02 0. -1.
    10030    2    1    2    0    0  0.00000000000E+00  0.00000000000E+00  0.51093733284E+03  0.21442690726E+04  0.20825063980E+04 0.  0.
        1    1    3    3  502    0 -0.39418387687E+03 -0.84102737934E+03 -0.22912757418E+03  0.95666474110E+03  0.50400001928E-02 0.  1.
       -1    1    3    3    0  502  0.39418387687E+03  0.84102737934E+03  0.74006490703E+03  0.11876043315E+04  0.50400001928E-02 0. -1.
</event>
<event>
 5   0  0.1466480E-05  0.2094037E+04  0.7818609E-02  0.8563875E-01
        1   -1    0    0  501    0  0.00000000000E+00  0.00000000000E+00  0.84796128457E+03  0.84796128458E+03  0.50400001928E-02 0.  1.
       -1   -1    0    0    0  501  0.00000000000E+00  0.00000000000E+00 -0.12928034811E+04  0.12928034811E+04  0.50400001928E-02 0. -1.
    10030    2    1    2    0    0  0.00000000000E+00  0.00000000000E+00 -0.44484219651E+03  0.21407647657E+04  0.20940365809E+04 0.  0.
        3    1    3    3  502    0  0.68508065816E+03 -0.49012303740E+03 -0.85814248647E+03  0.12024826973E+04  0.10100000352E+00 0. -1.
       -3    1    3    3    0  502 -0.68508065816E+03  0.49012303740E+03  0.41330028995E+03  0.93828206839E+03  0.10100000352E+00 0.  1.
</event>
<event>
 5   0  0.3279789E-05  0.2104566E+04  0.7818609E-02  0.8559235E-01
        2   -1    0    0  501    0  0.00000000000E+00  0.00000000000E+00  0.93835785264E+03  0.93835785264E+03  0.25500000920E-02 0. -1.
       -2   -1    0    0    0  501  0.00000000000E+00  0.00000000000E+00 -0.11800398719E+04  0.11800398719E+04  0.25500000920E-02 0.  1.
    10030    2    1    2    0    0  0.00000000000E+00  0.00000000000E+00 -0.24168201922E+03  0.21183977245E+04  0.21045661598E+04 0.  0.
        2    1    3    3  502    0 -0.87851636178E+03  0.34146080268E+03  0.35011559911E+03  0.10054687516E+04  0.25500000920E-02 0.  1.
       -2    1    3    3    0  502  0.87851636178E+03 -0.34146080268E+03 -0.59179761833E+03  0.11129289729E+04  0.25500000920E-02 0. -1.
</event>
<event>
 5   0  0.3257130E-05  0.2101868E+04  0.7818609E-02  0.8560421E-01
       -2   -1    0    0    0  501  0.00000000000E+00  0.00000000000E+00  0.10459793734E+04  0.10459793735E+04  0.25500000920E-02 0. -1.
        2   -1    0    0  501    0  0.00000000000E+00  0.00000000000E+00 -0.10559121730E+04  0.10559121730E+04  0.25500000920E-02 0.  1.
    10030    2    1    2    0    0  0.00000000000E+00  0.00000000000E+00 -0.99327995927E+01  0.21018915465E+04  0.21018680769E+04 0.  0.
        3    1    3    3  502    0 -0.25450829948E+02  0.15783955630E+03 -0.10436797226E+04  0.10558543668E+04  0.10100000352E+00 0.  1.
       -3    1    3    3    0  502  0.25450829948E+02 -0.15783955630E+03  0.10337469230E+04  0.10460371797E+04  0.10100000352E+00 0. -1.
</event>
<event>
 5   0  0.1129987E-05  0.2108397E+04  0.7818609E-02  0.8557553E-01
        3   -1    0    0  501    0  0.00000000000E+00  0.00000000000E+00  0.17327187421E+04  0.17327187450E+04  0.10100000352E+00 0. -1.
       -3   -1    0    0    0  501  0.00000000000E+00  0.00000000000E+00 -0.64138208918E+03  0.64138209714E+03  0.10100000352E+00 0.  1.
    10030    2    1    2    0    0  0.00000000000E+00  0.00000000000E+00  0.10913366529E+04  0.23741008421E+04  0.21083972867E+04 0.  0.
        5    1    3    3  502    0 -0.65185672148E+03 -0.80406042878E+03  0.77054115432E+03  0.12904209077E+04  0.46999998093E+01 0. -1.
       -5    1    3    3    0  502  0.65185672148E+03  0.80406042878E+03  0.32079549855E+03  0.10836799345E+04  0.46999998093E+01 0.  1.
</event>
<event>
 5   0  0.1453430E-05  0.2101293E+04  0.7818609E-02  0.8560674E-01
        1   -1    0    0  501    0  0.00000000000E+00  0.00000000000E+00  0.13246656250E+04  0.13246656250E+04  0.50400001928E-02 0. -1.
       -1   -1    0    0    0  501  0.00000000000E+00  0.00000000000E+00 -0.83331042716E+03  0.83331042718E+03  0.50400001928E-02 0.  1.
    10030    2    1    2    0    0  0.00000000000E+00  0.00000000000E+00  0.49135519785E+03  0.21579760522E+04  0.21012926287E+04 0.  0.
        5    1    3    3  502    0 -0.84613012816E+02 -0.32409980008E+03 -0.77699383896E+03  0.84613329809E+03  0.46999998093E+01 0.  1.
       -5    1    3    3    0  502  0.84613012816E+02  0.32409980008E+03  0.12683490368E+04  0.13118427541E+04  0.46999998093E+01 0. -1.
</event>
<event>
 5   0  0.3242231E-05  0.2109412E+04  0.7818609E-02  0.8557109E-01
        2   -1    0    0  501    0  0.00000000000E+00  0.00000000000E+00  0.71663894627E+03  0.71663894627E+03  0.25500000920E-02 0.  1.
       -2   -1    0    0    0  501  0.00000000000E+00  0.00000000000E+00 -0.15522525023E+04  0.15522525023E+04  0.25500000920E-02 0. -1.
    10030    2    1    2    0    0  0.00000000000E+00  0.00000000000E+00 -0.83561355602E+03  0.22688914486E+04  0.21094118589E+04 0.  0.
        4    1    3    3  502    0 -0.25966858790E+03 -0.49981490730E+03  0.54132807052E+03  0.78120446103E+03  0.12699999809E+01 0.  1.
       -4    1    3    3    0  502  0.25966858790E+03  0.49981490730E+03 -0.13769416265E+04  0.14876869875E+04  0.12699999809E+01 0. -1.
</event>
<event>
 5   0  0.3242231E-05  0.2106623E+04  0.7818609E-02  0.8558332E-01
        2   -1    0    0  501    0  0.00000000000E+00  0.00000000000E+00  0.88324364861E+03  0.88324364861E+03  0.25500000920E-02 0.  1.
       -2   -1    0    0    0  501  0.00000000000E+00  0.00000000000E+00 -0.12561256995E+04  0.12561256995E+04  0.25500000920E-02 0. -1.
    10030    2    1    2    0    0  0.00000000000E+00  0.00000000000E+00 -0.37288205086E+03  0.21393693481E+04  0.21066229334E+04 0.  0.
        4    1    3    3  502    0 -0.50133543700E+03  0.10327543488E+03  0.74844499885E+03  0.90673842151E+03  0.12699999809E+01 0.  1.
       -4    1    3    3    0  502  0.50133543700E+03 -0.10327543488E+03 -0.11213270497E+04  0.12326309266E+04  0.12699999809E+01 0. -1.
</event>
<event>
 5   0  0.3279789E-05  0.2069152E+04  0.7818609E-02  0.8574955E-01
       -2   -1    0    0    0  501  0.00000000000E+00  0.00000000000E+00  0.17398901536E+04  0.17398901536E+04  0.25500000920E-02 0. -1.
        2   -1    0    0  501    0  0.00000000000E+00  0.00000000000E+00 -0.61518089489E+03  0.61518089490E+03  0.25500000920E-02 0.  1.
    10030    2    1    2    0    0  0.00000000000E+00  0.00000000000E+00  0.11247092587E+04  0.23550710485E+04  0.20691516926E+04 0.  0.
        2    1    3    3  502    0  0.36715083496E+03 -0.12119980052E+03  0.16545693574E+04  0.16991435742E+04  0.25500000920E-02 0. -1.
       -2    1    3    3    0  502 -0.36715083496E+03  0.12119980052E+03 -0.52986009874E+03  0.65592747427E+03  0.25500000920E-02 0.  1.
</event>
<event>
 5   0  0.1453430E-05  0.2062787E+04  0.7818609E-02  0.8577816E-01
        1   -1    0    0  501    0  0.00000000000E+00  0.00000000000E+00  0.17346759646E+04  0.17346759646E+04  0.50400001928E-02 0. -1.
       -1   -1    0    0    0  501  0.00000000000E+00  0.00000000000E+00 -0.61323962553E+03  0.61323962555E+03  0.50400001928E-02 0.  1.
    10030    2    1    2    0    0  0.00000000000E+00  0.00000000000E+00  0.11214363391E+04  0.23479155901E+04  0.20627865027E+04 0.  0.
        5    1    3    3  502    0 -0.94691466850E+03  0.16115221265E+03  0.98832216307E+03  0.13781945483E+04  0.46999998093E+01 0.  1.
       -5    1    3    3    0  502  0.94691466850E+03 -0.16115221265E+03  0.13311417598E+03  0.96972104180E+03  0.46999998093E+01 0. -1.
</event>
<event>
 5   0  0.3257130E-05  0.2092163E+04  0.7818609E-02  0.8564703E-01
        2   -1    0    0  501    0  0.00000000000E+00  0.00000000000E+00  0.21290091874E+04  0.21290091874E+04  0.25500000920E-02 0.  1.
       -2   -1    0    0    0  501  0.00000000000E+00  0.00000000000E+00 -0.51398885277E+03  0.51398885278E+03  0.25500000920E-02 0. -1.
    10030    2    1    2    0    0  0.00000000000E+00  0.00000000000E+00  0.16150203347E+04  0.26429980402E+04  0.20921634638E+04 0.  0.
        3    1    3    3  502    0 -0.67721251734E+03  0.60316504076E+03  0.14661918356E+04  0.17239905362E+04  0.10100000352E+00 0.  1.
       -3    1    3    3    0  502  0.67721251734E+03 -0.60316504076E+03  0.14882849905E+03  0.91900750397E+03  0.10100000352E+00 0. -1.
</event>
<event>
 5   0  0.1129987E-05  0.2066336E+04  0.7818609E-02  0.8576219E-01
        3   -1    0    0  501    0  0.00000000000E+00  0.00000000000E+00  0.69505927465E+03  0.69505928199E+03  0.10100000352E+00 0. -1.
       -3   -1    0    0    0  501  0.00000000000E+00  0.00000000000E+00 -0.15357481806E+04  0.15357481839E+04  0.10100000352E+00 0.  1.
    10030    2    1    2    0    0  0.00000000000E+00  0.00000000000E+00 -0.84068890591E+03  0.22308074659E+04  0.20663359149E+04 0.  0.
        4    1    3    3  502    0 -0.58448760569E+03 -0.42648729566E+03 -0.12165543610E+04  0.14154586891E+04  0.12699999809E+01 0.  1.
       -4    1    3    3    0  502  0.58448760569E+03  0.42648729566E+03  0.37586545504E+03  0.81534877675E+03  0.12699999809E+01 0. -1.
</event>
<event>
 5   0  0.1466480E-05  0.2098704E+04  0.7818609E-02  0.8561814E-01
       -1   -1    0    0    0  501  0.00000000000E+00  0.00000000000E+00  0.10998054898E+04  0.10998054898E+04  0.50400001928E-02 0. -1.
        1   -1    0    0  501    0  0.00000000000E+00  0.00000000000E+00 -0.10012133537E+04  0.10012133537E+04  0.50400001928E-02 0.  1.
    10030    2    1    2    0    0  0.00000000000E+00  0.00000000000E+00  0.98592136076E+02  0.21010188435E+04  0.20987043078E+04 0.  0.
        3    1    3    3  502    0  0.73540653966E+02  0.94502656294E+02 -0.99435109961E+03  0.10015353710E+04  0.10100000352E+00 0.  1.
       -3    1    3    3    0  502 -0.73540653966E+02 -0.94502656294E+02  0.10929432357E+04  0.10994834726E+04  0.10100000352E+00 0. -1.
</event>
<event>
 5   0  0.1129987E-05  0.2106428E+04  0.7818609E-02  0.8558417E-01
        3   -1    0    0  501    0  0.00000000000E+00  0.00000000000E+00  0.22965903014E+04  0.22965903036E+04  0.10100000352E+00 0.  1.
       -3   -1    0    0    0  501  0.00000000000E+00  0.00000000000E+00 -0.48300285964E+03  0.48300287020E+03  0.10100000352E+00 0. -1.
    10030    2    1    2    0    0  0.00000000000E+00  0.00000000000E+00  0.18135874418E+04  0.27795931738E+04  0.21064279724E+04 0.  0.
        1    1    3    3  502    0 -0.10199576305E+04 -0.36403020073E+02  0.12499368175E+04  0.16136854699E+04  0.50400001928E-02 0.  1.
       -1    1    3    3    0  502  0.10199576305E+04  0.36403020073E+02  0.56365062423E+03  0.11659077039E+04  0.50400001928E-02 0. -1.
</event>
<event>
 5   0  0.3242231E-05  0.2097725E+04  0.7818609E-02  0.8562246E-01
       -2   -1    0    0    0  501  0.00000000000E+00  0.00000000000E+00  0.52453080630E+03  0.52453080630E+03  0.25500000920E-02 0. -1.
        2   -1    0    0  501    0  0.00000000000E+00  0.00000000000E+00 -0.20973262388E+04  0.20973262388E+04  0.25500000920E-02 0.  1.
    10030    2    1    2    0    0  0.00000000000E+00  0.00000000000E+00 -0.15727954325E+04  0.26218570451E+04  0.20977246941E+04 0.  0.
        4    1    3    3  502    0 -0.65697909960E+02 -0.25032901622E+03  0.48399489015E+03  0.54884742718E+03  0.12699999809E+01 0. -1.
       -4    1    3    3    0  502  0.65697909960E+02  0.25032901622E+03 -0.20567903226E+04  0.20730096179E+04  0.12699999809E+01 0.  1.
</event>
<event>
 5   0  0.1492552E-05  0.2101917E+04  0.7818609E-02  0.8560399E-01
        1   -1    0    0  501    0  0.00000000000E+00  0.00000000000E+00  0.74360325808E+03  0.74360325810E+03  0.50400001928E-02 0. -1.
       -1   -1    0    0    0  501  0.00000000000E+00  0.00000000000E+00 -0.14853540277E+04  0.14853540277E+04  0.50400001928E-02 0.  1.
    10030    2    1    2    0    0  0.00000000000E+00  0.00000000000E+00 -0.74175076959E+03  0.22289572858E+04  0.21019173099E+04 0.  0.
        4    1    3    3  502    0  0.85048374912E+03  0.21988046771E+03  0.24091898635E+03  0.91088616109E+03  0.12699999809E+01 0. -1.
       -4    1    3    3    0  502 -0.85048374912E+03 -0.21988046771E+03 -0.98266975594E+03  0.13180711247E+04  0.12699999809E+01 0.  1.
</event>
<event>
 5   0  0.1466480E-05  0.2102609E+04  0.7818609E-02  0.8560095E-01
       -1   -1    0    0    0  501  0.00000000000E+00  0.00000000000E+00  0.59017220485E+03  0.59017220487E+03  0.50400001928E-02 0.  1.
        1   -1    0    0  501    0  0.00000000000E+00  0.00000000000E+00 -0.18727428003E+04  0.18727428003E+04  0.50400001928E-02 0. -1.
    10030    2    1    2    0    0  0.00000000000E+00  0.00000000000E+00 -0.12825705954E+04  0.24629150052E+04  0.21026086156E+04 0.  0.
        3    1    3    3  502    0 -0.13800626181E+03  0.10338793844E+04 -0.48726827198E+03  0.11512526608E+04  0.10100000352E+00 0.  1.
       -3    1    3    3    0  502  0.13800626181E+03 -0.10338793844E+04 -0.79530232345E+03  0.13116623444E+04  0.10100000352E+00 0. -1.
</event>
<event>
 5   0  0.3279789E-05  0.2097179E+04  0.7818609E-02  0.8562487E-01
        2   -1    0    0  501    0  0.00000000000E+00  0.00000000000E+00  0.87639707068E+03  0.87639707068E+03  0.25500000920E-02 0. -1.
       -2   -1    0    0    0  501  0.00000000000E+00  0.00000000000E+00 -0.12546140928E+04  0.12546140928E+04  0.25500000920E-02 0.  1.
    10030    2    1    2    0    0  0.00000000000E+00  0.00000000000E+00 -0.37821702215E+03  0.21310111635E+04  0.20971791681E+04 0.  0.
        2    1    3    3  502    0 -0.52841413394E+03  0.25421211543E+03 -0.10724393893E+04  0.12222812853E+04  0.25500000920E-02 0.  1.
       -2    1    3    3    0  502  0.52841413394E+03 -0.25421211543E+03  0.69422236714E+03  0.90872987825E+03  0.25500000920E-02 0. -1.
</event>
<event>
 5   0  0.1466480E-05  0.2097521E+04  0.7818609E-02  0.8562336E-01
       -1   -1    0    0    0  501  0.00000000000E+00  0.00000000000E+00  0.13540133375E+04  0.13540133375E+04  0.50400001928E-02 0. -1.
        1   -1    0    0  501    0  0.00000000000E+00  0.00000000000E+00 -0.81232501903E+03  0.81232501904E+03  0.50400001928E-02 0.  1.
    10030    2    1    2    0    0  0.00000000000E+00  0.00000000000E+00  0.54168831850E+03  0.21663383566E+04  0.20975213088E+04 0.  0.
        3    1    3    3  502    0 -0.61874584757E+03 -0.83173945395E+03  0.43499888965E+03  0.11242157210E+04  0.10100000352E+00 0. -1.
       -3    1    3    3    0  502  0.61874584757E+03  0.83173945395E+03  0.10668942885E+03  0.10421226356E+04  0.10100000352E+00 0.  1.
</event>
<event>
 5   0  0.3242231E-05  0.2108994E+04  0.7818609E-02  0.8557292E-01
        2   -1    0    0  501    0  0.00000000000E+00  0.00000000000E+00  0.24004336714E+04  0.24004336714E+04  0.25500000920E-02 0. -1.
       -2   -1    0    0    0  501  0.00000000000E+00  0.00000000000E+00 -0.46323477945E+03  0.46323477945E+03  0.25500000920E-02 0.  1.
    10030    2    1    2    0    0  0.00000000000E+00  0.00000000000E+00  0.19371988919E+04  0.28636684508E+04  0.21089944166E+04 0.  0.
        4    1    3    3  502    0 -0.18226228361E+03 -0.63053837177E+03  0.20892580518E+04  0.21899312771E+04  0.12699999809E+01 0. -1.
       -4    1    3    3    0  502  0.18226228361E+03  0.63053837177E+03 -0.15205915988E+03  0.67373717376E+03  0.12699999809E+01 0.  1.
</event>
<event>
 5   0  0.3130517E-05  0.2100656E+04  0.7818609E-02  0.8560955E-01
       -2   -1    0    0    0  501  0.00000000000E+00  0.00000000000E+00  0.52732092295E+03  0.52732092295E+03  0.25500000920E-02 0. -1.
        2   -1    0    0  501    0  0.00000000000E+00  0.00000000000E+00 -0.20920626202E+04  0.20920626202E+04  0.25500000920E-02 0.  1.
    10030    2    1    2    0    0  0.00000000000E+00  0.00000000000E+00 -0.15647416972E+04  0.26193835432E+04  0.21006555089E+04 0.  0.
        1    1    3    3  502    0  0.49582551917E+03 -0.40876121871E+03  0.25360712161E+03  0.69082939394E+03  0.50400001928E-02 0. -1.
       -1    1    3    3    0  502 -0.49582551917E+03  0.40876121871E+03 -0.18183488189E+04  0.19285541492E+04  0.50400001928E-02 0.  1.
</event>
<event>
 5   0  0.3257130E-05  0.2133547E+04  0.7818609E-02  0.8546608E-01
       -2   -1    0    0    0  501  0.00000000000E+00  0.00000000000E+00  0.64450818452E+03  0.64450818453E+03  0.25500000920E-02 0. -1.
        2   -1    0    0  501    0  0.00000000000E+00  0.00000000000E+00 -0.17656970503E+04  0.17656970503E+04  0.25500000920E-02 0.  1.
    10030    2    1    2    0    0  0.00000000000E+00  0.00000000000E+00 -0.11211888658E+04  0.24102052349E+04  0.21335474687E+04 0.  0.
        3    1    3    3  502    0 -0.43458308312E+03 -0.76126851782E+03 -0.12473875102E+04  0.15245877551E+04  0.10100000352E+00 0.  1.
       -3    1    3    3    0  502  0.43458308312E+03  0.76126851782E+03  0.12619864437E+03  0.88561747973E+03  0.10100000352E+00 0. -1.
</event>
<event>
 5   0  0.3257130E-05  0.2098125E+04  0.7818609E-02  0.8562070E-01
       -2   -1    0    0    0  501  0.00000000000E+00  0.00000000000E+00  0.68402420576E+03  0.68402420576E+03  0.25500000920E-02 0.  1.
        2   -1    0    0  501    0  0.00000000000E+00  0.00000000000E+00 -0.16089075549E+04  0.16089075549E+04  0.25500000920E-02 0. -1.
    10030    2    1    2    0    0  0.00000000000E+00  0.00000000000E+00 -0.92488334911E+03  0.22929317606E+04  0.20981246029E+04 0.  0.
        3    1    3    3  502    0  0.16363424167E+03 -0.80155292216E+03  0.25524304163E+03  0.85697857183E+03  0.10100000352E+00 0.  1.
       -3    1    3    3    0  502 -0.16363424167E+03  0.80155292216E+03 -0.11801263907E+04  0.14359531888E+04  0.10100000352E+00 0. -1.
</event>
<event>
 5   0  0.3108326E-05  0.2100023E+04  0.7818609E-02  0.8561233E-01
       -2   -1    0    0    0  501  0.00000000000E+00  0.00000000000E+00  0.99154710807E+03  0.99154710807E+03  0.25500000920E-02 0.  1.
        2   -1    0    0  501    0  0.00000000000E+00  0.00000000000E+00 -0.11119228593E+04  0.11119228593E+04  0.25500000920E-02 0. -1.
    10030    2    1    2    0    0  0.00000000000E+00  0.00000000000E+00 -0.12037575119E+03  0.21034699673E+04  0.21000227575E+04 0.  0.
        5    1    3    3  502    0  0.90727854101E+03  0.40982019704E+03 -0.39449443027E+03  0.10708664204E+04  0.46999998093E+01 0. -1.
       -5    1    3    3    0  502 -0.90727854101E+03 -0.40982019704E+03  0.27411867908E+03  0.10326035469E+04  0.46999998093E+01 0.  1.
</event>
<event>
 5   0  0.1466480E-05  0.2086817E+04  0.7818609E-02  0.8567073E-01
       -1   -1    0    0    0  501  0.00000000000E+00  0.00000000000E+00  0.73665649926E+03  0.73665649928E+03  0.50400001928E-02 0. -1.
        1   -1    0    0  501    0  0.00000000000E+00  0.00000000000E+00 -0.14778953979E+04  0.14778953979E+04  0.50400001928E-02 0.  1.
    10030    2    1    2    0    0  0.00000000000E+00  0.00000000000E+00 -0.74123889862E+03  0.22145518972E+04  0.20868169542E+04 0.  0.
        3    1    3    3  502    0 -0.37607170311E+03  0.36413237024E+03  0.58722447368E+03  0.78667331316E+03  0.10100000352E+00 0. -1.
       -3    1    3    3    0  502  0.37607170311E+03 -0.36413237024E+03 -0.13284633723E+04  0.14278785840E+04  0.10100000352E+00 0.  1.
</event>
<event>
 5   0  0.1492552E-05  0.2099632E+04  0.7818609E-02  0.8561406E-01
        1   -1    0    0  501    0  0.00000000000E+00  0.00000000000E+00  0.17842564562E+04  0.17842564563E+04  0.50400001928E-02 0.  1.
       -1   -1    0    0    0  501  0.00000000000E+00  0.00000000000E+00 -0.61768775359E+03  0.61768775361E+03  0.50400001928E-02 0. -1.
    10030    2    1    2    0    0  0.00000000000E+00  0.00000000000E+00  0.11665687027E+04  0.24019442099E+04  0.20996317414E+04 0.  0.
        4    1    3    3  502    0 -0.33568603666E+03 -0.11910561712E+03  0.17130169155E+04  0.17496570603E+04  0.12699999809E+01 0.  1.
       -4    1    3    3    0  502  0.33568603666E+03  0.11910561712E+03 -0.54644821281E+03  0.65228714952E+03  0.12699999809E+01 0. -1.
</event>
<event>
 5   0  0.3242231E-05  0.2103271E+04  0.7818609E-02  0.8559804E-01
       -2   -1    0    0    0  501  0.00000000000E+00  0.00000000000E+00  0.47537905161E+03  0.47537905161E+03  0.25500000920E-02 0. -1.
        2   -1    0    0  501    0  0.00000000000E+00  0.00000000000E+00 -0.23264332661E+04  0.23264332661E+04  0.25500000920E-02 0.  1.
    10030    2    1    2    0    0  0.00000000000E+00  0.00000000000E+00 -0.18510542145E+04  0.28018123177E+04  0.21032713944E+04 0.  0.
        4    1    3    3  502    0 -0.96863136066E+03 -0.32807010145E+03 -0.12519900862E+04  0.16165882262E+04  0.12699999809E+01 0.  1.
       -4    1    3    3    0  502  0.96863136066E+03  0.32807010145E+03 -0.59906412825E+03  0.11852240915E+04  0.12699999809E+01 0. -1.
</event>
<event>
 5   0  0.1466480E-05  0.2100143E+04  0.7818609E-02  0.8561180E-01
       -1   -1    0    0    0  501  0.00000000000E+00  0.00000000000E+00  0.45462186901E+03  0.45462186904E+03  0.50400001928E-02 0. -1.
        1   -1    0    0  501    0  0.00000000000E+00  0.00000000000E+00 -0.24254234646E+04  0.24254234646E+04  0.50400001928E-02 0.  1.
    10030    2    1    2    0    0  0.00000000000E+00  0.00000000000E+00 -0.19708015956E+04  0.28800453336E+04  0.21001433748E+04 0.  0.
        3    1    3    3  502    0 -0.58078070919E+03  0.67475151538E+03 -0.22179443605E+03  0.91749039327E+03  0.10100000352E+00 0. -1.
       -3    1    3    3    0  502  0.58078070919E+03 -0.67475151538E+03 -0.17490071595E+04  0.19625549404E+04  0.10100000352E+00 0.  1.
</event>
<event>
 5   0  0.1435410E-05  0.2108657E+04  0.7818609E-02  0.8557439E-01
       -1   -1    0    0    0  501  0.00000000000E+00  0.00000000000E+00  0.47014264837E+03  0.47014264840E+03  0.50400001928E-02 0. -1.
        1   -1    0    0  501    0  0.00000000000E+00  0.00000000000E+00 -0.23644073670E+04  0.23644073670E+04  0.50400001928E-02 0.  1.
    10030    2    1    2    0    0  0.00000000000E+00  0.00000000000E+00 -0.18942647186E+04  0.28345500154E+04  0.21086571475E+04 0.  0.
        2    1    3    3  502    0 -0.15979227740E+03  0.83172072916E+02 -0.23435669051E+04  0.23504801647E+04  0.25500000920E-02 0.  1.
       -2    1    3    3    0  502  0.15979227740E+03 -0.83172072916E+02  0.44930218648E+03  0.48406985076E+03  0.25500000920E-02 0. -1.
</event>
<event>
 5   0  0.1466480E-05  0.2107261E+04  0.7818609E-02  0.8558052E-01
        1   -1    0    0  501    0  0.00000000000E+00  0.00000000000E+00  0.10136162058E+04  0.10136162058E+04  0.50400001928E-02 0. -1.
       -1   -1    0    0    0  501  0.00000000000E+00  0.00000000000E+00 -0.10952243347E+04  0.10952243347E+04  0.50400001928E-02 0.  1.
    10030    2    1    2    0    0  0.00000000000E+00  0.00000000000E+00 -0.81608128860E+02  0.21088405405E+04  0.21072609090E+04 0.  0.
        3    1    3    3  502    0  0.63712139747E+03  0.83820900252E+03 -0.53564263039E+00  0.10528619587E+04  0.10100000352E+00 0.  1.
       -3    1    3    3    0  502 -0.63712139747E+03 -0.83820900252E+03 -0.81072486229E+02  0.10559785818E+04  0.10100000352E+00 0. -1.
</event>
<event>
 5   0  0.1466480E-05  0.2091108E+04  0.7818609E-02  0.8565170E-01
       -1   -1    0    0    0  501  0.00000000000E+00  0.00000000000E+00  0.32491980320E+04  0.32491980320E+04  0.50400001928E-02 0. -1.
        1   -1    0    0  501    0  0.00000000000E+00  0.00000000000E+00 -0.33644711094E+03  0.33644711098E+03  0.50400001928E-02 0.  1.
    10030    2    1    2    0    0  0.00000000000E+00  0.00000000000E+00  0.29127509210E+04  0.35856451429E+04  0.20911081185E+04 0.  0.
        3    1    3    3  502    0  0.43611894092E+03  0.60850760201E+03  0.20486927000E+03  0.77617824005E+03  0.10100000352E+00 0.  1.
       -3    1    3    3    0  502 -0.43611894092E+03 -0.60850760201E+03  0.27078816510E+04  0.28094669029E+04  0.10100000352E+00 0. -1.
</event>
<event>
 5   0  0.1453430E-05  0.2110648E+04  0.7818609E-02  0.8556567E-01
       -1   -1    0    0    0  501  0.00000000000E+00  0.00000000000E+00  0.44164028875E+03  0.44164028878E+03  0.50400001928E-02 0.  1.
        1   -1    0    0  501    0  0.00000000000E+00  0.00000000000E+00 -0.25217546010E+04  0.25217546010E+04  0.50400001928E-02 0. -1.
    10030    2    1    2    0    0  0.00000000000E+00  0.00000000000E+00 -0.20801143122E+04  0.29633948898E+04  0.21106477017E+04 0.  0.
        5    1    3    3  502    0  0.98586090020E+03 -0.36455451906E+03 -0.11722488121E+04  0.15744875609E+04  0.46999998093E+01 0. -1.
       -5    1    3    3    0  502 -0.98586090020E+03  0.36455451906E+03 -0.90786550013E+03  0.13889073289E+04  0.46999998093E+01 0.  1.
</event>
<event>
 5   0  0.1435410E-05  0.2066957E+04  0.7818609E-02  0.8575940E-01
        1   -1    0    0  501    0  0.00000000000E+00  0.00000000000E+00  0.96837494015E+03  0.96837494017E+03  0.50400001928E-02 0. -1.
       -1   -1    0    0    0  501  0.00000000000E+00  0.00000000000E+00 -0.11029593145E+04  0.11029593145E+04  0.50400001928E-02 0.  1.
    10030    2    1    2    0    0  0.00000000000E+00  0.00000000000E+00 -0.13458437434E+03  0.20713342547E+04  0.20669573389E+04 0.  0.
        2    1    3    3  502    0 -0.97154581827E+03 -0.33053660780E+03 -0.18970827858E+03  0.10436210793E+04  0.25500000920E-02 0. -1.
       -2    1    3    3    0  502  0.97154581827E+03  0.33053660780E+03  0.55123904239E+02  0.10277131754E+04  0.25500000920E-02 0.  1.
</event>
<event>
 5   0  0.1435410E-05  0.2116521E+04  0.7818609E-02  0.8554001E-01
       -1   -1    0    0    0  501  0.00000000000E+00  0.00000000000E+00  0.86993363141E+03  0.86993363142E+03  0.50400001928E-02 0.  1.
        1   -1    0    0  501    0  0.00000000000E+00  0.00000000000E+00 -0.12873568067E+04  0.12873568067E+04  0.50400001928E-02 0. -1.
    10030    2    1    2    0    0  0.00000000000E+00  0.00000000000E+00 -0.41742317525E+03  0.21572904381E+04  0.21165207126E+04 0.  0.
        2    1    3    3  502    0  0.99649452546E+02  0.22708340171E+03  0.83990017265E+03  0.87574493133E+03  0.25500000920E-02 0.  1.
       -2    1    3    3    0  502 -0.99649452546E+02 -0.22708340171E+03 -0.12573233479E+04  0.12815455068E+04  0.25500000920E-02 0. -1.
</event>
<event>
 5   0  0.3108326E-05  0.2101403E+04  0.7818609E-02  0.8560625E-01
       -2   -1    0    0    0  501  0.00000000000E+00  0.00000000000E+00  0.84709931914E+03  0.84709931915E+03  0.25500000920E-02 0.  1.
        2   -1    0    0  501    0  0.00000000000E+00  0.00000000000E+00 -0.13032402232E+04  0.13032402232E+04  0.25500000920E-02 0. -1.
    10030    2    1    2    0    0  0.00000000000E+00  0.00000000000E+00 -0.45614090406E+03  0.21503395424E+04  0.21014032509E+04 0.  0.
        5    1    3    3  502    0 -0.62656748004E+03  0.80210305946E+03 -0.49490271309E+03  0.11317715805E+04  0.46999998093E+01 0. -1.
       -5    1    3    3    0  502  0.62656748004E+03 -0.80210305946E+03  0.38761809029E+02  0.10185679618E+04  0.46999998093E+01 0.  1.
</event>
<event>
 5   0  0.1466480E-05  0.2091713E+04  0.7818609E-02  0.8564903E-01
        1   -1    0    0  501    0  0.00000000000E+00  0.00000000000E+00  0.10222198266E+04  0.10222198266E+04  0.50400001928E-02 0.  1.
       -1   -1    0    0    0  501  0.00000000000E+00  0.00000000000E+00 -0.10700392225E+04  0.10700392225E+04  0.50400001928E-02 0. -1.
    10030    2    1    2    0    0  0.00000000000E+00  0.00000000000E+00 -0.47819395880E+02  0.20922590492E+04  0.20917125123E+04 0.  0.
        3    1    3    3  502    0  0.32441487591E+03  0.83289164299E+03 -0.56706336383E+03  0.10585435133E+04  0.10100000352E+00 0. -1.
       -3    1    3    3    0  502 -0.32441487591E+03 -0.83289164299E+03  0.51924396795E+03  0.10337155359E+04  0.10100000352E+00 0.  1.
</event>
<event>
 5   0  0.3108326E-05  0.2104977E+04  0.7818609E-02  0.8559054E-01
       -2   -1    0    0    0  501  0.00000000000E+00  0.00000000000E+00  0.75913930725E+03  0.75913930726E+03  0.25500000920E-02 0. -1.
        2   -1    0    0  501    0  0.00000000000E+00  0.00000000000E+00 -0.14591941702E+04  0.14591941702E+04  0.25500000920E-02 0.  1.
    10030    2    1    2    0    0  0.00000000000E+00  0.00000000000E+00 -0.70005486297E+03  0.22183334775E+04  0.21049766284E+04 0.  0.
        5    1    3    3  502    0  0.59159718993E+02 -0.43910455513E+03 -0.13561093030E+04  0.14266629646E+04  0.46999998093E+01 0.  1.
       -5    1    3    3    0  502 -0.59159718993E+02  0.43910455513E+03  0.65605444007E+03  0.79167051291E+03  0.46999998093E+01 0. -1.
</event>
<event>
 5   0  0.1466480E-05  0.2099308E+04  0.7818609E-02  0.8561548E-01
       -1   -1    0    0    0  501  0.00000000000E+00  0.00000000000E+00  0.72905843129E+03  0.72905843131E+03  0.50400001928E-02 0.  1.
        1   -1    0    0  501    0  0.00000000000E+00  0.00000000000E+00 -0.15112275204E+04  0.15112275204E+04  0.50400001928E-02 0. -1.
    10030    2    1    2    0    0  0.00000000000E+00  0.00000000000E+00 -0.78216908906E+03  0.22402859517E+04  0.20993076624E+04 0.  0.
        3    1    3    3  502    0  0.27240092708E+03  0.57820371269E+03 -0.12796158395E+04  0.14303630676E+04  0.10100000352E+00 0. -1.
       -3    1    3    3    0  502 -0.27240092708E+03 -0.57820371269E+03  0.49744675039E+03  0.80992288405E+03  0.10100000352E+00 0.  1.
</event>
<event>
 5   0  0.3242231E-05  0.2095243E+04  0.7818609E-02  0.8563342E-01
        2   -1    0    0  501    0  0.00000000000E+00  0.00000000000E+00  0.54019484032E+03  0.54019484033E+03  0.25500000920E-02 0. -1.
       -2   -1    0    0    0  501  0.00000000000E+00  0.00000000000E+00 -0.20316952945E+04  0.20316952945E+04  0.25500000920E-02 0.  1.
    10030    2    1    2    0    0  0.00000000000E+00  0.00000000000E+00 -0.14915004542E+04  0.25718901349E+04  0.20952434849E+04 0.  0.
        4    1    3    3  502    0  0.53488262150E+01 -0.40881970815E+03  0.43821928770E+03  0.59933289642E+03  0.12699999809E+01 0. -1.
       -4    1    3    3    0  502 -0.53488262150E+01  0.40881970815E+03 -0.19297197419E+04  0.19725572384E+04  0.12699999809E+01 0.  1.
</event>
<event>
 5   0  0.1492552E-05  0.2096946E+04  0.7818609E-02  0.8562590E-01
        1   -1    0    0  501    0  0.00000000000E+00  0.00000000000E+00  0.21506457569E+04  0.21506457569E+04  0.50400001928E-02 0. -1.
       -1   -1    0    0    0  501  0.00000000000E+00  0.00000000000E+00 -0.51114679082E+03  0.51114679084E+03  0.50400001928E-02 0.  1.
    10030    2    1    2    0    0  0.00000000000E+00  0.00000000000E+00  0.16394989660E+04  0.26617925477E+04  0.20969460430E+04 0.  0.
        4    1    3    3  502    0 -0.87084863746E+03 -0.29850095955E+03  0.18276802347E+03  0.93855523840E+03  0.12699999809E+01 0.  1.
       -4    1    3    3    0  502  0.87084863746E+03  0.29850095955E+03  0.14567309426E+04  0.17232373093E+04  0.12699999809E+01 0. -1.
</event>
<event>
 5   0  0.3242231E-05  0.2100703E+04  0.7818609E-02  0.8560934E-01
       -2   -1    0    0    0  501  0.00000000000E+00  0.00000000000E+00  0.49204767061E+03  0.49204767062E+03  0.25500000920E-02 0.  1.
        2   -1    0    0  501    0  0.00000000000E+00  0.00000000000E+00 -0.22421369874E+04  0.22421369874E+04  0.25500000920E-02 0. -1.
    10030    2    1    2    0    0  0.00000000000E+00  0.00000000000E+00 -0.17500893168E+04  0.27341846581E+04  0.21007030079E+04 0.  0.
        4    1    3    3  502    0 -0.22954408709E+03  0.39133638274E+03 -0.21080265700E+04  0.21562959642E+04  0.12699999809E+01 0. -1.
       -4    1    3    3    0  502  0.22954408709E+03 -0.39133638274E+03  0.35793725319E+03  0.57788869387E+03  0.12699999809E+01 0.  1.
</event>
<event>
 5   0  0.3279789E-05  0.2104134E+04  0.7818609E-02  0.8559425E-01
       -2   -1    0    0    0  501  0.00000000000E+00  0.00000000000E+00  0.61162759604E+03  0.61162759604E+03  0.25500000920E-02 0. -1.
        2   -1    0    0  501    0  0.00000000000E+00  0.00000000000E+00 -0.18096708560E+04  0.18096708560E+04  0.25500000920E-02 0.  1.
    10030    2    1    2    0    0  0.00000000000E+00  0.00000000000E+00 -0.11980432599E+04  0.24212984520E+04  0.21041336795E+04 0.  0.
        2    1    3    3  502    0  0.72451270895E+03  0.57511833798E+03 -0.22315667324E+02  0.92529873940E+03  0.25500000920E-02 0. -1.
       -2    1    3    3    0  502 -0.72451270895E+03 -0.57511833798E+03 -0.11757275926E+04  0.14959997126E+04  0.25500000920E-02 0.  1.
</event>
<event>
 5   0  0.1513292E-05  0.2091559E+04  0.7818609E-02  0.8564971E-01
        1   -1    0    0  501    0  0.00000000000E+00  0.00000000000E+00  0.10005502989E+04  0.10005502989E+04  0.50400001928E-02 0. -1.
       -1   -1    0    0    0  501  0.00000000000E+00  0.00000000000E+00 -0.10930536922E+04  0.10930536922E+04  0.50400001928E-02 0.  1.
    10030    2    1    2    0    0  0.00000000000E+00  0.00000000000E+00 -0.92503393305E+02  0.20936039912E+04  0.20915594168E+04 0.  0.
        1    1    3    3  502    0  0.22357954753E+03 -0.10107728297E+04  0.10223640027E+03  0.10402412263E+04  0.50400001928E-02 0. -1.
       -1    1    3    3    0  502 -0.22357954753E+03  0.10107728297E+04 -0.19473979357E+03  0.10533627649E+04  0.50400001928E-02 0.  1.
</event>
<event>
 5   0  0.1129987E-05  0.2099306E+04  0.7818609E-02  0.8561549E-01
       -3   -1    0    0    0  501  0.00000000000E+00  0.00000000000E+00  0.10187817132E+04  0.10187817182E+04  0.10100000352E+00 0.  1.
        3   -1    0    0  501    0  0.00000000000E+00  0.00000000000E+00 -0.10814598996E+04  0.10814599043E+04  0.10100000352E+00 0. -1.
    10030    2    1    2    0    0  0.00000000000E+00  0.00000000000E+00 -0.62678186404E+02  0.21002416225E+04  0.20993061515E+04 0.  0.
        3    1    3    3  502    0  0.79928241641E+03 -0.62695254878E+03 -0.29574778241E+03  0.10580116448E+04  0.10100000352E+00 0. -1.
       -3    1    3    3    0  502 -0.79928241641E+03  0.62695254878E+03  0.23306959601E+03  0.10422299777E+04  0.10100000352E+00 0.  1.
</event>
<event>
 5   0  0.1513292E-05  0.2123845E+04  0.7818609E-02  0.8550812E-01
       -1   -1    0    0    0  501  0.00000000000E+00  0.00000000000E+00  0.77389298056E+03  0.77389298058E+03  0.50400001928E-02 0.  1.
        1   -1    0    0  501    0  0.00000000000E+00  0.00000000000E+00 -0.14571517255E+04  0.14571517255E+04  0.50400001928E-02 0. -1.
    10030    2    1    2    0    0  0.00000000000E+00  0.00000000000E+00 -0.68325874491E+03  0.22310447061E+04  0.21238450904E+04 0.  0.
        1    1    3    3  502    0 -0.82339184795E+03  0.57718944932E+03 -0.70026705008E+03  0.12253553514E+04  0.50400001928E-02 0.  1.
       -1    1    3    3    0  502  0.82339184795E+03 -0.57718944932E+03  0.17008305171E+02  0.10056893547E+04  0.50400001928E-02 0. -1.
</event>
<event>
 5   0  0.3108326E-05  0.2092661E+04  0.7818609E-02  0.8564483E-01
        2   -1    0    0  501    0  0.00000000000E+00  0.00000000000E+00  0.29729112842E+04  0.29729112843E+04  0.25500000920E-02 0.  1.
       -2   -1    0    0    0  501  0.00000000000E+00  0.00000000000E+00 -0.36826100202E+03  0.36826100203E+03  0.25500000920E-02 0. -1.
    10030    2    1    2    0    0  0.00000000000E+00  0.00000000000E+00  0.26046502822E+04  0.33411722863E+04  0.20926607833E+04 0.  0.
        5    1    3    3  502    0 -0.48001940373E+03  0.44555394097E+02  0.27850129686E+04  0.28264329350E+04  0.46999998093E+01 0.  1.
       -5    1    3    3    0  502  0.48001940373E+03 -0.44555394097E+02 -0.18036268634E+03  0.51473935125E+03  0.46999998093E+01 0. -1.
</event>
<event>
 5   0  0.3257130E-05  0.2096934E+04  0.7818609E-02  0.8562595E-01
       -2   -1    0    0    0  501  0.00000000000E+00  0.00000000000E+00  0.90155574059E+03  0.90155574059E+03  0.25500000920E-02 0.  1.
        2   -1    0    0  501    0  0.00000000000E+00  0.00000000000E+00 -0.12193182209E+04  0.12193182209E+04  0.25500000920E-02 0. -1.
    10030    2    1    2    0    0  0.00000000000E+00  0.00000000000E+00 -0.31776248029E+03  0.21208739615E+04  0.20969342781E+04 0.  0.
        3    1    3    3  502    0  0.24768715247E+02 -0.26956362485E+03 -0.11833644426E+04  0.12139314030E+04  0.10100000352E+00 0. -1.
       -3    1    3    3    0  502 -0.24768715247E+02  0.26956362485E+03  0.86560196226E+03  0.90694255847E+03  0.10100000352E+00 0.  1.
</event>
<event>
 5   0  0.3108326E-05  0.2115616E+04  0.7818609E-02  0.8554395E-01
       -2   -1    0    0    0  501  0.00000000000E+00  0.00000000000E+00  0.12573347289E+04  0.12573347289E+04  0.25500000920E-02 0.  1.
        2   -1    0    0  501    0  0.00000000000E+00  0.00000000000E+00 -0.88994451378E+03  0.88994451378E+03  0.25500000920E-02 0. -1.
    10030    2    1    2    0    0  0.00000000000E+00  0.00000000000E+00  0.36739021515E+03  0.21472792427E+04  0.21156163584E+04 0.  0.
        5    1    3    3  502    0 -0.89116319796E+01 -0.20192489943E+03  0.12375424452E+04  0.12539483546E+04  0.46999998093E+01 0.  1.
       -5    1    3    3    0  502  0.89116319796E+01  0.20192489943E+03 -0.87015223008E+03  0.89333088814E+03  0.46999998093E+01 0. -1.
</event>
<event>
 5   0  0.1435410E-05  0.2097570E+04  0.7818609E-02  0.8562314E-01
        1   -1    0    0  501    0  0.00000000000E+00  0.00000000000E+00  0.12795293294E+04  0.12795293294E+04  0.50400001928E-02 0. -1.
       -1   -1    0    0    0  501  0.00000000000E+00  0.00000000000E+00 -0.85965220833E+03  0.85965220835E+03  0.50400001928E-02 0.  1.
    10030    2    1    2    0    0  0.00000000000E+00  0.00000000000E+00  0.41987712109E+03  0.21391815378E+04  0.20975702264E+04 0.  0.
        2    1    3    3  502    0 -0.72013135713E+03 -0.71535756429E+03 -0.59160685053E+02  0.10167721490E+04  0.25500000920E-02 0.  1.
       -2    1    3    3    0  502  0.72013135713E+03  0.71535756429E+03  0.47903780615E+03  0.11224093888E+04  0.25500000920E-02 0. -1.
</event>
<event>
 5   0  0.3242231E-05  0.2100246E+04  0.7818609E-02  0.8561135E-01
        2   -1    0    0  501    0  0.00000000000E+00  0.00000000000E+00  0.23707374458E+04  0.23707374458E+04  0.25500000920E-02 0.  1.
       -2   -1    0    0    0  501  0.00000000000E+00  0.00000000000E+00 -0.46515410025E+03  0.46515410026E+03  0.25500000920E-02 0. -1.
    10030    2    1    2    0    0  0.00000000000E+00  0.00000000000E+00  0.19055833456E+04  0.28358915461E+04  0.21002459318E+04 0.  0.
        4    1    3    3  502    0 -0.57055821277E+03 -0.53552242561E+03  0.18983982810E+04  0.20533481412E+04  0.12699999809E+01 0.  1.
       -4    1    3    3    0  502  0.57055821277E+03  0.53552242561E+03  0.71850645102E+01  0.78254340490E+03  0.12699999809E+01 0. -1.
</event>
<event>
 5   0  0.1513292E-05  0.2105348E+04  0.7818609E-02  0.8558891E-01
       -1   -1    0    0    0  501  0.00000000000E+00  0.00000000000E+00  0.67894216089E+03  0.67894216091E+03  0.50400001928E-02 0.  1.
        1   -1    0    0  501    0  0.00000000000E+00  0.00000000000E+00 -0.16321316352E+04  0.16321316352E+04  0.50400001928E-02 0. -1.
    10030    2    1    2    0    0  0.00000000000E+00  0.00000000000E+00 -0.95318947426E+03  0.23110737961E+04  0.21053484075E+04 0.  0.
        1    1    3    3  502    0  0.51859290600E+03  0.91486856603E+03 -0.52808080503E+03  0.11767720391E+04  0.50400001928E-02 0.  1.
       -1    1    3    3    0  502 -0.51859290600E+03 -0.91486856603E+03 -0.42510866923E+03  0.11343017570E+04  0.50400001928E-02 0. -1.
</event>
<event>
 5   0  0.3257130E-05  0.2091559E+04  0.7818609E-02  0.8564971E-01
        2   -1    0    0  501    0  0.00000000000E+00  0.00000000000E+00  0.10440484454E+04  0.10440484454E+04  0.25500000920E-02 0.  1.
       -2   -1    0    0    0  501  0.00000000000E+00  0.00000000000E+00 -0.10475135550E+04  0.10475135550E+04  0.25500000920E-02 0. -1.
    10030    2    1    2    0    0  0.00000000000E+00  0.00000000000E+00 -0.34651095889E+01  0.20915620004E+04  0.20915591301E+04 0.  0.
        3    1    3    3  502    0  0.65435702918E+03 -0.78652874510E+03 -0.21816829237E+03  0.10461395712E+04  0.10100000352E+00 0. -1.
       -3    1    3    3    0  502 -0.65435702918E+03  0.78652874510E+03  0.21470318278E+03  0.10454224292E+04  0.10100000352E+00 0.  1.
</event>
<event>
 5   0  0.1513292E-05  0.2103853E+04  0.7818609E-02  0.8559548E-01
       -1   -1    0    0    0  501  0.00000000000E+00  0.00000000000E+00  0.69551705830E+03  0.69551705831E+03  0.50400001928E-02 0. -1.
        1   -1    0    0  501    0  0.00000000000E+00  0.00000000000E+00 -0.15909743637E+04  0.15909743638E+04  0.50400001928E-02 0.  1.
    10030    2    1    2    0    0  0.00000000000E+00  0.00000000000E+00 -0.89545730545E+03  0.22864914221E+04  0.21038534258E+04 0.  0.
        1    1    3    3  502    0 -0.94228888407E+03 -0.16821557650E+03  0.26431244318E+02  0.95755074640E+03  0.50400001928E-02 0. -1.
       -1    1    3    3    0  502  0.94228888407E+03  0.16821557650E+03 -0.92188854977E+03  0.13289406757E+04  0.50400001928E-02 0.  1.
</event>
<event>
 5   0  0.3108326E-05  0.2116529E+04  0.7818609E-02  0.8553997E-01
        2   -1    0    0  501    0  0.00000000000E+00  0.00000000000E+00  0.20308524129E+04  0.20308524129E+04  0.25500000920E-02 0. -1.
       -2   -1    0    0    0  501  0.00000000000E+00  0.00000000000E+00 -0.55145524297E+03  0.55145524298E+03  0.25500000920E-02 0.  1.
    10030    2    1    2    0    0  0.00000000000E+00  0.00000000000E+00  0.14793971699E+04  0.25823076558E+04  0.21165294336E+04 0.  0.
        5    1    3    3  502    0  0.10200617621E+04 -0.27490746371E+03  0.81492843937E+03  0.13342528109E+04  0.46999998093E+01 0.  1.
       -5    1    3    3    0  502 -0.10200617621E+04  0.27490746371E+03  0.66446873051E+03  0.12480548449E+04  0.46999998093E+01 0. -1.
</event>
<event>
 5   0  0.1129987E-05  0.2089334E+04  0.7818609E-02  0.8565957E-01
       -3   -1    0    0    0  501  0.00000000000E+00  0.00000000000E+00  0.61306323210E+03  0.61306324042E+03  0.10100000352E+00 0. -1.
        3   -1    0    0  501    0  0.00000000000E+00  0.00000000000E+00 -0.17801243247E+04  0.17801243276E+04  0.10100000352E+00 0.  1.
    10030    2    1    2    0    0  0.00000000000E+00  0.00000000000E+00 -0.11670610926E+04  0.23931875680E+04  0.20893336598E+04 0.  0.
        5    1    3    3  502    0  0.20466399068E+03 -0.14284001244E+03  0.57839959372E+03  0.62996729935E+03  0.46999998093E+01 0. -1.
       -5    1    3    3    0  502 -0.20466399068E+03  0.14284001244E+03 -0.17454606864E+04  0.17632202687E+04  0.46999998093E+01 0.  1.
</event>
<event>
 5   0  0.1492552E-05  0.2098585E+04  0.7818609E-02  0.8561867E-01
        1   -1    0    0  501    0  0.00000000000E+00  0.00000000000E+00  0.15062289778E+04  0.15062289778E+04  0.50400001928E-02 0. -1.
       -1   -1    0    0    0  501  0.00000000000E+00  0.00000000000E+00 -0.73097424360E+03  0.73097424362E+03  0.50400001928E-02 0.  1.
    10030    2    1    2    0    0  0.00000000000E+00  0.00000000000E+00  0.77525473415E+03  0.22372032214E+04  0.20985848448E+04 0.  0.
        4    1    3    3  502    0  0.80693714025E+03  0.65880321762E+03  0.25344116754E+03  0.10721022648E+04  0.12699999809E+01 0. -1.
       -4    1    3    3    0  502 -0.80693714025E+03 -0.65880321762E+03  0.52181356661E+03  0.11651009566E+04  0.12699999809E+01 0.  1.
</event>
<event>
 5   0  0.3279789E-05  0.2107573E+04  0.7818609E-02  0.8557915E-01
        2   -1    0    0  501    0  0.00000000000E+00  0.00000000000E+00  0.98140893903E+03  0.98140893904E+03  0.25500000920E-02 0. -1.
       -2   -1    0    0    0  501  0.00000000000E+00  0.00000000000E+00 -0.11315012961E+04  0.11315012961E+04  0.25500000920E-02 0.  1.
    10030    2    1    2    0    0  0.00000000000E+00  0.00000000000E+00 -0.15009235702E+03  0.21129102351E+04  0.21075725245E+04 0.  0.
        2    1    3    3  502    0  0.66353132600E+03  0.70399544604E+03 -0.49393459180E+03  0.10862112086E+04  0.25500000920E-02 0.  1.
       -2    1    3    3    0  502 -0.66353132600E+03 -0.70399544604E+03  0.34384223479E+03  0.10266990265E+04  0.25500000920E-02 0. -1.
</event>
<event>
 5   0  0.3257130E-05  0.2097978E+04  0.7818609E-02  0.8562135E-01
        2   -1    0    0  501    0  0.00000000000E+00  0.00000000000E+00  0.12487326660E+04  0.12487326660E+04  0.25500000920E-02 0.  1.
       -2   -1    0    0    0  501  0.00000000000E+00  0.00000000000E+00 -0.88119570833E+03  0.88119570833E+03  0.25500000920E-02 0. -1.
    10030    2    1    2    0    0  0.00000000000E+00  0.00000000000E+00  0.36753695765E+03  0.21299283743E+04  0.20979779466E+04 0.  0.
        3    1    3    3  502    0 -0.49514629681E+00  0.67233401810E+03 -0.63369248382E+03  0.92390446006E+03  0.10100000352E+00 0. -1.
       -3    1    3    3    0  502  0.49514629681E+00 -0.67233401810E+03  0.10012294415E+04  0.12060239142E+04  0.10100000352E+00 0.  1.
</event>
<event>
 5   0  0.1453430E-05  0.2091166E+04  0.7818609E-02  0.8565145E-01
        1   -1    0    0  501    0  0.00000000000E+00  0.00000000000E+00  0.13349961840E+04  0.13349961840E+04  0.50400001928E-02 0.  1.
       -1   -1    0    0    0  501  0.00000000000E+00  0.00000000000E+00 -0.81891193367E+03  0.81891193368E+03  0.50400001928E-02 0. -1.
    10030    2    1    2    0    0  0.00000000000E+00  0.00000000000E+00  0.51608425034E+03  0.21539081177E+04  0.20911664750E+04 0.  0.
        5    1    3    3  502    0  0.87756305392E+03  0.46718649147E+03 -0.75465977774E+02  0.99704429953E+03  0.46999998093E+01 0. -1.
       -5    1    3    3    0  502 -0.87756305392E+03 -0.46718649147E+03  0.59155022811E+03  0.11568638182E+04  0.46999998093E+01 0.  1.
</event>
<event>
 5   0  0.1129987E-05  0.2092395E+04  0.7818609E-02  0.8564601E-01
       -4   -1    0    0    0  501  0.00000000000E+00  0.00000000000E+00  0.16052523769E+04  0.16052528793E+04  0.12699999809E+01 0.  1.
        4   -1    0    0  501    0  0.00000000000E+00  0.00000000000E+00 -0.68184095158E+03  0.68184213433E+03  0.12699999809E+01 0. -1.
    10030    2    1    2    0    0  0.00000000000E+00  0.00000000000E+00  0.92341142537E+03  0.22870950137E+04  0.20923945472E+04 0.  0.
        3    1    3    3  502    0 -0.35927463849E+03  0.25376211618E+03  0.14992731597E+04  0.15624639180E+04  0.10100000352E+00 0.  1.
       -3    1    3    3    0  502  0.35927463849E+03 -0.25376211618E+03 -0.57586173435E+03  0.72463109563E+03  0.10100000352E+00 0. -1.
</event>
<event>
 5   0  0.3130517E-05  0.2098169E+04  0.7818609E-02  0.8562050E-01
       -2   -1    0    0    0  501  0.00000000000E+00  0.00000000000E+00  0.88067002010E+03  0.88067002010E+03  0.25500000920E-02 0. -1.
        2   -1    0    0  501    0  0.00000000000E+00  0.00000000000E+00 -0.12497061458E+04  0.12497061458E+04  0.25500000920E-02 0.  1.
    10030    2    1    2    0    0  0.00000000000E+00  0.00000000000E+00 -0.36903612571E+03  0.21303761659E+04  0.20981694274E+04 0.  0.
        1    1    3    3  502    0  0.72592570153E+03 -0.19741686037E+03  0.55789452200E+03  0.93658306551E+03  0.50400001928E-02 0. -1.
       -1    1    3    3    0  502 -0.72592570153E+03  0.19741686037E+03 -0.92693064771E+03  0.11937931004E+04  0.50400001928E-02 0.  1.
</event>
<event>
 5   0  0.3279789E-05  0.2096913E+04  0.7818609E-02  0.8562604E-01
        2   -1    0    0  501    0  0.00000000000E+00  0.00000000000E+00  0.19280755293E+04  0.19280755293E+04  0.25500000920E-02 0.  1.
       -2   -1    0    0    0  501  0.00000000000E+00  0.00000000000E+00 -0.57013386358E+03  0.57013386359E+03  0.25500000920E-02 0. -1.
    10030    2    1    2    0    0  0.00000000000E+00  0.00000000000E+00  0.13579416657E+04  0.24982093928E+04  0.20969131129E+04 0.  0.
        2    1    3    3  502    0 -0.33645651373E+03  0.71380641377E+03 -0.14345629938E+03  0.80206127684E+03  0.25500000920E-02 0. -1.
       -2    1    3    3    0  502  0.33645651373E+03 -0.71380641377E+03  0.15013979650E+04  0.16961481160E+04  0.25500000920E-02 0.  1.
</event>
<event>
 5   0  0.1435410E-05  0.2090341E+04  0.7818609E-02  0.8565510E-01
       -1   -1    0    0    0  501  0.00000000000E+00  0.00000000000E+00  0.85177416169E+03  0.85177416170E+03  0.50400001928E-02 0.  1.
        1   -1    0    0  501    0  0.00000000000E+00  0.00000000000E+00 -0.12824777148E+04  0.12824777149E+04  0.50400001928E-02 0. -1.
    10030    2    1    2    0    0  0.00000000000E+00  0.00000000000E+00 -0.43070355316E+03  0.21342518766E+04  0.20903410061E+04 0.  0.
        2    1    3    3  502    0  0.70294539425E+03 -0.96452472500E+02  0.56819746972E+03  0.90900146939E+03  0.25500000920E-02 0.  1.
       -2    1    3    3    0  502 -0.70294539425E+03  0.96452472500E+02 -0.99890102288E+03  0.12252504072E+04  0.25500000920E-02 0. -1.
</event>
<event>
 5   0  0.3242231E-05  0.2103871E+04  0.7818609E-02  0.8559540E-01
        2   -1    0    0  501    0  0.00000000000E+00  0.00000000000E+00  0.10125942914E+04  0.10125942914E+04  0.25500000920E-02 0. -1.
       -2   -1    0    0    0  501  0.00000000000E+00  0.00000000000E+00 -0.10928057006E+04  0.10928057006E+04  0.25500000920E-02 0.  1.
    10030    2    1    2    0    0  0.00000000000E+00  0.00000000000E+00 -0.80211409186E+02  0.21053999919E+04  0.21038714923E+04 0.  0.
        4    1    3    3  502    0 -0.18301374464E+03  0.29128860515E+03  0.95471114535E+03  0.10147995202E+04  0.12699999809E+01 0. -1.
       -4    1    3    3    0  502  0.18301374464E+03 -0.29128860515E+03 -0.10349225545E+04  0.10906004718E+04  0.12699999809E+01 0.  1.
</event>
<event>
 5   0  0.3108326E-05  0.2100818E+04  0.7818609E-02  0.8560883E-01
        2   -1    0    0  501    0  0.00000000000E+00  0.00000000000E+00  0.78434485902E+03  0.78434485903E+03  0.25500000920E-02 0. -1.
       -2   -1    0    0    0  501  0.00000000000E+00  0.00000000000E+00 -0.14067265242E+04  0.14067265242E+04  0.25500000920E-02 0.  1.
    10030    2    1    2    0    0  0.00000000000E+00  0.00000000000E+00 -0.62238166518E+03  0.21910713832E+04  0.21008176668E+04 0.  0.
        5    1    3    3  502    0 -0.73295811868E+03 -0.34052096333E+03  0.38856892386E+03  0.89676642934E+03  0.46999998093E+01 0. -1.
       -5    1    3    3    0  502  0.73295811868E+03  0.34052096333E+03 -0.10109505890E+04  0.12943049539E+04  0.46999998093E+01 0.  1.
</event>
<event>
 5   0  0.3242231E-05  0.2102420E+04  0.7818609E-02  0.8560178E-01
        2   -1    0    0  501    0  0.00000000000E+00  0.00000000000E+00  0.13678649474E+04  0.13678649474E+04  0.25500000920E-02 0. -1.
       -2   -1    0    0    0  501  0.00000000000E+00  0.00000000000E+00 -0.80785899203E+03  0.80785899203E+03  0.25500000920E-02 0.  1.
    10030    2    1    2    0    0  0.00000000000E+00  0.00000000000E+00  0.56000595534E+03  0.21757239394E+04  0.21024195562E+04 0.  0.
        4    1    3    3  502    0 -0.27158117058E+03 -0.18654326205E+03 -0.75304366400E+03  0.82196781787E+03  0.12699999809E+01 0.  1.
       -4    1    3    3    0  502  0.27158117058E+03  0.18654326205E+03  0.13130496193E+04  0.13537561215E+04  0.12699999809E+01 0. -1.
</event>
<event>
 5   0  0.3279789E-05  0.2091972E+04  0.7818609E-02  0.8564788E-01
        2   -1    0    0  501    0  0.00000000000E+00  0.00000000000E+00  0.19902726937E+04  0.19902726937E+04  0.25500000920E-02 0. -1.
       -2   -1    0    0    0  501  0.00000000000E+00  0.00000000000E+00 -0.54971702045E+03  0.54971702045E+03  0.25500000920E-02 0.  1.
    10030    2    1    2    0    0  0.00000000000E+00  0.00000000000E+00  0.14405556733E+04  0.25399897142E+04  0.20919720601E+04 0.  0.
        2    1    3    3  502    0  0.30060332221E+02 -0.38059651468E+03 -0.46209840782E+03  0.59940993409E+03  0.25500000920E-02 0.  1.
       -2    1    3    3    0  502 -0.30060332221E+02  0.38059651468E+03  0.19026540811E+04  0.19405797801E+04  0.25500000920E-02 0. -1.
</event>
<event>
 5   0  0.3108326E-05  0.2095230E+04  0.7818609E-02  0.8563348E-01
        2   -1    0    0  501    0  0.00000000000E+00  0.00000000000E+00  0.22647578796E+04  0.22647578796E+04  0.25500000920E-02 0. -1.
       -2   -1    0    0    0  501  0.00000000000E+00  0.00000000000E+00 -0.48459782219E+03  0.48459782219E+03  0.25500000920E-02 0.  1.
    10030    2    1    2    0    0  0.00000000000E+00  0.00000000000E+00  0.17801600574E+04  0.27493557018E+04  0.20952295685E+04 0.  0.
        5    1    3    3  502    0  0.93151397898E+02 -0.38760857455E+03  0.21613261948E+04  0.21977876604E+04  0.46999998093E+01 0. -1.
       -5    1    3    3    0  502 -0.93151397898E+02  0.38760857455E+03 -0.38116613737E+03  0.55156804138E+03  0.46999998093E+01 0.  1.
</event>
<event>
 5   0  0.1513292E-05  0.2075326E+04  0.7818609E-02  0.8572191E-01
        1   -1    0    0  501    0  0.00000000000E+00  0.00000000000E+00  0.25901582716E+04  0.25901582716E+04  0.50400001928E-02 0. -1.
       -1   -1    0    0    0  501  0.00000000000E+00  0.00000000000E+00 -0.41570601715E+03  0.41570601718E+03  0.50400001928E-02 0.  1.
    10030    2    1    2    0    0  0.00000000000E+00  0.00000000000E+00  0.21744522544E+04  0.30058642887E+04  0.20753258818E+04 0.  0.
        1    1    3    3  502    0  0.46725968805E+03  0.56180392421E+03  0.20142071269E+02  0.73099997838E+03  0.50400001928E-02 0.  1.
       -1    1    3    3    0  502 -0.46725968805E+03 -0.56180392421E+03  0.21543101831E+04  0.22748643104E+04  0.50400001928E-02 0. -1.
</event>
<event>
 5   0  0.3257130E-05  0.2110833E+04  0.7818609E-02  0.8556486E-01
        2   -1    0    0  501    0  0.00000000000E+00  0.00000000000E+00  0.63818595009E+03  0.63818595010E+03  0.25500000920E-02 0.  1.
       -2   -1    0    0    0  501  0.00000000000E+00  0.00000000000E+00 -0.17454222980E+04  0.17454222980E+04  0.25500000920E-02 0. -1.
    10030    2    1    2    0    0  0.00000000000E+00  0.00000000000E+00 -0.11072363479E+04  0.23836082481E+04  0.21108329992E+04 0.  0.
        3    1    3    3  502    0  0.24675622794E+03 -0.23487350422E+03 -0.16816298296E+04  0.17157893498E+04  0.10100000352E+00 0. -1.
       -3    1    3    3    0  502 -0.24675622794E+03  0.23487350422E+03  0.57439348163E+03  0.66781889832E+03  0.10100000352E+00 0.  1.
</event>
<event>
 5   0  0.1513292E-05  0.2096355E+04  0.7818609E-02  0.8562851E-01
       -1   -1    0    0    0  501  0.00000000000E+00  0.00000000000E+00  0.12000560013E+04  0.12000560013E+04  0.50400001928E-02 0. -1.
        1   -1    0    0  501    0  0.00000000000E+00  0.00000000000E+00 -0.91552057056E+03  0.91552057057E+03  0.50400001928E-02 0.  1.
    10030    2    1    2    0    0  0.00000000000E+00  0.00000000000E+00  0.28453543071E+03  0.21155765719E+04  0.20963548889E+04 0.  0.
        1    1    3    3  502    0  0.48255608452E+03 -0.87412073854E+03 -0.17960583855E+03  0.10144977563E+04  0.50400001928E-02 0.  1.
       -1    1    3    3    0  502 -0.48255608452E+03  0.87412073854E+03  0.46414126926E+03  0.11010788156E+04  0.50400001928E-02 0. -1.
</event>
<event>
 5   0  0.3279789E-05  0.2076401E+04  0.7818609E-02  0.8571711E-01
       -2   -1    0    0    0  501  0.00000000000E+00  0.00000000000E+00  0.75490684556E+03  0.75490684556E+03  0.25500000920E-02 0. -1.
        2   -1    0    0  501    0  0.00000000000E+00  0.00000000000E+00 -0.14278054112E+04  0.14278054112E+04  0.25500000920E-02 0.  1.
    10030    2    1    2    0    0  0.00000000000E+00  0.00000000000E+00 -0.67289856559E+03  0.21827122567E+04  0.20764008081E+04 0.  0.
        2    1    3    3  502    0 -0.35759347749E+03 -0.53399941066E+03 -0.11935682961E+04  0.13555935022E+04  0.25500000920E-02 0.  1.
       -2    1    3    3    0  502  0.35759347749E+03  0.53399941066E+03  0.52066973054E+03  0.82711875449E+03  0.25500000920E-02 0. -1.
</event>
<event>
 5   0  0.3108326E-05  0.2096788E+04  0.7818609E-02  0.8562660E-01
        2   -1    0    0  501    0  0.00000000000E+00  0.00000000000E+00  0.13068241279E+04  0.13068241279E+04  0.25500000920E-02 0. -1.
       -2   -1    0    0    0  501  0.00000000000E+00  0.00000000000E+00 -0.84106958046E+03  0.84106958046E+03  0.25500000920E-02 0.  1.
    10030    2    1    2    0    0  0.00000000000E+00  0.00000000000E+00  0.46575454746E+03  0.21478937084E+04  0.20967880398E+04 0.  0.
        5    1    3    3  502    0  0.57138484723E+03 -0.35110857567E+03  0.10583404346E+04  0.12529423135E+04  0.46999998093E+01 0. -1.
       -5    1    3    3    0  502 -0.57138484723E+03  0.35110857567E+03 -0.59258588712E+03  0.89495139486E+03  0.46999998093E+01 0.  1.
</event>
<event>
 5   0  0.1466480E-05  0.2090405E+04  0.7818609E-02  0.8565482E-01
       -1   -1    0    0    0  501  0.00000000000E+00  0.00000000000E+00  0.69456301637E+03  0.69456301639E+03  0.50400001928E-02 0. -1.
        1   -1    0    0  501    0  0.00000000000E+00  0.00000000000E+00 -0.15728573875E+04  0.15728573875E+04  0.50400001928E-02 0.  1.
    10030    2    1    2    0    0  0.00000000000E+00  0.00000000000E+00 -0.87829437108E+03  0.22674204039E+04  0.20904052922E+04 0.  0.
        3    1    3    3  502    0 -0.95621569567E+03 -0.39763393004E+03 -0.28579876907E+03  0.10743100789E+04  0.10100000352E+00 0. -1.
       -3    1    3    3    0  502  0.95621569567E+03  0.39763393004E+03 -0.59249560201E+03  0.11931103250E+04  0.10100000352E+00 0.  1.
</event>
<event>
 5   0  0.1492552E-05  0.2098228E+04  0.7818609E-02  0.8562024E-01
        1   -1    0    0  501    0  0.00000000000E+00  0.00000000000E+00  0.13046398659E+04  0.13046398659E+04  0.50400001928E-02 0.  1.
       -1   -1    0    0    0  501  0.00000000000E+00  0.00000000000E+00 -0.84363503426E+03  0.84363503428E+03  0.50400001928E-02 0. -1.
    10030    2    1    2    0    0  0.00000000000E+00  0.00000000000E+00  0.46100483164E+03  0.21482749002E+04  0.20982277264E+04 0.  0.
        4    1    3    3  502    0 -0.46481066013E+03 -0.93900041956E+03  0.17567566179E+03  0.10623720105E+04  0.12699999809E+01 0. -1.
       -4    1    3    3    0  502  0.46481066013E+03  0.93900041956E+03  0.28532916984E+03  0.10859028897E+04  0.12699999809E+01 0.  1.
</event>
<event>
 5   0  0.1453430E-05  0.2100218E+04  0.7818609E-02  0.8561147E-01
       -1   -1    0    0    0  501  0.00000000000E+00  0.00000000000E+00  0.77532991104E+03  0.77532991106E+03  0.50400001928E-02 0.  1.
        1   -1    0    0  501    0  0.00000000000E+00  0.00000000000E+00 -0.14222702942E+04  0.14222702942E+04  0.50400001928E-02 0. -1.
    10030    2    1    2    0    0  0.00000000000E+00  0.00000000000E+00 -0.64694038317E+03  0.21976002053E+04  0.21002177989E+04 0.  0.
        5    1    3    3  502    0  0.67173440200E+02  0.30388803633E+03  0.72595185905E+03  0.78986606545E+03  0.46999998093E+01 0.  1.
       -5    1    3    3    0  502 -0.67173440200E+02 -0.30388803633E+03 -0.13728922422E+04  0.14077341398E+04  0.46999998093E+01 0. -1.
</event>
<event>
 5   0  0.1129987E-05  0.2100737E+04  0.7818609E-02  0.8560919E-01
       -3   -1    0    0    0  501  0.00000000000E+00  0.00000000000E+00  0.11256385465E+04  0.11256385510E+04  0.10100000352E+00 0. -1.
        3   -1    0    0  501    0  0.00000000000E+00  0.00000000000E+00 -0.98013142756E+03  0.98013143277E+03  0.10100000352E+00 0.  1.
    10030    2    1    2    0    0  0.00000000000E+00  0.00000000000E+00  0.14550711894E+03  0.21057699838E+04  0.21007367524E+04 0.  0.
        5    1    3    3  502    0 -0.30591481395E+03  0.18980914729E+03 -0.91634269425E+03  0.98453918617E+03  0.46999998093E+01 0.  1.
       -5    1    3    3    0  502  0.30591481395E+03 -0.18980914729E+03  0.10618498132E+04  0.11212307976E+04  0.46999998093E+01 0. -1.
</event>
<event>
 5   0  0.1129987E-05  0.2085205E+04  0.7818609E-02  0.8567789E-01
       -3   -1    0    0    0  501  0.00000000000E+00  0.00000000000E+00  0.53600594897E+03  0.53600595849E+03  0.10100000352E+00 0. -1.
        3   -1    0    0  501    0  0.00000000000E+00  0.00000000000E+00 -0.20280000637E+04  0.20280000663E+04  0.10100000352E+00 0.  1.
    10030    2    1    2    0    0  0.00000000000E+00  0.00000000000E+00 -0.14919941148E+04  0.25640060247E+04  0.20852051353E+04 0.  0.
        4    1    3    3  502    0 -0.14915481957E+03 -0.73661422511E+03 -0.16345361843E+04  0.17990435869E+04  0.12699999809E+01 0.  1.
       -4    1    3    3    0  502  0.14915481957E+03  0.73661422511E+03  0.14254206954E+03  0.76496243785E+03  0.12699999809E+01 0. -1.
</event>
<event>
 5   0  0.1466480E-05  0.2106608E+04  0.7818609E-02  0.8558338E-01
       -1   -1    0    0    0  501  0.00000000000E+00  0.00000000000E+00  0.67902442641E+03  0.67902442643E+03  0.50400001928E-02 0.  1.
        1   -1    0    0  501    0  0.00000000000E+00  0.00000000000E+00 -0.16338871007E+04  0.16338871007E+04  0.50400001928E-02 0. -1.
    10030    2    1    2    0    0  0.00000000000E+00  0.00000000000E+00 -0.95486267431E+03  0.23129115271E+04  0.21066079383E+04 0.  0.
        3    1    3    3  502    0 -0.48496332423E+03 -0.48314063930E+03  0.40148673573E+03  0.79360312018E+03  0.10100000352E+00 0.  1.
       -3    1    3    3    0  502  0.48496332423E+03  0.48314063930E+03 -0.13563494100E+04  0.15193084070E+04  0.10100000352E+00 0. -1.
</event>
<event>
 5   0  0.3108326E-05  0.2103514E+04  0.7818609E-02  0.8559697E-01
       -2   -1    0    0    0  501  0.00000000000E+00  0.00000000000E+00  0.79240053221E+03  0.79240053221E+03  0.25500000920E-02 0. -1.
        2   -1    0    0  501    0  0.00000000000E+00  0.00000000000E+00 -0.13960016337E+04  0.13960016337E+04  0.25500000920E-02 0.  1.
    10030    2    1    2    0    0  0.00000000000E+00  0.00000000000E+00 -0.60360110147E+03  0.21884021659E+04  0.21035136677E+04 0.  0.
        5    1    3    3  502    0 -0.10188341237E+04 -0.24544363449E+03 -0.39429745295E+03  0.11197134101E+04  0.46999998093E+01 0.  1.
       -5    1    3    3    0  502  0.10188341237E+04  0.24544363449E+03 -0.20930364852E+03  0.10686887558E+04  0.46999998093E+01 0. -1.
</event>
<event>
 5   0  0.1129987E-05  0.2101431E+04  0.7818609E-02  0.8560613E-01
       -3   -1    0    0    0  501  0.00000000000E+00  0.00000000000E+00  0.10097840521E+04  0.10097840571E+04  0.10100000352E+00 0.  1.
        3   -1    0    0  501    0  0.00000000000E+00  0.00000000000E+00 -0.10933056601E+04  0.10933056648E+04  0.10100000352E+00 0. -1.
    10030    2    1    2    0    0  0.00000000000E+00  0.00000000000E+00 -0.83521608063E+02  0.21030897219E+04  0.21014305888E+04 0.  0.
        4    1    3    3  502    0 -0.90713722677E+02  0.32472445861E+03  0.95417617001E+03  0.10119924554E+04  0.12699999809E+01 0.  1.
       -4    1    3    3    0  502  0.90713722677E+02 -0.32472445861E+03 -0.10376977781E+04  0.10910972665E+04  0.12699999809E+01 0. -1.
</event>
<event>
 5   0  0.3108326E-05  0.2097048E+04  0.7818609E-02  0.8562545E-01
       -2   -1    0    0    0  501  0.00000000000E+00  0.00000000000E+00  0.52452465774E+03  0.52452465774E+03  0.25500000920E-02 0. -1.
        2   -1    0    0  501    0  0.00000000000E+00  0.00000000000E+00 -0.20959976433E+04  0.20959976433E+04  0.25500000920E-02 0.  1.
    10030    2    1    2    0    0  0.00000000000E+00  0.00000000000E+00 -0.15714729855E+04  0.26205223010E+04  0.20970478740E+04 0.  0.
        5    1    3    3  502    0  0.52244605685E+02 -0.10457222704E+04 -0.71598336813E+03  0.12684316454E+04  0.46999998093E+01 0.  1.
       -5    1    3    3    0  502 -0.52244605685E+02  0.10457222704E+04 -0.85548961742E+03  0.13520906556E+04  0.46999998093E+01 0. -1.
</event>
<event>
 5   0  0.1513292E-05  0.2097526E+04  0.7818609E-02  0.8562334E-01
       -1   -1    0    0    0  501  0.00000000000E+00  0.00000000000E+00  0.99010463825E+03  0.99010463826E+03  0.50400001928E-02 0. -1.
        1   -1    0    0  501    0  0.00000000000E+00  0.00000000000E+00 -0.11108969230E+04  0.11108969230E+04  0.50400001928E-02 0.  1.
    10030    2    1    2    0    0  0.00000000000E+00  0.00000000000E+00 -0.12079228471E+03  0.21010015612E+04  0.20975263489E+04 0.  0.
        1    1    3    3  502    0  0.72512986779E+03 -0.15255535052E+03 -0.80379674343E+03  0.10932408998E+04  0.50400001928E-02 0.  1.
       -1    1    3    3    0  502 -0.72512986779E+03  0.15255535052E+03  0.68300445873E+03  0.10077606615E+04  0.50400001928E-02 0. -1.
</event>
<event>
 5   0  0.1453430E-05  0.2091478E+04  0.7818609E-02  0.8565006E-01
        1   -1    0    0  501    0  0.00000000000E+00  0.00000000000E+00  0.68189459865E+03  0.68189459867E+03  0.50400001928E-02 0. -1.
       -1   -1    0    0    0  501  0.00000000000E+00  0.00000000000E+00 -0.16037236886E+04  0.16037236886E+04  0.50400001928E-02 0.  1.
    10030    2    1    2    0    0  0.00000000000E+00  0.00000000000E+00 -0.92182908994E+03  0.22856182873E+04  0.20914784446E+04 0.  0.
        5    1    3    3  502    0  0.52743965239E+03 -0.67820979227E+03 -0.11123948252E+04  0.14055623239E+04  0.46999998093E+01 0.  1.
       -5    1    3    3    0  502 -0.52743965239E+03  0.67820979227E+03  0.19056573524E+03  0.88005596339E+03  0.46999998093E+01 0. -1.
</event>
<event>
 5   0  0.3257130E-05  0.2097545E+04  0.7818609E-02  0.8562325E-01
        2   -1    0    0  501    0  0.00000000000E+00  0.00000000000E+00  0.91145689690E+03  0.91145689691E+03  0.25500000920E-02 0. -1.
       -2   -1    0    0    0  501  0.00000000000E+00  0.00000000000E+00 -0.12067756757E+04  0.12067756757E+04  0.25500000920E-02 0.  1.
    10030    2    1    2    0    0  0.00000000000E+00  0.00000000000E+00 -0.29531877875E+03  0.21182325726E+04  0.20975452439E+04 0.  0.
        3    1    3    3  502    0 -0.20732906010E+03  0.56525990460E+03  0.71954153548E+03  0.93821326488E+03  0.10100000352E+00 0. -1.
       -3    1    3    3    0  502  0.20732906010E+03 -0.56525990460E+03 -0.10148603142E+04  0.11800193077E+04  0.10100000352E+00 0.  1.
</event>
<event>
 5   0  0.3108326E-05  0.2097797E+04  0.7818609E-02  0.8562214E-01
        2   -1    0    0  501    0  0.00000000000E+00  0.00000000000E+00  0.15696962837E+04  0.15696962837E+04  0.25500000920E-02 0.  1.
       -2   -1    0    0    0  501  0.00000000000E+00  0.00000000000E+00 -0.70089237774E+03  0.70089237775E+03  0.25500000920E-02 0. -1.
    10030    2    1    2    0    0  0.00000000000E+00  0.00000000000E+00  0.86880390598E+03  0.22705886615E+04  0.20977970928E+04 0.  0.
        5    1    3    3  502    0  0.15384673310E+03 -0.20821582788E+01  0.15574040678E+04  0.15649928668E+04  0.46999998093E+01 0.  1.
       -5    1    3    3    0  502 -0.15384673310E+03  0.20821582788E+01 -0.68860016181E+03  0.70559579471E+03  0.46999998093E+01 0. -1.
</event>
<event>
 5   0  0.1129987E-05  0.2093960E+04  0.7818609E-02  0.8563909E-01
        3   -1    0    0  501    0  0.00000000000E+00  0.00000000000E+00  0.31763327647E+04  0.31763327663E+04  0.10100000352E+00 0. -1.
       -3   -1    0    0    0  501  0.00000000000E+00  0.00000000000E+00 -0.34510455860E+03  0.34510457338E+03  0.10100000352E+00 0.  1.
    10030    2    1    2    0    0  0.00000000000E+00  0.00000000000E+00  0.28312282061E+04  0.35214373397E+04  0.20939598330E+04 0.  0.
        1    1    3    3  502    0 -0.54392735052E+03 -0.27868529025E+02 -0.88116035570E+02  0.55172280477E+03  0.50400001928E-02 0.  1.
       -1    1    3    3    0  502  0.54392735052E+03  0.27868529025E+02  0.29193442417E+04  0.29697145349E+04  0.50400001928E-02 0. -1.
</event>
<event>
 5   0  0.3242231E-05  0.2106661E+04  0.7818609E-02  0.8558315E-01
        2   -1    0    0  501    0  0.00000000000E+00  0.00000000000E+00  0.28603067655E+04  0.28603067655E+04  0.25500000920E-02 0. -1.
       -2   -1    0    0    0  501  0.00000000000E+00  0.00000000000E+00 -0.38789720029E+03  0.38789720030E+03  0.25500000920E-02 0.  1.
    10030    2    1    2    0    0  0.00000000000E+00  0.00000000000E+00  0.24724095652E+04  0.32482039658E+04  0.21066608520E+04 0.  0.
        4    1    3    3  502    0 -0.29907041830E+03  0.29880897353E+03 -0.25134209971E+03  0.49183775958E+03  0.12699999809E+01 0.  1.
       -4    1    3    3    0  502  0.29907041830E+03 -0.29880897353E+03  0.27237516649E+04  0.27563662062E+04  0.12699999809E+01 0. -1.
</event>
<event>
 5   0  0.1466480E-05  0.2134964E+04  0.7818609E-02  0.8545996E-01
       -1   -1    0    0    0  501  0.00000000000E+00  0.00000000000E+00  0.11249419806E+04  0.11249419806E+04  0.50400001928E-02 0.  1.
        1   -1    0    0  501    0  0.00000000000E+00  0.00000000000E+00 -0.10129569176E+04  0.10129569176E+04  0.50400001928E-02 0. -1.
    10030    2    1    2    0    0  0.00000000000E+00  0.00000000000E+00  0.11198506307E+03  0.21378988982E+04  0.21349639446E+04 0.  0.
        3    1    3    3  502    0  0.61534779402E+03  0.28701520299E+03  0.88082817770E+03  0.11121550805E+04  0.10100000352E+00 0.  1.
       -3    1    3    3    0  502 -0.61534779402E+03 -0.28701520299E+03 -0.76884311464E+03  0.10257438177E+04  0.10100000352E+00 0. -1.
</event>
<event>
 5   0  0.1492552E-05  0.2095645E+04  0.7818609E-02  0.8563164E-01
        1   -1    0    0  501    0  0.00000000000E+00  0.00000000000E+00  0.78771883214E+03  0.78771883216E+03  0.50400001928E-02 0. -1.
       -1   -1    0    0    0  501  0.00000000000E+00  0.00000000000E+00 -0.13938121739E+04  0.13938121739E+04  0.50400001928E-02 0.  1.
    10030    2    1    2    0    0  0.00000000000E+00  0.00000000000E+00 -0.60609334171E+03  0.21815310060E+04  0.20956451015E+04 0.  0.
        4    1    3    3  502    0  0.79719640361E+03 -0.55962407500E+02  0.40242699536E+03  0.89476421279E+03  0.12699999809E+01 0. -1.
       -4    1    3    3    0  502 -0.79719640361E+03  0.55962407500E+02 -0.10085203371E+04  0.12867667932E+04  0.12699999809E+01 0.  1.
</event>
<event>
 5   0  0.1492552E-05  0.2112792E+04  0.7818609E-02  0.8555629E-01
        1   -1    0    0  501    0  0.00000000000E+00  0.00000000000E+00  0.11716726460E+04  0.11716726460E+04  0.50400001928E-02 0.  1.
       -1   -1    0    0    0  501  0.00000000000E+00  0.00000000000E+00 -0.95246091866E+03  0.95246091867E+03  0.50400001928E-02 0. -1.
    10030    2    1    2    0    0  0.00000000000E+00  0.00000000000E+00  0.21921172737E+03  0.21241335647E+04  0.21127919016E+04 0.  0.
        4    1    3    3  502    0  0.26556554674E+03  0.50896018095E+03  0.10011612018E+04  0.11540757732E+04  0.12699999809E+01 0.  1.
       -4    1    3    3    0  502 -0.26556554674E+03 -0.50896018095E+03 -0.78194947443E+03  0.97005779151E+03  0.12699999809E+01 0. -1.
</event>
<event>
 5   0  0.1492552E-05  0.2101585E+04  0.7818609E-02  0.8560545E-01
        1   -1    0    0  501    0  0.00000000000E+00  0.00000000000E+00  0.11716090525E+04  0.11716090526E+04  0.50400001928E-02 0. -1.
       -1   -1    0    0    0  501  0.00000000000E+00  0.00000000000E+00 -0.94243477082E+03  0.94243477083E+03  0.50400001928E-02 0.  1.
    10030    2    1    2    0    0  0.00000000000E+00  0.00000000000E+00  0.22917428173E+03  0.21140438234E+04  0.21015852197E+04 0.  0.
        4    1    3    3  502    0  0.50605826889E+03 -0.70605172152E+03 -0.48015338101E+03  0.99254868252E+03  0.12699999809E+01 0.  1.
       -4    1    3    3    0  502 -0.50605826889E+03  0.70605172152E+03  0.70932766274E+03  0.11214951409E+04  0.12699999809E+01 0. -1.
</event>
<event>
 5   0  0.1513292E-05  0.2101025E+04  0.7818609E-02  0.8560792E-01
       -1   -1    0    0    0  501  0.00000000000E+00  0.00000000000E+00  0.60444680306E+03  0.60444680308E+03  0.50400001928E-02 0. -1.
        1   -1    0    0  501    0  0.00000000000E+00  0.00000000000E+00 -0.18257632383E+04  0.18257632383E+04  0.50400001928E-02 0.  1.
    10030    2    1    2    0    0  0.00000000000E+00  0.00000000000E+00 -0.12213164353E+04  0.24302100414E+04  0.21010252284E+04 0.  0.
        1    1    3    3  502    0 -0.91699854648E+03  0.40181039791E+03 -0.97869064514E+03  0.14000618947E+04  0.50400001928E-02 0.  1.
       -1    1    3    3    0  502  0.91699854648E+03 -0.40181039791E+03 -0.24262579014E+03  0.10301481467E+04  0.50400001928E-02 0. -1.
</event>
<event>
 5   0  0.1453430E-05  0.2112230E+04  0.7818609E-02  0.8555875E-01
        1   -1    0    0  501    0  0.00000000000E+00  0.00000000000E+00  0.23695103734E+04  0.23695103734E+04  0.50400001928E-02 0.  1.
       -1   -1    0    0    0  501  0.00000000000E+00  0.00000000000E+00 -0.47072135164E+03  0.47072135167E+03  0.50400001928E-02 0. -1.
    10030    2    1    2    0    0  0.00000000000E+00  0.00000000000E+00  0.18987890218E+04  0.28402317251E+04  0.21122302202E+04 0.  0.
        5    1    3    3  502    0  0.89864439037E+03  0.52713753977E+03  0.11819908210E+04  0.15756142032E+04  0.46999998093E+01 0. -1.
       -5    1    3    3    0  502 -0.89864439037E+03 -0.52713753977E+03  0.71679820072E+03  0.12646175219E+04  0.46999998093E+01 0.  1.
</event>
<event>
 5   0  0.3242231E-05  0.2106571E+04  0.7818609E-02  0.8558354E-01
        2   -1    0    0  501    0  0.00000000000E+00  0.00000000000E+00  0.16432274106E+04  0.16432274106E+04  0.25500000920E-02 0. -1.
       -2   -1    0    0    0  501  0.00000000000E+00  0.00000000000E+00 -0.67514107964E+03  0.67514107965E+03  0.25500000920E-02 0.  1.
    10030    2    1    2    0    0  0.00000000000E+00  0.00000000000E+00  0.96808633095E+03  0.23183684902E+04  0.21065709844E+04 0.  0.
        4    1    3    3  502    0  0.32228313177E+03  0.24762133208E+03 -0.58536707626E+03  0.71262821162E+03  0.12699999809E+01 0.  1.
       -4    1    3    3    0  502 -0.32228313177E+03 -0.24762133208E+03  0.15534534072E+04  0.16057402786E+04  0.12699999809E+01 0. -1.
</event>
<event>
 5   0  0.1453430E-05  0.2095887E+04  0.7818609E-02  0.8563057E-01
        1   -1    0    0  501    0  0.00000000000E+00  0.00000000000E+00  0.23312674149E+04  0.23312674149E+04  0.50400001928E-02 0. -1.
       -1   -1    0    0    0  501  0.00000000000E+00  0.00000000000E+00 -0.47106805457E+03  0.47106805460E+03  0.50400001928E-02 0.  1.
    10030    2    1    2    0    0  0.00000000000E+00  0.00000000000E+00  0.18601993603E+04  0.28023354695E+04  0.20958870254E+04 0.  0.
        5    1    3    3  502    0  0.61840298294E+03 -0.21900559071E+03 -0.16251806317E+03  0.67588453816E+03  0.46999998093E+01 0.  1.
       -5    1    3    3    0  502 -0.61840298294E+03  0.21900559071E+03  0.20227174235E+04  0.21264509313E+04  0.46999998093E+01 0. -1.
</event>
<event>
 5   0  0.3242231E-05  0.2087280E+04  0.7818609E-02  0.8566867E-01
       -2   -1    0    0    0  501  0.00000000000E+00  0.00000000000E+00  0.10700751096E+04  0.10700751096E+04  0.25500000920E-02 0. -1.
        2   -1    0    0  501    0  0.00000000000E+00  0.00000000000E+00 -0.10178580284E+04  0.10178580284E+04  0.25500000920E-02 0.  1.
    10030    2    1    2    0    0  0.00000000000E+00  0.00000000000E+00  0.52217081186E+02  0.20879331380E+04  0.20872800879E+04 0.  0.
        4    1    3    3  502    0 -0.93856650067E+03  0.35437493362E+03  0.31376460625E+03  0.10511605542E+04  0.12699999809E+01 0. -1.
       -4    1    3    3    0  502  0.93856650067E+03 -0.35437493362E+03 -0.26154752506E+03  0.10367725838E+04  0.12699999809E+01 0.  1.
</event>
<event>
 5   0  0.1513292E-05  0.2109465E+04  0.7818609E-02  0.8557085E-01
       -1   -1    0    0    0  501  0.00000000000E+00  0.00000000000E+00  0.70890153950E+03  0.70890153952E+03  0.50400001928E-02 0.  1.
        1   -1    0    0  501    0  0.00000000000E+00  0.00000000000E+00 -0.15692743032E+04  0.15692743032E+04  0.50400001928E-02 0. -1.
    10030    2    1    2    0    0  0.00000000000E+00  0.00000000000E+00 -0.86037276372E+03  0.22781758428E+04  0.21094653062E+04 0.  0.
        1    1    3    3  502    0 -0.73109922029E+03  0.69972559265E+02 -0.12477365756E+04  0.14478428061E+04  0.50400001928E-02 0. -1.
       -1    1    3    3    0  502  0.73109922029E+03 -0.69972559265E+02  0.38736381191E+03  0.83033303666E+03  0.50400001928E-02 0.  1.
</event>
<event>
 5   0  0.3130517E-05  0.2103767E+04  0.7818609E-02  0.8559586E-01
       -2   -1    0    0    0  501  0.00000000000E+00  0.00000000000E+00  0.68010242985E+03  0.68010242985E+03  0.25500000920E-02 0.  1.
        2   -1    0    0  501    0  0.00000000000E+00  0.00000000000E+00 -0.16269001290E+04  0.16269001290E+04  0.25500000920E-02 0. -1.
    10030    2    1    2    0    0  0.00000000000E+00  0.00000000000E+00 -0.94679769911E+03  0.23070025588E+04  0.21037668415E+04 0.  0.
        1    1    3    3  502    0 -0.13544096464E+03 -0.65872935073E+03 -0.13603556347E+04  0.15175098238E+04  0.50400001928E-02 0. -1.
       -1    1    3    3    0  502  0.13544096464E+03  0.65872935073E+03  0.41355793564E+03  0.78949273497E+03  0.50400001928E-02 0.  1.
</event>
<event>
 5   0  0.1466480E-05  0.2100855E+04  0.7818609E-02  0.8560867E-01
       -1   -1    0    0    0  501  0.00000000000E+00  0.00000000000E+00  0.81131987482E+03  0.81131987484E+03  0.50400001928E-02 0. -1.
        1   -1    0    0  501    0  0.00000000000E+00  0.00000000000E+00 -0.13600036328E+04  0.13600036329E+04  0.50400001928E-02 0.  1.
    10030    2    1    2    0    0  0.00000000000E+00  0.00000000000E+00 -0.54868375802E+03  0.21713235077E+04  0.21008550423E+04 0.  0.
        3    1    3    3  502    0  0.95420315531E+03 -0.57720297135E+02 -0.72433394695E+03  0.11993727407E+04  0.10100000352E+00 0.  1.
       -3    1    3    3    0  502 -0.95420315531E+03  0.57720297135E+02  0.17565018893E+03  0.97195076696E+03  0.10100000352E+00 0. -1.
</event>
<event>
 5   0  0.3279789E-05  0.2095094E+04  0.7818609E-02  0.8563408E-01
        2   -1    0    0  501    0  0.00000000000E+00  0.00000000000E+00  0.57421689425E+03  0.57421689425E+03  0.25500000920E-02 0.  1.
       -2   -1    0    0    0  501  0.00000000000E+00  0.00000000000E+00 -0.19110450810E+04  0.19110450810E+04  0.25500000920E-02 0. -1.
    10030    2    1    2    0    0  0.00000000000E+00  0.00000000000E+00 -0.13368281867E+04  0.24852619752E+04  0.20950936697E+04 0.  0.
        2    1    3    3  502    0  0.34400714880E+03 -0.56319700419E+03  0.29661303681E+03  0.72354065371E+03  0.25500000920E-02 0.  1.
       -2    1    3    3    0  502 -0.34400714880E+03  0.56319700419E+03 -0.16334412235E+04  0.17617213215E+04  0.25500000920E-02 0. -1.
</event>
<event>
 5   0  0.1513292E-05  0.2097430E+04  0.7818609E-02  0.8562377E-01
       -1   -1    0    0    0  501  0.00000000000E+00  0.00000000000E+00  0.10088453527E+04  0.10088453527E+04  0.50400001928E-02 0. -1.
        1   -1    0    0  501    0  0.00000000000E+00  0.00000000000E+00 -0.10901598038E+04  0.10901598038E+04  0.50400001928E-02 0.  1.
    10030    2    1    2    0    0  0.00000000000E+00  0.00000000000E+00 -0.81314451087E+02  0.20990051565E+04  0.20974295238E+04 0.  0.
        1    1    3    3  502    0 -0.96599306605E+03 -0.31087121519E+03  0.22415284766E+03  0.10392439633E+04  0.50400001928E-02 0.  1.
       -1    1    3    3    0  502  0.96599306605E+03  0.31087121519E+03 -0.30546729875E+03  0.10597611933E+04  0.50400001928E-02 0. -1.
</event>
<event>
 5   0  0.1466480E-05  0.2102668E+04  0.7818609E-02  0.8560069E-01
       -1   -1    0    0    0  501  0.00000000000E+00  0.00000000000E+00  0.12308617196E+04  0.12308617196E+04  0.50400001928E-02 0.  1.
        1   -1    0    0  501    0  0.00000000000E+00  0.00000000000E+00 -0.89799156299E+03  0.89799156300E+03  0.50400001928E-02 0. -1.
    10030    2    1    2    0    0  0.00000000000E+00  0.00000000000E+00  0.33287015663E+03  0.21288532826E+04  0.21026682472E+04 0.  0.
        3    1    3    3  502    0 -0.55246845725E+03  0.50031442315E+03  0.91713178527E+03  0.11818065155E+04  0.10100000352E+00 0.  1.
       -3    1    3    3    0  502  0.55246845725E+03 -0.50031442315E+03 -0.58426162864E+03  0.94704676715E+03  0.10100000352E+00 0. -1.
</event>
<event>
 5   0  0.1513292E-05  0.2098282E+04  0.7818609E-02  0.8562000E-01
       -1   -1    0    0    0  501  0.00000000000E+00  0.00000000000E+00  0.10748399296E+04  0.10748399296E+04  0.50400001928E-02 0.  1.
        1   -1    0    0  501    0  0.00000000000E+00  0.00000000000E+00 -0.10240567234E+04  0.10240567234E+04  0.50400001928E-02 0. -1.
    10030    2    1    2    0    0  0.00000000000E+00  0.00000000000E+00  0.50783206225E+02  0.20988966530E+04  0.20982822084E+04 0.  0.
        1    1    3    3  502    0 -0.73602488881E+03 -0.61685255199E+03  0.44795743235E+03  0.10596723876E+04  0.50400001928E-02 0.  1.
       -1    1    3    3    0  502  0.73602488881E+03  0.61685255199E+03 -0.39717422613E+03  0.10392242654E+04  0.50400001928E-02 0. -1.
</event>
<event>
 5   0  0.3108326E-05  0.2099587E+04  0.7818609E-02  0.8561426E-01
       -2   -1    0    0    0  501  0.00000000000E+00  0.00000000000E+00  0.53986830437E+03  0.53986830437E+03  0.25500000920E-02 0.  1.
        2   -1    0    0  501    0  0.00000000000E+00  0.00000000000E+00 -0.20413606384E+04  0.20413606384E+04  0.25500000920E-02 0. -1.
    10030    2    1    2    0    0  0.00000000000E+00  0.00000000000E+00 -0.15014923340E+04  0.25812289428E+04  0.20995865369E+04 0.  0.
        5    1    3    3  502    0  0.66958344938E+03 -0.24088924024E+03  0.19810291117E+03  0.73867210260E+03  0.46999998093E+01 0.  1.
       -5    1    3    3    0  502 -0.66958344938E+03  0.24088924024E+03 -0.16995952452E+04  0.18425568402E+04  0.46999998093E+01 0. -1.
</event>
<event>
 5   0  0.3257130E-05  0.2100085E+04  0.7818609E-02  0.8561206E-01
       -2   -1    0    0    0  501  0.00000000000E+00  0.00000000000E+00  0.60233618726E+03  0.60233618726E+03  0.25500000920E-02 0. -1.
        2   -1    0    0  501    0  0.00000000000E+00  0.00000000000E+00 -0.18305213139E+04  0.18305213139E+04  0.25500000920E-02 0.  1.
    10030    2    1    2    0    0  0.00000000000E+00  0.00000000000E+00 -0.12281851267E+04  0.24328575012E+04  0.21000849782E+04 0.  0.
        3    1    3    3  502    0  0.38662718782E+03 -0.77699289469E+03  0.70662827825E+02  0.87074208937E+03  0.10100000352E+00 0. -1.
       -3    1    3    3    0  502 -0.38662718782E+03  0.77699289469E+03 -0.12988479545E+04  0.15621154118E+04  0.10100000352E+00 0.  1.
</event>
<event>
 5   0  0.3130517E-05  0.2144072E+04  0.7818609E-02  0.8542074E-01
       -2   -1    0    0    0  501  0.00000000000E+00  0.00000000000E+00  0.51991836550E+03  0.51991836550E+03  0.25500000920E-02 0. -1.
        2   -1    0    0  501    0  0.00000000000E+00  0.00000000000E+00 -0.22104650060E+04  0.22104650060E+04  0.25500000920E-02 0.  1.
    10030    2    1    2    0    0  0.00000000000E+00  0.00000000000E+00 -0.16905466405E+04  0.27303833715E+04  0.21440721564E+04 0.  0.
        1    1    3    3  502    0 -0.14485856025E+03  0.96870775590E+03 -0.29035781840E+03  0.10216097012E+04  0.50400001928E-02 0. -1.
       -1    1    3    3    0  502  0.14485856025E+03 -0.96870775590E+03 -0.14001888221E+04  0.17087736703E+04  0.50400001928E-02 0.  1.
</event>
<event>
 5   0  0.1435410E-05  0.2101490E+04  0.7818609E-02  0.8560587E-01
       -1   -1    0    0    0  501  0.00000000000E+00  0.00000000000E+00  0.52574354179E+03  0.52574354182E+03  0.50400001928E-02 0.  1.
        1   -1    0    0  501    0  0.00000000000E+00  0.00000000000E+00 -0.21000075684E+04  0.21000075684E+04  0.50400001928E-02 0. -1.
    10030    2    1    2    0    0  0.00000000000E+00  0.00000000000E+00 -0.15742640266E+04  0.26257511102E+04  0.21014903443E+04 0.  0.
        2    1    3    3  502    0  0.73958925464E+03  0.74292870301E+03 -0.87662495783E+03  0.13665308778E+04  0.25500000920E-02 0.  1.
       -2    1    3    3    0  502 -0.73958925464E+03 -0.74292870301E+03 -0.69763906873E+03  0.12592202324E+04  0.25500000920E-02 0. -1.
</event>
<event>
 5   0  0.1513292E-05  0.2102424E+04  0.7818609E-02  0.8560176E-01
       -1   -1    0    0    0  501  0.00000000000E+00  0.00000000000E+00  0.11040315154E+04  0.11040315154E+04  0.50400001928E-02 0.  1.
        1   -1    0    0  501    0  0.00000000000E+00  0.00000000000E+00 -0.10009199528E+04  0.10009199528E+04  0.50400001928E-02 0. -1.
    10030    2    1    2    0    0  0.00000000000E+00  0.00000000000E+00  0.10311156259E+03  0.21049514682E+04  0.21024244788E+04 0.  0.
        1    1    3    3  502    0  0.82919527302E+03  0.10117377615E+03 -0.58736972171E+03  0.10211778120E+04  0.50400001928E-02 0. -1.
       -1    1    3    3    0  502 -0.82919527302E+03 -0.10117377615E+03  0.69048128430E+03  0.10837736562E+04  0.50400001928E-02 0.  1.
</event>
<event>
 5   0  0.3108326E-05  0.2100955E+04  0.7818609E-02  0.8560823E-01
       -2   -1    0    0    0  501  0.00000000000E+00  0.00000000000E+00  0.48055758974E+03  0.48055758974E+03  0.25500000920E-02 0. -1.
        2   -1    0    0  501    0  0.00000000000E+00  0.00000000000E+00 -0.22962962796E+04  0.22962962796E+04  0.25500000920E-02 0.  1.
    10030    2    1    2    0    0  0.00000000000E+00  0.00000000000E+00 -0.18157386899E+04  0.27768538694E+04  0.21009546454E+04 0.  0.
        5    1    3    3  502    0 -0.99756379943E+03  0.76175038420E+02 -0.13311147057E+04  0.16651800564E+04  0.46999998093E+01 0.  1.
       -5    1    3    3    0  502  0.99756379943E+03 -0.76175038420E+02 -0.48462398416E+03  0.11116738130E+04  0.46999998093E+01 0. -1.
</event>
<event>
 5   0  0.1453430E-05  0.2105826E+04  0.7818609E-02  0.8558681E-01
       -1   -1    0    0    0  501  0.00000000000E+00  0.00000000000E+00  0.98958643109E+03  0.98958643111E+03  0.50400001928E-02 0.  1.
        1   -1    0    0  501    0  0.00000000000E+00  0.00000000000E+00 -0.11202918719E+04  0.11202918719E+04  0.50400001928E-02 0. -1.
    10030    2    1    2    0    0  0.00000000000E+00  0.00000000000E+00 -0.13070544082E+03  0.21098783030E+04  0.21058258573E+04 0.  0.
        5    1    3    3  502    0  0.64498316228E+03 -0.14778790028E+02  0.76834341896E+03  0.10032922763E+04  0.46999998093E+01 0.  1.
       -5    1    3    3    0  502 -0.64498316228E+03  0.14778790028E+02 -0.89904885977E+03  0.11065860267E+04  0.46999998093E+01 0. -1.
</event>
<event>
 5   0  0.1492552E-05  0.2100341E+04  0.7818609E-02  0.8561093E-01
        1   -1    0    0  501    0  0.00000000000E+00  0.00000000000E+00  0.12896199045E+04  0.12896199045E+04  0.50400001928E-02 0. -1.
       -1   -1    0    0    0  501  0.00000000000E+00  0.00000000000E+00 -0.85518110750E+03  0.85518110752E+03  0.50400001928E-02 0.  1.
    10030    2    1    2    0    0  0.00000000000E+00  0.00000000000E+00  0.43443879700E+03  0.21448010120E+04  0.21003414753E+04 0.  0.
        4    1    3    3  502    0 -0.88517066813E+03 -0.39970256533E+03 -0.19069553755E+03  0.98977555708E+03  0.12699999809E+01 0.  1.
       -4    1    3    3    0  502  0.88517066813E+03  0.39970256533E+03  0.62513433456E+03  0.11550254550E+04  0.12699999809E+01 0. -1.
</event>
<event>
 5   0  0.3108326E-05  0.2094373E+04  0.7818609E-02  0.8563726E-01
        2   -1    0    0  501    0  0.00000000000E+00  0.00000000000E+00  0.12990703324E+04  0.12990703324E+04  0.25500000920E-02 0. -1.
       -2   -1    0    0    0  501  0.00000000000E+00  0.00000000000E+00 -0.84414155519E+03  0.84414155519E+03  0.25500000920E-02 0.  1.
    10030    2    1    2    0    0  0.00000000000E+00  0.00000000000E+00  0.45492877725E+03  0.21432118876E+04  0.20943726991E+04 0.  0.
        5    1    3    3  502    0  0.83190144660E+03 -0.41523717659E+03 -0.26553258116E+03  0.96695996366E+03  0.46999998093E+01 0.  1.
       -5    1    3    3    0  502 -0.83190144660E+03  0.41523717659E+03  0.72046135841E+03  0.11762519240E+04  0.46999998093E+01 0. -1.
</event>
<event>
 5   0  0.1129987E-05  0.2097159E+04  0.7818609E-02  0.8562496E-01
       -3   -1    0    0    0  501  0.00000000000E+00  0.00000000000E+00  0.10919253573E+04  0.10919253620E+04  0.10100000352E+00 0. -1.
        3   -1    0    0  501    0  0.00000000000E+00  0.00000000000E+00 -0.10069542693E+04  0.10069542744E+04  0.10100000352E+00 0.  1.
    10030    2    1    2    0    0  0.00000000000E+00  0.00000000000E+00  0.84971087974E+02  0.20988796364E+04  0.20971589454E+04 0.  0.
        2    1    3    3  502    0  0.96946070608E+03  0.39904347405E+03  0.21752472759E+02  0.10486004601E+04  0.25500000920E-02 0. -1.
       -2    1    3    3    0  502 -0.96946070608E+03 -0.39904347405E+03  0.63218615215E+02  0.10502791763E+04  0.25500000920E-02 0.  1.
</event>
<event>
 5   0  0.3108326E-05  0.2124324E+04  0.7818609E-02  0.8550604E-01
        2   -1    0    0  501    0  0.00000000000E+00  0.00000000000E+00  0.92594252186E+03  0.92594252186E+03  0.25500000920E-02 0. -1.
       -2   -1    0    0    0  501  0.00000000000E+00  0.00000000000E+00 -0.12184210228E+04  0.12184210228E+04  0.25500000920E-02 0.  1.
    10030    2    1    2    0    0  0.00000000000E+00  0.00000000000E+00 -0.29247850093E+03  0.21443635447E+04  0.21243237367E+04 0.  0.
        5    1    3    3  502    0 -0.49756301032E+03 -0.48942947523E+03  0.66197323888E+03  0.96194637036E+03  0.46999998093E+01 0. -1.
       -5    1    3    3    0  502  0.49756301032E+03  0.48942947523E+03 -0.95445173981E+03  0.11824171743E+04  0.46999998093E+01 0.  1.
</event>
<event>
 5   0  0.3242231E-05  0.2091084E+04  0.7818609E-02  0.8565181E-01
        2   -1    0    0  501    0  0.00000000000E+00  0.00000000000E+00  0.20777318255E+04  0.20777318255E+04  0.25500000920E-02 0.  1.
       -2   -1    0    0    0  501  0.00000000000E+00  0.00000000000E+00 -0.52613068435E+03  0.52613068435E+03  0.25500000920E-02 0. -1.
    10030    2    1    2    0    0  0.00000000000E+00  0.00000000000E+00  0.15516011412E+04  0.26038625099E+04  0.20910843764E+04 0.  0.
        4    1    3    3  502    0  0.30510352497E+03 -0.99448672661E+03  0.90678483921E+03  0.13799827419E+04  0.12699999809E+01 0. -1.
       -4    1    3    3    0  502 -0.30510352497E+03  0.99448672661E+03  0.64481630196E+03  0.12238797680E+04  0.12699999809E+01 0.  1.
</event>
<event>
 5   0  0.3130517E-05  0.2100843E+04  0.7818609E-02  0.8560872E-01
        2   -1    0    0  501    0  0.00000000000E+00  0.00000000000E+00  0.76629497696E+03  0.76629497696E+03  0.25500000920E-02 0.  1.
       -2   -1    0    0    0  501  0.00000000000E+00  0.00000000000E+00 -0.14398961308E+04  0.14398961308E+04  0.25500000920E-02 0. -1.
    10030    2    1    2    0    0  0.00000000000E+00  0.00000000000E+00 -0.67360115387E+03  0.22061911078E+04  0.21008428522E+04 0.  0.
        1    1    3    3  502    0 -0.88505497038E+03 -0.65307058424E+02  0.25333820191E+03  0.92291254030E+03  0.50400001928E-02 0.  1.
       -1    1    3    3    0  502  0.88505497038E+03  0.65307058424E+02 -0.92693935578E+03  0.12832785675E+04  0.50400001928E-02 0. -1.
</event>
<event>
 5   0  0.3130517E-05  0.2098805E+04  0.7818609E-02  0.8561770E-01
        2   -1    0    0  501    0  0.00000000000E+00  0.00000000000E+00  0.22910174076E+04  0.22910174076E+04  0.25500000920E-02 0.  1.
       -2   -1    0    0    0  501  0.00000000000E+00  0.00000000000E+00 -0.48067991641E+03  0.48067991642E+03  0.25500000920E-02 0. -1.
    10030    2    1    2    0    0  0.00000000000E+00  0.00000000000E+00  0.18103374912E+04  0.27716973240E+04  0.20988054278E+04 0.  0.
        1    1    3    3  502    0  0.46289580999E+03 -0.63428374250E+03 -0.14203023808E+02  0.78535986835E+03  0.50400001928E-02 0. -1.
       -1    1    3    3    0  502 -0.46289580999E+03  0.63428374250E+03  0.18245405150E+04  0.19863374557E+04  0.50400001928E-02 0.  1.
</event>
<event>
 5   0  0.1435410E-05  0.2073451E+04  0.7818609E-02  0.8573030E-01
       -1   -1    0    0    0  501  0.00000000000E+00  0.00000000000E+00  0.12728712625E+04  0.12728712625E+04  0.50400001928E-02 0.  1.
        1   -1    0    0  501    0  0.00000000000E+00  0.00000000000E+00 -0.84438974459E+03  0.84438974461E+03  0.50400001928E-02 0. -1.
    10030    2    1    2    0    0  0.00000000000E+00  0.00000000000E+00  0.42848151790E+03  0.21172610071E+04  0.20734506893E+04 0.  0.
        2    1    3    3  502    0  0.90054827024E+03 -0.48818171676E+03  0.37727280208E+03  0.10916241765E+04  0.25500000920E-02 0.  1.
       -2    1    3    3    0  502 -0.90054827024E+03  0.48818171676E+03  0.51208715814E+02  0.10256368306E+04  0.25500000920E-02 0. -1.
</event>
<event>
 5   0  0.3130517E-05  0.2099442E+04  0.7818609E-02  0.8561489E-01
        2   -1    0    0  501    0  0.00000000000E+00  0.00000000000E+00  0.24554043486E+04  0.24554043486E+04  0.25500000920E-02 0.  1.
       -2   -1    0    0    0  501  0.00000000000E+00  0.00000000000E+00 -0.44877112820E+03  0.44877112821E+03  0.25500000920E-02 0. -1.
    10030    2    1    2    0    0  0.00000000000E+00  0.00000000000E+00  0.20066332204E+04  0.29041754768E+04  0.20994423828E+04 0.  0.
        1    1    3    3  502    0  0.62172227378E+03  0.46711442245E+03  0.19787009234E+04  0.21260272373E+04  0.50400001928E-02 0.  1.
       -1    1    3    3    0  502 -0.62172227378E+03 -0.46711442245E+03  0.27932296957E+02  0.77814823949E+03  0.50400001928E-02 0. -1.
</event>
<event>
 5   0  0.1453430E-05  0.2100762E+04  0.7818609E-02  0.8560908E-01
        1   -1    0    0  501    0  0.00000000000E+00  0.00000000000E+00  0.19898977947E+04  0.19898977947E+04  0.50400001928E-02 0. -1.
       -1   -1    0    0    0  501  0.00000000000E+00  0.00000000000E+00 -0.55445046528E+03  0.55445046531E+03  0.50400001928E-02 0.  1.
    10030    2    1    2    0    0  0.00000000000E+00  0.00000000000E+00  0.14354473294E+04  0.25443482600E+04  0.21007615364E+04 0.  0.
        5    1    3    3  502    0 -0.71993337529E+03 -0.10107493152E+03  0.16359338531E+04  0.17902016279E+04  0.46999998093E+01 0. -1.
       -5    1    3    3    0  502  0.71993337529E+03  0.10107493152E+03 -0.20048652368E+03  0.75414663217E+03  0.46999998093E+01 0.  1.
</event>
<event>
 5   0  0.1466480E-05  0.2102297E+04  0.7818609E-02  0.8560232E-01
        1   -1    0    0  501    0  0.00000000000E+00  0.00000000000E+00  0.14188218168E+04  0.14188218168E+04  0.50400001928E-02 0. -1.
       -1   -1    0    0    0  501  0.00000000000E+00  0.00000000000E+00 -0.77875420267E+03  0.77875420269E+03  0.50400001928E-02 0.  1.
    10030    2    1    2    0    0  0.00000000000E+00  0.00000000000E+00  0.64006761414E+03  0.21975760195E+04  0.21022972699E+04 0.  0.
        3    1    3    3  502    0 -0.34243041407E+03 -0.62131754033E+03  0.11308281047E+04  0.13349405556E+04  0.10100000352E+00 0. -1.
       -3    1    3    3    0  502  0.34243041407E+03  0.62131754033E+03 -0.49076049052E+03  0.86263546395E+03  0.10100000352E+00 0.  1.
</event>
<event>
 5   0  0.3242231E-05  0.2097592E+04  0.7818609E-02  0.8562305E-01
       -2   -1    0    0    0  501  0.00000000000E+00  0.00000000000E+00  0.77000991949E+03  0.77000991949E+03  0.25500000920E-02 0. -1.
        2   -1    0    0  501    0  0.00000000000E+00  0.00000000000E+00 -0.14285179473E+04  0.14285179473E+04  0.25500000920E-02 0.  1.
    10030    2    1    2    0    0  0.00000000000E+00  0.00000000000E+00 -0.65850802779E+03  0.21985278668E+04  0.20975919427E+04 0.  0.
        4    1    3    3  502    0  0.27524859885E+03 -0.87816552566E+03 -0.85648530441E+03  0.12571814393E+04  0.12699999809E+01 0.  1.
       -4    1    3    3    0  502 -0.27524859885E+03  0.87816552566E+03  0.19797727662E+03  0.94134642751E+03  0.12699999809E+01 0. -1.
</event>
<event>
 5   0  0.1492552E-05  0.2100282E+04  0.7818609E-02  0.8561119E-01
       -1   -1    0    0    0  501  0.00000000000E+00  0.00000000000E+00  0.11044477067E+04  0.11044477067E+04  0.50400001928E-02 0.  1.
        1   -1    0    0  501    0  0.00000000000E+00  0.00000000000E+00 -0.99850456073E+03  0.99850456074E+03  0.50400001928E-02 0. -1.
    10030    2    1    2    0    0  0.00000000000E+00  0.00000000000E+00  0.10594314593E+03  0.21029522674E+04  0.21002819546E+04 0.  0.
        4    1    3    3  502    0 -0.75227120875E+03  0.65029483764E+03  0.39103839284E+03  0.10685073631E+04  0.12699999809E+01 0.  1.
       -4    1    3    3    0  502  0.75227120875E+03 -0.65029483764E+03 -0.28509524691E+03  0.10344449043E+04  0.12699999809E+01 0. -1.
</event>
<event>
 5   0  0.3257130E-05  0.2085623E+04  0.7818609E-02  0.8567603E-01
        2   -1    0    0  501    0  0.00000000000E+00  0.00000000000E+00  0.11799268565E+04  0.11799268565E+04  0.25500000920E-02 0.  1.
       -2   -1    0    0    0  501  0.00000000000E+00  0.00000000000E+00 -0.92163027242E+03  0.92163027242E+03  0.25500000920E-02 0. -1.
    10030    2    1    2    0    0  0.00000000000E+00  0.00000000000E+00  0.25829658413E+03  0.21015571290E+04  0.20856234658E+04 0.  0.
        3    1    3    3  502    0  0.78110779287E+03  0.52322253215E+03  0.58377710346E+03  0.11066557364E+04  0.10100000352E+00 0.  1.
       -3    1    3    3    0  502 -0.78110779287E+03 -0.52322253215E+03 -0.32548051933E+03  0.99490139255E+03  0.10100000352E+00 0. -1.
</event>
<event>
 5   0  0.3257130E-05  0.2086049E+04  0.7818609E-02  0.8567414E-01
        2   -1    0    0  501    0  0.00000000000E+00  0.00000000000E+00  0.11448473766E+04  0.11448473766E+04  0.25500000920E-02 0.  1.
       -2   -1    0    0    0  501  0.00000000000E+00  0.00000000000E+00 -0.95025773515E+03  0.95025773515E+03  0.25500000920E-02 0. -1.
    10030    2    1    2    0    0  0.00000000000E+00  0.00000000000E+00  0.19458964149E+03  0.20951051118E+04  0.20860489690E+04 0.  0.
        3    1    3    3  502    0 -0.21379341192E+03  0.85951696763E+03 -0.45593500259E+03  0.99616955255E+03  0.10100000352E+00 0. -1.
       -3    1    3    3    0  502  0.21379341192E+03 -0.85951696763E+03  0.65052464409E+03  0.10989355593E+04  0.10100000352E+00 0.  1.
</event>
<event>
 5   0  0.3257130E-05  0.2096950E+04  0.7818609E-02  0.8562588E-01
        2   -1    0    0  501    0  0.00000000000E+00  0.00000000000E+00  0.13799289715E+04  0.13799289715E+04  0.25500000920E-02 0.  1.
       -2   -1    0    0    0  501  0.00000000000E+00  0.00000000000E+00 -0.79663533062E+03  0.79663533063E+03  0.25500000920E-02 0. -1.
    10030    2    1    2    0    0  0.00000000000E+00  0.00000000000E+00  0.58329364092E+03  0.21765643022E+04  0.20969503308E+04 0.  0.
        3    1    3    3  502    0  0.60027045840E+03  0.42587862891E+03  0.10667256645E+04  0.12959941679E+04  0.10100000352E+00 0.  1.
       -3    1    3    3    0  502 -0.60027045840E+03 -0.42587862891E+03 -0.48343202354E+03  0.88057013428E+03  0.10100000352E+00 0. -1.
</event>
<event>
 5   0  0.1435410E-05  0.2129461E+04  0.7818609E-02  0.8548375E-01
       -1   -1    0    0    0  501  0.00000000000E+00  0.00000000000E+00  0.61413910960E+03  0.61413910962E+03  0.50400001928E-02 0.  1.
        1   -1    0    0  501    0  0.00000000000E+00  0.00000000000E+00 -0.18459191816E+04  0.18459191816E+04  0.50400001928E-02 0. -1.
    10030    2    1    2    0    0  0.00000000000E+00  0.00000000000E+00 -0.12317800720E+04  0.24600582912E+04  0.21294611174E+04 0.  0.
        2    1    3    3  502    0  0.80321472766E+03  0.94536931516E+02  0.18412320266E+03  0.82945312339E+03  0.25500000920E-02 0.  1.
       -2    1    3    3    0  502 -0.80321472766E+03 -0.94536931516E+02 -0.14159032746E+04  0.16306051678E+04  0.25500000920E-02 0. -1.
</event>
<event>
 5   0  0.3108326E-05  0.2099268E+04  0.7818609E-02  0.8561566E-01
        2   -1    0    0  501    0  0.00000000000E+00  0.00000000000E+00  0.12298051898E+04  0.12298051898E+04  0.25500000920E-02 0.  1.
       -2   -1    0    0    0  501  0.00000000000E+00  0.00000000000E+00 -0.89585876725E+03  0.89585876725E+03  0.25500000920E-02 0. -1.
    10030    2    1    2    0    0  0.00000000000E+00  0.00000000000E+00  0.33394642259E+03  0.21256639571E+04  0.20992682166E+04 0.  0.
        5    1    3    3  502    0  0.43849940914E+03 -0.18057695239E+03  0.11151337532E+04  0.12117900582E+04  0.46999998093E+01 0.  1.
       -5    1    3    3    0  502 -0.43849940914E+03  0.18057695239E+03 -0.78118733064E+03  0.91387389890E+03  0.46999998093E+01 0. -1.
</event>
<event>
 5   0  0.3108326E-05  0.2102207E+04  0.7818609E-02  0.8560272E-01
       -2   -1    0    0    0  501  0.00000000000E+00  0.00000000000E+00  0.40222165219E+03  0.40222165220E+03  0.25500000920E-02 0.  1.
        2   -1    0    0  501    0  0.00000000000E+00  0.00000000000E+00 -0.27467900710E+04  0.27467900710E+04  0.25500000920E-02 0. -1.
    10030    2    1    2    0    0  0.00000000000E+00  0.00000000000E+00 -0.23445684188E+04  0.31490117232E+04  0.21022068791E+04 0.  0.
        5    1    3    3  502    0  0.83245470000E+03 -0.61145135135E+03 -0.14640694564E+04  0.17917519487E+04  0.46999998093E+01 0. -1.
       -5    1    3    3    0  502 -0.83245470000E+03  0.61145135135E+03 -0.88049896243E+03  0.13572597745E+04  0.46999998093E+01 0.  1.
</event>
<event>
 5   0  0.3242231E-05  0.2098881E+04  0.7818609E-02  0.8561736E-01
       -2   -1    0    0    0  501  0.00000000000E+00  0.00000000000E+00  0.92917468502E+03  0.92917468503E+03  0.25500000920E-02 0.  1.
        2   -1    0    0  501    0  0.00000000000E+00  0.00000000000E+00 -0.11852727844E+04  0.11852727844E+04  0.25500000920E-02 0. -1.
    10030    2    1    2    0    0  0.00000000000E+00  0.00000000000E+00 -0.25609809938E+03  0.21144474694E+04  0.20988810982E+04 0.  0.
        4    1    3    3  502    0  0.49622397308E+03  0.35707871971E+03  0.73126034961E+03  0.95314571570E+03  0.12699999809E+01 0.  1.
       -4    1    3    3    0  502 -0.49622397308E+03 -0.35707871971E+03 -0.98735844899E+03  0.11613017537E+04  0.12699999809E+01 0. -1.
</event>
<event>
 5   0  0.3242231E-05  0.2099739E+04  0.7818609E-02  0.8561358E-01
        2   -1    0    0  501    0  0.00000000000E+00  0.00000000000E+00  0.17849124482E+04  0.17849124482E+04  0.25500000920E-02 0. -1.
       -2   -1    0    0    0  501  0.00000000000E+00  0.00000000000E+00 -0.61752401042E+03  0.61752401042E+03  0.25500000920E-02 0.  1.
    10030    2    1    2    0    0  0.00000000000E+00  0.00000000000E+00  0.11673884377E+04  0.24024364586E+04  0.20997393107E+04 0.  0.
        4    1    3    3  502    0  0.44740631572E+03  0.86779960198E+03  0.10253102803E+04  0.14158076650E+04  0.12699999809E+01 0. -1.
       -4    1    3    3    0  502 -0.44740631572E+03 -0.86779960198E+03  0.14207815742E+03  0.98662879355E+03  0.12699999809E+01 0.  1.
</event>
<event>
 5   0  0.1435410E-05  0.2092754E+04  0.7818609E-02  0.8564442E-01
       -1   -1    0    0    0  501  0.00000000000E+00  0.00000000000E+00  0.95081781345E+03  0.95081781346E+03  0.50400001928E-02 0.  1.
        1   -1    0    0  501    0  0.00000000000E+00  0.00000000000E+00 -0.11515404945E+04  0.11515404945E+04  0.50400001928E-02 0. -1.
    10030    2    1    2    0    0  0.00000000000E+00  0.00000000000E+00 -0.20072268102E+03  0.21023583079E+04  0.20927543717E+04 0.  0.
        2    1    3    3  502    0  0.96710203577E+03 -0.15154881050E+03  0.27099957731E+03  0.10157234665E+04  0.25500000920E-02 0. -1.
       -2    1    3    3    0  502 -0.96710203577E+03  0.15154881050E+03 -0.47172225833E+03  0.10866348414E+04  0.25500000920E-02 0.  1.
</event>
<event>
 5   0  0.3257130E-05  0.2111475E+04  0.7818609E-02  0.8556206E-01
       -2   -1    0    0    0  501  0.00000000000E+00  0.00000000000E+00  0.86218346491E+03  0.86218346491E+03  0.25500000920E-02 0.  1.
        2   -1    0    0  501    0  0.00000000000E+00  0.00000000000E+00 -0.12927425261E+04  0.12927425261E+04  0.25500000920E-02 0. -1.
    10030    2    1    2    0    0  0.00000000000E+00  0.00000000000E+00 -0.43055906121E+03  0.21549259910E+04  0.21114745847E+04 0.  0.
        3    1    3    3  502    0 -0.12368882340E+01 -0.44663816360E+03  0.76101164682E+03  0.88239782178E+03  0.10100000352E+00 0.  1.
       -3    1    3    3    0  502  0.12368882340E+01  0.44663816360E+03 -0.11915707080E+04  0.12725281693E+04  0.10100000352E+00 0. -1.
</event>
<event>
 5   0  0.1492552E-05  0.2115630E+04  0.7818609E-02  0.8554389E-01
        1   -1    0    0  501    0  0.00000000000E+00  0.00000000000E+00  0.14629960189E+04  0.14629960189E+04  0.50400001928E-02 0.  1.
       -1   -1    0    0    0  501  0.00000000000E+00  0.00000000000E+00 -0.76485024032E+03  0.76485024034E+03  0.50400001928E-02 0. -1.
    10030    2    1    2    0    0  0.00000000000E+00  0.00000000000E+00  0.69814577854E+03  0.22278462592E+04  0.21156302670E+04 0.  0.
        4    1    3    3  502    0  0.93496316148E+03  0.47216511563E+03  0.19332513278E+03  0.10651160639E+04  0.12699999809E+01 0. -1.
       -4    1    3    3    0  502 -0.93496316148E+03 -0.47216511563E+03  0.50482064575E+03  0.11627301953E+04  0.12699999809E+01 0.  1.
</event>
<event>
 5   0  0.3130517E-05  0.2096732E+04  0.7818609E-02  0.8562684E-01
        2   -1    0    0  501    0  0.00000000000E+00  0.00000000000E+00  0.94105233797E+03  0.94105233797E+03  0.25500000920E-02 0.  1.
       -2   -1    0    0    0  501  0.00000000000E+00  0.00000000000E+00 -0.11679175737E+04  0.11679175737E+04  0.25500000920E-02 0. -1.
    10030    2    1    2    0    0  0.00000000000E+00  0.00000000000E+00 -0.22686523575E+03  0.21089699117E+04  0.20967322798E+04 0.  0.
        1    1    3    3  502    0 -0.20096922349E+03 -0.81624510785E+03  0.51666344254E+03  0.98670452404E+03  0.50400001928E-02 0.  1.
       -1    1    3    3    0  502  0.20096922349E+03  0.81624510785E+03 -0.74352867829E+03  0.11222653877E+04  0.50400001928E-02 0. -1.
</event>
<event>
 5   0  0.3279789E-05  0.2103148E+04  0.7818609E-02  0.8559858E-01
        2   -1    0    0  501    0  0.00000000000E+00  0.00000000000E+00  0.10983811316E+04  0.10983811316E+04  0.25500000920E-02 0. -1.
       -2   -1    0    0    0  501  0.00000000000E+00  0.00000000000E+00 -0.10067617653E+04  0.10067617653E+04  0.25500000920E-02 0.  1.
    10030    2    1    2    0    0  0.00000000000E+00  0.00000000000E+00  0.91619366360E+02  0.21051428969E+04  0.21031482373E+04 0.  0.
        2    1    3    3  502    0 -0.20279277205E+03  0.17218034280E+03  0.10641423258E+04  0.10968910011E+04  0.25500000920E-02 0. -1.
       -2    1    3    3    0  502  0.20279277205E+03 -0.17218034280E+03 -0.97252295939E+03  0.10082518958E+04  0.25500000920E-02 0.  1.
</event>
<event>
 5   0  0.1492552E-05  0.2152168E+04  0.7818609E-02  0.8538605E-01
        1   -1    0    0  501    0  0.00000000000E+00  0.00000000000E+00  0.63888599776E+03  0.63888599778E+03  0.50400001928E-02 0.  1.
       -1   -1    0    0    0  501  0.00000000000E+00  0.00000000000E+00 -0.18124624203E+04  0.18124624203E+04  0.50400001928E-02 0. -1.
    10030    2    1    2    0    0  0.00000000000E+00  0.00000000000E+00 -0.11735764225E+04  0.24513484181E+04  0.21521680806E+04 0.  0.
        4    1    3    3  502    0 -0.35018144018E+03  0.10076649973E+04 -0.74762506347E+03  0.13026744169E+04  0.12699999809E+01 0. -1.
       -4    1    3    3    0  502  0.35018144018E+03 -0.10076649973E+04 -0.42595135906E+03  0.11486740012E+04  0.12699999809E+01 0.  1.
</event>
<event>
 5   0  0.1435410E-05  0.2103999E+04  0.7818609E-02  0.8559484E-01
        1   -1    0    0  501    0  0.00000000000E+00  0.00000000000E+00  0.15153998113E+04  0.15153998113E+04  0.50400001928E-02 0. -1.
       -1   -1    0    0    0  501  0.00000000000E+00  0.00000000000E+00 -0.73030416095E+03  0.73030416097E+03  0.50400001928E-02 0.  1.
    10030    2    1    2    0    0  0.00000000000E+00  0.00000000000E+00  0.78509565034E+03  0.22457039723E+04  0.21039988476E+04 0.  0.
        2    1    3    3  502    0 -0.10409513125E+04 -0.81823184343E+02  0.25574315221E+03  0.10750252222E+04  0.25500000920E-02 0. -1.
       -2    1    3    3    0  502  0.10409513125E+04  0.81823184343E+02  0.52935249812E+03  0.11706787500E+04  0.25500000920E-02 0.  1.
</event>
<event>
 5   0  0.3242231E-05  0.2095841E+04  0.7818609E-02  0.8563077E-01
       -2   -1    0    0    0  501  0.00000000000E+00  0.00000000000E+00  0.67349405474E+03  0.67349405475E+03  0.25500000920E-02 0. -1.
        2   -1    0    0  501    0  0.00000000000E+00  0.00000000000E+00 -0.16305085380E+04  0.16305085380E+04  0.25500000920E-02 0.  1.
    10030    2    1    2    0    0  0.00000000000E+00  0.00000000000E+00 -0.95701448323E+03  0.23040025927E+04  0.20958414124E+04 0.  0.
        4    1    3    3  502    0 -0.29549025948E+03  0.94861609629E+03 -0.84468051089E+03  0.13040988344E+04  0.12699999809E+01 0.  1.
       -4    1    3    3    0  502  0.29549025948E+03 -0.94861609629E+03 -0.11233397233E+03  0.99990375828E+03  0.12699999809E+01 0. -1.
</event>
<event>
 5   0  0.3242231E-05  0.2095294E+04  0.7818609E-02  0.8563319E-01
       -2   -1    0    0    0  501  0.00000000000E+00  0.00000000000E+00  0.90398301169E+03  0.90398301170E+03  0.25500000920E-02 0. -1.
        2   -1    0    0  501    0  0.00000000000E+00  0.00000000000E+00 -0.12141430967E+04  0.12141430967E+04  0.25500000920E-02 0.  1.
    10030    2    1    2    0    0  0.00000000000E+00  0.00000000000E+00 -0.31016008502E+03  0.21181261084E+04  0.20952944740E+04 0.  0.
        4    1    3    3  502    0 -0.34496552458E+03 -0.33226007111E+03 -0.10969868172E+04  0.11969877435E+04  0.12699999809E+01 0.  1.
       -4    1    3    3    0  502  0.34496552458E+03  0.33226007111E+03  0.78682673218E+03  0.92113836495E+03  0.12699999809E+01 0. -1.
</event>
<event>
 5   0  0.1492552E-05  0.2100214E+04  0.7818609E-02  0.8561149E-01
        1   -1    0    0  501    0  0.00000000000E+00  0.00000000000E+00  0.12346708376E+04  0.12346708376E+04  0.50400001928E-02 0. -1.
       -1   -1    0    0    0  501  0.00000000000E+00  0.00000000000E+00 -0.89313295670E+03  0.89313295671E+03  0.50400001928E-02 0.  1.
    10030    2    1    2    0    0  0.00000000000E+00  0.00000000000E+00  0.34153788086E+03  0.21278037943E+04  0.21002144802E+04 0.  0.
        4    1    3    3  502    0 -0.47867589138E+03 -0.20537874237E+03  0.10945652492E+04  0.12121822200E+04  0.12699999809E+01 0. -1.
       -4    1    3    3    0  502  0.47867589138E+03  0.20537874237E+03 -0.75302736838E+03  0.91562157425E+03  0.12699999809E+01 0.  1.
</event>
<event>
 5   0  0.1435410E-05  0.2102251E+04  0.7818609E-02  0.8560252E-01
       -1   -1    0    0    0  501  0.00000000000E+00  0.00000000000E+00  0.21039406852E+04  0.21039406852E+04  0.50400001928E-02 0.  1.
        1   -1    0    0  501    0  0.00000000000E+00  0.00000000000E+00 -0.52514078521E+03  0.52514078524E+03  0.50400001928E-02 0. -1.
    10030    2    1    2    0    0  0.00000000000E+00  0.00000000000E+00  0.15787999000E+04  0.26290814705E+04  0.21022512348E+04 0.  0.
        2    1    3    3  502    0 -0.35406467581E+03 -0.49213321027E+03 -0.28445086693E+03  0.66967842060E+03  0.25500000920E-02 0. -1.
       -2    1    3    3    0  502  0.35406467581E+03  0.49213321027E+03  0.18632507669E+04  0.19594030499E+04  0.25500000920E-02 0.  1.
</event>
<event>
 5   0  0.3108326E-05  0.2108222E+04  0.7818609E-02  0.8557630E-01
       -2   -1    0    0    0  501  0.00000000000E+00  0.00000000000E+00  0.12310899925E+04  0.12310899925E+04  0.25500000920E-02 0. -1.
        2   -1    0    0  501    0  0.00000000000E+00  0.00000000000E+00 -0.90257455188E+03  0.90257455188E+03  0.25500000920E-02 0.  1.
    10030    2    1    2    0    0  0.00000000000E+00  0.00000000000E+00  0.32851544060E+03  0.21336645444E+04  0.21082224724E+04 0.  0.
        5    1    3    3  502    0  0.78268025970E+03  0.43371515547E+03 -0.39962965617E+03  0.98001182497E+03  0.46999998093E+01 0.  1.
       -5    1    3    3    0  502 -0.78268025970E+03 -0.43371515547E+03  0.72814509677E+03  0.11536527194E+04  0.46999998093E+01 0. -1.
</event>
<event>
 5   0  0.3108326E-05  0.2098173E+04  0.7818609E-02  0.8562049E-01
        2   -1    0    0  501    0  0.00000000000E+00  0.00000000000E+00  0.15639731996E+04  0.15639731996E+04  0.25500000920E-02 0.  1.
       -2   -1    0    0    0  501  0.00000000000E+00  0.00000000000E+00 -0.70370899361E+03  0.70370899362E+03  0.25500000920E-02 0. -1.
    10030    2    1    2    0    0  0.00000000000E+00  0.00000000000E+00  0.86026420600E+03  0.22676821932E+04  0.20981725442E+04 0.  0.
        5    1    3    3  502    0 -0.13388700534E+01  0.10180714896E+04  0.70374166223E+03  0.12376371713E+04  0.46999998093E+01 0.  1.
       -5    1    3    3    0  502  0.13388700534E+01 -0.10180714896E+04  0.15652254377E+03  0.10300450220E+04  0.46999998093E+01 0. -1.
</event>
<event>
 5   0  0.1453430E-05  0.2104573E+04  0.7818609E-02  0.8559232E-01
       -1   -1    0    0    0  501  0.00000000000E+00  0.00000000000E+00  0.46293133451E+03  0.46293133453E+03  0.50400001928E-02 0. -1.
        1   -1    0    0  501    0  0.00000000000E+00  0.00000000000E+00 -0.23919458262E+04  0.23919458262E+04  0.50400001928E-02 0.  1.
    10030    2    1    2    0    0  0.00000000000E+00  0.00000000000E+00 -0.19290144917E+04  0.28548771608E+04  0.21045728055E+04 0.  0.
        5    1    3    3  502    0  0.80154449841E+03  0.11827363118E+03 -0.53700600674E+02  0.81201482700E+03  0.46999998093E+01 0. -1.
       -5    1    3    3    0  502 -0.80154449841E+03 -0.11827363118E+03 -0.18753138910E+04  0.20428623338E+04  0.46999998093E+01 0.  1.
</event>
<event>
 5   0  0.3279789E-05  0.2014267E+04  0.7818609E-02  0.8599979E-01
        2   -1    0    0  501    0  0.00000000000E+00  0.00000000000E+00  0.78590657760E+03  0.78590657761E+03  0.25500000920E-02 0. -1.
       -2   -1    0    0    0  501  0.00000000000E+00  0.00000000000E+00 -0.12906342341E+04  0.12906342341E+04  0.25500000920E-02 0.  1.
    10030    2    1    2    0    0  0.00000000000E+00  0.00000000000E+00 -0.50472765650E+03  0.20765408117E+04  0.20142670467E+04 0.  0.
        2    1    3    3  502    0  0.56450639911E+03  0.37433986905E+03  0.51601133855E+03  0.85150778840E+03  0.25500000920E-02 0. -1.
       -2    1    3    3    0  502 -0.56450639911E+03 -0.37433986905E+03 -0.10207389951E+04  0.12250330233E+04  0.25500000920E-02 0.  1.
</event>
<event>
 5   0  0.1492552E-05  0.2111629E+04  0.7818609E-02  0.8556138E-01
       -1   -1    0    0    0  501  0.00000000000E+00  0.00000000000E+00  0.90531021905E+03  0.90531021906E+03  0.50400001928E-02 0. -1.
        1   -1    0    0  501    0  0.00000000000E+00  0.00000000000E+00 -0.12313399122E+04  0.12313399122E+04  0.50400001928E-02 0.  1.
    10030    2    1    2    0    0  0.00000000000E+00  0.00000000000E+00 -0.32602969317E+03  0.21366501313E+04  0.21116293289E+04 0.  0.
        4    1    3    3  502    0 -0.46014314765E+03  0.24694890793E+03  0.76547865738E+03  0.92664700251E+03  0.12699999809E+01 0. -1.
       -4    1    3    3    0  502  0.46014314765E+03 -0.24694890793E+03 -0.10915083505E+04  0.12100031288E+04  0.12699999809E+01 0.  1.
</event>
<event>
 5   0  0.3257130E-05  0.2050911E+04  0.7818609E-02  0.8583181E-01
        2   -1    0    0  501    0  0.00000000000E+00  0.00000000000E+00  0.10832637383E+04  0.10832637383E+04  0.25500000920E-02 0.  1.
       -2   -1    0    0    0  501  0.00000000000E+00  0.00000000000E+00 -0.97073256310E+03  0.97073256310E+03  0.25500000920E-02 0. -1.
    10030    2    1    2    0    0  0.00000000000E+00  0.00000000000E+00  0.11253117517E+03  0.20539963014E+04  0.20509113927E+04 0.  0.
        3    1    3    3  502    0 -0.29536563259E+03 -0.97626128709E+03  0.16240810310E+03  0.10328133228E+04  0.10100000352E+00 0. -1.
       -3    1    3    3    0  502  0.29536563259E+03  0.97626128709E+03 -0.49876927933E+02  0.10211829786E+04  0.10100000352E+00 0.  1.
</event>
<event>
 5   0  0.1129987E-05  0.2098239E+04  0.7818609E-02  0.8562019E-01
       -4   -1    0    0    0  501  0.00000000000E+00  0.00000000000E+00  0.12916900586E+04  0.12916906829E+04  0.12699999809E+01 0.  1.
        4   -1    0    0  501    0  0.00000000000E+00  0.00000000000E+00 -0.85210112695E+03  0.85210207338E+03  0.12699999809E+01 0. -1.
    10030    2    1    2    0    0  0.00000000000E+00  0.00000000000E+00  0.43958893161E+03  0.21437927563E+04  0.20982394890E+04 0.  0.
        1    1    3    3  502    0 -0.60033618687E+03 -0.63989157875E+03 -0.36783324423E+03  0.95140215756E+03  0.50400001928E-02 0.  1.
       -1    1    3    3    0  502  0.60033618687E+03  0.63989157875E+03  0.80742217584E+03  0.11923905987E+04  0.50400001928E-02 0. -1.
</event>
<event>
 5   0  0.3279789E-05  0.2071446E+04  0.7818609E-02  0.8573927E-01
        2   -1    0    0  501    0  0.00000000000E+00  0.00000000000E+00  0.12700742672E+04  0.12700742672E+04  0.25500000920E-02 0. -1.
       -2   -1    0    0    0  501  0.00000000000E+00  0.00000000000E+00 -0.84461359506E+03  0.84461359506E+03  0.25500000920E-02 0.  1.
    10030    2    1    2    0    0  0.00000000000E+00  0.00000000000E+00  0.42546067218E+03  0.21146878623E+04  0.20714458649E+04 0.  0.
        2    1    3    3  502    0  0.25855540450E+03  0.92741887882E+03  0.60249259900E+03  0.11357614212E+04  0.25500000920E-02 0. -1.
       -2    1    3    3    0  502 -0.25855540450E+03 -0.92741887882E+03 -0.17703192682E+03  0.97892644112E+03  0.25500000920E-02 0.  1.
</event>
<event>
 5   0  0.1466480E-05  0.2100225E+04  0.7818609E-02  0.8561144E-01
       -1   -1    0    0    0  501  0.00000000000E+00  0.00000000000E+00  0.56355319992E+03  0.56355319994E+03  0.50400001928E-02 0.  1.
        1   -1    0    0  501    0  0.00000000000E+00  0.00000000000E+00 -0.19567556277E+04  0.19567556277E+04  0.50400001928E-02 0. -1.
    10030    2    1    2    0    0  0.00000000000E+00  0.00000000000E+00 -0.13932024278E+04  0.25203088277E+04  0.21002246504E+04 0.  0.
        3    1    3    3  502    0  0.24820680511E+03  0.31076614947E+03 -0.18628771864E+04  0.19048605302E+04  0.10100000352E+00 0. -1.
       -3    1    3    3    0  502 -0.24820680511E+03 -0.31076614947E+03  0.46967475861E+03  0.61544829745E+03  0.10100000352E+00 0.  1.
</event>
<event>
 5   0  0.3279789E-05  0.2089222E+04  0.7818609E-02  0.8566006E-01
        2   -1    0    0  501    0  0.00000000000E+00  0.00000000000E+00  0.21151514757E+04  0.21151514757E+04  0.25500000920E-02 0. -1.
       -2   -1    0    0    0  501  0.00000000000E+00  0.00000000000E+00 -0.51590246591E+03  0.51590246592E+03  0.25500000920E-02 0.  1.
    10030    2    1    2    0    0  0.00000000000E+00  0.00000000000E+00  0.15992490098E+04  0.26310539416E+04  0.20892217327E+04 0.  0.
        2    1    3    3  502    0  0.57816672888E+03 -0.15617244703E+03 -0.27823572816E+03  0.66036483858E+03  0.25500000920E-02 0.  1.
       -2    1    3    3    0  502 -0.57816672888E+03  0.15617244703E+03  0.18774847379E+04  0.19706891030E+04  0.25500000920E-02 0. -1.
</event>
<event>
 5   0  0.1453430E-05  0.2095630E+04  0.7818609E-02  0.8563171E-01
        1   -1    0    0  501    0  0.00000000000E+00  0.00000000000E+00  0.10225617334E+04  0.10225617334E+04  0.50400001928E-02 0.  1.
       -1   -1    0    0    0  501  0.00000000000E+00  0.00000000000E+00 -0.10736923577E+04  0.10736923577E+04  0.50400001928E-02 0. -1.
    10030    2    1    2    0    0  0.00000000000E+00  0.00000000000E+00 -0.51130624317E+02  0.20962540911E+04  0.20956304239E+04 0.  0.
        5    1    3    3  502    0 -0.20627775194E+03  0.15796438878E+03 -0.10409493562E+04  0.10728937092E+04  0.46999998093E+01 0. -1.
       -5    1    3    3    0  502  0.20627775194E+03 -0.15796438878E+03  0.98981873192E+03  0.10233603818E+04  0.46999998093E+01 0.  1.
</event>
<event>
 5   0  0.1492552E-05  0.1992175E+04  0.7818609E-02  0.8610288E-01
       -1   -1    0    0    0  501  0.00000000000E+00  0.00000000000E+00  0.15173880881E+04  0.15173880882E+04  0.50400001928E-02 0.  1.
        1   -1    0    0  501    0  0.00000000000E+00  0.00000000000E+00 -0.65388024841E+03  0.65388024843E+03  0.50400001928E-02 0. -1.
    10030    2    1    2    0    0  0.00000000000E+00  0.00000000000E+00  0.86350783974E+03  0.21712683366E+04  0.19921747916E+04 0.  0.
        4    1    3    3  502    0 -0.62233489823E+03 -0.64707700795E+03 -0.38520688750E+02  0.89860716452E+03  0.12699999809E+01 0. -1.
       -4    1    3    3    0  502  0.62233489823E+03  0.64707700795E+03  0.90202852849E+03  0.12726611721E+04  0.12699999809E+01 0.  1.
</event>
<event>
 5   0  0.3257130E-05  0.2123741E+04  0.7818609E-02  0.8550857E-01
       -2   -1    0    0    0  501  0.00000000000E+00  0.00000000000E+00  0.62042221029E+03  0.62042221029E+03  0.25500000920E-02 0.  1.
        2   -1    0    0  501    0  0.00000000000E+00  0.00000000000E+00 -0.18174213845E+04  0.18174213845E+04  0.25500000920E-02 0. -1.
    10030    2    1    2    0    0  0.00000000000E+00  0.00000000000E+00 -0.11969991742E+04  0.24378435948E+04  0.21237406550E+04 0.  0.
        3    1    3    3  502    0  0.64466782948E+03  0.39883485417E+03 -0.14520491135E+04  0.16380209063E+04  0.10100000352E+00 0. -1.
       -3    1    3    3    0  502 -0.64466782948E+03 -0.39883485417E+03  0.25504993930E+03  0.79982268848E+03  0.10100000352E+00 0.  1.
</event>
<event>
 5   0  0.1466480E-05  0.2090495E+04  0.7818609E-02  0.8565442E-01
        1   -1    0    0  501    0  0.00000000000E+00  0.00000000000E+00  0.12899339791E+04  0.12899339791E+04  0.50400001928E-02 0. -1.
       -1   -1    0    0    0  501  0.00000000000E+00  0.00000000000E+00 -0.84697533439E+03  0.84697533441E+03  0.50400001928E-02 0.  1.
    10030    2    1    2    0    0  0.00000000000E+00  0.00000000000E+00  0.44295864469E+03  0.21369093135E+04  0.20904949302E+04 0.  0.
        3    1    3    3  502    0 -0.77902580552E+02 -0.10420423137E+04  0.24695775865E+03  0.10737360665E+04  0.10100000352E+00 0.  1.
       -3    1    3    3    0  502  0.77902580552E+02  0.10420423137E+04  0.19600088604E+03  0.10631732470E+04  0.10100000352E+00 0. -1.
</event>
<event>
 5   0  0.1435410E-05  0.2115147E+04  0.7818609E-02  0.8554600E-01
       -1   -1    0    0    0  501  0.00000000000E+00  0.00000000000E+00  0.85085776551E+03  0.85085776553E+03  0.50400001928E-02 0.  1.
        1   -1    0    0  501    0  0.00000000000E+00  0.00000000000E+00 -0.13145112500E+04  0.13145112500E+04  0.50400001928E-02 0. -1.
    10030    2    1    2    0    0  0.00000000000E+00  0.00000000000E+00 -0.46365348449E+03  0.21653690155E+04  0.21151473754E+04 0.  0.
        2    1    3    3  502    0  0.36876844689E+02 -0.91493052741E+03 -0.77354523518E+03  0.11986784400E+04  0.25500000920E-02 0. -1.
       -2    1    3    3    0  502 -0.36876844689E+02  0.91493052741E+03  0.30989175069E+03  0.96669057553E+03  0.25500000920E-02 0.  1.
</event>
<event>
 5   0  0.1435410E-05  0.2105539E+04  0.7818609E-02  0.8558807E-01
        1   -1    0    0  501    0  0.00000000000E+00  0.00000000000E+00  0.93650128095E+03  0.93650128097E+03  0.50400001928E-02 0.  1.
       -1   -1    0    0    0  501  0.00000000000E+00  0.00000000000E+00 -0.11834723008E+04  0.11834723009E+04  0.50400001928E-02 0. -1.
    10030    2    1    2    0    0  0.00000000000E+00  0.00000000000E+00 -0.24697101989E+03  0.21199735818E+04  0.21055387204E+04 0.  0.
        2    1    3    3  502    0  0.66227988677E+03  0.81351310278E+02 -0.94337187853E+03  0.11555012701E+04  0.25500000920E-02 0. -1.
       -2    1    3    3    0  502 -0.66227988677E+03 -0.81351310278E+02  0.69640085863E+03  0.96447231169E+03  0.25500000920E-02 0.  1.
</event>
<event>
 5   0  0.3242231E-05  0.2106693E+04  0.7818609E-02  0.8558301E-01
        2   -1    0    0  501    0  0.00000000000E+00  0.00000000000E+00  0.21915503288E+04  0.21915503289E+04  0.25500000920E-02 0. -1.
       -2   -1    0    0    0  501  0.00000000000E+00  0.00000000000E+00 -0.50628045347E+03  0.50628045347E+03  0.25500000920E-02 0.  1.
    10030    2    1    2    0    0  0.00000000000E+00  0.00000000000E+00  0.16852698754E+04  0.26978307823E+04  0.21066932328E+04 0.  0.
        4    1    3    3  502    0 -0.28958522591E+03 -0.88543437289E+03  0.14721950736E+04  0.17421864364E+04  0.12699999809E+01 0. -1.
       -4    1    3    3    0  502  0.28958522591E+03  0.88543437289E+03  0.21307480181E+03  0.95564434589E+03  0.12699999809E+01 0.  1.
</event>
<event>
 5   0  0.1513292E-05  0.2123620E+04  0.7818609E-02  0.8550910E-01
        1   -1    0    0  501    0  0.00000000000E+00  0.00000000000E+00  0.16180328099E+04  0.16180328099E+04  0.50400001928E-02 0.  1.
       -1   -1    0    0    0  501  0.00000000000E+00  0.00000000000E+00 -0.69679677897E+03  0.69679677899E+03  0.50400001928E-02 0. -1.
    10030    2    1    2    0    0  0.00000000000E+00  0.00000000000E+00  0.92123603094E+03  0.23148295889E+04  0.21236195989E+04 0.  0.
        1    1    3    3  502    0 -0.29105823624E+03 -0.44685780385E+03  0.14614639505E+04  0.15557228778E+04  0.50400001928E-02 0.  1.
       -1    1    3    3    0  502  0.29105823624E+03  0.44685780385E+03 -0.54022791958E+03  0.75910671112E+03  0.50400001928E-02 0. -1.
</event>
<event>
 5   0  0.1513292E-05  0.2060326E+04  0.7818609E-02  0.8578924E-01
        1   -1    0    0  501    0  0.00000000000E+00  0.00000000000E+00  0.11981589955E+04  0.11981589955E+04  0.50400001928E-02 0. -1.
       -1   -1    0    0    0  501  0.00000000000E+00  0.00000000000E+00 -0.88572189529E+03  0.88572189530E+03  0.50400001928E-02 0.  1.
    10030    2    1    2    0    0  0.00000000000E+00  0.00000000000E+00  0.31243710024E+03  0.20838808908E+04  0.20603258542E+04 0.  0.
        1    1    3    3  502    0 -0.86232755713E+03  0.22439503462E+03  0.67911428582E+03  0.11203384134E+04  0.50400001928E-02 0. -1.
       -1    1    3    3    0  502  0.86232755713E+03 -0.22439503462E+03 -0.36667718558E+03  0.96354247742E+03  0.50400001928E-02 0.  1.
</event>
<event>
 5   0  0.3108326E-05  0.2112820E+04  0.7818609E-02  0.8555617E-01
        2   -1    0    0  501    0  0.00000000000E+00  0.00000000000E+00  0.22064911136E+04  0.22064911136E+04  0.25500000920E-02 0.  1.
       -2   -1    0    0    0  501  0.00000000000E+00  0.00000000000E+00 -0.50578133350E+03  0.50578133351E+03  0.25500000920E-02 0. -1.
    10030    2    1    2    0    0  0.00000000000E+00  0.00000000000E+00  0.17007097801E+04  0.27122724471E+04  0.21128199335E+04 0.  0.
        5    1    3    3  502    0  0.16633677852E+03  0.61788571360E+03 -0.22868102290E+03  0.67953497275E+03  0.46999998093E+01 0. -1.
       -5    1    3    3    0  502 -0.16633677852E+03 -0.61788571360E+03  0.19293908030E+04  0.20327374743E+04  0.46999998093E+01 0.  1.
</event>
<event>
 5   0  0.3130517E-05  0.2090872E+04  0.7818609E-02  0.8565275E-01
       -2   -1    0    0    0  501  0.00000000000E+00  0.00000000000E+00  0.55929879207E+03  0.55929879207E+03  0.25500000920E-02 0. -1.
        2   -1    0    0  501    0  0.00000000000E+00  0.00000000000E+00 -0.19541184278E+04  0.19541184278E+04  0.25500000920E-02 0.  1.
    10030    2    1    2    0    0  0.00000000000E+00  0.00000000000E+00 -0.13948196357E+04  0.25134172198E+04  0.20908716615E+04 0.  0.
        1    1    3    3  502    0 -0.33738606383E+03  0.46945612013E+03  0.34966402227E+03  0.67563550328E+03  0.50400001928E-02 0. -1.
       -1    1    3    3    0  502  0.33738606383E+03 -0.46945612013E+03 -0.17444836580E+04  0.18377817166E+04  0.50400001928E-02 0.  1.
</event>
<event>
 5   0  0.3130517E-05  0.2099049E+04  0.7818609E-02  0.8561662E-01
       -2   -1    0    0    0  501  0.00000000000E+00  0.00000000000E+00  0.96991308300E+03  0.96991308301E+03  0.25500000920E-02 0. -1.
        2   -1    0    0  501    0  0.00000000000E+00  0.00000000000E+00 -0.11356709276E+04  0.11356709276E+04  0.25500000920E-02 0.  1.
    10030    2    1    2    0    0  0.00000000000E+00  0.00000000000E+00 -0.16575784461E+03  0.21055840106E+04  0.20990493950E+04 0.  0.
        1    1    3    3  502    0  0.49106246518E+03  0.51714696640E+03  0.68953040887E+03  0.99198564221E+03  0.50400001928E-02 0. -1.
       -1    1    3    3    0  502 -0.49106246518E+03 -0.51714696640E+03 -0.85528825348E+03  0.11135983684E+04  0.50400001928E-02 0.  1.
</event>
<event>
 5   0  0.1466480E-05  0.2092356E+04  0.7818609E-02  0.8564618E-01
        1   -1    0    0  501    0  0.00000000000E+00  0.00000000000E+00  0.96870326971E+03  0.96870326972E+03  0.50400001928E-02 0.  1.
       -1   -1    0    0    0  501  0.00000000000E+00  0.00000000000E+00 -0.11298492194E+04  0.11298492194E+04  0.50400001928E-02 0. -1.
    10030    2    1    2    0    0  0.00000000000E+00  0.00000000000E+00 -0.16114594966E+03  0.20985524891E+04  0.20923562155E+04 0.  0.
        3    1    3    3  502    0 -0.30268064092E+03 -0.49924182501E+02  0.92257927050E+03  0.97224508995E+03  0.10100000352E+00 0.  1.
       -3    1    3    3    0  502  0.30268064092E+03  0.49924182501E+02 -0.10837252202E+04  0.11263073992E+04  0.10100000352E+00 0. -1.
</event>
<event>
 5   0  0.3108326E-05  0.2100518E+04  0.7818609E-02  0.8561015E-01
        2   -1    0    0  501    0  0.00000000000E+00  0.00000000000E+00  0.13772385532E+04  0.13772385532E+04  0.25500000920E-02 0.  1.
       -2   -1    0    0    0  501  0.00000000000E+00  0.00000000000E+00 -0.80090969272E+03  0.80090969272E+03  0.25500000920E-02 0. -1.
    10030    2    1    2    0    0  0.00000000000E+00  0.00000000000E+00  0.57632886048E+03  0.21781482459E+04  0.21005177518E+04 0.  0.
        5    1    3    3  502    0 -0.47720061523E+03  0.51249823865E+03 -0.52348061845E+03  0.87431625839E+03  0.46999998093E+01 0. -1.
       -5    1    3    3    0  502  0.47720061523E+03 -0.51249823865E+03  0.10998094789E+04  0.13038319875E+04  0.46999998093E+01 0.  1.
</event>
<event>
 5   0  0.3279789E-05  0.2098157E+04  0.7818609E-02  0.8562056E-01
       -2   -1    0    0    0  501  0.00000000000E+00  0.00000000000E+00  0.74620750876E+03  0.74620750877E+03  0.25500000920E-02 0.  1.
        2   -1    0    0  501    0  0.00000000000E+00  0.00000000000E+00 -0.14748784355E+04  0.14748784355E+04  0.25500000920E-02 0. -1.
    10030    2    1    2    0    0  0.00000000000E+00  0.00000000000E+00 -0.72867092672E+03  0.22210859443E+04  0.20981566796E+04 0.  0.
        2    1    3    3  502    0 -0.53841976433E+03  0.40396886445E+03  0.48746953296E+03  0.83109159040E+03  0.25500000920E-02 0.  1.
       -2    1    3    3    0  502  0.53841976433E+03 -0.40396886445E+03 -0.12161404597E+04  0.13899943539E+04  0.25500000920E-02 0. -1.
</event>
<event>
 5   0  0.1453430E-05  0.2060247E+04  0.7818609E-02  0.8578960E-01
       -1   -1    0    0    0  501  0.00000000000E+00  0.00000000000E+00  0.10268740429E+04  0.10268740429E+04  0.50400001928E-02 0.  1.
        1   -1    0    0  501    0  0.00000000000E+00  0.00000000000E+00 -0.10333829554E+04  0.10333829555E+04  0.50400001928E-02 0. -1.
    10030    2    1    2    0    0  0.00000000000E+00  0.00000000000E+00 -0.65089125320E+01  0.20602569984E+04  0.20602467166E+04 0.  0.
        5    1    3    3  502    0  0.88100077978E+03 -0.50495768104E+03  0.16991513996E+03  0.10295814093E+04  0.46999998093E+01 0.  1.
       -5    1    3    3    0  502 -0.88100077978E+03  0.50495768104E+03 -0.17642405249E+03  0.10306755891E+04  0.46999998093E+01 0. -1.
</event>
<event>
 5   0  0.3130517E-05  0.2102179E+04  0.7818609E-02  0.8560284E-01
       -2   -1    0    0    0  501  0.00000000000E+00  0.00000000000E+00  0.14015470755E+04  0.14015470755E+04  0.25500000920E-02 0.  1.
        2   -1    0    0  501    0  0.00000000000E+00  0.00000000000E+00 -0.78826386063E+03  0.78826386064E+03  0.25500000920E-02 0. -1.
    10030    2    1    2    0    0  0.00000000000E+00  0.00000000000E+00  0.61328321491E+03  0.21898109362E+04  0.21021787827E+04 0.  0.
        1    1    3    3  502    0  0.52505451536E+03 -0.38073707949E+03  0.11682528342E+04  0.13362101828E+04  0.50400001928E-02 0.  1.
       -1    1    3    3    0  502 -0.52505451536E+03  0.38073707949E+03 -0.55496961934E+03  0.85360075341E+03  0.50400001928E-02 0. -1.
</event>
<event>
 5   0  0.3242231E-05  0.2096410E+04  0.7818609E-02  0.8562826E-01
        2   -1    0    0  501    0  0.00000000000E+00  0.00000000000E+00  0.13648110831E+04  0.13648110831E+04  0.25500000920E-02 0. -1.
       -2   -1    0    0    0  501  0.00000000000E+00  0.00000000000E+00 -0.80504471144E+03  0.80504471145E+03  0.25500000920E-02 0.  1.
    10030    2    1    2    0    0  0.00000000000E+00  0.00000000000E+00  0.55976637168E+03  0.21698557946E+04  0.20964102123E+04 0.  0.
        4    1    3    3  502    0 -0.36943965114E+03 -0.69303711408E+03 -0.43866169762E+03  0.89956200186E+03  0.12699999809E+01 0.  1.
       -4    1    3    3    0  502  0.36943965114E+03  0.69303711408E+03  0.99842806931E+03  0.12702937927E+04  0.12699999809E+01 0. -1.
</event>
<event>
 5   0  0.3130517E-05  0.2103468E+04  0.7818609E-02  0.8559717E-01
        2   -1    0    0  501    0  0.00000000000E+00  0.00000000000E+00  0.79924899818E+03  0.79924899819E+03  0.25500000920E-02 0.  1.
       -2   -1    0    0    0  501  0.00000000000E+00  0.00000000000E+00 -0.13839792686E+04  0.13839792686E+04  0.25500000920E-02 0. -1.
    10030    2    1    2    0    0  0.00000000000E+00  0.00000000000E+00 -0.58473027046E+03  0.21832282668E+04  0.21034676551E+04 0.  0.
        1    1    3    3  502    0  0.24432850714E+03  0.54255423214E+03 -0.11924761113E+04  0.13326893075E+04  0.50400001928E-02 0. -1.
       -1    1    3    3    0  502 -0.24432850714E+03 -0.54255423214E+03  0.60774584087E+03  0.85053895933E+03  0.50400001928E-02 0.  1.
</event>
<event>
 5   0  0.3279789E-05  0.2094519E+04  0.7818609E-02  0.8563662E-01
       -2   -1    0    0    0  501  0.00000000000E+00  0.00000000000E+00  0.30742634770E+04  0.30742634770E+04  0.25500000920E-02 0. -1.
        2   -1    0    0  501    0  0.00000000000E+00  0.00000000000E+00 -0.35675275610E+03  0.35675275611E+03  0.25500000920E-02 0.  1.
    10030    2    1    2    0    0  0.00000000000E+00  0.00000000000E+00  0.27175107209E+04  0.34310162331E+04  0.20945185303E+04 0.  0.
        2    1    3    3  502    0  0.44579919447E+03  0.88205543505E+03  0.79131923011E+03  0.12660745777E+04  0.25500000920E-02 0.  1.
       -2    1    3    3    0  502 -0.44579919447E+03 -0.88205543505E+03  0.19261914908E+04  0.21649416555E+04  0.25500000920E-02 0. -1.
</event>
<event>
 5   0  0.1435410E-05  0.2095531E+04  0.7818609E-02  0.8563214E-01
        1   -1    0    0  501    0  0.00000000000E+00  0.00000000000E+00  0.11429983693E+04  0.11429983693E+04  0.50400001928E-02 0. -1.
       -1   -1    0    0    0  501  0.00000000000E+00  0.00000000000E+00 -0.96046760765E+03  0.96046760766E+03  0.50400001928E-02 0.  1.
    10030    2    1    2    0    0  0.00000000000E+00  0.00000000000E+00  0.18253076162E+03  0.21034659769E+04  0.20955313496E+04 0.  0.
        2    1    3    3  502    0 -0.79286895799E+02  0.27826808431E+03  0.11021004515E+04  0.11394494038E+04  0.25500000920E-02 0. -1.
       -2    1    3    3    0  502  0.79286895799E+02 -0.27826808431E+03 -0.91956968992E+03  0.96401657311E+03  0.25500000920E-02 0.  1.
</event>
<event>
 5   0  0.1435410E-05  0.2105720E+04  0.7818609E-02  0.8558728E-01
       -1   -1    0    0    0  501  0.00000000000E+00  0.00000000000E+00  0.11087904341E+04  0.11087904341E+04  0.50400001928E-02 0.  1.
        1   -1    0    0  501    0  0.00000000000E+00  0.00000000000E+00 -0.99975046400E+03  0.99975046401E+03  0.50400001928E-02 0. -1.
    10030    2    1    2    0    0  0.00000000000E+00  0.00000000000E+00  0.10903997010E+03  0.21085408981E+04  0.21057195929E+04 0.  0.
        2    1    3    3  502    0  0.59454753265E+03  0.85595834079E+03  0.20426064326E+03  0.10620140584E+04  0.25500000920E-02 0.  1.
       -2    1    3    3    0  502 -0.59454753265E+03 -0.85595834079E+03 -0.95220673162E+02  0.10465268398E+04  0.25500000920E-02 0. -1.
</event>
<event>
 5   0  0.3130517E-05  0.2098720E+04  0.7818609E-02  0.8561807E-01
       -2   -1    0    0    0  501  0.00000000000E+00  0.00000000000E+00  0.16147151306E+04  0.16147151306E+04  0.25500000920E-02 0.  1.
        2   -1    0    0  501    0  0.00000000000E+00  0.00000000000E+00 -0.68195081097E+03  0.68195081098E+03  0.25500000920E-02 0. -1.
    10030    2    1    2    0    0  0.00000000000E+00  0.00000000000E+00  0.93276431967E+03  0.22966659416E+04  0.20987198887E+04 0.  0.
        1    1    3    3  502    0  0.89388213764E+03  0.46083650739E+03  0.13852358966E+03  0.10151770030E+04  0.50400001928E-02 0. -1.
       -1    1    3    3    0  502 -0.89388213764E+03 -0.46083650739E+03  0.79424073002E+03  0.12814889386E+04  0.50400001928E-02 0.  1.
</event>
<event>
 5   0  0.1513292E-05  0.2119942E+04  0.7818609E-02  0.8552509E-01
        1   -1    0    0  501    0  0.00000000000E+00  0.00000000000E+00  0.12850934240E+04  0.12850934240E+04  0.50400001928E-02 0. -1.
       -1   -1    0    0    0  501  0.00000000000E+00  0.00000000000E+00 -0.87428540137E+03  0.87428540139E+03  0.50400001928E-02 0.  1.
    10030    2    1    2    0    0  0.00000000000E+00  0.00000000000E+00  0.41080802258E+03  0.21593788253E+04  0.21199419049E+04 0.  0.
        1    1    3    3  502    0 -0.27902431045E+03  0.10205672492E+04  0.13997240317E+03  0.10672414674E+04  0.50400001928E-02 0.  1.
       -1    1    3    3    0  502  0.27902431045E+03 -0.10205672492E+04  0.27083561941E+03  0.10921373580E+04  0.50400001928E-02 0. -1.
</event>
<event>
 5   0  0.1453430E-05  0.2100429E+04  0.7818609E-02  0.8561055E-01
       -1   -1    0    0    0  501  0.00000000000E+00  0.00000000000E+00  0.72693031023E+03  0.72693031025E+03  0.50400001928E-02 0.  1.
        1   -1    0    0  501    0  0.00000000000E+00  0.00000000000E+00 -0.15172709848E+04  0.15172709849E+04  0.50400001928E-02 0. -1.
    10030    2    1    2    0    0  0.00000000000E+00  0.00000000000E+00 -0.79034067461E+03  0.22442012951E+04  0.21004287827E+04 0.  0.
        5    1    3    3  502    0 -0.42330252669E+03 -0.27366497124E+03 -0.13795655341E+04  0.14687752376E+04  0.46999998093E+01 0. -1.
       -5    1    3    3    0  502  0.42330252669E+03  0.27366497124E+03  0.58922485952E+03  0.77542605751E+03  0.46999998093E+01 0.  1.
</event>
<event>
 5   0  0.3257130E-05  0.2100399E+04  0.7818609E-02  0.8561067E-01
       -2   -1    0    0    0  501  0.00000000000E+00  0.00000000000E+00  0.43044421062E+03  0.43044421063E+03  0.25500000920E-02 0.  1.
        2   -1    0    0  501    0  0.00000000000E+00  0.00000000000E+00 -0.25622820029E+04  0.25622820029E+04  0.25500000920E-02 0. -1.
    10030    2    1    2    0    0  0.00000000000E+00  0.00000000000E+00 -0.21318377923E+04  0.29927262135E+04  0.21003994421E+04 0.  0.
        3    1    3    3  502    0  0.48731649431E+03  0.52570851015E+03  0.27658486702E+02  0.71736448571E+03  0.10100000352E+00 0.  1.
       -3    1    3    3    0  502 -0.48731649431E+03 -0.52570851015E+03 -0.21594962790E+04  0.22753617278E+04  0.10100000352E+00 0. -1.
</event>
<event>
 5   0  0.1492552E-05  0.2092762E+04  0.7818609E-02  0.8564438E-01
        1   -1    0    0  501    0  0.00000000000E+00  0.00000000000E+00  0.18635838652E+04  0.18635838652E+04  0.50400001928E-02 0. -1.
       -1   -1    0    0    0  501  0.00000000000E+00  0.00000000000E+00 -0.58753115019E+03  0.58753115021E+03  0.50400001928E-02 0.  1.
    10030    2    1    2    0    0  0.00000000000E+00  0.00000000000E+00  0.12760527150E+04  0.24511150154E+04  0.20927623581E+04 0.  0.
        4    1    3    3  502    0  0.90752676773E+03  0.21851994568E+03  0.11918061370E+04  0.15138557665E+04  0.12699999809E+01 0. -1.
       -4    1    3    3    0  502 -0.90752676773E+03 -0.21851994568E+03  0.84246578025E+02  0.93725924888E+03  0.12699999809E+01 0.  1.
</event>
<event>
 5   0  0.3279789E-05  0.2096772E+04  0.7818609E-02  0.8562667E-01
        2   -1    0    0  501    0  0.00000000000E+00  0.00000000000E+00  0.15181311205E+04  0.15181311205E+04  0.25500000920E-02 0.  1.
       -2   -1    0    0    0  501  0.00000000000E+00  0.00000000000E+00 -0.72399079011E+03  0.72399079011E+03  0.25500000920E-02 0. -1.
    10030    2    1    2    0    0  0.00000000000E+00  0.00000000000E+00  0.79414033041E+03  0.22421219106E+04  0.20967717562E+04 0.  0.
        2    1    3    3  502    0  0.59139915554E+02  0.46822342884E+03  0.13981180421E+04  0.14756235185E+04  0.25500000920E-02 0.  1.
       -2    1    3    3    0  502 -0.59139915554E+02 -0.46822342884E+03 -0.60397771164E+03  0.76649839210E+03  0.25500000920E-02 0. -1.
</event>
<event>
 5   0  0.1492552E-05  0.2097903E+04  0.7818609E-02  0.8562167E-01
        1   -1    0    0  501    0  0.00000000000E+00  0.00000000000E+00  0.21168634877E+04  0.21168634877E+04  0.50400001928E-02 0. -1.
       -1   -1    0    0    0  501  0.00000000000E+00  0.00000000000E+00 -0.51977830693E+03  0.51977830695E+03  0.50400001928E-02 0.  1.
    10030    2    1    2    0    0  0.00000000000E+00  0.00000000000E+00  0.15970851808E+04  0.26366417947E+04  0.20979034484E+04 0.  0.
        4    1    3    3  502    0 -0.50149005913E+03 -0.84515527707E+03  0.12594953906E+04  0.15975324640E+04  0.12699999809E+01 0.  1.
       -4    1    3    3    0  502  0.50149005913E+03  0.84515527707E+03  0.33758979025E+03  0.10391093307E+04  0.12699999809E+01 0. -1.
</event>
<event>
 5   0  0.1513292E-05  0.2091188E+04  0.7818609E-02  0.8565135E-01
        1   -1    0    0  501    0  0.00000000000E+00  0.00000000000E+00  0.18748342626E+04  0.18748342626E+04  0.50400001928E-02 0.  1.
       -1   -1    0    0    0  501  0.00000000000E+00  0.00000000000E+00 -0.58312702271E+03  0.58312702273E+03  0.50400001928E-02 0. -1.
    10030    2    1    2    0    0  0.00000000000E+00  0.00000000000E+00  0.12917072399E+04  0.24579612853E+04  0.20911877215E+04 0.  0.
        1    1    3    3  502    0  0.83919478440E+03 -0.59160223665E+03  0.41365701734E+03  0.11069567384E+04  0.50400001928E-02 0. -1.
       -1    1    3    3    0  502 -0.83919478440E+03  0.59160223665E+03  0.87805022252E+03  0.13510045469E+04  0.50400001928E-02 0.  1.
</event>
<event>
 5   0  0.3108326E-05  0.2102483E+04  0.7818609E-02  0.8560150E-01
       -2   -1    0    0    0  501  0.00000000000E+00  0.00000000000E+00  0.16066345195E+04  0.16066345195E+04  0.25500000920E-02 0.  1.
        2   -1    0    0  501    0  0.00000000000E+00  0.00000000000E+00 -0.68784091558E+03  0.68784091559E+03  0.25500000920E-02 0. -1.
    10030    2    1    2    0    0  0.00000000000E+00  0.00000000000E+00  0.91879360395E+03  0.22944754351E+04  0.21024832546E+04 0.  0.
        5    1    3    3  502    0 -0.66929468945E+03 -0.61522087454E+03  0.10354578584E+04  0.13779140656E+04  0.46999998093E+01 0.  1.
       -5    1    3    3    0  502  0.66929468945E+03  0.61522087454E+03 -0.11666425442E+03  0.91656136949E+03  0.46999998093E+01 0. -1.
</event>
<event>
 5   0  0.1466480E-05  0.2122575E+04  0.7818609E-02  0.8551364E-01
       -1   -1    0    0    0  501  0.00000000000E+00  0.00000000000E+00  0.14184890012E+04  0.14184890012E+04  0.50400001928E-02 0.  1.
        1   -1    0    0  501    0  0.00000000000E+00  0.00000000000E+00 -0.79403581408E+03  0.79403581410E+03  0.50400001928E-02 0. -1.
    10030    2    1    2    0    0  0.00000000000E+00  0.00000000000E+00  0.62445318714E+03  0.22125248153E+04  0.21225749164E+04 0.  0.
        3    1    3    3  502    0  0.47718702594E+03  0.72074470404E+03  0.95407288780E+03  0.12874142579E+04  0.10100000352E+00 0.  1.
       -3    1    3    3    0  502 -0.47718702594E+03 -0.72074470404E+03 -0.32961970067E+03  0.92511055739E+03  0.10100000352E+00 0. -1.
</event>
<event>
 5   0  0.1466480E-05  0.2105496E+04  0.7818609E-02  0.8558826E-01
        1   -1    0    0  501    0  0.00000000000E+00  0.00000000000E+00  0.12527106379E+04  0.12527106380E+04  0.50400001928E-02 0.  1.
       -1   -1    0    0    0  501  0.00000000000E+00  0.00000000000E+00 -0.88470446333E+03  0.88470446334E+03  0.50400001928E-02 0. -1.
    10030    2    1    2    0    0  0.00000000000E+00  0.00000000000E+00  0.36800617462E+03  0.21374151013E+04  0.21054963241E+04 0.  0.
        3    1    3    3  502    0 -0.10352440638E+04  0.78966331592E+02  0.72581808967E+01  0.10382767668E+04  0.10100000352E+00 0.  1.
       -3    1    3    3    0  502  0.10352440638E+04 -0.78966331592E+02  0.36074799373E+03  0.10991383345E+04  0.10100000352E+00 0. -1.
</event>
<event>
 5   0  0.3279789E-05  0.2080569E+04  0.7818609E-02  0.8569852E-01
        2   -1    0    0  501    0  0.00000000000E+00  0.00000000000E+00  0.16473966015E+04  0.16473966015E+04  0.25500000920E-02 0.  1.
       -2   -1    0    0    0  501  0.00000000000E+00  0.00000000000E+00 -0.65691004934E+03  0.65691004934E+03  0.25500000920E-02 0. -1.
    10030    2    1    2    0    0  0.00000000000E+00  0.00000000000E+00  0.99048655213E+03  0.23043066508E+04  0.20805685596E+04 0.  0.
        2    1    3    3  502    0  0.55086107623E+03 -0.60405417803E+03 -0.21725861595E+03  0.84589046662E+03  0.25500000920E-02 0. -1.
       -2    1    3    3    0  502 -0.55086107623E+03  0.60405417803E+03  0.12077451681E+04  0.14584161842E+04  0.25500000920E-02 0.  1.
</event>
<event>
 5   0  0.3242231E-05  0.2089980E+04  0.7818609E-02  0.8565670E-01
        2   -1    0    0  501    0  0.00000000000E+00  0.00000000000E+00  0.11502733681E+04  0.11502733681E+04  0.25500000920E-02 0. -1.
       -2   -1    0    0    0  501  0.00000000000E+00  0.00000000000E+00 -0.94934268892E+03  0.94934268892E+03  0.25500000920E-02 0.  1.
    10030    2    1    2    0    0  0.00000000000E+00  0.00000000000E+00  0.20093067922E+03  0.20996160571E+04  0.20899795332E+04 0.  0.
        4    1    3    3  502    0  0.45665519862E+03  0.67855338275E+03 -0.55294371466E+03  0.98727758415E+03  0.12699999809E+01 0.  1.
       -4    1    3    3    0  502 -0.45665519862E+03 -0.67855338275E+03  0.75387439388E+03  0.11123384729E+04  0.12699999809E+01 0. -1.
</event>
<event>
 5   0  0.1466480E-05  0.2100948E+04  0.7818609E-02  0.8560826E-01
       -1   -1    0    0    0  501  0.00000000000E+00  0.00000000000E+00  0.54337334566E+03  0.54337334568E+03  0.50400001928E-02 0.  1.
        1   -1    0    0  501    0  0.00000000000E+00  0.00000000000E+00 -0.20308234630E+04  0.20308234630E+04  0.50400001928E-02 0. -1.
    10030    2    1    2    0    0  0.00000000000E+00  0.00000000000E+00 -0.14874501174E+04  0.25741968087E+04  0.21009477286E+04 0.  0.
        3    1    3    3  502    0 -0.61421245312E+03 -0.83306057620E+03 -0.52369549097E+03  0.11599585504E+04  0.10100000352E+00 0. -1.
       -3    1    3    3    0  502  0.61421245312E+03  0.83306057620E+03 -0.96375462640E+03  0.14142382583E+04  0.10100000352E+00 0.  1.
</event>
<event>
 5   0  0.3279789E-05  0.2097725E+04  0.7818609E-02  0.8562246E-01
       -2   -1    0    0    0  501  0.00000000000E+00  0.00000000000E+00  0.64654726764E+03  0.64654726764E+03  0.25500000920E-02 0.  1.
        2   -1    0    0  501    0  0.00000000000E+00  0.00000000000E+00 -0.17015195893E+04  0.17015195893E+04  0.25500000920E-02 0. -1.
    10030    2    1    2    0    0  0.00000000000E+00  0.00000000000E+00 -0.10549723216E+04  0.23480668569E+04  0.20977252835E+04 0.  0.
        2    1    3    3  502    0  0.10278817854E+04 -0.19332795797E+03 -0.61559586904E+03  0.12136205906E+04  0.25500000920E-02 0. -1.
       -2    1    3    3    0  502 -0.10278817854E+04  0.19332795797E+03 -0.43937645260E+03  0.11344462663E+04  0.25500000920E-02 0.  1.
</event>
<event>
 5   0  0.3242231E-05  0.2102077E+04  0.7818609E-02  0.8560329E-01
       -2   -1    0    0    0  501  0.00000000000E+00  0.00000000000E+00  0.13528719558E+04  0.13528719558E+04  0.25500000920E-02 0. -1.
        2   -1    0    0  501    0  0.00000000000E+00  0.00000000000E+00 -0.81654565985E+03  0.81654565985E+03  0.25500000920E-02 0.  1.
    10030    2    1    2    0    0  0.00000000000E+00  0.00000000000E+00  0.53632629597E+03  0.21694176157E+04  0.21020768053E+04 0.  0.
        4    1    3    3  502    0  0.75835407933E+03 -0.25500675890E+03 -0.43525110973E+03  0.91080980349E+03  0.12699999809E+01 0.  1.
       -4    1    3    3    0  502 -0.75835407933E+03  0.25500675890E+03  0.97157740570E+03  0.12586078122E+04  0.12699999809E+01 0. -1.
</event>
<event>
 5   0  0.3257130E-05  0.2075324E+04  0.7818609E-02  0.8572192E-01
       -2   -1    0    0    0  501  0.00000000000E+00  0.00000000000E+00  0.63262380545E+03  0.63262380546E+03  0.25500000920E-02 0. -1.
        2   -1    0    0  501    0  0.00000000000E+00  0.00000000000E+00 -0.17020258400E+04  0.17020258400E+04  0.25500000920E-02 0.  1.
    10030    2    1    2    0    0  0.00000000000E+00  0.00000000000E+00 -0.10694020345E+04  0.23346496454E+04  0.20753236508E+04 0.  0.
        3    1    3    3  502    0 -0.42442416133E+03  0.66893828080E+03 -0.12886133214E+04  0.15126594443E+04  0.10100000352E+00 0.  1.
       -3    1    3    3    0  502  0.42442416133E+03 -0.66893828080E+03  0.21921128685E+03  0.82199020112E+03  0.10100000352E+00 0. -1.
</event>
<event>
 5   0  0.1466480E-05  0.2104610E+04  0.7818609E-02  0.8559215E-01
       -1   -1    0    0    0  501  0.00000000000E+00  0.00000000000E+00  0.98871516345E+03  0.98871516346E+03  0.50400001928E-02 0.  1.
        1   -1    0    0  501    0  0.00000000000E+00  0.00000000000E+00 -0.11199846793E+04  0.11199846793E+04  0.50400001928E-02 0. -1.
    10030    2    1    2    0    0  0.00000000000E+00  0.00000000000E+00 -0.13126951581E+03  0.21086998427E+04  0.21046100211E+04 0.  0.
        3    1    3    3  502    0  0.19647518166E+03  0.82197331555E+03  0.56256305399E+03  0.10152437286E+04  0.10100000352E+00 0.  1.
       -3    1    3    3    0  502 -0.19647518166E+03 -0.82197331555E+03 -0.69383256980E+03  0.10934561142E+04  0.10100000352E+00 0. -1.
</event>
<event>
 5   0  0.3279789E-05  0.2091040E+04  0.7818609E-02  0.8565200E-01
       -2   -1    0    0    0  501  0.00000000000E+00  0.00000000000E+00  0.16096253558E+04  0.16096253558E+04  0.25500000920E-02 0.  1.
        2   -1    0    0  501    0  0.00000000000E+00  0.00000000000E+00 -0.67910987179E+03  0.67910987179E+03  0.25500000920E-02 0. -1.
    10030    2    1    2    0    0  0.00000000000E+00  0.00000000000E+00  0.93051548399E+03  0.22887352276E+04  0.20910403812E+04 0.  0.
        2    1    3    3  502    0  0.29984728870E+03  0.61859539804E+03 -0.39696476828E+03  0.79381968374E+03  0.25500000920E-02 0. -1.
       -2    1    3    3    0  502 -0.29984728870E+03 -0.61859539804E+03  0.13274802523E+04  0.14949155438E+04  0.25500000920E-02 0.  1.
</event>
<event>
 5   0  0.1129987E-05  0.2064265E+04  0.7818609E-02  0.8577150E-01
        3   -1    0    0  501    0  0.00000000000E+00  0.00000000000E+00  0.17034429396E+04  0.17034429426E+04  0.10100000352E+00 0.  1.
       -3   -1    0    0    0  501  0.00000000000E+00  0.00000000000E+00 -0.62537930978E+03  0.62537931794E+03  0.10100000352E+00 0. -1.
    10030    2    1    2    0    0  0.00000000000E+00  0.00000000000E+00  0.10780636298E+04  0.23288222605E+04  0.20642654701E+04 0.  0.
        2    1    3    3  502    0  0.10044469481E+04  0.82099408900E+02  0.79039644774E+03  0.12807734105E+04  0.25500000920E-02 0. -1.
       -2    1    3    3    0  502 -0.10044469481E+04 -0.82099408900E+02  0.28766718208E+03  0.10480488500E+04  0.25500000920E-02 0.  1.
</event>
<event>
 5   0  0.1492552E-05  0.2101584E+04  0.7818609E-02  0.8560546E-01
       -1   -1    0    0    0  501  0.00000000000E+00  0.00000000000E+00  0.85150992792E+03  0.85150992794E+03  0.50400001928E-02 0. -1.
        1   -1    0    0  501    0  0.00000000000E+00  0.00000000000E+00 -0.12967133587E+04  0.12967133587E+04  0.50400001928E-02 0.  1.
    10030    2    1    2    0    0  0.00000000000E+00  0.00000000000E+00 -0.44520343080E+03  0.21482232867E+04  0.21015844486E+04 0.  0.
        4    1    3    3  502    0  0.22629435750E+03  0.16283821723E+02  0.82617367930E+03  0.85676067858E+03  0.12699999809E+01 0. -1.
       -4    1    3    3    0  502 -0.22629435750E+03 -0.16283821723E+02 -0.12713771101E+04  0.12914626081E+04  0.12699999809E+01 0.  1.
</event>
<event>
 5   0  0.3279789E-05  0.2089454E+04  0.7818609E-02  0.8565903E-01
       -2   -1    0    0    0  501  0.00000000000E+00  0.00000000000E+00  0.74493831902E+03  0.74493831903E+03  0.25500000920E-02 0. -1.
        2   -1    0    0  501    0  0.00000000000E+00  0.00000000000E+00 -0.14651605181E+04  0.14651605181E+04  0.25500000920E-02 0.  1.
    10030    2    1    2    0    0  0.00000000000E+00  0.00000000000E+00 -0.72022219906E+03  0.22100988371E+04  0.20894537214E+04 0.  0.
        2    1    3    3  502    0  0.27063740945E+03  0.90370339129E+03  0.11473028439E+03  0.95030914180E+03  0.25500000920E-02 0. -1.
       -2    1    3    3    0  502 -0.27063740945E+03 -0.90370339129E+03 -0.83495248345E+03  0.12597896953E+04  0.25500000920E-02 0.  1.
</event>
<event>
 5   0  0.1453430E-05  0.2097012E+04  0.7818609E-02  0.8562561E-01
        1   -1    0    0  501    0  0.00000000000E+00  0.00000000000E+00  0.21771242532E+04  0.21771242532E+04  0.50400001928E-02 0.  1.
       -1   -1    0    0    0  501  0.00000000000E+00  0.00000000000E+00 -0.50496177934E+03  0.50496177937E+03  0.50400001928E-02 0. -1.
    10030    2    1    2    0    0  0.00000000000E+00  0.00000000000E+00  0.16721624739E+04  0.26820860326E+04  0.20970117184E+04 0.  0.
        5    1    3    3  502    0 -0.78524891652E+02 -0.18555451007E+03  0.21521170258E+04  0.21615333487E+04  0.46999998093E+01 0.  1.
       -5    1    3    3    0  502  0.78524891652E+02  0.18555451007E+03 -0.47995455191E+03  0.52055268390E+03  0.46999998093E+01 0. -1.
</event>
<event>
 5   0  0.1453430E-05  0.2105192E+04  0.7818609E-02  0.8558959E-01
        1   -1    0    0  501    0  0.00000000000E+00  0.00000000000E+00  0.14884761810E+04  0.14884761810E+04  0.50400001928E-02 0.  1.
       -1   -1    0    0    0  501  0.00000000000E+00  0.00000000000E+00 -0.74435778221E+03  0.74435778223E+03  0.50400001928E-02 0. -1.
    10030    2    1    2    0    0  0.00000000000E+00  0.00000000000E+00  0.74411839877E+03  0.22328339632E+04  0.21051924653E+04 0.  0.
        5    1    3    3  502    0  0.17365042943E+03 -0.27528787562E+03  0.14337504411E+04  0.14702381791E+04  0.46999998093E+01 0.  1.
       -5    1    3    3    0  502 -0.17365042943E+03  0.27528787562E+03 -0.68963204231E+03  0.76259578407E+03  0.46999998093E+01 0. -1.
</event>
<event>
 5   0  0.1466480E-05  0.2102561E+04  0.7818609E-02  0.8560116E-01
       -1   -1    0    0    0  501  0.00000000000E+00  0.00000000000E+00  0.96754296877E+03  0.96754296878E+03  0.50400001928E-02 0. -1.
        1   -1    0    0  501    0  0.00000000000E+00  0.00000000000E+00 -0.11422648067E+04  0.11422648067E+04  0.50400001928E-02 0.  1.
    10030    2    1    2    0    0  0.00000000000E+00  0.00000000000E+00 -0.17472183794E+03  0.21098077755E+04  0.21025606124E+04 0.  0.
        3    1    3    3  502    0  0.39650188553E+02  0.93816084533E+03  0.38699713049E+03  0.10156203515E+04  0.10100000352E+00 0. -1.
       -3    1    3    3    0  502 -0.39650188553E+02 -0.93816084533E+03 -0.56171896842E+03  0.10941874240E+04  0.10100000352E+00 0.  1.
</event>
<event>
 5   0  0.1435410E-05  0.2091214E+04  0.7818609E-02  0.8565124E-01
        1   -1    0    0  501    0  0.00000000000E+00  0.00000000000E+00  0.15638087038E+04  0.15638087038E+04  0.50400001928E-02 0.  1.
       -1   -1    0    0    0  501  0.00000000000E+00  0.00000000000E+00 -0.69912238220E+03  0.69912238222E+03  0.50400001928E-02 0. -1.
    10030    2    1    2    0    0  0.00000000000E+00  0.00000000000E+00  0.86468632161E+03  0.22629310860E+04  0.20912136824E+04 0.  0.
        2    1    3    3  502    0 -0.33396120286E+02  0.85424130344E+03 -0.21913080505E+03  0.88253148107E+03  0.25500000920E-02 0. -1.
       -2    1    3    3    0  502  0.33396120286E+02 -0.85424130344E+03  0.10838171267E+04  0.13803996050E+04  0.25500000920E-02 0.  1.
</event>
<event>
 5   0  0.3108326E-05  0.2097196E+04  0.7818609E-02  0.8562480E-01
       -2   -1    0    0    0  501  0.00000000000E+00  0.00000000000E+00  0.60363959443E+03  0.60363959443E+03  0.25500000920E-02 0. -1.
        2   -1    0    0  501    0  0.00000000000E+00  0.00000000000E+00 -0.18215465665E+04  0.18215465665E+04  0.25500000920E-02 0.  1.
    10030    2    1    2    0    0  0.00000000000E+00  0.00000000000E+00 -0.12179069721E+04  0.24251861609E+04  0.20971958713E+04 0.  0.
        5    1    3    3  502    0 -0.58183210982E+03  0.52132201370E+02 -0.16159396747E+04  0.17182926097E+04  0.46999998093E+01 0.  1.
       -5    1    3    3    0  502  0.58183210982E+03 -0.52132201370E+02  0.39803270259E+03  0.70689355123E+03  0.46999998093E+01 0. -1.
</event>
<event>
 5   0  0.1492552E-05  0.2096177E+04  0.7818609E-02  0.8562929E-01
       -1   -1    0    0    0  501  0.00000000000E+00  0.00000000000E+00  0.44016994144E+03  0.44016994146E+03  0.50400001928E-02 0.  1.
        1   -1    0    0  501    0  0.00000000000E+00  0.00000000000E+00 -0.24956022032E+04  0.24956022032E+04  0.50400001928E-02 0. -1.
    10030    2    1    2    0    0  0.00000000000E+00  0.00000000000E+00 -0.20554322618E+04  0.29357721447E+04  0.20961765915E+04 0.  0.
        4    1    3    3  502    0  0.68895371982E+02  0.69303937825E+03 -0.21246477931E+04  0.22358846146E+04  0.12699999809E+01 0. -1.
       -4    1    3    3    0  502 -0.68895371982E+02 -0.69303937825E+03  0.69215531343E+02  0.69988753008E+03  0.12699999809E+01 0.  1.
</event>
<event>
 5   0  0.1453430E-05  0.2100301E+04  0.7818609E-02  0.8561111E-01
        1   -1    0    0  501    0  0.00000000000E+00  0.00000000000E+00  0.12133291537E+04  0.12133291537E+04  0.50400001928E-02 0.  1.
       -1   -1    0    0    0  501  0.00000000000E+00  0.00000000000E+00 -0.90891736885E+03  0.90891736887E+03  0.50400001928E-02 0. -1.
    10030    2    1    2    0    0  0.00000000000E+00  0.00000000000E+00  0.30441178486E+03  0.21222465226E+04  0.21003008756E+04 0.  0.
        5    1    3    3  502    0 -0.63656375459E+03  0.35482487590E+03 -0.61178946601E+03  0.95153693934E+03  0.46999998093E+01 0. -1.
       -5    1    3    3    0  502  0.63656375459E+03 -0.35482487590E+03  0.91620125088E+03  0.11707095833E+04  0.46999998093E+01 0.  1.
</event>
<event>
 5   0  0.3279789E-05  0.2049036E+04  0.7818609E-02  0.8584032E-01
        2   -1    0    0  501    0  0.00000000000E+00  0.00000000000E+00  0.14752125586E+04  0.14752125586E+04  0.25500000920E-02 0.  1.
       -2   -1    0    0    0  501  0.00000000000E+00  0.00000000000E+00 -0.71151567433E+03  0.71151567433E+03  0.25500000920E-02 0. -1.
    10030    2    1    2    0    0  0.00000000000E+00  0.00000000000E+00  0.76369688428E+03  0.21867282329E+04  0.20490357326E+04 0.  0.
        2    1    3    3  502    0  0.93729777890E+03  0.22035384019E+03  0.75545017225E+03  0.12238414538E+04  0.25500000920E-02 0. -1.
       -2    1    3    3    0  502 -0.93729777890E+03 -0.22035384019E+03  0.82467120251E+01  0.96288677916E+03  0.25500000920E-02 0.  1.
</event>
<event>
 5   0  0.1435410E-05  0.2097514E+04  0.7818609E-02  0.8562339E-01
        1   -1    0    0  501    0  0.00000000000E+00  0.00000000000E+00  0.15444200791E+04  0.15444200791E+04  0.50400001928E-02 0. -1.
       -1   -1    0    0    0  501  0.00000000000E+00  0.00000000000E+00 -0.71217114630E+03  0.71217114632E+03  0.50400001928E-02 0.  1.
    10030    2    1    2    0    0  0.00000000000E+00  0.00000000000E+00  0.83224893277E+03  0.22565912254E+04  0.20975141650E+04 0.  0.
        2    1    3    3  502    0 -0.66230377442E+03  0.81072847174E+03  0.48386377481E+03  0.11532784126E+04  0.25500000920E-02 0. -1.
       -2    1    3    3    0  502  0.66230377442E+03 -0.81072847174E+03  0.34838515796E+03  0.11033128128E+04  0.25500000920E-02 0.  1.
</event>
<event>
 5   0  0.3108326E-05  0.2095706E+04  0.7818609E-02  0.8563137E-01
       -2   -1    0    0    0  501  0.00000000000E+00  0.00000000000E+00  0.95812011750E+03  0.95812011750E+03  0.25500000920E-02 0.  1.
        2   -1    0    0  501    0  0.00000000000E+00  0.00000000000E+00 -0.11459900832E+04  0.11459900832E+04  0.25500000920E-02 0. -1.
    10030    2    1    2    0    0  0.00000000000E+00  0.00000000000E+00 -0.18786996570E+03  0.21041102007E+04  0.20957062324E+04 0.  0.
        5    1    3    3  502    0  0.67354201443E+03 -0.38233524842E+03 -0.80255202840E+03  0.11153254842E+04  0.46999998093E+01 0. -1.
       -5    1    3    3    0  502 -0.67354201443E+03  0.38233524842E+03  0.61468206270E+03  0.98878471651E+03  0.46999998093E+01 0.  1.
</event>
<event>
 5   0  0.1513292E-05  0.2103265E+04  0.7818609E-02  0.8559806E-01
       -1   -1    0    0    0  501  0.00000000000E+00  0.00000000000E+00  0.59889912213E+03  0.59889912215E+03  0.50400001928E-02 0.  1.
        1   -1    0    0  501    0  0.00000000000E+00  0.00000000000E+00 -0.18466064853E+04  0.18466064853E+04  0.50400001928E-02 0. -1.
    10030    2    1    2    0    0  0.00000000000E+00  0.00000000000E+00 -0.12477073632E+04  0.24455056074E+04  0.21032650836E+04 0.  0.
        1    1    3    3  502    0  0.60097627284E+03 -0.85884852955E+03 -0.72208604192E+03  0.12728713718E+04  0.50400001928E-02 0. -1.
       -1    1    3    3    0  502 -0.60097627284E+03  0.85884852955E+03 -0.52562132123E+03  0.11726342356E+04  0.50400001928E-02 0.  1.
</event>
<event>
 5   0  0.3257130E-05  0.2101832E+04  0.7818609E-02  0.8560437E-01
        2   -1    0    0  501    0  0.00000000000E+00  0.00000000000E+00  0.14634383180E+04  0.14634383180E+04  0.25500000920E-02 0.  1.
       -2   -1    0    0    0  501  0.00000000000E+00  0.00000000000E+00 -0.75467764094E+03  0.75467764095E+03  0.25500000920E-02 0. -1.
    10030    2    1    2    0    0  0.00000000000E+00  0.00000000000E+00  0.70876067702E+03  0.22181159589E+04  0.21018317511E+04 0.  0.
        3    1    3    3  502    0 -0.98662907779E+03 -0.35441181976E+03  0.27697749109E+03  0.10843252353E+04  0.10100000352E+00 0. -1.
       -3    1    3    3    0  502  0.98662907779E+03  0.35441181976E+03  0.43178318593E+03  0.11337907236E+04  0.10100000352E+00 0.  1.
</event>
<event>
 5   0  0.3108326E-05  0.2106173E+04  0.7818609E-02  0.8558529E-01
        2   -1    0    0  501    0  0.00000000000E+00  0.00000000000E+00  0.19597154481E+04  0.19597154481E+04  0.25500000920E-02 0. -1.
       -2   -1    0    0    0  501  0.00000000000E+00  0.00000000000E+00 -0.56589389834E+03  0.56589389834E+03  0.25500000920E-02 0.  1.
    10030    2    1    2    0    0  0.00000000000E+00  0.00000000000E+00  0.13938215498E+04  0.25256093465E+04  0.21061728463E+04 0.  0.
        5    1    3    3  502    0 -0.14620298891E+03 -0.61483707392E+03 -0.31320110381E+03  0.70534882354E+03  0.46999998093E+01 0.  1.
       -5    1    3    3    0  502  0.14620298891E+03  0.61483707392E+03  0.17070226536E+04  0.18202605229E+04  0.46999998093E+01 0. -1.
</event>
<event>
 5   0  0.1513292E-05  0.2099865E+04  0.7818609E-02  0.8561303E-01
       -1   -1    0    0    0  501  0.00000000000E+00  0.00000000000E+00  0.82239843204E+03  0.82239843205E+03  0.50400001928E-02 0. -1.
        1   -1    0    0  501    0  0.00000000000E+00  0.00000000000E+00 -0.13404183451E+04  0.13404183451E+04  0.50400001928E-02 0.  1.
    10030    2    1    2    0    0  0.00000000000E+00  0.00000000000E+00 -0.51801991304E+03  0.21628167771E+04  0.20998647054E+04 0.  0.
        1    1    3    3  502    0  0.50819366014E+03  0.14719000764E+03  0.67505801768E+03  0.85768818449E+03  0.50400001928E-02 0. -1.
       -1    1    3    3    0  502 -0.50819366014E+03 -0.14719000764E+03 -0.11930779307E+04  0.13051285926E+04  0.50400001928E-02 0.  1.
</event>
<event>
 5   0  0.3279789E-05  0.2103055E+04  0.7818609E-02  0.8559899E-01
       -2   -1    0    0    0  501  0.00000000000E+00  0.00000000000E+00  0.66233075709E+03  0.66233075710E+03  0.25500000920E-02 0.  1.
        2   -1    0    0  501    0  0.00000000000E+00  0.00000000000E+00 -0.16694229285E+04  0.16694229285E+04  0.25500000920E-02 0. -1.
    10030    2    1    2    0    0  0.00000000000E+00  0.00000000000E+00 -0.10070921714E+04  0.23317536856E+04  0.21030550655E+04 0.  0.
        2    1    3    3  502    0  0.17404988184E+03 -0.10276665520E+04 -0.34944137908E+03  0.10993185075E+04  0.25500000920E-02 0.  1.
       -2    1    3    3    0  502 -0.17404988184E+03  0.10276665520E+04 -0.65765079235E+03  0.12324351781E+04  0.25500000920E-02 0. -1.
</event>
<event>
 5   0  0.3108326E-05  0.2095847E+04  0.7818609E-02  0.8563075E-01
        2   -1    0    0  501    0  0.00000000000E+00  0.00000000000E+00  0.17397783076E+04  0.17397783076E+04  0.25500000920E-02 0.  1.
       -2   -1    0    0    0  501  0.00000000000E+00  0.00000000000E+00 -0.63119724952E+03  0.63119724953E+03  0.25500000920E-02 0. -1.
    10030    2    1    2    0    0  0.00000000000E+00  0.00000000000E+00  0.11085810581E+04  0.23709755571E+04  0.20958466380E+04 0.  0.
        5    1    3    3  502    0 -0.64392716089E+03  0.19797562335E+03 -0.35375258817E+03  0.76092017953E+03  0.46999998093E+01 0. -1.
       -5    1    3    3    0  502  0.64392716089E+03 -0.19797562335E+03  0.14623336462E+04  0.16100553776E+04  0.46999998093E+01 0.  1.
</event>
<event>
 5   0  0.1435410E-05  0.2113772E+04  0.7818609E-02  0.8555201E-01
       -1   -1    0    0    0  501  0.00000000000E+00  0.00000000000E+00  0.18352050328E+04  0.18352050328E+04  0.50400001928E-02 0. -1.
        1   -1    0    0  501    0  0.00000000000E+00  0.00000000000E+00 -0.60865599274E+03  0.60865599276E+03  0.50400001928E-02 0.  1.
    10030    2    1    2    0    0  0.00000000000E+00  0.00000000000E+00  0.12265490401E+04  0.24438610256E+04  0.21137724960E+04 0.  0.
        2    1    3    3  502    0 -0.15056088220E+03  0.95100501184E+03  0.10940928516E+03  0.96904566635E+03  0.25500000920E-02 0.  1.
       -2    1    3    3    0  502  0.15056088220E+03 -0.95100501184E+03  0.11171397549E+04  0.14748153592E+04  0.25500000920E-02 0. -1.
</event>
<event>
 5   0  0.3108326E-05  0.2100965E+04  0.7818609E-02  0.8560818E-01
       -2   -1    0    0    0  501  0.00000000000E+00  0.00000000000E+00  0.73545352501E+03  0.73545352502E+03  0.25500000920E-02 0. -1.
        2   -1    0    0  501    0  0.00000000000E+00  0.00000000000E+00 -0.15004531671E+04  0.15004531671E+04  0.25500000920E-02 0.  1.
    10030    2    1    2    0    0  0.00000000000E+00  0.00000000000E+00 -0.76499964208E+03  0.22359066921E+04  0.21009650838E+04 0.  0.
        5    1    3    3  502    0  0.55991961416E+03  0.52130411524E+03  0.38361418717E+03  0.85583286306E+03  0.46999998093E+01 0. -1.
       -5    1    3    3    0  502 -0.55991961416E+03 -0.52130411524E+03 -0.11486138293E+04  0.13800738291E+04  0.46999998093E+01 0.  1.
</event>
<event>
 5   0  0.1492552E-05  0.2162233E+04  0.7818609E-02  0.8534314E-01
       -1   -1    0    0    0  501  0.00000000000E+00  0.00000000000E+00  0.10119917257E+04  0.10119917257E+04  0.50400001928E-02 0. -1.
        1   -1    0    0  501    0  0.00000000000E+00  0.00000000000E+00 -0.11549628044E+04  0.11549628045E+04  0.50400001928E-02 0.  1.
    10030    2    1    2    0    0  0.00000000000E+00  0.00000000000E+00 -0.14297107874E+03  0.21669545302E+04  0.21622329214E+04 0.  0.
        4    1    3    3  502    0 -0.81789449870E+02 -0.10763984208E+04 -0.12296311336E+02  0.10795720849E+04  0.12699999809E+01 0.  1.
       -4    1    3    3    0  502  0.81789449870E+02  0.10763984208E+04 -0.13067476741E+03  0.10873824452E+04  0.12699999809E+01 0. -1.
</event>
<event>
 5   0  0.1453430E-05  0.2105432E+04  0.7818609E-02  0.8558854E-01
       -1   -1    0    0    0  501  0.00000000000E+00  0.00000000000E+00  0.69804172300E+03  0.69804172302E+03  0.50400001928E-02 0.  1.
        1   -1    0    0  501    0  0.00000000000E+00  0.00000000000E+00 -0.15875998832E+04  0.15875998832E+04  0.50400001928E-02 0. -1.
    10030    2    1    2    0    0  0.00000000000E+00  0.00000000000E+00 -0.88955816019E+03  0.22856416062E+04  0.21054319822E+04 0.  0.
        5    1    3    3  502    0 -0.95166743035E+02  0.77586707750E+03 -0.12102277477E+04  0.14407288857E+04  0.46999998093E+01 0. -1.
       -5    1    3    3    0  502  0.95166743035E+02 -0.77586707750E+03  0.32066958748E+03  0.84491272050E+03  0.46999998093E+01 0.  1.
</event>
<event>
 5   0  0.1453430E-05  0.2085606E+04  0.7818609E-02  0.8567611E-01
        1   -1    0    0  501    0  0.00000000000E+00  0.00000000000E+00  0.12809915795E+04  0.12809915795E+04  0.50400001928E-02 0. -1.
       -1   -1    0    0    0  501  0.00000000000E+00  0.00000000000E+00 -0.84890366350E+03  0.84890366352E+03  0.50400001928E-02 0.  1.
    10030    2    1    2    0    0  0.00000000000E+00  0.00000000000E+00  0.43208791602E+03  0.21298952431E+04  0.20856063337E+04 0.  0.
        5    1    3    3  502    0  0.10082286396E+04 -0.20020337047E+03  0.36788832063E+02  0.10285824650E+04  0.46999998093E+01 0. -1.
       -5    1    3    3    0  502 -0.10082286396E+04  0.20020337047E+03  0.39529908396E+03  0.11013127780E+04  0.46999998093E+01 0.  1.
</event>
<event>
 5   0  0.1129987E-05  0.2090920E+04  0.7818609E-02  0.8565254E-01
        3   -1    0    0  501    0  0.00000000000E+00  0.00000000000E+00  0.17506704802E+04  0.17506704831E+04  0.10100000352E+00 0. -1.
       -3   -1    0    0    0  501  0.00000000000E+00  0.00000000000E+00 -0.62432454269E+03  0.62432455086E+03  0.10100000352E+00 0.  1.
    10030    2    1    2    0    0  0.00000000000E+00  0.00000000000E+00  0.11263459375E+04  0.23749950340E+04  0.20909199508E+04 0.  0.
        4    1    3    3  502    0 -0.80057842103E+03  0.29971142434E+03 -0.12045343287E+03  0.86328638845E+03  0.12699999809E+01 0.  1.
       -4    1    3    3    0  502  0.80057842103E+03 -0.29971142434E+03  0.12467993704E+04  0.15117086455E+04  0.12699999809E+01 0. -1.
</event>
<event>
 5   0  0.3257130E-05  0.2107645E+04  0.7818609E-02  0.8557883E-01
       -2   -1    0    0    0  501  0.00000000000E+00  0.00000000000E+00  0.67935775822E+03  0.67935775822E+03  0.25500000920E-02 0.  1.
        2   -1    0    0  501    0  0.00000000000E+00  0.00000000000E+00 -0.16346938741E+04  0.16346938741E+04  0.25500000920E-02 0. -1.
    10030    2    1    2    0    0  0.00000000000E+00  0.00000000000E+00 -0.95533611585E+03  0.23140516323E+04  0.21076450988E+04 0.  0.
        3    1    3    3  502    0 -0.58535103158E+02 -0.61129752655E+03  0.46260755602E+03  0.76884119644E+03  0.10100000352E+00 0.  1.
       -3    1    3    3    0  502  0.58535103158E+02  0.61129752655E+03 -0.14179436719E+04  0.15452104358E+04  0.10100000352E+00 0. -1.
</event>
<event>
 5   0  0.1453430E-05  0.2093121E+04  0.7818609E-02  0.8564280E-01
        1   -1    0    0  501    0  0.00000000000E+00  0.00000000000E+00  0.17699014320E+04  0.17699014320E+04  0.50400001928E-02 0. -1.
       -1   -1    0    0    0  501  0.00000000000E+00  0.00000000000E+00 -0.61884173920E+03  0.61884173922E+03  0.50400001928E-02 0.  1.
    10030    2    1    2    0    0  0.00000000000E+00  0.00000000000E+00  0.11510596928E+04  0.23887431712E+04  0.20931210002E+04 0.  0.
        5    1    3    3  502    0 -0.26042937444E+03  0.47876273395E+03 -0.44409176300E+03  0.70304821915E+03  0.46999998093E+01 0.  1.
       -5    1    3    3    0  502  0.26042937444E+03 -0.47876273395E+03  0.15951514558E+04  0.16856949521E+04  0.46999998093E+01 0. -1.
</event>
<event>
 5   0  0.1453430E-05  0.2099305E+04  0.7818609E-02  0.8561550E-01
        1   -1    0    0  501    0  0.00000000000E+00  0.00000000000E+00  0.21507555855E+04  0.21507555855E+04  0.50400001928E-02 0. -1.
       -1   -1    0    0    0  501  0.00000000000E+00  0.00000000000E+00 -0.51227111424E+03  0.51227111426E+03  0.50400001928E-02 0.  1.
    10030    2    1    2    0    0  0.00000000000E+00  0.00000000000E+00  0.16384844713E+04  0.26630266998E+04  0.20993046089E+04 0.  0.
        5    1    3    3  502    0  0.34771957425E+02 -0.70693253407E+03  0.18024825221E+04  0.19364730903E+04  0.46999998093E+01 0. -1.
       -5    1    3    3    0  502 -0.34771957425E+02  0.70693253407E+03 -0.16399805089E+03  0.72655360948E+03  0.46999998093E+01 0.  1.
</event>
<event>
 5   0  0.3257130E-05  0.2096580E+04  0.7818609E-02  0.8562751E-01
        2   -1    0    0  501    0  0.00000000000E+00  0.00000000000E+00  0.12045686030E+04  0.12045686031E+04  0.25500000920E-02 0.  1.
       -2   -1    0    0    0  501  0.00000000000E+00  0.00000000000E+00 -0.91228666379E+03  0.91228666379E+03  0.25500000920E-02 0. -1.
    10030    2    1    2    0    0  0.00000000000E+00  0.00000000000E+00  0.29228193926E+03  0.21168552668E+04  0.20965799505E+04 0.  0.
        3    1    3    3  502    0  0.28364763292E+03 -0.11486675388E+03 -0.86618240451E+03  0.91865244728E+03  0.10100000352E+00 0. -1.
       -3    1    3    3    0  502 -0.28364763292E+03  0.11486675388E+03  0.11584643438E+04  0.11982028196E+04  0.10100000352E+00 0.  1.
</event>
<event>
 5   0  0.3130517E-05  0.2095097E+04  0.7818609E-02  0.8563406E-01
        2   -1    0    0  501    0  0.00000000000E+00  0.00000000000E+00  0.20715877518E+04  0.20715877518E+04  0.25500000920E-02 0.  1.
       -2   -1    0    0    0  501  0.00000000000E+00  0.00000000000E+00 -0.52971820943E+03  0.52971820944E+03  0.25500000920E-02 0. -1.
    10030    2    1    2    0    0  0.00000000000E+00  0.00000000000E+00  0.15418695424E+04  0.26013059613E+04  0.20950968995E+04 0.  0.
        1    1    3    3  502    0  0.45187851942E+03 -0.54587406323E+03  0.17288196877E+04  0.18684191719E+04  0.50400001928E-02 0.  1.
       -1    1    3    3    0  502 -0.45187851942E+03  0.54587406323E+03 -0.18695014530E+03  0.73288678940E+03  0.50400001928E-02 0. -1.
</event>
<event>
 5   0  0.3242231E-05  0.2097746E+04  0.7818609E-02  0.8562237E-01
        2   -1    0    0  501    0  0.00000000000E+00  0.00000000000E+00  0.17184966420E+04  0.17184966420E+04  0.25500000920E-02 0. -1.
       -2   -1    0    0    0  501  0.00000000000E+00  0.00000000000E+00 -0.64017264473E+03  0.64017264474E+03  0.25500000920E-02 0.  1.
    10030    2    1    2    0    0  0.00000000000E+00  0.00000000000E+00  0.10783239973E+04  0.23586692868E+04  0.20977459716E+04 0.  0.
        4    1    3    3  502    0 -0.78341571682E+03 -0.66656739850E+03  0.30851099345E+03  0.10738868321E+04  0.12699999809E+01 0. -1.
       -4    1    3    3    0  502  0.78341571682E+03  0.66656739850E+03  0.76981300383E+03  0.12847824547E+04  0.12699999809E+01 0.  1.
</event>
<event>
 5   0  0.1435410E-05  0.2102160E+04  0.7818609E-02  0.8560293E-01
       -1   -1    0    0    0  501  0.00000000000E+00  0.00000000000E+00  0.10084662796E+04  0.10084662796E+04  0.50400001928E-02 0.  1.
        1   -1    0    0  501    0  0.00000000000E+00  0.00000000000E+00 -0.10954938963E+04  0.10954938963E+04  0.50400001928E-02 0. -1.
    10030    2    1    2    0    0  0.00000000000E+00  0.00000000000E+00 -0.87027616628E+02  0.21039601759E+04  0.21021595124E+04 0.  0.
        2    1    3    3  502    0 -0.16400313096E+03  0.10066521247E+04  0.21071780321E+03  0.10414641231E+04  0.25500000920E-02 0. -1.
       -2    1    3    3    0  502  0.16400313096E+03 -0.10066521247E+04 -0.29774541984E+03  0.10624960528E+04  0.25500000920E-02 0.  1.
</event>
<event>
 5   0  0.3108326E-05  0.2089703E+04  0.7818609E-02  0.8565793E-01
       -2   -1    0    0    0  501  0.00000000000E+00  0.00000000000E+00  0.86014858913E+03  0.86014858914E+03  0.25500000920E-02 0. -1.
        2   -1    0    0  501    0  0.00000000000E+00  0.00000000000E+00 -0.12692168963E+04  0.12692168963E+04  0.25500000920E-02 0.  1.
    10030    2    1    2    0    0  0.00000000000E+00  0.00000000000E+00 -0.40906830718E+03  0.21293654855E+04  0.20897034456E+04 0.  0.
        5    1    3    3  502    0 -0.74662509312E+03  0.28106571392E+03 -0.89205940419E+03  0.11967618960E+04  0.46999998093E+01 0.  1.
       -5    1    3    3    0  502  0.74662509312E+03 -0.28106571392E+03  0.48299109700E+03  0.93260358942E+03  0.46999998093E+01 0. -1.
</event>
<event>
 5   0  0.1492552E-05  0.2097522E+04  0.7818609E-02  0.8562336E-01
       -1   -1    0    0    0  501  0.00000000000E+00  0.00000000000E+00  0.11525108176E+04  0.11525108176E+04  0.50400001928E-02 0.  1.
        1   -1    0    0  501    0  0.00000000000E+00  0.00000000000E+00 -0.95435118530E+03  0.95435118531E+03  0.50400001928E-02 0. -1.
    10030    2    1    2    0    0  0.00000000000E+00  0.00000000000E+00  0.19815963226E+03  0.21068620029E+04  0.20975224097E+04 0.  0.
        4    1    3    3  502    0 -0.69529717448E+03 -0.67819747081E+03  0.49645287587E+03  0.10908056844E+04  0.12699999809E+01 0. -1.
       -4    1    3    3    0  502  0.69529717448E+03  0.67819747081E+03 -0.29829324361E+03  0.10160563185E+04  0.12699999809E+01 0.  1.
</event>
<event>
 5   0  0.3130517E-05  0.2107741E+04  0.7818609E-02  0.8557841E-01
       -2   -1    0    0    0  501  0.00000000000E+00  0.00000000000E+00  0.85780117524E+03  0.85780117524E+03  0.25500000920E-02 0. -1.
        2   -1    0    0  501    0  0.00000000000E+00  0.00000000000E+00 -0.12947557171E+04  0.12947557171E+04  0.25500000920E-02 0.  1.
    10030    2    1    2    0    0  0.00000000000E+00  0.00000000000E+00 -0.43695454185E+03  0.21525568923E+04  0.21077409478E+04 0.  0.
        1    1    3    3  502    0 -0.69264092821E+03  0.47040548018E+03  0.43513890198E+03  0.94359876815E+03  0.50400001928E-02 0. -1.
       -1    1    3    3    0  502  0.69264092821E+03 -0.47040548018E+03 -0.87209344383E+03  0.12089581242E+04  0.50400001928E-02 0.  1.
</event>
<event>
 5   0  0.3108326E-05  0.2093226E+04  0.7818609E-02  0.8564233E-01
       -2   -1    0    0    0  501  0.00000000000E+00  0.00000000000E+00  0.98235466770E+03  0.98235466771E+03  0.25500000920E-02 0.  1.
        2   -1    0    0  501    0  0.00000000000E+00  0.00000000000E+00 -0.11150749429E+04  0.11150749429E+04  0.25500000920E-02 0. -1.
    10030    2    1    2    0    0  0.00000000000E+00  0.00000000000E+00 -0.13272027520E+03  0.20974296106E+04  0.20932262897E+04 0.  0.
        5    1    3    3  502    0  0.59172597456E+02 -0.10447468582E+04 -0.46837916940E+02  0.10474794864E+04  0.46999998093E+01 0.  1.
       -5    1    3    3    0  502 -0.59172597456E+02  0.10447468582E+04 -0.85882358262E+02  0.10499501242E+04  0.46999998093E+01 0. -1.
</event>
<event>
 5   0  0.3279789E-05  0.2116755E+04  0.7818609E-02  0.8553899E-01
        2   -1    0    0  501    0  0.00000000000E+00  0.00000000000E+00  0.16591120548E+04  0.16591120548E+04  0.25500000920E-02 0. -1.
       -2   -1    0    0    0  501  0.00000000000E+00  0.00000000000E+00 -0.67515789943E+03  0.67515789944E+03  0.25500000920E-02 0.  1.
    10030    2    1    2    0    0  0.00000000000E+00  0.00000000000E+00  0.98395415533E+03  0.23342699542E+04  0.21167546951E+04 0.  0.
        2    1    3    3  502    0 -0.61043116869E+03 -0.70292281169E+03 -0.63178402813E+02  0.93312282230E+03  0.25500000920E-02 0.  1.
       -2    1    3    3    0  502  0.61043116869E+03  0.70292281169E+03  0.10471325581E+04  0.14011471319E+04  0.25500000920E-02 0. -1.
</event>
<event>
 5   0  0.1513292E-05  0.2100963E+04  0.7818609E-02  0.8560819E-01
        1   -1    0    0  501    0  0.00000000000E+00  0.00000000000E+00  0.17667466973E+04  0.17667466973E+04  0.50400001928E-02 0.  1.
       -1   -1    0    0    0  501  0.00000000000E+00  0.00000000000E+00 -0.62460080595E+03  0.62460080597E+03  0.50400001928E-02 0. -1.
    10030    2    1    2    0    0  0.00000000000E+00  0.00000000000E+00  0.11421458914E+04  0.23913475033E+04  0.21009630279E+04 0.  0.
        1    1    3    3  502    0 -0.61694399340E+03  0.19592861172E+03 -0.37062607215E+03  0.74590320905E+03  0.50400001928E-02 0. -1.
       -1    1    3    3    0  502  0.61694399340E+03 -0.19592861172E+03  0.15127719635E+04  0.16454442943E+04  0.50400001928E-02 0.  1.
</event>
<event>
 5   0  0.1492552E-05  0.2091540E+04  0.7818609E-02  0.8564979E-01
       -1   -1    0    0    0  501  0.00000000000E+00  0.00000000000E+00  0.15900397677E+04  0.15900397677E+04  0.50400001928E-02 0. -1.
        1   -1    0    0  501    0  0.00000000000E+00  0.00000000000E+00 -0.68780316998E+03  0.68780317000E+03  0.50400001928E-02 0.  1.
    10030    2    1    2    0    0  0.00000000000E+00  0.00000000000E+00  0.90223659773E+03  0.22778429377E+04  0.20915395217E+04 0.  0.
        4    1    3    3  502    0  0.42949801376E+03 -0.64346713600E+03 -0.31520217068E+03  0.83538764668E+03  0.12699999809E+01 0.  1.
       -4    1    3    3    0  502 -0.42949801376E+03  0.64346713600E+03  0.12174387684E+04  0.14424552910E+04  0.12699999809E+01 0. -1.
</event>
<event>
 5   0  0.3279789E-05  0.2083033E+04  0.7818609E-02  0.8568754E-01
       -2   -1    0    0    0  501  0.00000000000E+00  0.00000000000E+00  0.74694502465E+03  0.74694502466E+03  0.25500000920E-02 0. -1.
        2   -1    0    0  501    0  0.00000000000E+00  0.00000000000E+00 -0.14522579792E+04  0.14522579792E+04  0.25500000920E-02 0.  1.
    10030    2    1    2    0    0  0.00000000000E+00  0.00000000000E+00 -0.70531295457E+03  0.21992030039E+04  0.20830332423E+04 0.  0.
        2    1    3    3  502    0 -0.22934845989E+03 -0.74716309233E+02 -0.14223618355E+04  0.14426698978E+04  0.25500000920E-02 0.  1.
       -2    1    3    3    0  502  0.22934845989E+03  0.74716309233E+02  0.71704888094E+03  0.75653310607E+03  0.25500000920E-02 0. -1.
</event>
<event>
 5   0  0.3108326E-05  0.2095871E+04  0.7818609E-02  0.8563064E-01
       -2   -1    0    0    0  501  0.00000000000E+00  0.00000000000E+00  0.11142626094E+04  0.11142626094E+04  0.25500000920E-02 0.  1.
        2   -1    0    0  501    0  0.00000000000E+00  0.00000000000E+00 -0.98555657524E+03  0.98555657524E+03  0.25500000920E-02 0. -1.
    10030    2    1    2    0    0  0.00000000000E+00  0.00000000000E+00  0.12870603419E+03  0.20998191847E+04  0.20958710278E+04 0.  0.
        5    1    3    3  502    0  0.83441050365E+03 -0.15358799493E+03  0.68058614047E+03  0.10876809024E+04  0.46999998093E+01 0.  1.
       -5    1    3    3    0  502 -0.83441050365E+03  0.15358799493E+03 -0.55188010628E+03  0.10121382823E+04  0.46999998093E+01 0. -1.
</event>
<event>
 5   0  0.1492552E-05  0.2104682E+04  0.7818609E-02  0.8559184E-01
       -1   -1    0    0    0  501  0.00000000000E+00  0.00000000000E+00  0.13038788606E+04  0.13038788606E+04  0.50400001928E-02 0. -1.
        1   -1    0    0  501    0  0.00000000000E+00  0.00000000000E+00 -0.84932883544E+03  0.84932883546E+03  0.50400001928E-02 0.  1.
    10030    2    1    2    0    0  0.00000000000E+00  0.00000000000E+00  0.45455002512E+03  0.21532076960E+04  0.21046823173E+04 0.  0.
        4    1    3    3  502    0 -0.18798332611E+03 -0.25260586323E+03  0.12545540055E+04  0.12934662032E+04  0.12699999809E+01 0. -1.
       -4    1    3    3    0  502  0.18798332611E+03  0.25260586323E+03 -0.80000398039E+03  0.85974149288E+03  0.12699999809E+01 0.  1.
</event>
<event>
 5   0  0.1435410E-05  0.2105955E+04  0.7818609E-02  0.8558625E-01
       -1   -1    0    0    0  501  0.00000000000E+00  0.00000000000E+00  0.11932079739E+04  0.11932079739E+04  0.50400001928E-02 0. -1.
        1   -1    0    0  501    0  0.00000000000E+00  0.00000000000E+00 -0.92922767588E+03  0.92922767589E+03  0.50400001928E-02 0.  1.
    10030    2    1    2    0    0  0.00000000000E+00  0.00000000000E+00  0.26398029800E+03  0.21224356498E+04  0.21059552440E+04 0.  0.
        2    1    3    3  502    0  0.22429963958E+03  0.28607206741E+03 -0.86398141178E+03  0.93734275266E+03  0.25500000920E-02 0.  1.
       -2    1    3    3    0  502 -0.22429963958E+03 -0.28607206741E+03  0.11279617098E+04  0.11850928971E+04  0.25500000920E-02 0. -1.
</event>
<event>
 5   0  0.3242231E-05  0.2095498E+04  0.7818609E-02  0.8563229E-01
       -2   -1    0    0    0  501  0.00000000000E+00  0.00000000000E+00  0.66187332807E+03  0.66187332808E+03  0.25500000920E-02 0. -1.
        2   -1    0    0  501    0  0.00000000000E+00  0.00000000000E+00 -0.16585915749E+04  0.16585915749E+04  0.25500000920E-02 0.  1.
    10030    2    1    2    0    0  0.00000000000E+00  0.00000000000E+00 -0.99671824678E+03  0.23204649029E+04  0.20954975787E+04 0.  0.
        4    1    3    3  502    0 -0.23568256035E+03  0.18104449353E+03 -0.16109379539E+04  0.16381227311E+04  0.12699999809E+01 0.  1.
       -4    1    3    3    0  502  0.23568256035E+03 -0.18104449353E+03  0.61421970715E+03  0.68234217182E+03  0.12699999809E+01 0. -1.
</event>
<event>
 5   0  0.1453430E-05  0.2099271E+04  0.7818609E-02  0.8561564E-01
        1   -1    0    0  501    0  0.00000000000E+00  0.00000000000E+00  0.11534296734E+04  0.11534296734E+04  0.50400001928E-02 0.  1.
       -1   -1    0    0    0  501  0.00000000000E+00  0.00000000000E+00 -0.95518190052E+03  0.95518190053E+03  0.50400001928E-02 0. -1.
    10030    2    1    2    0    0  0.00000000000E+00  0.00000000000E+00  0.19824777290E+03  0.21086115740E+04  0.20992714428E+04 0.  0.
        5    1    3    3  502    0 -0.36679550913E+03 -0.42659200514E+03 -0.79092999998E+03  0.97062456142E+03  0.46999998093E+01 0. -1.
       -5    1    3    3    0  502  0.36679550913E+03  0.42659200514E+03  0.98917777287E+03  0.11379870125E+04  0.46999998093E+01 0.  1.
</event>
<event>
 5   0  0.3242231E-05  0.2101752E+04  0.7818609E-02  0.8560472E-01
        2   -1    0    0  501    0  0.00000000000E+00  0.00000000000E+00  0.22848992562E+04  0.22848992562E+04  0.25500000920E-02 0.  1.
       -2   -1    0    0    0  501  0.00000000000E+00  0.00000000000E+00 -0.48332128798E+03  0.48332128799E+03  0.25500000920E-02 0. -1.
    10030    2    1    2    0    0  0.00000000000E+00  0.00000000000E+00  0.18015779682E+04  0.27682205442E+04  0.21017520800E+04 0.  0.
        4    1    3    3  502    0  0.35088790717E+03  0.62848597202E+03 -0.10765137918E+03  0.72780998397E+03  0.12699999809E+01 0. -1.
       -4    1    3    3    0  502 -0.35088790717E+03 -0.62848597202E+03  0.19092293474E+04  0.20404105602E+04  0.12699999809E+01 0.  1.
</event>
<event>
 5   0  0.3242231E-05  0.2102532E+04  0.7818609E-02  0.8560129E-01
        2   -1    0    0  501    0  0.00000000000E+00  0.00000000000E+00  0.26053281648E+04  0.26053281648E+04  0.25500000920E-02 0.  1.
       -2   -1    0    0    0  501  0.00000000000E+00  0.00000000000E+00 -0.42419233117E+03  0.42419233118E+03  0.25500000920E-02 0. -1.
    10030    2    1    2    0    0  0.00000000000E+00  0.00000000000E+00  0.21811358336E+04  0.30295204959E+04  0.21025320237E+04 0.  0.
        4    1    3    3  502    0  0.95968860050E+03 -0.36069089909E+03  0.14255820982E+04  0.17559573077E+04  0.12699999809E+01 0.  1.
       -4    1    3    3    0  502 -0.95968860050E+03  0.36069089909E+03  0.75555373537E+03  0.12735631883E+04  0.12699999809E+01 0. -1.
</event>
<event>
 5   0  0.3257130E-05  0.2096463E+04  0.7818609E-02  0.8562803E-01
        2   -1    0    0  501    0  0.00000000000E+00  0.00000000000E+00  0.11991155966E+04  0.11991155966E+04  0.25500000920E-02 0.  1.
       -2   -1    0    0    0  501  0.00000000000E+00  0.00000000000E+00 -0.91633348115E+03  0.91633348115E+03  0.25500000920E-02 0. -1.
    10030    2    1    2    0    0  0.00000000000E+00  0.00000000000E+00  0.28278211543E+03  0.21154490777E+04  0.20964634687E+04 0.  0.
        3    1    3    3  502    0  0.38363797380E+03 -0.37052280593E+03  0.10519625109E+04  0.11794449454E+04  0.10100000352E+00 0.  1.
       -3    1    3    3    0  502 -0.38363797380E+03  0.37052280593E+03 -0.76918039551E+03  0.93600413231E+03  0.10100000352E+00 0. -1.
</event>
<event>
 5   0  0.1435410E-05  0.2125677E+04  0.7818609E-02  0.8550016E-01
        1   -1    0    0  501    0  0.00000000000E+00  0.00000000000E+00  0.24278803033E+04  0.24278803033E+04  0.50400001928E-02 0. -1.
       -1   -1    0    0    0  501  0.00000000000E+00  0.00000000000E+00 -0.46527231014E+03  0.46527231017E+03  0.50400001928E-02 0.  1.
    10030    2    1    2    0    0  0.00000000000E+00  0.00000000000E+00  0.19626079931E+04  0.28931526134E+04  0.21256768122E+04 0.  0.
        2    1    3    3  502    0  0.96210090317E+03 -0.44386800718E+03  0.10949212901E+04  0.15236500869E+04  0.25500000920E-02 0. -1.
       -2    1    3    3    0  502 -0.96210090317E+03  0.44386800718E+03  0.86768670305E+03  0.13695025266E+04  0.25500000920E-02 0.  1.
</event>
<event>
 5   0  0.1513292E-05  0.2102987E+04  0.7818609E-02  0.8559929E-01
        1   -1    0    0  501    0  0.00000000000E+00  0.00000000000E+00  0.90479978581E+03  0.90479978583E+03  0.50400001928E-02 0.  1.
       -1   -1    0    0    0  501  0.00000000000E+00  0.00000000000E+00 -0.12219702646E+04  0.12219702646E+04  0.50400001928E-02 0. -1.
    10030    2    1    2    0    0  0.00000000000E+00  0.00000000000E+00 -0.31717047875E+03  0.21267700504E+04  0.21029868603E+04 0.  0.
        1    1    3    3  502    0  0.23364228042E+03 -0.17821191962E+03 -0.11796020849E+04  0.12156517931E+04  0.50400001928E-02 0. -1.
       -1    1    3    3    0  502 -0.23364228042E+03  0.17821191962E+03  0.86243160611E+03  0.91111825728E+03  0.50400001928E-02 0.  1.
</event>
<event>
 5   0  0.1453430E-05  0.2052756E+04  0.7818609E-02  0.8582345E-01
       -1   -1    0    0    0  501  0.00000000000E+00  0.00000000000E+00  0.77216339622E+03  0.77216339624E+03  0.50400001928E-02 0.  1.
        1   -1    0    0  501    0  0.00000000000E+00  0.00000000000E+00 -0.13642861472E+04  0.13642861472E+04  0.50400001928E-02 0. -1.
    10030    2    1    2    0    0  0.00000000000E+00  0.00000000000E+00 -0.59212275096E+03  0.21364495434E+04  0.20527560253E+04 0.  0.
        5    1    3    3  502    0 -0.19462623745E+03  0.62489045957E+03 -0.11189043198E+04  0.12962779122E+04  0.46999998093E+01 0. -1.
       -5    1    3    3    0  502  0.19462623745E+03 -0.62489045957E+03  0.52678156880E+03  0.84017163127E+03  0.46999998093E+01 0.  1.
</event>
<event>
 5   0  0.3130517E-05  0.2090456E+04  0.7818609E-02  0.8565459E-01
        2   -1    0    0  501    0  0.00000000000E+00  0.00000000000E+00  0.18960457921E+04  0.18960457921E+04  0.25500000920E-02 0.  1.
       -2   -1    0    0    0  501  0.00000000000E+00  0.00000000000E+00 -0.57620009718E+03  0.57620009718E+03  0.25500000920E-02 0. -1.
    10030    2    1    2    0    0  0.00000000000E+00  0.00000000000E+00  0.13198456949E+04  0.24722458893E+04  0.20904561891E+04 0.  0.
        1    1    3    3  502    0  0.40218282266E+03 -0.81844538931E+03  0.12639909141E+04  0.15586137780E+04  0.50400001928E-02 0.  1.
       -1    1    3    3    0  502 -0.40218282266E+03  0.81844538931E+03  0.55854780813E+02  0.91363211124E+03  0.50400001928E-02 0. -1.
</event>
<event>
 5   0  0.3108326E-05  0.2096021E+04  0.7818609E-02  0.8562998E-01
       -2   -1    0    0    0  501  0.00000000000E+00  0.00000000000E+00  0.60908638838E+03  0.60908638838E+03  0.25500000920E-02 0. -1.
        2   -1    0    0  501    0  0.00000000000E+00  0.00000000000E+00 -0.18032346934E+04  0.18032346934E+04  0.25500000920E-02 0.  1.
    10030    2    1    2    0    0  0.00000000000E+00  0.00000000000E+00 -0.11941483050E+04  0.24123210818E+04  0.20960207125E+04 0.  0.
        5    1    3    3  502    0  0.20275552550E+03  0.99868068269E+03 -0.31555910594E+03  0.10668048315E+04  0.46999998093E+01 0. -1.
       -5    1    3    3    0  502 -0.20275552550E+03 -0.99868068269E+03 -0.87858919905E+03  0.13455162503E+04  0.46999998093E+01 0.  1.
</event>
<event>
 5   0  0.3242231E-05  0.2092838E+04  0.7818609E-02  0.8564405E-01
        2   -1    0    0  501    0  0.00000000000E+00  0.00000000000E+00  0.11968897871E+04  0.11968897871E+04  0.25500000920E-02 0. -1.
       -2   -1    0    0    0  501  0.00000000000E+00  0.00000000000E+00 -0.91486544487E+03  0.91486544487E+03  0.25500000920E-02 0.  1.
    10030    2    1    2    0    0  0.00000000000E+00  0.00000000000E+00  0.28202434226E+03  0.21117552320E+04  0.20928383670E+04 0.  0.
        4    1    3    3  502    0 -0.30205300059E+03  0.98607439293E+02 -0.86501123382E+03  0.92152346133E+03  0.12699999809E+01 0.  1.
       -4    1    3    3    0  502  0.30205300059E+03 -0.98607439293E+02  0.11470355761E+04  0.11902317707E+04  0.12699999809E+01 0. -1.
</event>
<event>
 5   0  0.1453430E-05  0.2103174E+04  0.7818609E-02  0.8559846E-01
        1   -1    0    0  501    0  0.00000000000E+00  0.00000000000E+00  0.23542513404E+04  0.23542513404E+04  0.50400001928E-02 0.  1.
       -1   -1    0    0    0  501  0.00000000000E+00  0.00000000000E+00 -0.46971853831E+03  0.46971853834E+03  0.50400001928E-02 0. -1.
    10030    2    1    2    0    0  0.00000000000E+00  0.00000000000E+00  0.18845328021E+04  0.28239698788E+04  0.21031742662E+04 0.  0.
        5    1    3    3  502    0 -0.61017350143E+03 -0.16589192625E+03  0.20704544228E+04  0.21648638387E+04  0.46999998093E+01 0.  1.
       -5    1    3    3    0  502  0.61017350143E+03  0.16589192625E+03 -0.18592162070E+03  0.65910604009E+03  0.46999998093E+01 0. -1.
</event>
<event>
 5   0  0.1513292E-05  0.2103709E+04  0.7818609E-02  0.8559611E-01
       -1   -1    0    0    0  501  0.00000000000E+00  0.00000000000E+00  0.96648475340E+03  0.96648475342E+03  0.50400001928E-02 0. -1.
        1   -1    0    0  501    0  0.00000000000E+00  0.00000000000E+00 -0.11447644731E+04  0.11447644732E+04  0.50400001928E-02 0.  1.
    10030    2    1    2    0    0  0.00000000000E+00  0.00000000000E+00 -0.17827971974E+03  0.21112492266E+04  0.21037085440E+04 0.  0.
        1    1    3    3  502    0 -0.74019815833E+03 -0.65289241842E+03  0.27580571719E+03  0.10248076001E+04  0.50400001928E-02 0. -1.
       -1    1    3    3    0  502  0.74019815833E+03  0.65289241842E+03 -0.45408543693E+03  0.10864416264E+04  0.50400001928E-02 0.  1.
</event>
<event>
 5   0  0.1435410E-05  0.2085957E+04  0.7818609E-02  0.8567455E-01
       -1   -1    0    0    0  501  0.00000000000E+00  0.00000000000E+00  0.11162747359E+04  0.11162747360E+04  0.50400001928E-02 0.  1.
        1   -1    0    0  501    0  0.00000000000E+00  0.00000000000E+00 -0.97449511821E+03  0.97449511822E+03  0.50400001928E-02 0. -1.
    10030    2    1    2    0    0  0.00000000000E+00  0.00000000000E+00  0.14177961774E+03  0.20907698542E+04  0.20859571240E+04 0.  0.
        2    1    3    3  502    0 -0.53294366737E+02 -0.99426411364E+03  0.38209427389E+03  0.10664883737E+04  0.25500000920E-02 0.  1.
       -2    1    3    3    0  502  0.53294366737E+02  0.99426411364E+03 -0.24031465615E+03  0.10242814804E+04  0.25500000920E-02 0. -1.
</event>
<event>
 5   0  0.1435410E-05  0.2029210E+04  0.7818609E-02  0.8593085E-01
        1   -1    0    0  501    0  0.00000000000E+00  0.00000000000E+00  0.84041063135E+03  0.84041063137E+03  0.50400001928E-02 0.  1.
       -1   -1    0    0    0  501  0.00000000000E+00  0.00000000000E+00 -0.12249047605E+04  0.12249047605E+04  0.50400001928E-02 0. -1.
    10030    2    1    2    0    0  0.00000000000E+00  0.00000000000E+00 -0.38449412913E+03  0.20653153919E+04  0.20292096818E+04 0.  0.
        2    1    3    3  502    0  0.79332762391E+03 -0.47412246658E+03 -0.61833920617E+03  0.11119821069E+04  0.25500000920E-02 0. -1.
       -2    1    3    3    0  502 -0.79332762391E+03  0.47412246658E+03  0.23384507704E+03  0.95333328497E+03  0.25500000920E-02 0.  1.
</event>
<event>
 5   0  0.1453430E-05  0.2106204E+04  0.7818609E-02  0.8558515E-01
        1   -1    0    0  501    0  0.00000000000E+00  0.00000000000E+00  0.11744003480E+04  0.11744003480E+04  0.50400001928E-02 0.  1.
       -1   -1    0    0    0  501  0.00000000000E+00  0.00000000000E+00 -0.94433190971E+03  0.94433190972E+03  0.50400001928E-02 0. -1.
    10030    2    1    2    0    0  0.00000000000E+00  0.00000000000E+00  0.23006843832E+03  0.21187322578E+04  0.21062039060E+04 0.  0.
        5    1    3    3  502    0 -0.34369699693E+03 -0.26580002907E+03  0.10800235816E+04  0.11641521842E+04  0.46999998093E+01 0.  1.
       -5    1    3    3    0  502  0.34369699693E+03  0.26580002907E+03 -0.84995514331E+03  0.95458007354E+03  0.46999998093E+01 0. -1.
</event>
<event>
 5   0  0.3130517E-05  0.2103784E+04  0.7818609E-02  0.8559578E-01
       -2   -1    0    0    0  501  0.00000000000E+00  0.00000000000E+00  0.84391480609E+03  0.84391480609E+03  0.25500000920E-02 0. -1.
        2   -1    0    0  501    0  0.00000000000E+00  0.00000000000E+00 -0.13111240649E+04  0.13111240649E+04  0.25500000920E-02 0.  1.
    10030    2    1    2    0    0  0.00000000000E+00  0.00000000000E+00 -0.46720925877E+03  0.21550388709E+04  0.21037842199E+04 0.  0.
        1    1    3    3  502    0  0.81851714653E+03 -0.27360043367E+02  0.44259769457E+03  0.93091976583E+03  0.50400001928E-02 0. -1.
       -1    1    3    3    0  502 -0.81851714653E+03  0.27360043367E+02 -0.90980695334E+03  0.12241191051E+04  0.50400001928E-02 0.  1.
</event>
<event>
 5   0  0.1435410E-05  0.2104644E+04  0.7818609E-02  0.8559200E-01
       -1   -1    0    0    0  501  0.00000000000E+00  0.00000000000E+00  0.87850333179E+03  0.87850333180E+03  0.50400001928E-02 0. -1.
        1   -1    0    0  501    0  0.00000000000E+00  0.00000000000E+00 -0.12605322044E+04  0.12605322044E+04  0.50400001928E-02 0.  1.
    10030    2    1    2    0    0  0.00000000000E+00  0.00000000000E+00 -0.38202887265E+03  0.21390355362E+04  0.21046441423E+04 0.  0.
        2    1    3    3  502    0 -0.18712082343E+03  0.24917449227E+03  0.83053671816E+03  0.88707010455E+03  0.25500000920E-02 0. -1.
       -2    1    3    3    0  502  0.18712082343E+03 -0.24917449227E+03 -0.12125655908E+04  0.12519654317E+04  0.25500000920E-02 0.  1.
</event>
<event>
 5   0  0.1513292E-05  0.2107116E+04  0.7818609E-02  0.8558115E-01
        1   -1    0    0  501    0  0.00000000000E+00  0.00000000000E+00  0.16672521802E+04  0.16672521802E+04  0.50400001928E-02 0.  1.
       -1   -1    0    0    0  501  0.00000000000E+00  0.00000000000E+00 -0.66575657887E+03  0.66575657889E+03  0.50400001928E-02 0. -1.
    10030    2    1    2    0    0  0.00000000000E+00  0.00000000000E+00  0.10014956013E+04  0.23330087591E+04  0.21071156661E+04 0.  0.
        1    1    3    3  502    0 -0.84232726486E+03  0.62868223858E+03  0.42069505485E+03  0.11321399681E+04  0.50400001928E-02 0. -1.
       -1    1    3    3    0  502  0.84232726486E+03 -0.62868223858E+03  0.58080054644E+03  0.12008687909E+04  0.50400001928E-02 0.  1.
</event>
<event>
 5   0  0.3242231E-05  0.2103842E+04  0.7818609E-02  0.8559553E-01
       -2   -1    0    0    0  501  0.00000000000E+00  0.00000000000E+00  0.76366506769E+03  0.76366506769E+03  0.25500000920E-02 0.  1.
        2   -1    0    0  501    0  0.00000000000E+00  0.00000000000E+00 -0.14489826846E+04  0.14489826846E+04  0.25500000920E-02 0. -1.
    10030    2    1    2    0    0  0.00000000000E+00  0.00000000000E+00 -0.68531761689E+03  0.22126477523E+04  0.21038416860E+04 0.  0.
        4    1    3    3  502    0 -0.55227521620E+03  0.25565940324E+03 -0.12450340316E+04  0.13858142003E+04  0.12699999809E+01 0. -1.
       -4    1    3    3    0  502  0.55227521620E+03 -0.25565940324E+03  0.55971641473E+03  0.82683355200E+03  0.12699999809E+01 0.  1.
</event>
<event>
 5   0  0.1453430E-05  0.2088008E+04  0.7818609E-02  0.8566545E-01
        1   -1    0    0  501    0  0.00000000000E+00  0.00000000000E+00  0.79590084562E+03  0.79590084564E+03  0.50400001928E-02 0. -1.
       -1   -1    0    0    0  501  0.00000000000E+00  0.00000000000E+00 -0.13694468771E+04  0.13694468771E+04  0.50400001928E-02 0.  1.
    10030    2    1    2    0    0  0.00000000000E+00  0.00000000000E+00 -0.57354603151E+03  0.21653477228E+04  0.20880075935E+04 0.  0.
        5    1    3    3  502    0 -0.28265256996E+03  0.75931135654E+03  0.39600246247E+03  0.90182384741E+03  0.46999998093E+01 0. -1.
       -5    1    3    3    0  502  0.28265256996E+03 -0.75931135654E+03 -0.96954849399E+03  0.12635238754E+04  0.46999998093E+01 0.  1.
</event>
<event>
 5   0  0.1453430E-05  0.2099880E+04  0.7818609E-02  0.8561296E-01
        1   -1    0    0  501    0  0.00000000000E+00  0.00000000000E+00  0.15225747094E+04  0.15225747095E+04  0.50400001928E-02 0.  1.
       -1   -1    0    0    0  501  0.00000000000E+00  0.00000000000E+00 -0.72401944003E+03  0.72401944005E+03  0.50400001928E-02 0. -1.
    10030    2    1    2    0    0  0.00000000000E+00  0.00000000000E+00  0.79855526941E+03  0.22465941495E+04  0.20998796999E+04 0.  0.
        5    1    3    3  502    0 -0.51753582460E+03 -0.45652426468E+02  0.13753961204E+04  0.14702598586E+04  0.46999998093E+01 0.  1.
       -5    1    3    3    0  502  0.51753582460E+03  0.45652426468E+02 -0.57684085102E+03  0.77633429087E+03  0.46999998093E+01 0. -1.
</event>
<event>
 5   0  0.1435410E-05  0.2097877E+04  0.7818609E-02  0.8562179E-01
        1   -1    0    0  501    0  0.00000000000E+00  0.00000000000E+00  0.14092818308E+04  0.14092818309E+04  0.50400001928E-02 0.  1.
       -1   -1    0    0    0  501  0.00000000000E+00  0.00000000000E+00 -0.78073217720E+03  0.78073217721E+03  0.50400001928E-02 0. -1.
    10030    2    1    2    0    0  0.00000000000E+00  0.00000000000E+00  0.62854965365E+03  0.21900140081E+04  0.20978767095E+04 0.  0.
        2    1    3    3  502    0  0.13996086910E+03  0.10066709527E+04  0.43466341860E+02  0.10172830357E+04  0.25500000920E-02 0. -1.
       -2    1    3    3    0  502 -0.13996086910E+03 -0.10066709527E+04  0.58508331179E+03  0.11727309724E+04  0.25500000920E-02 0.  1.
</event>
<event>
 5   0  0.3130517E-05  0.2105406E+04  0.7818609E-02  0.8558866E-01
        2   -1    0    0  501    0  0.00000000000E+00  0.00000000000E+00  0.10346247824E+04  0.10346247824E+04  0.25500000920E-02 0. -1.
       -2   -1    0    0    0  501  0.00000000000E+00  0.00000000000E+00 -0.10710966041E+04  0.10710966041E+04  0.25500000920E-02 0.  1.
    10030    2    1    2    0    0  0.00000000000E+00  0.00000000000E+00 -0.36471821711E+02  0.21057213864E+04  0.21054055105E+04 0.  0.
        1    1    3    3  502    0  0.35771646052E+03 -0.82430849143E+03  0.53024178453E+03  0.10433608701E+04  0.50400001928E-02 0. -1.
       -1    1    3    3    0  502 -0.35771646052E+03  0.82430849143E+03 -0.56671360624E+03  0.10623605163E+04  0.50400001928E-02 0.  1.
</event>
<event>
 5   0  0.1492552E-05  0.2009191E+04  0.7818609E-02  0.8602336E-01
       -1   -1    0    0    0  501  0.00000000000E+00  0.00000000000E+00  0.12987199432E+04  0.12987199432E+04  0.50400001928E-02 0. -1.
        1   -1    0    0  501    0  0.00000000000E+00  0.00000000000E+00 -0.77708210136E+03  0.77708210138E+03  0.50400001928E-02 0.  1.
    10030    2    1    2    0    0  0.00000000000E+00  0.00000000000E+00  0.52163784179E+03  0.20758020445E+04  0.20091909043E+04 0.  0.
        4    1    3    3  502    0  0.10072955037E+03  0.99541971811E+03  0.16724265687E+03  0.10143858126E+04  0.12699999809E+01 0. -1.
       -4    1    3    3    0  502 -0.10072955037E+03 -0.99541971811E+03  0.35439518492E+03  0.10614162320E+04  0.12699999809E+01 0.  1.
</event>
<event>
 5   0  0.3130517E-05  0.2103465E+04  0.7818609E-02  0.8559719E-01
       -2   -1    0    0    0  501  0.00000000000E+00  0.00000000000E+00  0.59070823092E+03  0.59070823093E+03  0.25500000920E-02 0.  1.
        2   -1    0    0  501    0  0.00000000000E+00  0.00000000000E+00 -0.18725672797E+04  0.18725672797E+04  0.25500000920E-02 0. -1.
    10030    2    1    2    0    0  0.00000000000E+00  0.00000000000E+00 -0.12818590488E+04  0.24632755107E+04  0.21034646706E+04 0.  0.
        1    1    3    3  502    0 -0.88464122605E+03 -0.95906852010E+02  0.15648514024E+02  0.88996241444E+03  0.50400001928E-02 0.  1.
       -1    1    3    3    0  502  0.88464122605E+03  0.95906852010E+02 -0.12975075628E+04  0.15733130962E+04  0.50400001928E-02 0. -1.
</event>
<event>
 5   0  0.3257130E-05  0.2101302E+04  0.7818609E-02  0.8560670E-01
        2   -1    0    0  501    0  0.00000000000E+00  0.00000000000E+00  0.11389866021E+04  0.11389866021E+04  0.25500000920E-02 0.  1.
       -2   -1    0    0    0  501  0.00000000000E+00  0.00000000000E+00 -0.96916644244E+03  0.96916644244E+03  0.25500000920E-02 0. -1.
    10030    2    1    2    0    0  0.00000000000E+00  0.00000000000E+00  0.16982015969E+03  0.21081530446E+04  0.21013020660E+04 0.  0.
        3    1    3    3  502    0 -0.28633350623E+02  0.23894195575E+03 -0.94114348988E+03  0.97142380335E+03  0.10100000352E+00 0. -1.
       -3    1    3    3    0  502  0.28633350623E+02 -0.23894195575E+03  0.11109636496E+04  0.11367292412E+04  0.10100000352E+00 0.  1.
</event>
<event>
 5   0  0.3257130E-05  0.2021091E+04  0.7818609E-02  0.8596823E-01
       -2   -1    0    0    0  501  0.00000000000E+00  0.00000000000E+00  0.35068520735E+03  0.35068520736E+03  0.25500000920E-02 0.  1.
        2   -1    0    0  501    0  0.00000000000E+00  0.00000000000E+00 -0.29120193018E+04  0.29120193018E+04  0.25500000920E-02 0. -1.
    10030    2    1    2    0    0  0.00000000000E+00  0.00000000000E+00 -0.25613340945E+04  0.32627045092E+04  0.20210908863E+04 0.  0.
        3    1    3    3  502    0 -0.65682547324E+03  0.75938472042E+03 -0.14655568289E+04  0.17764970264E+04  0.10100000352E+00 0. -1.
       -3    1    3    3    0  502  0.65682547324E+03 -0.75938472042E+03 -0.10957772656E+04  0.14862074828E+04  0.10100000352E+00 0.  1.
</event>
<event>
 5   0  0.1513292E-05  0.2100900E+04  0.7818609E-02  0.8560847E-01
        1   -1    0    0  501    0  0.00000000000E+00  0.00000000000E+00  0.11187176480E+04  0.11187176480E+04  0.50400001928E-02 0.  1.
       -1   -1    0    0    0  501  0.00000000000E+00  0.00000000000E+00 -0.98634800325E+03  0.98634800327E+03  0.50400001928E-02 0. -1.
    10030    2    1    2    0    0  0.00000000000E+00  0.00000000000E+00  0.13236964476E+03  0.21050656513E+04  0.21008997295E+04 0.  0.
        1    1    3    3  502    0 -0.69241553710E+03  0.73602465930E+03 -0.22121724800E+03  0.10344605580E+04  0.50400001928E-02 0.  1.
       -1    1    3    3    0  502  0.69241553710E+03 -0.73602465930E+03  0.35358689275E+03  0.10706050933E+04  0.50400001928E-02 0. -1.
</event>
<event>
 5   0  0.1453430E-05  0.2094443E+04  0.7818609E-02  0.8563695E-01
       -1   -1    0    0    0  501  0.00000000000E+00  0.00000000000E+00  0.81961095974E+03  0.81961095976E+03  0.50400001928E-02 0. -1.
        1   -1    0    0  501    0  0.00000000000E+00  0.00000000000E+00 -0.13380404801E+04  0.13380404801E+04  0.50400001928E-02 0.  1.
    10030    2    1    2    0    0  0.00000000000E+00  0.00000000000E+00 -0.51842952031E+03  0.21576514398E+04  0.20944427823E+04 0.  0.
        5    1    3    3  502    0  0.63606578302E+03  0.71280515808E+03 -0.70108801367E+03  0.11849967792E+04  0.46999998093E+01 0.  1.
       -5    1    3    3    0  502 -0.63606578302E+03 -0.71280515808E+03  0.18265849336E+03  0.97265466066E+03  0.46999998093E+01 0. -1.
</event>
<event>
 5   0  0.3257130E-05  0.2052662E+04  0.7818609E-02  0.8582387E-01
        2   -1    0    0  501    0  0.00000000000E+00  0.00000000000E+00  0.15320912765E+04  0.15320912765E+04  0.25500000920E-02 0.  1.
       -2   -1    0    0    0  501  0.00000000000E+00  0.00000000000E+00 -0.68752808767E+03  0.68752808767E+03  0.25500000920E-02 0. -1.
    10030    2    1    2    0    0  0.00000000000E+00  0.00000000000E+00  0.84456318883E+03  0.22196193642E+04  0.20526624520E+04 0.  0.
        3    1    3    3  502    0 -0.79813796194E+03 -0.63583767187E+03  0.30361985476E+03  0.10646589960E+04  0.10100000352E+00 0.  1.
       -3    1    3    3    0  502  0.79813796194E+03  0.63583767187E+03  0.54094333407E+03  0.11549603682E+04  0.10100000352E+00 0. -1.
</event>
<event>
 5   0  0.1453430E-05  0.2095730E+04  0.7818609E-02  0.8563127E-01
        1   -1    0    0  501    0  0.00000000000E+00  0.00000000000E+00  0.17579699363E+04  0.17579699363E+04  0.50400001928E-02 0. -1.
       -1   -1    0    0    0  501  0.00000000000E+00  0.00000000000E+00 -0.62459602571E+03  0.62459602573E+03  0.50400001928E-02 0.  1.
    10030    2    1    2    0    0  0.00000000000E+00  0.00000000000E+00  0.11333739105E+04  0.23825659620E+04  0.20957299783E+04 0.  0.
        5    1    3    3  502    0  0.12814135090E+03 -0.44795633882E+03  0.16337162142E+04  0.16988631039E+04  0.46999998093E+01 0. -1.
       -5    1    3    3    0  502 -0.12814135090E+03  0.44795633882E+03 -0.50034230366E+03  0.68370285807E+03  0.46999998093E+01 0.  1.
</event>
<event>
 5   0  0.3279789E-05  0.2097392E+04  0.7818609E-02  0.8562393E-01
       -2   -1    0    0    0  501  0.00000000000E+00  0.00000000000E+00  0.17548434438E+04  0.17548434438E+04  0.25500000920E-02 0.  1.
        2   -1    0    0  501    0  0.00000000000E+00  0.00000000000E+00 -0.62670152099E+03  0.62670152099E+03  0.25500000920E-02 0. -1.
    10030    2    1    2    0    0  0.00000000000E+00  0.00000000000E+00  0.11281419228E+04  0.23815449647E+04  0.20973917663E+04 0.  0.
        2    1    3    3  502    0  0.90795314732E+03 -0.51822334348E+03  0.47023952468E+03  0.11463243703E+04  0.25500000920E-02 0.  1.
       -2    1    3    3    0  502 -0.90795314732E+03  0.51822334348E+03  0.65790239808E+03  0.12352205944E+04  0.25500000920E-02 0. -1.
</event>
<event>
 5   0  0.1466480E-05  0.2100485E+04  0.7818609E-02  0.8561030E-01
       -1   -1    0    0    0  501  0.00000000000E+00  0.00000000000E+00  0.96905288833E+03  0.96905288834E+03  0.50400001928E-02 0.  1.
        1   -1    0    0  501    0  0.00000000000E+00  0.00000000000E+00 -0.11382341503E+04  0.11382341503E+04  0.50400001928E-02 0. -1.
    10030    2    1    2    0    0  0.00000000000E+00  0.00000000000E+00 -0.16918126193E+03  0.21072870386E+04  0.21004847926E+04 0.  0.
        3    1    3    3  502    0  0.85036676376E+03  0.35188415543E+03  0.42307476275E+03  0.10128861520E+04  0.10100000352E+00 0.  1.
       -3    1    3    3    0  502 -0.85036676376E+03 -0.35188415543E+03 -0.59225602469E+03  0.10944008867E+04  0.10100000352E+00 0. -1.
</event>
<event>
 5   0  0.1513292E-05  0.2105252E+04  0.7818609E-02  0.8558933E-01
        1   -1    0    0  501    0  0.00000000000E+00  0.00000000000E+00  0.14160655003E+04  0.14160655003E+04  0.50400001928E-02 0. -1.
       -1   -1    0    0    0  501  0.00000000000E+00  0.00000000000E+00 -0.78246510148E+03  0.78246510150E+03  0.50400001928E-02 0.  1.
    10030    2    1    2    0    0  0.00000000000E+00  0.00000000000E+00  0.63360039881E+03  0.21985306018E+04  0.21052523226E+04 0.  0.
        1    1    3    3  502    0  0.59983460354E+03  0.62678151450E+03  0.93933813086E+03  0.12786761680E+04  0.50400001928E-02 0. -1.
       -1    1    3    3    0  502 -0.59983460354E+03 -0.62678151450E+03 -0.30573773206E+03  0.91985443378E+03  0.50400001928E-02 0.  1.
</event>
<event>
 5   0  0.1492552E-05  0.2089293E+04  0.7818609E-02  0.8565974E-01
       -1   -1    0    0    0  501  0.00000000000E+00  0.00000000000E+00  0.62752041679E+03  0.62752041681E+03  0.50400001928E-02 0. -1.
        1   -1    0    0  501    0  0.00000000000E+00  0.00000000000E+00 -0.17390455696E+04  0.17390455696E+04  0.50400001928E-02 0.  1.
    10030    2    1    2    0    0  0.00000000000E+00  0.00000000000E+00 -0.11115251528E+04  0.23665659864E+04  0.20892932783E+04 0.  0.
        4    1    3    3  502    0  0.55275755141E+02  0.39386021388E+02  0.62501939234E+03  0.62869509421E+03  0.12699999809E+01 0. -1.
       -4    1    3    3    0  502 -0.55275755141E+02 -0.39386021388E+02 -0.17365445452E+04  0.17378708922E+04  0.12699999809E+01 0.  1.
</event>
<event>
 5   0  0.3242231E-05  0.2103879E+04  0.7818609E-02  0.8559537E-01
        2   -1    0    0  501    0  0.00000000000E+00  0.00000000000E+00  0.85348595478E+03  0.85348595478E+03  0.25500000920E-02 0.  1.
       -2   -1    0    0    0  501  0.00000000000E+00  0.00000000000E+00 -0.12965371307E+04  0.12965371307E+04  0.25500000920E-02 0. -1.
    10030    2    1    2    0    0  0.00000000000E+00  0.00000000000E+00 -0.44305117588E+03  0.21500230854E+04  0.21038785430E+04 0.  0.
        4    1    3    3  502    0 -0.70048853443E+02  0.83862581224E+03 -0.86653824528E+03  0.12079280766E+04  0.12699999809E+01 0. -1.
       -4    1    3    3    0  502  0.70048853443E+02 -0.83862581224E+03  0.42348706940E+03  0.94209500884E+03  0.12699999809E+01 0.  1.
</event>
<event>
 5   0  0.1466480E-05  0.2111784E+04  0.7818609E-02  0.8556070E-01
       -1   -1    0    0    0  501  0.00000000000E+00  0.00000000000E+00  0.67512807472E+03  0.67512807474E+03  0.50400001928E-02 0.  1.
        1   -1    0    0  501    0  0.00000000000E+00  0.00000000000E+00 -0.16514016917E+04  0.16514016917E+04  0.50400001928E-02 0. -1.
    10030    2    1    2    0    0  0.00000000000E+00  0.00000000000E+00 -0.97627361697E+03  0.23265297665E+04  0.21117837434E+04 0.  0.
        3    1    3    3  502    0  0.11328211028E+03  0.21173410031E+03 -0.16209196878E+04  0.16386106341E+04  0.10100000352E+00 0. -1.
       -3    1    3    3    0  502 -0.11328211028E+03 -0.21173410031E+03  0.64464607085E+03  0.68791913231E+03  0.10100000352E+00 0.  1.
</event>
<event>
 5   0  0.1453430E-05  0.2100291E+04  0.7818609E-02  0.8561115E-01
        1   -1    0    0  501    0  0.00000000000E+00  0.00000000000E+00  0.12795770054E+04  0.12795770054E+04  0.50400001928E-02 0. -1.
       -1   -1    0    0    0  501  0.00000000000E+00  0.00000000000E+00 -0.86185179047E+03  0.86185179049E+03  0.50400001928E-02 0.  1.
    10030    2    1    2    0    0  0.00000000000E+00  0.00000000000E+00  0.41772521492E+03  0.21414287959E+04  0.21002911543E+04 0.  0.
        5    1    3    3  502    0  0.21537529991E+03  0.76132057379E+03 -0.49516038382E+03  0.93338171805E+03  0.46999998093E+01 0. -1.
       -5    1    3    3    0  502 -0.21537529991E+03 -0.76132057379E+03  0.91288559874E+03  0.12080470778E+04  0.46999998093E+01 0.  1.
</event>
<event>
 5   0  0.1492552E-05  0.2095084E+04  0.7818609E-02  0.8563412E-01
       -1   -1    0    0    0  501  0.00000000000E+00  0.00000000000E+00  0.92761901607E+03  0.92761901609E+03  0.50400001928E-02 0. -1.
        1   -1    0    0  501    0  0.00000000000E+00  0.00000000000E+00 -0.11829682227E+04  0.11829682227E+04  0.50400001928E-02 0.  1.
    10030    2    1    2    0    0  0.00000000000E+00  0.00000000000E+00 -0.25534920659E+03  0.21105872388E+04  0.20950835962E+04 0.  0.
        4    1    3    3  502    0  0.21353746967E+03 -0.42918598239E+03 -0.10659871928E+04  0.11688152833E+04  0.12699999809E+01 0.  1.
       -4    1    3    3    0  502 -0.21353746967E+03  0.42918598239E+03  0.81063798622E+03  0.94177195543E+03  0.12699999809E+01 0. -1.
</event>
<event>
 5   0  0.3279789E-05  0.2095968E+04  0.7818609E-02  0.8563021E-01
       -2   -1    0    0    0  501  0.00000000000E+00  0.00000000000E+00  0.10321327903E+04  0.10321327903E+04  0.25500000920E-02 0.  1.
        2   -1    0    0  501    0  0.00000000000E+00  0.00000000000E+00 -0.10640790769E+04  0.10640790769E+04  0.25500000920E-02 0. -1.
    10030    2    1    2    0    0  0.00000000000E+00  0.00000000000E+00 -0.31946286581E+02  0.20962118671E+04  0.20959684222E+04 0.  0.
        2    1    3    3  502    0  0.58844957928E+03  0.33045507681E+03  0.78586647344E+03  0.10358858910E+04  0.25500000920E-02 0.  1.
       -2    1    3    3    0  502 -0.58844957928E+03 -0.33045507681E+03 -0.81781276002E+03  0.10603259761E+04  0.25500000920E-02 0. -1.
</event>
<event>
 5   0  0.3242231E-05  0.2095036E+04  0.7818609E-02  0.8563433E-01
        2   -1    0    0  501    0  0.00000000000E+00  0.00000000000E+00  0.28271559990E+04  0.28271559990E+04  0.25500000920E-02 0.  1.
       -2   -1    0    0    0  501  0.00000000000E+00  0.00000000000E+00 -0.38812655871E+03  0.38812655871E+03  0.25500000920E-02 0. -1.
    10030    2    1    2    0    0  0.00000000000E+00  0.00000000000E+00  0.24390294403E+04  0.32152825577E+04  0.20950363518E+04 0.  0.
        4    1    3    3  502    0 -0.51695699809E+03 -0.17564459077E+03 -0.15248665417E+03  0.56687684089E+03  0.12699999809E+01 0. -1.
       -4    1    3    3    0  502  0.51695699809E+03  0.17564459077E+03  0.25915160945E+04  0.26484057168E+04  0.12699999809E+01 0.  1.
</event>
<event>
 5   0  0.3242231E-05  0.2140609E+04  0.7818609E-02  0.8543563E-01
        2   -1    0    0  501    0  0.00000000000E+00  0.00000000000E+00  0.20510262696E+04  0.20510262696E+04  0.25500000920E-02 0.  1.
       -2   -1    0    0    0  501  0.00000000000E+00  0.00000000000E+00 -0.55852605065E+03  0.55852605066E+03  0.25500000920E-02 0. -1.
    10030    2    1    2    0    0  0.00000000000E+00  0.00000000000E+00  0.14925002189E+04  0.26095523202E+04  0.21406088873E+04 0.  0.
        4    1    3    3  502    0 -0.49156086479E+03  0.65967738680E+03  0.15808847076E+04  0.17821347901E+04  0.12699999809E+01 0.  1.
       -4    1    3    3    0  502  0.49156086479E+03 -0.65967738680E+03 -0.88384488678E+02  0.82741753014E+03  0.12699999809E+01 0. -1.
</event>
<event>
 5   0  0.1492552E-05  0.2095951E+04  0.7818609E-02  0.8563029E-01
        1   -1    0    0  501    0  0.00000000000E+00  0.00000000000E+00  0.20940382304E+04  0.20940382304E+04  0.50400001928E-02 0.  1.
       -1   -1    0    0    0  501  0.00000000000E+00  0.00000000000E+00 -0.52446614550E+03  0.52446614552E+03  0.50400001928E-02 0. -1.
    10030    2    1    2    0    0  0.00000000000E+00  0.00000000000E+00  0.15695720849E+04  0.26185043759E+04  0.20959505331E+04 0.  0.
        4    1    3    3  502    0  0.62064726178E+03  0.11512685315E+03  0.18298844235E+04  0.19357003467E+04  0.12699999809E+01 0.  1.
       -4    1    3    3    0  502 -0.62064726178E+03 -0.11512685315E+03 -0.26031233858E+03  0.68280402927E+03  0.12699999809E+01 0. -1.
</event>
<event>
 5   0  0.3279789E-05  0.2086773E+04  0.7818609E-02  0.8567092E-01
       -2   -1    0    0    0  501  0.00000000000E+00  0.00000000000E+00  0.13633765094E+04  0.13633765094E+04  0.25500000920E-02 0. -1.
        2   -1    0    0  501    0  0.00000000000E+00  0.00000000000E+00 -0.79849949674E+03  0.79849949674E+03  0.25500000920E-02 0.  1.
    10030    2    1    2    0    0  0.00000000000E+00  0.00000000000E+00  0.56487701266E+03  0.21618760061E+04  0.20867730654E+04 0.  0.
        2    1    3    3  502    0  0.26392569630E+03 -0.36469447806E+03 -0.69271186795E+03  0.82614076736E+03  0.25500000920E-02 0.  1.
       -2    1    3    3    0  502 -0.26392569630E+03  0.36469447806E+03  0.12575888806E+04  0.13357352388E+04  0.25500000920E-02 0. -1.
</event>
<event>
 5   0  0.3242231E-05  0.2090128E+04  0.7818609E-02  0.8565605E-01
        2   -1    0    0  501    0  0.00000000000E+00  0.00000000000E+00  0.80366594905E+03  0.80366594905E+03  0.25500000920E-02 0. -1.
       -2   -1    0    0    0  501  0.00000000000E+00  0.00000000000E+00 -0.13589705010E+04  0.13589705010E+04  0.25500000920E-02 0.  1.
    10030    2    1    2    0    0  0.00000000000E+00  0.00000000000E+00 -0.55530455197E+03  0.21626364501E+04  0.20901275726E+04 0.  0.
        4    1    3    3  502    0 -0.69102850417E+02 -0.10177447008E+04 -0.42667509515E+02  0.10209807095E+04  0.12699999809E+01 0.  1.
       -4    1    3    3    0  502  0.69102850417E+02  0.10177447008E+04 -0.51263704246E+03  0.11416557406E+04  0.12699999809E+01 0. -1.
</event>
<event>
 5   0  0.3108326E-05  0.2014761E+04  0.7818609E-02  0.8599750E-01
        2   -1    0    0  501    0  0.00000000000E+00  0.00000000000E+00  0.10377495601E+04  0.10377495601E+04  0.25500000920E-02 0. -1.
       -2   -1    0    0    0  501  0.00000000000E+00  0.00000000000E+00 -0.97790044787E+03  0.97790044787E+03  0.25500000920E-02 0.  1.
    10030    2    1    2    0    0  0.00000000000E+00  0.00000000000E+00  0.59849112203E+02  0.20156500079E+04  0.20147612857E+04 0.  0.
        5    1    3    3  502    0 -0.78239256108E+03  0.31630376787E+03  0.58026490434E+03  0.10241658276E+04  0.46999998093E+01 0. -1.
       -5    1    3    3    0  502  0.78239256108E+03 -0.31630376787E+03 -0.52041579213E+03  0.99148418036E+03  0.46999998093E+01 0.  1.
</event>
<event>
 5   0  0.1435410E-05  0.2096484E+04  0.7818609E-02  0.8562794E-01
       -1   -1    0    0    0  501  0.00000000000E+00  0.00000000000E+00  0.56958792644E+03  0.56958792646E+03  0.50400001928E-02 0.  1.
        1   -1    0    0  501    0  0.00000000000E+00  0.00000000000E+00 -0.19291335623E+04  0.19291335623E+04  0.50400001928E-02 0. -1.
    10030    2    1    2    0    0  0.00000000000E+00  0.00000000000E+00 -0.13595456358E+04  0.24987214887E+04  0.20964838998E+04 0.  0.
        2    1    3    3  502    0  0.26066434150E+03 -0.53994354198E+03 -0.17045852510E+04  0.18069576103E+04  0.25500000920E-02 0. -1.
       -2    1    3    3    0  502 -0.26066434150E+03  0.53994354198E+03  0.34503961517E+03  0.69176387843E+03  0.25500000920E-02 0.  1.
</event>
<event>
 5   0  0.3108326E-05  0.2103302E+04  0.7818609E-02  0.8559790E-01
        2   -1    0    0  501    0  0.00000000000E+00  0.00000000000E+00  0.13230760625E+04  0.13230760625E+04  0.25500000920E-02 0.  1.
       -2   -1    0    0    0  501  0.00000000000E+00  0.00000000000E+00 -0.83590787617E+03  0.83590787618E+03  0.25500000920E-02 0. -1.
    10030    2    1    2    0    0  0.00000000000E+00  0.00000000000E+00  0.48716818634E+03  0.21589839387E+04  0.21033018817E+04 0.  0.
        5    1    3    3  502    0  0.96714732583E+03  0.58765681276E+02 -0.17604186664E+03  0.98480464254E+03  0.46999998093E+01 0. -1.
       -5    1    3    3    0  502 -0.96714732583E+03 -0.58765681276E+02  0.66321005299E+03  0.11741792962E+04  0.46999998093E+01 0.  1.
</event>
<event>
 5   0  0.1453430E-05  0.2092381E+04  0.7818609E-02  0.8564607E-01
        1   -1    0    0  501    0  0.00000000000E+00  0.00000000000E+00  0.70705141408E+03  0.70705141410E+03  0.50400001928E-02 0.  1.
       -1   -1    0    0    0  501  0.00000000000E+00  0.00000000000E+00 -0.15479991826E+04  0.15479991826E+04  0.50400001928E-02 0. -1.
    10030    2    1    2    0    0  0.00000000000E+00  0.00000000000E+00 -0.84094776851E+03  0.22550505967E+04  0.20923814290E+04 0.  0.
        5    1    3    3  502    0  0.13286823233E+03 -0.10335297740E+04 -0.32020804596E+03  0.10901344154E+04  0.46999998093E+01 0.  1.
       -5    1    3    3    0  502 -0.13286823233E+03  0.10335297740E+04 -0.52073972255E+03  0.11649161813E+04  0.46999998093E+01 0. -1.
</event>
<event>
 5   0  0.1435410E-05  0.2022738E+04  0.7818609E-02  0.8596063E-01
       -1   -1    0    0    0  501  0.00000000000E+00  0.00000000000E+00  0.62180494098E+03  0.62180494100E+03  0.50400001928E-02 0. -1.
        1   -1    0    0  501    0  0.00000000000E+00  0.00000000000E+00 -0.16449963724E+04  0.16449963724E+04  0.50400001928E-02 0.  1.
    10030    2    1    2    0    0  0.00000000000E+00  0.00000000000E+00 -0.10231914314E+04  0.22668013134E+04  0.20227376224E+04 0.  0.
        2    1    3    3  502    0  0.18920789984E+03  0.79763166208E+03 -0.11753926570E+04  0.14330260974E+04  0.25500000920E-02 0.  1.
       -2    1    3    3    0  502 -0.18920789984E+03 -0.79763166208E+03  0.15220122559E+03  0.83377521599E+03  0.25500000920E-02 0. -1.
</event>
<event>
 5   0  0.3130517E-05  0.2144346E+04  0.7818609E-02  0.8541956E-01
        2   -1    0    0  501    0  0.00000000000E+00  0.00000000000E+00  0.24416780170E+04  0.24416780170E+04  0.25500000920E-02 0.  1.
       -2   -1    0    0    0  501  0.00000000000E+00  0.00000000000E+00 -0.47080528326E+03  0.47080528327E+03  0.25500000920E-02 0. -1.
    10030    2    1    2    0    0  0.00000000000E+00  0.00000000000E+00  0.19708727337E+04  0.29124833002E+04  0.21443459706E+04 0.  0.
        1    1    3    3  502    0 -0.50466939864E+02 -0.49911449461E+03 -0.30157034810E+03  0.58532628988E+03  0.50400001928E-02 0. -1.
       -1    1    3    3    0  502  0.50466939864E+02  0.49911449461E+03  0.22724430818E+04  0.23271570104E+04  0.50400001928E-02 0.  1.
</event>
<event>
 5   0  0.1492552E-05  0.2106404E+04  0.7818609E-02  0.8558428E-01
       -1   -1    0    0    0  501  0.00000000000E+00  0.00000000000E+00  0.10621511665E+04  0.10621511665E+04  0.50400001928E-02 0. -1.
        1   -1    0    0  501    0  0.00000000000E+00  0.00000000000E+00 -0.10443280063E+04  0.10443280063E+04  0.50400001928E-02 0.  1.
    10030    2    1    2    0    0  0.00000000000E+00  0.00000000000E+00  0.17823160261E+02  0.21064791728E+04  0.21064037696E+04 0.  0.
        4    1    3    3  502    0 -0.22861838082E+03 -0.43614536609E+02 -0.10182882754E+04  0.10445483314E+04  0.12699999809E+01 0.  1.
       -4    1    3    3    0  502  0.22861838082E+03  0.43614536609E+02  0.10361114357E+04  0.10619308414E+04  0.12699999809E+01 0. -1.
</event>
<event>
 5   0  0.3257130E-05  0.2022337E+04  0.7818609E-02  0.8596248E-01
        2   -1    0    0  501    0  0.00000000000E+00  0.00000000000E+00  0.24592784363E+04  0.24592784363E+04  0.25500000920E-02 0.  1.
       -2   -1    0    0    0  501  0.00000000000E+00  0.00000000000E+00 -0.41575683601E+03  0.41575683602E+03  0.25500000920E-02 0. -1.
    10030    2    1    2    0    0  0.00000000000E+00  0.00000000000E+00  0.20435216003E+04  0.28750352723E+04  0.20223370852E+04 0.  0.
        3    1    3    3  502    0 -0.34955383295E+03 -0.34809186211E+03 -0.23307789213E+03  0.54560163178E+03  0.10100000352E+00 0. -1.
       -3    1    3    3    0  502  0.34955383295E+03  0.34809186211E+03  0.22765994924E+04  0.23294336406E+04  0.10100000352E+00 0.  1.
</event>
<event>
 5   0  0.1453430E-05  0.2112288E+04  0.7818609E-02  0.8555849E-01
        1   -1    0    0  501    0  0.00000000000E+00  0.00000000000E+00  0.91486574646E+03  0.91486574647E+03  0.50400001928E-02 0. -1.
       -1   -1    0    0    0  501  0.00000000000E+00  0.00000000000E+00 -0.12192395815E+04  0.12192395815E+04  0.50400001928E-02 0.  1.
    10030    2    1    2    0    0  0.00000000000E+00  0.00000000000E+00 -0.30437383505E+03  0.21341053280E+04  0.21122883609E+04 0.  0.
        5    1    3    3  502    0  0.10003266892E+04  0.30581072153E+03 -0.29944818421E+03  0.10880555995E+04  0.46999998093E+01 0.  1.
       -5    1    3    3    0  502 -0.10003266892E+04 -0.30581072153E+03 -0.49256508376E+01  0.10460497285E+04  0.46999998093E+01 0. -1.
</event>
<event>
 5   0  0.1466480E-05  0.2093835E+04  0.7818609E-02  0.8563964E-01
       -1   -1    0    0    0  501  0.00000000000E+00  0.00000000000E+00  0.85631644631E+03  0.85631644632E+03  0.50400001928E-02 0.  1.
        1   -1    0    0  501    0  0.00000000000E+00  0.00000000000E+00 -0.12799428633E+04  0.12799428633E+04  0.50400001928E-02 0. -1.
    10030    2    1    2    0    0  0.00000000000E+00  0.00000000000E+00 -0.42362641698E+03  0.21362593096E+04  0.20938348781E+04 0.  0.
        3    1    3    3  502    0 -0.12259810171E+03 -0.47338734085E+03 -0.11562637199E+04  0.12554169305E+04  0.10100000352E+00 0. -1.
       -3    1    3    3    0  502  0.12259810171E+03  0.47338734085E+03  0.73263730297E+03  0.88084237916E+03  0.10100000352E+00 0.  1.
</event>
<event>
 5   0  0.1129987E-05  0.2085929E+04  0.7818609E-02  0.8567467E-01
       -3   -1    0    0    0  501  0.00000000000E+00  0.00000000000E+00  0.86198936771E+03  0.86198937363E+03  0.10100000352E+00 0.  1.
        3   -1    0    0  501    0  0.00000000000E+00  0.00000000000E+00 -0.12619353720E+04  0.12619353761E+04  0.10100000352E+00 0. -1.
    10030    2    1    2    0    0  0.00000000000E+00  0.00000000000E+00 -0.39994600434E+03  0.21239247497E+04  0.20859289384E+04 0.  0.
        4    1    3    3  502    0  0.62755236593E+01  0.88329254058E+03  0.36468056120E+03  0.95563519141E+03  0.12699999809E+01 0.  1.
       -4    1    3    3    0  502 -0.62755236593E+01 -0.88329254058E+03 -0.76462656553E+03  0.11682895583E+04  0.12699999809E+01 0. -1.
</event>
<event>
 5   0  0.3279789E-05  0.2105970E+04  0.7818609E-02  0.8558618E-01
       -2   -1    0    0    0  501  0.00000000000E+00  0.00000000000E+00  0.80941748017E+03  0.80941748017E+03  0.25500000920E-02 0. -1.
        2   -1    0    0  501    0  0.00000000000E+00  0.00000000000E+00 -0.13698458857E+04  0.13698458857E+04  0.25500000920E-02 0.  1.
    10030    2    1    2    0    0  0.00000000000E+00  0.00000000000E+00 -0.56042840554E+03  0.21792633659E+04  0.21059698051E+04 0.  0.
        2    1    3    3  502    0  0.50833426150E+03 -0.47453269052E+03  0.53799499441E+03  0.87921761231E+03  0.25500000920E-02 0. -1.
       -2    1    3    3    0  502 -0.50833426150E+03  0.47453269052E+03 -0.10984234000E+04  0.13000457536E+04  0.25500000920E-02 0.  1.
</event>
<event>
 5   0  0.3108326E-05  0.2101013E+04  0.7818609E-02  0.8560797E-01
       -2   -1    0    0    0  501  0.00000000000E+00  0.00000000000E+00  0.82338303198E+03  0.82338303198E+03  0.25500000920E-02 0.  1.
        2   -1    0    0  501    0  0.00000000000E+00  0.00000000000E+00 -0.13402799888E+04  0.13402799888E+04  0.25500000920E-02 0. -1.
    10030    2    1    2    0    0  0.00000000000E+00  0.00000000000E+00 -0.51689695680E+03  0.21636630208E+04  0.21010128994E+04 0.  0.
        5    1    3    3  502    0  0.38695939224E+03 -0.49084257354E+03  0.61104918817E+03  0.87410937737E+03  0.46999998093E+01 0.  1.
       -5    1    3    3    0  502 -0.38695939224E+03  0.49084257354E+03 -0.11279461450E+04  0.12895536434E+04  0.46999998093E+01 0. -1.
</event>
<event>
 5   0  0.1492552E-05  0.2124369E+04  0.7818609E-02  0.8550584E-01
        1   -1    0    0  501    0  0.00000000000E+00  0.00000000000E+00  0.60242848458E+03  0.60242848460E+03  0.50400001928E-02 0.  1.
       -1   -1    0    0    0  501  0.00000000000E+00  0.00000000000E+00 -0.18728124904E+04  0.18728124904E+04  0.50400001928E-02 0. -1.
    10030    2    1    2    0    0  0.00000000000E+00  0.00000000000E+00 -0.12703840058E+04  0.24752409750E+04  0.21243686973E+04 0.  0.
        4    1    3    3  502    0 -0.92174833687E+03 -0.50893669502E+03 -0.79830443374E+03  0.13213357400E+04  0.12699999809E+01 0. -1.
       -4    1    3    3    0  502  0.92174833687E+03  0.50893669502E+03 -0.47207957210E+03  0.11539052350E+04  0.12699999809E+01 0.  1.
</event>
<event>
 5   0  0.3242231E-05  0.2104641E+04  0.7818609E-02  0.8559202E-01
        2   -1    0    0  501    0  0.00000000000E+00  0.00000000000E+00  0.11141800040E+04  0.11141800040E+04  0.25500000920E-02 0.  1.
       -2   -1    0    0    0  501  0.00000000000E+00  0.00000000000E+00 -0.99389578983E+03  0.99389578983E+03  0.25500000920E-02 0. -1.
    10030    2    1    2    0    0  0.00000000000E+00  0.00000000000E+00  0.12028421418E+03  0.21080757938E+04  0.21046413615E+04 0.  0.
        4    1    3    3  502    0 -0.40545698176E+03  0.69914179965E+03 -0.61488833353E+03  0.10155214895E+04  0.12699999809E+01 0. -1.
       -4    1    3    3    0  502  0.40545698176E+03 -0.69914179965E+03  0.73517254772E+03  0.10925543043E+04  0.12699999809E+01 0.  1.
</event>
<event>
 5   0  0.1453430E-05  0.2106584E+04  0.7818609E-02  0.8558349E-01
       -1   -1    0    0    0  501  0.00000000000E+00  0.00000000000E+00  0.86463990420E+03  0.86463990421E+03  0.50400001928E-02 0. -1.
        1   -1    0    0  501    0  0.00000000000E+00  0.00000000000E+00 -0.12831049920E+04  0.12831049920E+04  0.50400001928E-02 0.  1.
    10030    2    1    2    0    0  0.00000000000E+00  0.00000000000E+00 -0.41846508782E+03  0.21477448962E+04  0.21065837533E+04 0.  0.
        5    1    3    3  502    0 -0.24961959245E+03 -0.51845679300E+03  0.69021510358E+03  0.89862470829E+03  0.46999998093E+01 0. -1.
       -5    1    3    3    0  502  0.24961959245E+03  0.51845679300E+03 -0.11086801914E+04  0.12491201880E+04  0.46999998093E+01 0.  1.
</event>
<event>
 5   0  0.3279789E-05  0.2098240E+04  0.7818609E-02  0.8562019E-01
       -2   -1    0    0    0  501  0.00000000000E+00  0.00000000000E+00  0.48747828222E+03  0.48747828223E+03  0.25500000920E-02 0.  1.
        2   -1    0    0  501    0  0.00000000000E+00  0.00000000000E+00 -0.22578499679E+04  0.22578499679E+04  0.25500000920E-02 0. -1.
    10030    2    1    2    0    0  0.00000000000E+00  0.00000000000E+00 -0.17703716857E+04  0.27453282501E+04  0.20982400472E+04 0.  0.
        2    1    3    3  502    0 -0.84277005795E+03  0.41850474109E+03 -0.14922098682E+04  0.17641139078E+04  0.25500000920E-02 0. -1.
       -2    1    3    3    0  502  0.84277005795E+03 -0.41850474109E+03 -0.27816181744E+03  0.98121434232E+03  0.25500000920E-02 0.  1.
</event>
<event>
 5   0  0.3257130E-05  0.2101112E+04  0.7818609E-02  0.8560754E-01
       -2   -1    0    0    0  501  0.00000000000E+00  0.00000000000E+00  0.72193427867E+03  0.72193427867E+03  0.25500000920E-02 0.  1.
        2   -1    0    0  501    0  0.00000000000E+00  0.00000000000E+00 -0.15287653674E+04  0.15287653674E+04  0.25500000920E-02 0. -1.
    10030    2    1    2    0    0  0.00000000000E+00  0.00000000000E+00 -0.80683108873E+03  0.22506996461E+04  0.21011122034E+04 0.  0.
        3    1    3    3  502    0  0.80006255755E+03  0.56164404976E+03 -0.81568483009E+03  0.12731401678E+04  0.10100000352E+00 0. -1.
       -3    1    3    3    0  502 -0.80006255755E+03 -0.56164404976E+03  0.88537413587E+01  0.97755947827E+03  0.10100000352E+00 0.  1.
</event>
<event>
 5   0  0.1435410E-05  0.2099472E+04  0.7818609E-02  0.8561476E-01
        1   -1    0    0  501    0  0.00000000000E+00  0.00000000000E+00  0.17480766667E+04  0.17480766667E+04  0.50400001928E-02 0.  1.
       -1   -1    0    0    0  501  0.00000000000E+00  0.00000000000E+00 -0.63037632299E+03  0.63037632301E+03  0.50400001928E-02 0. -1.
    10030    2    1    2    0    0  0.00000000000E+00  0.00000000000E+00  0.11177003437E+04  0.23784529897E+04  0.20994724494E+04 0.  0.
        2    1    3    3  502    0 -0.24028472593E+03 -0.33461479109E+02  0.17158817844E+04  0.17329474078E+04  0.25500000920E-02 0.  1.
       -2    1    3    3    0  502  0.24028472593E+03  0.33461479109E+02 -0.59818144078E+03  0.64550558185E+03  0.25500000920E-02 0. -1.
</event>
<event>
 5   0  0.1453430E-05  0.2099529E+04  0.7818609E-02  0.8561451E-01
        1   -1    0    0  501    0  0.00000000000E+00  0.00000000000E+00  0.77949187445E+03  0.77949187446E+03  0.50400001928E-02 0. -1.
       -1   -1    0    0    0  501  0.00000000000E+00  0.00000000000E+00 -0.14137484360E+04  0.14137484360E+04  0.50400001928E-02 0.  1.
    10030    2    1    2    0    0  0.00000000000E+00  0.00000000000E+00 -0.63425656157E+03  0.21932403105E+04  0.20995289171E+04 0.  0.
        5    1    3    3  502    0 -0.59587763771E+03  0.19526143558E+03  0.56234361815E+03  0.84228832487E+03  0.46999998093E+01 0. -1.
       -5    1    3    3    0  502  0.59587763771E+03 -0.19526143558E+03 -0.11966001797E+04  0.13509519856E+04  0.46999998093E+01 0.  1.
</event>
<event>
 5   0  0.3257130E-05  0.2093992E+04  0.7818609E-02  0.8563895E-01
        2   -1    0    0  501    0  0.00000000000E+00  0.00000000000E+00  0.18516966730E+04  0.18516966730E+04  0.25500000920E-02 0. -1.
       -2   -1    0    0    0  501  0.00000000000E+00  0.00000000000E+00 -0.59199796055E+03  0.59199796056E+03  0.25500000920E-02 0.  1.
    10030    2    1    2    0    0  0.00000000000E+00  0.00000000000E+00  0.12596987125E+04  0.24436946336E+04  0.20939920286E+04 0.  0.
        3    1    3    3  502    0  0.52474840218E+03 -0.83744758483E+03  0.10333038590E+04  0.14298238416E+04  0.10100000352E+00 0. -1.
       -3    1    3    3    0  502 -0.52474840218E+03  0.83744758483E+03  0.22639485353E+03  0.10138707920E+04  0.10100000352E+00 0.  1.
</event>
<event>
 5   0  0.3257130E-05  0.2084459E+04  0.7818609E-02  0.8568120E-01
        2   -1    0    0  501    0  0.00000000000E+00  0.00000000000E+00  0.16523279509E+04  0.16523279509E+04  0.25500000920E-02 0. -1.
       -2   -1    0    0    0  501  0.00000000000E+00  0.00000000000E+00 -0.65740102395E+03  0.65740102396E+03  0.25500000920E-02 0.  1.
    10030    2    1    2    0    0  0.00000000000E+00  0.00000000000E+00  0.99492692690E+03  0.23097289748E+04  0.20844587660E+04 0.  0.
        3    1    3    3  502    0  0.76856025529E+03  0.49134421421E+03 -0.61138658242E+02  0.91424392181E+03  0.10100000352E+00 0.  1.
       -3    1    3    3    0  502 -0.76856025529E+03 -0.49134421421E+03  0.10560655851E+04  0.13954850530E+04  0.10100000352E+00 0. -1.
</event>
<event>
 5   0  0.3279789E-05  0.2119817E+04  0.7818609E-02  0.8552564E-01
       -2   -1    0    0    0  501  0.00000000000E+00  0.00000000000E+00  0.54267515689E+03  0.54267515689E+03  0.25500000920E-02 0.  1.
        2   -1    0    0  501    0  0.00000000000E+00  0.00000000000E+00 -0.20701255648E+04  0.20701255648E+04  0.25500000920E-02 0. -1.
    10030    2    1    2    0    0  0.00000000000E+00  0.00000000000E+00 -0.15274504079E+04  0.26128007217E+04  0.21198167050E+04 0.  0.
        2    1    3    3  502    0 -0.86879755154E+03  0.76250579375E+02 -0.15061134196E+04  0.17404025308E+04  0.25500000920E-02 0. -1.
       -2    1    3    3    0  502  0.86879755154E+03 -0.76250579375E+02 -0.21336988305E+02  0.87239819091E+03  0.25500000920E-02 0.  1.
</event>
<event>
 5   0  0.1513292E-05  0.2103442E+04  0.7818609E-02  0.8559729E-01
        1   -1    0    0  501    0  0.00000000000E+00  0.00000000000E+00  0.13394273786E+04  0.13394273786E+04  0.50400001928E-02 0. -1.
       -1   -1    0    0    0  501  0.00000000000E+00  0.00000000000E+00 -0.82581361901E+03  0.82581361903E+03  0.50400001928E-02 0.  1.
    10030    2    1    2    0    0  0.00000000000E+00  0.00000000000E+00  0.51361375960E+03  0.21652409977E+04  0.21034422939E+04 0.  0.
        1    1    3    3  502    0  0.14809830498E+03 -0.43597368549E+03 -0.71654844533E+03  0.85173225659E+03  0.50400001928E-02 0.  1.
       -1    1    3    3    0  502 -0.14809830498E+03  0.43597368549E+03  0.12301622049E+04  0.13135087411E+04  0.50400001928E-02 0. -1.
</event>
<event>
 5   0  0.3242231E-05  0.2106372E+04  0.7818609E-02  0.8558442E-01
        2   -1    0    0  501    0  0.00000000000E+00  0.00000000000E+00  0.20977881210E+04  0.20977881210E+04  0.25500000920E-02 0.  1.
       -2   -1    0    0    0  501  0.00000000000E+00  0.00000000000E+00 -0.52874766961E+03  0.52874766961E+03  0.25500000920E-02 0. -1.
    10030    2    1    2    0    0  0.00000000000E+00  0.00000000000E+00  0.15690404514E+04  0.26265357906E+04  0.21063718383E+04 0.  0.
        4    1    3    3  502    0 -0.10242225993E+04  0.19079583194E+03  0.97674436182E+03  0.14280987864E+04  0.12699999809E+01 0. -1.
       -4    1    3    3    0  502  0.10242225993E+04 -0.19079583194E+03  0.59229608957E+03  0.11984370042E+04  0.12699999809E+01 0.  1.
</event>
<event>
 5   0  0.3257130E-05  0.2140212E+04  0.7818609E-02  0.8543734E-01
       -2   -1    0    0    0  501  0.00000000000E+00  0.00000000000E+00  0.51307739334E+03  0.51307739335E+03  0.25500000920E-02 0. -1.
        2   -1    0    0  501    0  0.00000000000E+00  0.00000000000E+00 -0.22318792916E+04  0.22318792916E+04  0.25500000920E-02 0.  1.
    10030    2    1    2    0    0  0.00000000000E+00  0.00000000000E+00 -0.17188018982E+04  0.27449566849E+04  0.21402119607E+04 0.  0.
        3    1    3    3  502    0 -0.72712324793E+03  0.16371996144E+03  0.12543237008E+03  0.75580800017E+03  0.10100000352E+00 0. -1.
       -3    1    3    3    0  502  0.72712324793E+03 -0.16371996144E+03 -0.18442342683E+04  0.19891486847E+04  0.10100000352E+00 0.  1.
</event>
<event>
 5   0  0.1435410E-05  0.2101017E+04  0.7818609E-02  0.8560795E-01
       -1   -1    0    0    0  501  0.00000000000E+00  0.00000000000E+00  0.11983671479E+04  0.11983671479E+04  0.50400001928E-02 0.  1.
        1   -1    0    0  501    0  0.00000000000E+00  0.00000000000E+00 -0.92089349619E+03  0.92089349620E+03  0.50400001928E-02 0. -1.
    10030    2    1    2    0    0  0.00000000000E+00  0.00000000000E+00  0.27747365166E+03  0.21192606441E+04  0.21010173845E+04 0.  0.
        2    1    3    3  502    0 -0.38103165758E+03 -0.81717186645E+03 -0.40502991587E+03  0.98843523619E+03  0.25500000920E-02 0. -1.
       -2    1    3    3    0  502  0.38103165758E+03  0.81717186645E+03  0.68250356753E+03  0.11308254079E+04  0.25500000920E-02 0.  1.
</event>
<event>
 5   0  0.1513292E-05  0.2062395E+04  0.7818609E-02  0.8577992E-01
       -1   -1    0    0    0  501  0.00000000000E+00  0.00000000000E+00  0.73761271498E+03  0.73761271500E+03  0.50400001928E-02 0. -1.
        1   -1    0    0  501    0  0.00000000000E+00  0.00000000000E+00 -0.14416350083E+04  0.14416350083E+04  0.50400001928E-02 0.  1.
    10030    2    1    2    0    0  0.00000000000E+00  0.00000000000E+00 -0.70402229335E+03  0.21792477233E+04  0.20623950277E+04 0.  0.
        1    1    3    3  502    0 -0.86991831948E+02 -0.40927217173E+03  0.64388453988E+03  0.76789230371E+03  0.50400001928E-02 0. -1.
       -1    1    3    3    0  502  0.86991831948E+02  0.40927217173E+03 -0.13479068332E+04  0.14113554196E+04  0.50400001928E-02 0.  1.
</event>
<event>
 5   0  0.3130517E-05  0.2092994E+04  0.7818609E-02  0.8564336E-01
        2   -1    0    0  501    0  0.00000000000E+00  0.00000000000E+00  0.38863181319E+03  0.38863181320E+03  0.25500000920E-02 0. -1.
       -2   -1    0    0    0  501  0.00000000000E+00  0.00000000000E+00 -0.28179777367E+04  0.28179777367E+04  0.25500000920E-02 0.  1.
    10030    2    1    2    0    0  0.00000000000E+00  0.00000000000E+00 -0.24293459235E+04  0.32066095499E+04  0.20929938340E+04 0.  0.
        1    1    3    3  502    0  0.98089206382E+03  0.25513618841E+03 -0.16139291486E+04  0.19057835691E+04  0.50400001928E-02 0. -1.
       -1    1    3    3    0  502 -0.98089206382E+03 -0.25513618841E+03 -0.81541677493E+03  0.13008259808E+04  0.50400001928E-02 0.  1.
</event>
<event>
 5   0  0.1453430E-05  0.2084588E+04  0.7818609E-02  0.8568063E-01
       -1   -1    0    0    0  501  0.00000000000E+00  0.00000000000E+00  0.92694730366E+03  0.92694730367E+03  0.50400001928E-02 0. -1.
        1   -1    0    0  501    0  0.00000000000E+00  0.00000000000E+00 -0.11719945957E+04  0.11719945957E+04  0.50400001928E-02 0.  1.
    10030    2    1    2    0    0  0.00000000000E+00  0.00000000000E+00 -0.24504729204E+03  0.20989418994E+04  0.20845884298E+04 0.  0.
        5    1    3    3  502    0  0.71553254758E+03 -0.43928319371E+03 -0.74435073201E+03  0.11220680252E+04  0.46999998093E+01 0.  1.
       -5    1    3    3    0  502 -0.71553254758E+03  0.43928319371E+03  0.49930343997E+03  0.97687387419E+03  0.46999998093E+01 0. -1.
</event>
<event>
 5   0  0.1513292E-05  0.2093559E+04  0.7818609E-02  0.8564086E-01
        1   -1    0    0  501    0  0.00000000000E+00  0.00000000000E+00  0.12242248217E+04  0.12242248217E+04  0.50400001928E-02 0.  1.
       -1   -1    0    0    0  501  0.00000000000E+00  0.00000000000E+00 -0.89505377205E+03  0.89505377206E+03  0.50400001928E-02 0. -1.
    10030    2    1    2    0    0  0.00000000000E+00  0.00000000000E+00  0.32917104963E+03  0.21192785937E+04  0.20935587353E+04 0.  0.
        1    1    3    3  502    0 -0.25586112483E+03 -0.10148252140E+04  0.14404051741E+03  0.10564482008E+04  0.50400001928E-02 0. -1.
       -1    1    3    3    0  502  0.25586112483E+03  0.10148252140E+04  0.18513053222E+03  0.10628303930E+04  0.50400001928E-02 0.  1.
</event>
<event>
 5   0  0.3257130E-05  0.2076865E+04  0.7818609E-02  0.8571504E-01
        2   -1    0    0  501    0  0.00000000000E+00  0.00000000000E+00  0.10825975957E+04  0.10825975957E+04  0.25500000920E-02 0.  1.
       -2   -1    0    0    0  501  0.00000000000E+00  0.00000000000E+00 -0.99606918443E+03  0.99606918444E+03  0.25500000920E-02 0. -1.
    10030    2    1    2    0    0  0.00000000000E+00  0.00000000000E+00  0.86528411263E+02  0.20786667801E+04  0.20768650454E+04 0.  0.
        3    1    3    3  502    0  0.15043297073E+03 -0.98853294128E+03 -0.23718351753E+03  0.10276592265E+04  0.10100000352E+00 0. -1.
       -3    1    3    3    0  502 -0.15043297073E+03  0.98853294128E+03  0.32371192880E+03  0.10510075536E+04  0.10100000352E+00 0.  1.
</event>
<event>
 5   0  0.1513292E-05  0.2103825E+04  0.7818609E-02  0.8559560E-01
        1   -1    0    0  501    0  0.00000000000E+00  0.00000000000E+00  0.13447116795E+04  0.13447116795E+04  0.50400001928E-02 0. -1.
       -1   -1    0    0    0  501  0.00000000000E+00  0.00000000000E+00 -0.82286744603E+03  0.82286744604E+03  0.50400001928E-02 0.  1.
    10030    2    1    2    0    0  0.00000000000E+00  0.00000000000E+00  0.52184423343E+03  0.21675791255E+04  0.21038245795E+04 0.  0.
        1    1    3    3  502    0  0.89904718441E+03 -0.19242361529E+02 -0.30138551147E+03  0.94841411568E+03  0.50400001928E-02 0.  1.
       -1    1    3    3    0  502 -0.89904718441E+03  0.19242361529E+02  0.82322974490E+03  0.12191650098E+04  0.50400001928E-02 0. -1.
</event>
<event>
 5   0  0.1513292E-05  0.2102527E+04  0.7818609E-02  0.8560131E-01
        1   -1    0    0  501    0  0.00000000000E+00  0.00000000000E+00  0.10077352599E+04  0.10077352599E+04  0.50400001928E-02 0.  1.
       -1   -1    0    0    0  501  0.00000000000E+00  0.00000000000E+00 -0.10966716813E+04  0.10966716813E+04  0.50400001928E-02 0. -1.
    10030    2    1    2    0    0  0.00000000000E+00  0.00000000000E+00 -0.88936421322E+02  0.21044069412E+04  0.21025267863E+04 0.  0.
        1    1    3    3  502    0  0.20085963323E+03  0.42237368224E+03  0.89786752103E+03  0.10123784890E+04  0.50400001928E-02 0.  1.
       -1    1    3    3    0  502 -0.20085963323E+03 -0.42237368224E+03 -0.98680394235E+03  0.10920284522E+04  0.50400001928E-02 0. -1.
</event>
<event>
 5   0  0.1435410E-05  0.2099716E+04  0.7818609E-02  0.8561369E-01
        1   -1    0    0  501    0  0.00000000000E+00  0.00000000000E+00  0.17661012927E+04  0.17661012927E+04  0.50400001928E-02 0. -1.
       -1   -1    0    0    0  501  0.00000000000E+00  0.00000000000E+00 -0.62408743820E+03  0.62408743822E+03  0.50400001928E-02 0.  1.
    10030    2    1    2    0    0  0.00000000000E+00  0.00000000000E+00  0.11420138545E+04  0.23901887309E+04  0.20997158202E+04 0.  0.
        2    1    3    3  502    0 -0.47601066033E+03 -0.47157974542E+03 -0.34902750029E+03  0.75550896818E+03  0.25500000920E-02 0.  1.
       -2    1    3    3    0  502  0.47601066033E+03  0.47157974542E+03  0.14910413548E+04  0.16346797627E+04  0.25500000920E-02 0. -1.
</event>
<event>
 5   0  0.3130517E-05  0.2109958E+04  0.7818609E-02  0.8556869E-01
       -2   -1    0    0    0  501  0.00000000000E+00  0.00000000000E+00  0.95349677797E+03  0.95349677798E+03  0.25500000920E-02 0.  1.
        2   -1    0    0  501    0  0.00000000000E+00  0.00000000000E+00 -0.11672622059E+04  0.11672622059E+04  0.25500000920E-02 0. -1.
    10030    2    1    2    0    0  0.00000000000E+00  0.00000000000E+00 -0.21376542797E+03  0.21207589839E+04  0.21099580588E+04 0.  0.
        1    1    3    3  502    0  0.62028311628E+03  0.53256051152E+03 -0.77708603192E+03  0.11279337497E+04  0.50400001928E-02 0. -1.
       -1    1    3    3    0  502 -0.62028311628E+03 -0.53256051152E+03  0.56332060395E+03  0.99282523418E+03  0.50400001928E-02 0.  1.
</event>
<event>
 5   0  0.1129987E-05  0.2075779E+04  0.7818609E-02  0.8571989E-01
       -3   -1    0    0    0  501  0.00000000000E+00  0.00000000000E+00  0.44009796291E+03  0.44009797450E+03  0.10100000352E+00 0. -1.
        3   -1    0    0  501    0  0.00000000000E+00  0.00000000000E+00 -0.24476700429E+04  0.24476700450E+04  0.10100000352E+00 0.  1.
    10030    2    1    2    0    0  0.00000000000E+00  0.00000000000E+00 -0.20075720800E+04  0.28877680195E+04  0.20757790051E+04 0.  0.
        4    1    3    3  502    0 -0.44805781190E+03 -0.92373265756E+03 -0.12155698495E+04  0.15911158026E+04  0.12699999809E+01 0.  1.
       -4    1    3    3    0  502  0.44805781190E+03  0.92373265756E+03 -0.79200223044E+03  0.12966522168E+04  0.12699999809E+01 0. -1.
</event>
<event>
 5   0  0.3257130E-05  0.2107179E+04  0.7818609E-02  0.8558088E-01
        2   -1    0    0  501    0  0.00000000000E+00  0.00000000000E+00  0.18065827415E+04  0.18065827416E+04  0.25500000920E-02 0.  1.
       -2   -1    0    0    0  501  0.00000000000E+00  0.00000000000E+00 -0.61444786692E+03  0.61444786692E+03  0.25500000920E-02 0. -1.
    10030    2    1    2    0    0  0.00000000000E+00  0.00000000000E+00  0.11921348746E+04  0.24210306085E+04  0.21071790735E+04 0.  0.
        3    1    3    3  502    0  0.55151354519E+03  0.86703246162E+02 -0.43052940115E+03  0.70501079345E+03  0.10100000352E+00 0. -1.
       -3    1    3    3    0  502 -0.55151354519E+03 -0.86703246162E+02  0.16226642758E+04  0.17160198150E+04  0.10100000352E+00 0.  1.
</event>
<event>
 5   0  0.3279789E-05  0.2111984E+04  0.7818609E-02  0.8555983E-01
        2   -1    0    0  501    0  0.00000000000E+00  0.00000000000E+00  0.14658556041E+04  0.14658556041E+04  0.25500000920E-02 0. -1.
       -2   -1    0    0    0  501  0.00000000000E+00  0.00000000000E+00 -0.76072932449E+03  0.76072932449E+03  0.25500000920E-02 0.  1.
    10030    2    1    2    0    0  0.00000000000E+00  0.00000000000E+00  0.70512627958E+03  0.22265849286E+04  0.21119842267E+04 0.  0.
        2    1    3    3  502    0  0.63648843479E+03 -0.77682424436E+03  0.69668874220E+03  0.12222719165E+04  0.25500000920E-02 0. -1.
       -2    1    3    3    0  502 -0.63648843479E+03  0.77682424436E+03  0.84375373733E+01  0.10043130121E+04  0.25500000920E-02 0.  1.
</event>
<event>
 5   0  0.3130517E-05  0.2094750E+04  0.7818609E-02  0.8563560E-01
        2   -1    0    0  501    0  0.00000000000E+00  0.00000000000E+00  0.18002860812E+04  0.18002860812E+04  0.25500000920E-02 0.  1.
       -2   -1    0    0    0  501  0.00000000000E+00  0.00000000000E+00 -0.60934426825E+03  0.60934426826E+03  0.25500000920E-02 0. -1.
    10030    2    1    2    0    0  0.00000000000E+00  0.00000000000E+00  0.11909418129E+04  0.24096303494E+04  0.20947496316E+04 0.  0.
        1    1    3    3  502    0  0.37965974208E+03  0.28404222394E+03 -0.47881405523E+03  0.67385785167E+03  0.50400001928E-02 0. -1.
       -1    1    3    3    0  502 -0.37965974208E+03 -0.28404222394E+03  0.16697558682E+04  0.17357724978E+04  0.50400001928E-02 0.  1.
</event>
<event>
 5   0  0.3257130E-05  0.2102261E+04  0.7818609E-02  0.8560248E-01
       -2   -1    0    0    0  501  0.00000000000E+00  0.00000000000E+00  0.93383602279E+03  0.93383602279E+03  0.25500000920E-02 0.  1.
        2   -1    0    0  501    0  0.00000000000E+00  0.00000000000E+00 -0.11831574148E+04  0.11831574148E+04  0.25500000920E-02 0. -1.
    10030    2    1    2    0    0  0.00000000000E+00  0.00000000000E+00 -0.24932139198E+03  0.21169934376E+04  0.21022607018E+04 0.  0.
        3    1    3    3  502    0 -0.35078208484E+03 -0.45745069545E+02 -0.11214126621E+04  0.11758856456E+04  0.10100000352E+00 0. -1.
       -3    1    3    3    0  502  0.35078208484E+03  0.45745069545E+02  0.87209127017E+03  0.94110779199E+03  0.10100000352E+00 0.  1.
</event>
<event>
 5   0  0.1513292E-05  0.2096510E+04  0.7818609E-02  0.8562782E-01
       -1   -1    0    0    0  501  0.00000000000E+00  0.00000000000E+00  0.95878852896E+03  0.95878852897E+03  0.50400001928E-02 0. -1.
        1   -1    0    0  501    0  0.00000000000E+00  0.00000000000E+00 -0.11460700774E+04  0.11460700774E+04  0.50400001928E-02 0.  1.
    10030    2    1    2    0    0  0.00000000000E+00  0.00000000000E+00 -0.18728154844E+03  0.21048586064E+04  0.20965102849E+04 0.  0.
        1    1    3    3  502    0 -0.68672385409E+03 -0.32777334166E+02 -0.88810388474E+03  0.11231173205E+04  0.50400001928E-02 0.  1.
       -1    1    3    3    0  502  0.68672385409E+03  0.32777334166E+02  0.70082233630E+03  0.98174128592E+03  0.50400001928E-02 0. -1.
</event>
<event>
 5   0  0.1129987E-05  0.2027127E+04  0.7818609E-02  0.8594042E-01
       -3   -1    0    0    0  501  0.00000000000E+00  0.00000000000E+00  0.69377477449E+03  0.69377478184E+03  0.10100000352E+00 0. -1.
        3   -1    0    0  501    0  0.00000000000E+00  0.00000000000E+00 -0.14807561362E+04  0.14807561396E+04  0.10100000352E+00 0.  1.
    10030    2    1    2    0    0  0.00000000000E+00  0.00000000000E+00 -0.78698136169E+03  0.21745309215E+04  0.20271272937E+04 0.  0.
        4    1    3    3  502    0 -0.98942317640E+03  0.21987283723E+03 -0.39057914391E+03  0.10862117506E+04  0.12699999809E+01 0.  1.
       -4    1    3    3    0  502  0.98942317640E+03 -0.21987283723E+03 -0.39640221778E+03  0.10883191709E+04  0.12699999809E+01 0. -1.
</event>
<event>
 5   0  0.1129987E-05  0.2102726E+04  0.7818609E-02  0.8560043E-01
       -3   -1    0    0    0  501  0.00000000000E+00  0.00000000000E+00  0.41438253749E+03  0.41438254980E+03  0.10100000352E+00 0. -1.
        3   -1    0    0  501    0  0.00000000000E+00  0.00000000000E+00 -0.26674977775E+04  0.26674977794E+04  0.10100000352E+00 0.  1.
    10030    2    1    2    0    0  0.00000000000E+00  0.00000000000E+00 -0.22531152400E+04  0.30818803292E+04  0.21027263443E+04 0.  0.
        5    1    3    3  502    0 -0.19526272640E+03 -0.10042754133E+04 -0.14814947567E+04  0.18004292383E+04  0.46999998093E+01 0.  1.
       -5    1    3    3    0  502  0.19526272640E+03  0.10042754133E+04 -0.77162048332E+03  0.12814510909E+04  0.46999998093E+01 0. -1.
</event>
<event>
 5   0  0.3242231E-05  0.2105021E+04  0.7818609E-02  0.8559035E-01
       -2   -1    0    0    0  501  0.00000000000E+00  0.00000000000E+00  0.72923989646E+03  0.72923989647E+03  0.25500000920E-02 0. -1.
        2   -1    0    0  501    0  0.00000000000E+00  0.00000000000E+00 -0.15190867951E+04  0.15190867951E+04  0.25500000920E-02 0.  1.
    10030    2    1    2    0    0  0.00000000000E+00  0.00000000000E+00 -0.78984689867E+03  0.22483266916E+04  0.21050213274E+04 0.  0.
        4    1    3    3  502    0 -0.16435337818E+03  0.10242594636E+04 -0.58496209520E+03  0.11909247447E+04  0.12699999809E+01 0.  1.
       -4    1    3    3    0  502  0.16435337818E+03 -0.10242594636E+04 -0.20488480348E+03  0.10574019469E+04  0.12699999809E+01 0. -1.
</event>
<event>
 5   0  0.3279789E-05  0.2100677E+04  0.7818609E-02  0.8560945E-01
       -2   -1    0    0    0  501  0.00000000000E+00  0.00000000000E+00  0.57440325041E+03  0.57440325041E+03  0.25500000920E-02 0. -1.
        2   -1    0    0  501    0  0.00000000000E+00  0.00000000000E+00 -0.19206205799E+04  0.19206205800E+04  0.25500000920E-02 0.  1.
    10030    2    1    2    0    0  0.00000000000E+00  0.00000000000E+00 -0.13462173295E+04  0.24950238304E+04  0.21006767518E+04 0.  0.
        2    1    3    3  502    0  0.56118231570E+03  0.30280425878E+03  0.31819234759E+03  0.71264463841E+03  0.25500000920E-02 0. -1.
       -2    1    3    3    0  502 -0.56118231570E+03 -0.30280425878E+03 -0.16644096771E+04  0.17823791920E+04  0.25500000920E-02 0.  1.
</event>
<event>
 5   0  0.1435410E-05  0.2115637E+04  0.7818609E-02  0.8554386E-01
       -1   -1    0    0    0  501  0.00000000000E+00  0.00000000000E+00  0.82030354726E+03  0.82030354728E+03  0.50400001928E-02 0. -1.
        1   -1    0    0  501    0  0.00000000000E+00  0.00000000000E+00 -0.13641047961E+04  0.13641047961E+04  0.50400001928E-02 0.  1.
    10030    2    1    2    0    0  0.00000000000E+00  0.00000000000E+00 -0.54380124880E+03  0.21844083434E+04  0.21156370228E+04 0.  0.
        2    1    3    3  502    0  0.58890614678E+03 -0.70452380489E+03 -0.81415393050E+03  0.12271963429E+04  0.25500000920E-02 0.  1.
       -2    1    3    3    0  502 -0.58890614678E+03  0.70452380489E+03  0.27035268170E+03  0.95721200049E+03  0.25500000920E-02 0. -1.
</event>
<event>
 5   0  0.1435410E-05  0.2085943E+04  0.7818609E-02  0.8567461E-01
       -1   -1    0    0    0  501  0.00000000000E+00  0.00000000000E+00  0.10213624347E+04  0.10213624348E+04  0.50400001928E-02 0.  1.
        1   -1    0    0  501    0  0.00000000000E+00  0.00000000000E+00 -0.10650373732E+04  0.10650373732E+04  0.50400001928E-02 0. -1.
    10030    2    1    2    0    0  0.00000000000E+00  0.00000000000E+00 -0.43674938429E+02  0.20863998079E+04  0.20859426306E+04 0.  0.
        2    1    3    3  502    0  0.38630482839E+01  0.93567157062E+03 -0.48269104715E+03  0.10528470251E+04  0.25500000920E-02 0. -1.
       -2    1    3    3    0  502 -0.38630482839E+01 -0.93567157062E+03  0.43901610873E+03  0.10335527828E+04  0.25500000920E-02 0.  1.
</event>
<event>
 5   0  0.3130517E-05  0.2054138E+04  0.7818609E-02  0.8581719E-01
       -2   -1    0    0    0  501  0.00000000000E+00  0.00000000000E+00  0.55749179791E+03  0.55749179792E+03  0.25500000920E-02 0.  1.
        2   -1    0    0  501    0  0.00000000000E+00  0.00000000000E+00 -0.18921728651E+04  0.18921728651E+04  0.25500000920E-02 0. -1.
    10030    2    1    2    0    0  0.00000000000E+00  0.00000000000E+00 -0.13346810672E+04  0.24496646630E+04  0.20541381186E+04 0.  0.
        1    1    3    3  502    0  0.23472512272E+03 -0.37623964410E+03  0.43743992063E+03  0.62290114562E+03  0.50400001928E-02 0.  1.
       -1    1    3    3    0  502 -0.23472512272E+03  0.37623964410E+03 -0.17721209878E+04  0.18267635174E+04  0.50400001928E-02 0. -1.
</event>
<event>
 5   0  0.1513292E-05  0.2094314E+04  0.7818609E-02  0.8563752E-01
       -1   -1    0    0    0  501  0.00000000000E+00  0.00000000000E+00  0.59466890416E+03  0.59466890418E+03  0.50400001928E-02 0. -1.
        1   -1    0    0  501    0  0.00000000000E+00  0.00000000000E+00 -0.18439463684E+04  0.18439463684E+04  0.50400001928E-02 0.  1.
    10030    2    1    2    0    0  0.00000000000E+00  0.00000000000E+00 -0.12492774643E+04  0.24386152726E+04  0.20943137934E+04 0.  0.
        1    1    3    3  502    0 -0.85953442129E+03  0.50077140995E+03 -0.10054630721E+04  0.14144000197E+04  0.50400001928E-02 0.  1.
       -1    1    3    3    0  502  0.85953442129E+03 -0.50077140995E+03 -0.24381439220E+03  0.10242152529E+04  0.50400001928E-02 0. -1.
</event>
<event>
 5   0  0.1453430E-05  0.2099768E+04  0.7818609E-02  0.8561346E-01
       -1   -1    0    0    0  501  0.00000000000E+00  0.00000000000E+00  0.92332392943E+03  0.92332392944E+03  0.50400001928E-02 0. -1.
        1   -1    0    0  501    0  0.00000000000E+00  0.00000000000E+00 -0.11937914414E+04  0.11937914414E+04  0.50400001928E-02 0.  1.
    10030    2    1    2    0    0  0.00000000000E+00  0.00000000000E+00 -0.27046751192E+03  0.21171153708E+04  0.20997678010E+04 0.  0.
        5    1    3    3  502    0  0.10269120813E+04 -0.21802778757E+03 -0.12290260248E+03  0.10569823455E+04  0.46999998093E+01 0.  1.
       -5    1    3    3    0  502 -0.10269120813E+04  0.21802778757E+03 -0.14756490944E+03  0.10601330253E+04  0.46999998093E+01 0. -1.
</event>
<event>
 5   0  0.1513292E-05  0.2102755E+04  0.7818609E-02  0.8560031E-01
       -1   -1    0    0    0  501  0.00000000000E+00  0.00000000000E+00  0.43894602925E+03  0.43894602928E+03  0.50400001928E-02 0.  1.
        1   -1    0    0  501    0  0.00000000000E+00  0.00000000000E+00 -0.25182920631E+04  0.25182920631E+04  0.50400001928E-02 0. -1.
    10030    2    1    2    0    0  0.00000000000E+00  0.00000000000E+00 -0.20793460339E+04  0.29572380924E+04  0.21027546710E+04 0.  0.
        1    1    3    3  502    0  0.86239088486E+03 -0.17831809732E+03 -0.23192673607E+03  0.91066206303E+03  0.50400001928E-02 0.  1.
       -1    1    3    3    0  502 -0.86239088486E+03  0.17831809732E+03 -0.18474192978E+04  0.20465760294E+04  0.50400001928E-02 0. -1.
</event>
<event>
 5   0  0.1466480E-05  0.2095499E+04  0.7818609E-02  0.8563229E-01
        1   -1    0    0  501    0  0.00000000000E+00  0.00000000000E+00  0.84623434309E+03  0.84623434311E+03  0.50400001928E-02 0. -1.
       -1   -1    0    0    0  501  0.00000000000E+00  0.00000000000E+00 -0.12972517027E+04  0.12972517027E+04  0.50400001928E-02 0.  1.
    10030    2    1    2    0    0  0.00000000000E+00  0.00000000000E+00 -0.45101735958E+03  0.21434860458E+04  0.20954989310E+04 0.  0.
        3    1    3    3  502    0  0.60309755354E+03  0.84963510212E+03 -0.11265323690E+03  0.10479967690E+04  0.10100000352E+00 0.  1.
       -3    1    3    3    0  502 -0.60309755354E+03 -0.84963510212E+03 -0.33836412268E+03  0.10954892768E+04  0.10100000352E+00 0. -1.
</event>
<event>
 5   0  0.3257130E-05  0.2106851E+04  0.7818609E-02  0.8558232E-01
       -2   -1    0    0    0  501  0.00000000000E+00  0.00000000000E+00  0.60638771065E+03  0.60638771065E+03  0.25500000920E-02 0.  1.
        2   -1    0    0  501    0  0.00000000000E+00  0.00000000000E+00 -0.18300254350E+04  0.18300254350E+04  0.25500000920E-02 0. -1.
    10030    2    1    2    0    0  0.00000000000E+00  0.00000000000E+00 -0.12236377244E+04  0.24364131457E+04  0.21068506677E+04 0.  0.
        3    1    3    3  502    0  0.51611601694E+03  0.17889828013E+03  0.42981358148E+03  0.69506838699E+03  0.10100000352E+00 0.  1.
       -3    1    3    3    0  502 -0.51611601694E+03 -0.17889828013E+03 -0.16534513059E+04  0.17413447587E+04  0.10100000352E+00 0. -1.
</event>
<event>
 5   0  0.3130517E-05  0.2098550E+04  0.7818609E-02  0.8561882E-01
        2   -1    0    0  501    0  0.00000000000E+00  0.00000000000E+00  0.17083994423E+04  0.17083994423E+04  0.25500000920E-02 0.  1.
       -2   -1    0    0    0  501  0.00000000000E+00  0.00000000000E+00 -0.64445008066E+03  0.64445008066E+03  0.25500000920E-02 0. -1.
    10030    2    1    2    0    0  0.00000000000E+00  0.00000000000E+00  0.10639493617E+04  0.23528495230E+04  0.20985501265E+04 0.  0.
        1    1    3    3  502    0 -0.22758940436E+03  0.10188195853E+04  0.41338453934E+03  0.11227987628E+04  0.50400001928E-02 0. -1.
       -1    1    3    3    0  502  0.22758940436E+03 -0.10188195853E+04  0.65056482231E+03  0.12300507601E+04  0.50400001928E-02 0.  1.
</event>
<event>
 5   0  0.1129987E-05  0.2093708E+04  0.7818609E-02  0.8564020E-01
        3   -1    0    0  501    0  0.00000000000E+00  0.00000000000E+00  0.12854446187E+04  0.12854446226E+04  0.10100000352E+00 0.  1.
       -3   -1    0    0    0  501  0.00000000000E+00  0.00000000000E+00 -0.85254800463E+03  0.85254801062E+03  0.10100000352E+00 0. -1.
    10030    2    1    2    0    0  0.00000000000E+00  0.00000000000E+00  0.43289661403E+03  0.21379926333E+04  0.20937079599E+04 0.  0.
        1    1    3    3  502    0  0.56904142519E+03 -0.42120946923E+02  0.11126916677E+04  0.12504659392E+04  0.50400001928E-02 0.  1.
       -1    1    3    3    0  502 -0.56904142519E+03  0.42120946923E+02 -0.67979505362E+03  0.88752669408E+03  0.50400001928E-02 0. -1.
</event>
<event>
 5   0  0.3242231E-05  0.2055342E+04  0.7818609E-02  0.8581175E-01
        2   -1    0    0  501    0  0.00000000000E+00  0.00000000000E+00  0.94194693805E+03  0.94194693805E+03  0.25500000920E-02 0. -1.
       -2   -1    0    0    0  501  0.00000000000E+00  0.00000000000E+00 -0.11211960579E+04  0.11211960579E+04  0.25500000920E-02 0.  1.
    10030    2    1    2    0    0  0.00000000000E+00  0.00000000000E+00 -0.17924911990E+03  0.20631429960E+04  0.20553415227E+04 0.  0.
        4    1    3    3  502    0  0.16158754054E+03  0.19622345155E+03 -0.10891406980E+04  0.11184110377E+04  0.12699999809E+01 0.  1.
       -4    1    3    3    0  502 -0.16158754054E+03 -0.19622345155E+03  0.90989157814E+03  0.94473195831E+03  0.12699999809E+01 0. -1.
</event>
<event>
 5   0  0.1435410E-05  0.2098743E+04  0.7818609E-02  0.8561797E-01
        1   -1    0    0  501    0  0.00000000000E+00  0.00000000000E+00  0.82246325640E+03  0.82246325642E+03  0.50400001928E-02 0. -1.
       -1   -1    0    0    0  501  0.00000000000E+00  0.00000000000E+00 -0.13388816651E+04  0.13388816651E+04  0.50400001928E-02 0.  1.
    10030    2    1    2    0    0  0.00000000000E+00  0.00000000000E+00 -0.51641840867E+03  0.21613449215E+04  0.20987434090E+04 0.  0.
        2    1    3    3  502    0 -0.93280010897E+03  0.25331655796E+03  0.16250506909E+03  0.98014959028E+03  0.25500000920E-02 0. -1.
       -2    1    3    3    0  502  0.93280010897E+03 -0.25331655796E+03 -0.67892347776E+03  0.11811953312E+04  0.25500000920E-02 0.  1.
</event>
<event>
 5   0  0.3108326E-05  0.2127235E+04  0.7818609E-02  0.8549340E-01
        2   -1    0    0  501    0  0.00000000000E+00  0.00000000000E+00  0.12265690583E+04  0.12265690583E+04  0.25500000920E-02 0.  1.
       -2   -1    0    0    0  501  0.00000000000E+00  0.00000000000E+00 -0.92231417253E+03  0.92231417253E+03  0.25500000920E-02 0. -1.
    10030    2    1    2    0    0  0.00000000000E+00  0.00000000000E+00  0.30425488578E+03  0.21488832308E+04  0.21272348493E+04 0.  0.
        5    1    3    3  502    0  0.17169639333E+03  0.59067155046E+03 -0.72439369388E+03  0.95033722737E+03  0.46999998093E+01 0. -1.
       -5    1    3    3    0  502 -0.17169639333E+03 -0.59067155046E+03  0.10286485797E+04  0.11985460035E+04  0.46999998093E+01 0.  1.
</event>
<event>
 5   0  0.3108326E-05  0.2094176E+04  0.7818609E-02  0.8563813E-01
       -2   -1    0    0    0  501  0.00000000000E+00  0.00000000000E+00  0.15684776610E+04  0.15684776610E+04  0.25500000920E-02 0.  1.
        2   -1    0    0  501    0  0.00000000000E+00  0.00000000000E+00 -0.69901757492E+03  0.69901757492E+03  0.25500000920E-02 0. -1.
    10030    2    1    2    0    0  0.00000000000E+00  0.00000000000E+00  0.86946008606E+03  0.22674952359E+04  0.20941761635E+04 0.  0.
        5    1    3    3  502    0 -0.42913780605E+03  0.89903227926E+03  0.78383162834E+03  0.12676089331E+04  0.46999998093E+01 0.  1.
       -5    1    3    3    0  502  0.42913780605E+03 -0.89903227926E+03  0.85628457715E+02  0.99988630278E+03  0.46999998093E+01 0. -1.
</event>
<event>
 5   0  0.3257130E-05  0.2107961E+04  0.7818609E-02  0.8557744E-01
        2   -1    0    0  501    0  0.00000000000E+00  0.00000000000E+00  0.14483901307E+04  0.14483901307E+04  0.25500000920E-02 0. -1.
       -2   -1    0    0    0  501  0.00000000000E+00  0.00000000000E+00 -0.76697236675E+03  0.76697236675E+03  0.25500000920E-02 0.  1.
    10030    2    1    2    0    0  0.00000000000E+00  0.00000000000E+00  0.68141776393E+03  0.22153624974E+04  0.21079612961E+04 0.  0.
        3    1    3    3  502    0 -0.89554163061E+03 -0.48784769034E+03  0.60901360008E+02  0.10216159587E+04  0.10100000352E+00 0. -1.
       -3    1    3    3    0  502  0.89554163061E+03  0.48784769034E+03  0.62051640392E+03  0.11937465388E+04  0.10100000352E+00 0.  1.
</event>
<event>
 5   0  0.3108326E-05  0.2117184E+04  0.7818609E-02  0.8553711E-01
       -2   -1    0    0    0  501  0.00000000000E+00  0.00000000000E+00  0.10179985127E+04  0.10179985127E+04  0.25500000920E-02 0. -1.
        2   -1    0    0  501    0  0.00000000000E+00  0.00000000000E+00 -0.11008038629E+04  0.11008038629E+04  0.25500000920E-02 0.  1.
    10030    2    1    2    0    0  0.00000000000E+00  0.00000000000E+00 -0.82805350196E+02  0.21188023757E+04  0.21171836909E+04 0.  0.
        5    1    3    3  502    0  0.45720387586E+03  0.38907630222E+03  0.83114628071E+03  0.10253009231E+04  0.46999998093E+01 0. -1.
       -5    1    3    3    0  502 -0.45720387586E+03 -0.38907630222E+03 -0.91395163090E+03  0.10935014525E+04  0.46999998093E+01 0.  1.
</event>
<event>
 5   0  0.3279789E-05  0.2067480E+04  0.7818609E-02  0.8575706E-01
        2   -1    0    0  501    0  0.00000000000E+00  0.00000000000E+00  0.15577748601E+04  0.15577748601E+04  0.25500000920E-02 0.  1.
       -2   -1    0    0    0  501  0.00000000000E+00  0.00000000000E+00 -0.68599008116E+03  0.68599008116E+03  0.25500000920E-02 0. -1.
    10030    2    1    2    0    0  0.00000000000E+00  0.00000000000E+00  0.87178477896E+03  0.22437649413E+04  0.20674797244E+04 0.  0.
        2    1    3    3  502    0  0.15096609583E+03 -0.97952061372E+03  0.11695217525E+03  0.99796252740E+03  0.25500000920E-02 0. -1.
       -2    1    3    3    0  502 -0.15096609583E+03  0.97952061372E+03  0.75483260371E+03  0.12458024139E+04  0.25500000920E-02 0.  1.
</event>
<event>
 5   0  0.3108326E-05  0.2106230E+04  0.7818609E-02  0.8558504E-01
        2   -1    0    0  501    0  0.00000000000E+00  0.00000000000E+00  0.11257307860E+04  0.11257307860E+04  0.25500000920E-02 0.  1.
       -2   -1    0    0    0  501  0.00000000000E+00  0.00000000000E+00 -0.98518346027E+03  0.98518346027E+03  0.25500000920E-02 0. -1.
    10030    2    1    2    0    0  0.00000000000E+00  0.00000000000E+00  0.14054732575E+03  0.21109142463E+04  0.21062301404E+04 0.  0.
        5    1    3    3  502    0  0.61281855048E+03 -0.63288450230E+03  0.64856632923E+03  0.10939605763E+04  0.46999998093E+01 0.  1.
       -5    1    3    3    0  502 -0.61281855048E+03  0.63288450230E+03 -0.50801900347E+03  0.10169536700E+04  0.46999998093E+01 0. -1.
</event>
<event>
 5   0  0.3279789E-05  0.2100558E+04  0.7818609E-02  0.8560997E-01
       -2   -1    0    0    0  501  0.00000000000E+00  0.00000000000E+00  0.90398870521E+03  0.90398870522E+03  0.25500000920E-02 0. -1.
        2   -1    0    0  501    0  0.00000000000E+00  0.00000000000E+00 -0.12202435919E+04  0.12202435919E+04  0.25500000920E-02 0.  1.
    10030    2    1    2    0    0  0.00000000000E+00  0.00000000000E+00 -0.31625488667E+03  0.21242322971E+04  0.21005584255E+04 0.  0.
        2    1    3    3  502    0 -0.66365172714E+03 -0.64760625121E+03  0.34064408993E+03  0.98785923468E+03  0.25500000920E-02 0.  1.
       -2    1    3    3    0  502  0.66365172714E+03  0.64760625121E+03 -0.65689897660E+03  0.11363730624E+04  0.25500000920E-02 0. -1.
</event>
<event>
 5   0  0.3242231E-05  0.2070642E+04  0.7818609E-02  0.8574287E-01
        2   -1    0    0  501    0  0.00000000000E+00  0.00000000000E+00  0.18366185320E+04  0.18366185320E+04  0.25500000920E-02 0.  1.
       -2   -1    0    0    0  501  0.00000000000E+00  0.00000000000E+00 -0.58362106193E+03  0.58362106194E+03  0.25500000920E-02 0. -1.
    10030    2    1    2    0    0  0.00000000000E+00  0.00000000000E+00  0.12529974701E+04  0.24202395939E+04  0.20706416957E+04 0.  0.
        4    1    3    3  502    0 -0.82136926300E+03 -0.37430396669E+03  0.33798013491E+02  0.90326897672E+03  0.12699999809E+01 0. -1.
       -4    1    3    3    0  502  0.82136926300E+03  0.37430396669E+03  0.12191994566E+04  0.15169706172E+04  0.12699999809E+01 0.  1.
</event>
<event>
 5   0  0.3130517E-05  0.2118600E+04  0.7818609E-02  0.8553094E-01
       -2   -1    0    0    0  501  0.00000000000E+00  0.00000000000E+00  0.99237348908E+03  0.99237348908E+03  0.25500000920E-02 0.  1.
        2   -1    0    0  501    0  0.00000000000E+00  0.00000000000E+00 -0.11307401296E+04  0.11307401296E+04  0.25500000920E-02 0. -1.
    10030    2    1    2    0    0  0.00000000000E+00  0.00000000000E+00 -0.13836664056E+03  0.21231136187E+04  0.21186000356E+04 0.  0.
        1    1    3    3  502    0  0.46711932926E+03  0.61660056294E+03 -0.79440997883E+03  0.11088209668E+04  0.50400001928E-02 0. -1.
       -1    1    3    3    0  502 -0.46711932926E+03 -0.61660056294E+03  0.65604333827E+03  0.10142926519E+04  0.50400001928E-02 0.  1.
</event>
<event>
 5   0  0.1513292E-05  0.2120224E+04  0.7818609E-02  0.8552387E-01
       -1   -1    0    0    0  501  0.00000000000E+00  0.00000000000E+00  0.12062164674E+04  0.12062164674E+04  0.50400001928E-02 0. -1.
        1   -1    0    0  501    0  0.00000000000E+00  0.00000000000E+00 -0.93170449946E+03  0.93170449947E+03  0.50400001928E-02 0.  1.
    10030    2    1    2    0    0  0.00000000000E+00  0.00000000000E+00  0.27451196794E+03  0.21379209669E+04  0.21202238656E+04 0.  0.
        1    1    3    3  502    0 -0.50067799232E+03  0.17869921817E+02  0.10793128727E+04  0.11899218728E+04  0.50400001928E-02 0. -1.
       -1    1    3    3    0  502  0.50067799232E+03 -0.17869921817E+02 -0.80480090476E+03  0.94799909411E+03  0.50400001928E-02 0.  1.
</event>
<event>
 5   0  0.1453430E-05  0.2089453E+04  0.7818609E-02  0.8565904E-01
        1   -1    0    0  501    0  0.00000000000E+00  0.00000000000E+00  0.11101521463E+04  0.11101521463E+04  0.50400001928E-02 0. -1.
       -1   -1    0    0    0  501  0.00000000000E+00  0.00000000000E+00 -0.98315678619E+03  0.98315678620E+03  0.50400001928E-02 0.  1.
    10030    2    1    2    0    0  0.00000000000E+00  0.00000000000E+00  0.12699536012E+03  0.20933089325E+04  0.20894531499E+04 0.  0.
        5    1    3    3  502    0 -0.29578327575E+02  0.98967986014E+03  0.39741504134E+03  0.10669123245E+04  0.46999998093E+01 0. -1.
       -5    1    3    3    0  502  0.29578327575E+02 -0.98967986014E+03 -0.27041968122E+03  0.10263966080E+04  0.46999998093E+01 0.  1.
</event>
<event>
 5   0  0.1435410E-05  0.2097469E+04  0.7818609E-02  0.8562359E-01
       -1   -1    0    0    0  501  0.00000000000E+00  0.00000000000E+00  0.63480292489E+03  0.63480292491E+03  0.50400001928E-02 0.  1.
        1   -1    0    0  501    0  0.00000000000E+00  0.00000000000E+00 -0.17325751142E+04  0.17325751142E+04  0.50400001928E-02 0. -1.
    10030    2    1    2    0    0  0.00000000000E+00  0.00000000000E+00 -0.10977721893E+04  0.23673780391E+04  0.20974687126E+04 0.  0.
        2    1    3    3  502    0  0.87330793661E+03  0.34903465916E+03 -0.25109146247E+02  0.94080944652E+03  0.25500000920E-02 0.  1.
       -2    1    3    3    0  502 -0.87330793661E+03 -0.34903465916E+03 -0.10726630431E+04  0.14265685926E+04  0.25500000920E-02 0. -1.
</event>
<event>
 5   0  0.1453430E-05  0.2101507E+04  0.7818609E-02  0.8560580E-01
        1   -1    0    0  501    0  0.00000000000E+00  0.00000000000E+00  0.11057202254E+04  0.11057202254E+04  0.50400001928E-02 0. -1.
       -1   -1    0    0    0  501  0.00000000000E+00  0.00000000000E+00 -0.99851924958E+03  0.99851924959E+03  0.50400001928E-02 0.  1.
    10030    2    1    2    0    0  0.00000000000E+00  0.00000000000E+00  0.10720097584E+03  0.21042394750E+04  0.21015070114E+04 0.  0.
        5    1    3    3  502    0  0.19578147070E+03 -0.41726606299E+03  0.99908429757E+03  0.11002876330E+04  0.46999998093E+01 0. -1.
       -5    1    3    3    0  502 -0.19578147070E+03  0.41726606299E+03 -0.89188332173E+03  0.10039518421E+04  0.46999998093E+01 0.  1.
</event>
<event>
 5   0  0.3130517E-05  0.2105317E+04  0.7818609E-02  0.8558905E-01
        2   -1    0    0  501    0  0.00000000000E+00  0.00000000000E+00  0.12234760979E+04  0.12234760979E+04  0.25500000920E-02 0. -1.
       -2   -1    0    0    0  501  0.00000000000E+00  0.00000000000E+00 -0.90568961684E+03  0.90568961684E+03  0.25500000920E-02 0.  1.
    10030    2    1    2    0    0  0.00000000000E+00  0.00000000000E+00  0.31778648102E+03  0.21291657147E+04  0.21053166966E+04 0.  0.
        1    1    3    3  502    0  0.26974361790E+03 -0.45673015365E+03 -0.76065116866E+03  0.92733718412E+03  0.50400001928E-02 0.  1.
       -1    1    3    3    0  502 -0.26974361790E+03  0.45673015365E+03  0.10784376497E+04  0.12018285306E+04  0.50400001928E-02 0. -1.
</event>
<event>
 5   0  0.3242231E-05  0.2088686E+04  0.7818609E-02  0.8566244E-01
        2   -1    0    0  501    0  0.00000000000E+00  0.00000000000E+00  0.14987303637E+04  0.14987303637E+04  0.25500000920E-02 0. -1.
       -2   -1    0    0    0  501  0.00000000000E+00  0.00000000000E+00 -0.72771738146E+03  0.72771738146E+03  0.25500000920E-02 0.  1.
    10030    2    1    2    0    0  0.00000000000E+00  0.00000000000E+00  0.77101298224E+03  0.22264477452E+04  0.20886858412E+04 0.  0.
        4    1    3    3  502    0 -0.90318052934E+03  0.48584988619E+03  0.17536073058E+03  0.10404509499E+04  0.12699999809E+01 0.  1.
       -4    1    3    3    0  502  0.90318052934E+03 -0.48584988619E+03  0.59565225165E+03  0.11859967952E+04  0.12699999809E+01 0. -1.
</event>
<event>
 5   0  0.1492552E-05  0.2101448E+04  0.7818609E-02  0.8560606E-01
        1   -1    0    0  501    0  0.00000000000E+00  0.00000000000E+00  0.69559936410E+03  0.69559936411E+03  0.50400001928E-02 0.  1.
       -1   -1    0    0    0  501  0.00000000000E+00  0.00000000000E+00 -0.15871510850E+04  0.15871510850E+04  0.50400001928E-02 0. -1.
    10030    2    1    2    0    0  0.00000000000E+00  0.00000000000E+00 -0.89155172087E+03  0.22827504491E+04  0.21014483438E+04 0.  0.
        4    1    3    3  502    0  0.79458226784E+03 -0.36682280222E+03 -0.10774049542E+04  0.13880644786E+04  0.12699999809E+01 0. -1.
       -4    1    3    3    0  502 -0.79458226784E+03  0.36682280222E+03  0.18585323328E+03  0.89468597050E+03  0.12699999809E+01 0.  1.
</event>
<event>
 5   0  0.1435410E-05  0.2102591E+04  0.7818609E-02  0.8560103E-01
       -1   -1    0    0    0  501  0.00000000000E+00  0.00000000000E+00  0.94242375020E+03  0.94242375021E+03  0.50400001928E-02 0. -1.
        1   -1    0    0  501    0  0.00000000000E+00  0.00000000000E+00 -0.11727446661E+04  0.11727446661E+04  0.50400001928E-02 0.  1.
    10030    2    1    2    0    0  0.00000000000E+00  0.00000000000E+00 -0.23032091587E+03  0.21151684163E+04  0.21025911883E+04 0.  0.
        2    1    3    3  502    0 -0.27293580899E+03  0.27266898674E+03 -0.10989571933E+04  0.11647099403E+04  0.25500000920E-02 0.  1.
       -2    1    3    3    0  502  0.27293580899E+03 -0.27266898674E+03  0.86863627745E+03  0.95045847604E+03  0.25500000920E-02 0. -1.
</event>
<event>
 5   0  0.1435410E-05  0.2101267E+04  0.7818609E-02  0.8560685E-01
        1   -1    0    0  501    0  0.00000000000E+00  0.00000000000E+00  0.17656601974E+04  0.17656601974E+04  0.50400001928E-02 0.  1.
       -1   -1    0    0    0  501  0.00000000000E+00  0.00000000000E+00 -0.62516599520E+03  0.62516599522E+03  0.50400001928E-02 0. -1.
    10030    2    1    2    0    0  0.00000000000E+00  0.00000000000E+00  0.11404942022E+04  0.23908261926E+04  0.21012669650E+04 0.  0.
        2    1    3    3  502    0  0.24284551321E+03  0.33354234172E+03 -0.52913497944E+03  0.67097560573E+03  0.25500000920E-02 0. -1.
       -2    1    3    3    0  502 -0.24284551321E+03 -0.33354234172E+03  0.16696291817E+04  0.17198505869E+04  0.25500000920E-02 0.  1.
</event>
<event>
 5   0  0.3279789E-05  0.2091539E+04  0.7818609E-02  0.8564980E-01
        2   -1    0    0  501    0  0.00000000000E+00  0.00000000000E+00  0.22790787995E+04  0.22790787995E+04  0.25500000920E-02 0. -1.
       -2   -1    0    0    0  501  0.00000000000E+00  0.00000000000E+00 -0.47985781801E+03  0.47985781802E+03  0.25500000920E-02 0.  1.
    10030    2    1    2    0    0  0.00000000000E+00  0.00000000000E+00  0.17992209815E+04  0.27589366175E+04  0.20915389356E+04 0.  0.
        2    1    3    3  502    0  0.79173308548E+03  0.42282295666E+02  0.10370304600E+00  0.79286132579E+03  0.25500000920E-02 0.  1.
       -2    1    3    3    0  502 -0.79173308548E+03 -0.42282295666E+02  0.17991172784E+04  0.19660752917E+04  0.25500000920E-02 0. -1.
</event>
<event>
 5   0  0.1513292E-05  0.2092700E+04  0.7818609E-02  0.8564466E-01
       -1   -1    0    0    0  501  0.00000000000E+00  0.00000000000E+00  0.10198273548E+04  0.10198273548E+04  0.50400001928E-02 0.  1.
        1   -1    0    0  501    0  0.00000000000E+00  0.00000000000E+00 -0.10735624080E+04  0.10735624080E+04  0.50400001928E-02 0. -1.
    10030    2    1    2    0    0  0.00000000000E+00  0.00000000000E+00 -0.53735053253E+02  0.20933897628E+04  0.20926999888E+04 0.  0.
        1    1    3    3  502    0 -0.25585071189E+03 -0.61929796952E+02  0.98616238415E+03  0.10206914982E+04  0.50400001928E-02 0.  1.
       -1    1    3    3    0  502  0.25585071189E+03  0.61929796952E+02 -0.10398974374E+04  0.10726982646E+04  0.50400001928E-02 0. -1.
</event>
<event>
 5   0  0.1435410E-05  0.2100032E+04  0.7818609E-02  0.8561229E-01
        1   -1    0    0  501    0  0.00000000000E+00  0.00000000000E+00  0.86506193773E+03  0.86506193774E+03  0.50400001928E-02 0. -1.
       -1   -1    0    0    0  501  0.00000000000E+00  0.00000000000E+00 -0.12745137226E+04  0.12745137226E+04  0.50400001928E-02 0.  1.
    10030    2    1    2    0    0  0.00000000000E+00  0.00000000000E+00 -0.40945178485E+03  0.21395756603E+04  0.21000317241E+04 0.  0.
        2    1    3    3  502    0  0.68354291586E+03  0.75552547628E+03 -0.46344385981E+03  0.11192988316E+04  0.25500000920E-02 0.  1.
       -2    1    3    3    0  502 -0.68354291586E+03 -0.75552547628E+03  0.53992074959E+02  0.10202768288E+04  0.25500000920E-02 0. -1.
</event>
<event>
 5   0  0.1466480E-05  0.2102665E+04  0.7818609E-02  0.8560070E-01
       -1   -1    0    0    0  501  0.00000000000E+00  0.00000000000E+00  0.12214546951E+04  0.12214546951E+04  0.50400001928E-02 0.  1.
        1   -1    0    0  501    0  0.00000000000E+00  0.00000000000E+00 -0.90490461075E+03  0.90490461076E+03  0.50400001928E-02 0. -1.
    10030    2    1    2    0    0  0.00000000000E+00  0.00000000000E+00  0.31655008433E+03  0.21263593059E+04  0.21026649618E+04 0.  0.
        3    1    3    3  502    0 -0.99029364736E+03  0.15695338817E+03 -0.16149078363E+03  0.10155762687E+04  0.10100000352E+00 0. -1.
       -3    1    3    3    0  502  0.99029364736E+03 -0.15695338817E+03  0.47804086796E+03  0.11107830372E+04  0.10100000352E+00 0.  1.
</event>
<event>
 5   0  0.1492552E-05  0.2081141E+04  0.7818609E-02  0.8569597E-01
       -1   -1    0    0    0  501  0.00000000000E+00  0.00000000000E+00  0.11600280055E+04  0.11600280055E+04  0.50400001928E-02 0.  1.
        1   -1    0    0  501    0  0.00000000000E+00  0.00000000000E+00 -0.93341440241E+03  0.93341440242E+03  0.50400001928E-02 0. -1.
    10030    2    1    2    0    0  0.00000000000E+00  0.00000000000E+00  0.22661360307E+03  0.20934424079E+04  0.20811408867E+04 0.  0.
        4    1    3    3  502    0 -0.39380283962E+03 -0.38165909124E+03 -0.77625119580E+03  0.95042720410E+03  0.12699999809E+01 0. -1.
       -4    1    3    3    0  502  0.39380283962E+03  0.38165909124E+03  0.10028647989E+04  0.11430152038E+04  0.12699999809E+01 0.  1.
</event>
<event>
 5   0  0.3242231E-05  0.2102694E+04  0.7818609E-02  0.8560058E-01
        2   -1    0    0  501    0  0.00000000000E+00  0.00000000000E+00  0.16091088058E+04  0.16091088058E+04  0.25500000920E-02 0.  1.
       -2   -1    0    0    0  501  0.00000000000E+00  0.00000000000E+00 -0.68692087127E+03  0.68692087127E+03  0.25500000920E-02 0. -1.
    10030    2    1    2    0    0  0.00000000000E+00  0.00000000000E+00  0.92218793448E+03  0.22960296770E+04  0.21026939129E+04 0.  0.
        4    1    3    3  502    0 -0.33199724080E+03 -0.92770331946E+03  0.60670706009E+02  0.98718699561E+03  0.12699999809E+01 0.  1.
       -4    1    3    3    0  502  0.33199724080E+03  0.92770331946E+03  0.86151722848E+03  0.13088426814E+04  0.12699999809E+01 0. -1.
</event>
<event>
 5   0  0.3279789E-05  0.2095084E+04  0.7818609E-02  0.8563412E-01
       -2   -1    0    0    0  501  0.00000000000E+00  0.00000000000E+00  0.58912722198E+03  0.58912722199E+03  0.25500000920E-02 0.  1.
        2   -1    0    0  501    0  0.00000000000E+00  0.00000000000E+00 -0.18626614523E+04  0.18626614523E+04  0.25500000920E-02 0. -1.
    10030    2    1    2    0    0  0.00000000000E+00  0.00000000000E+00 -0.12735342303E+04  0.24517886743E+04  0.20950843104E+04 0.  0.
        2    1    3    3  502    0 -0.16317354645E+03 -0.10346821752E+04 -0.65118348631E+03  0.12333826424E+04  0.25500000920E-02 0. -1.
       -2    1    3    3    0  502  0.16317354645E+03  0.10346821752E+04 -0.62235074398E+03  0.12184060318E+04  0.25500000920E-02 0.  1.
</event>
<event>
 5   0  0.3108326E-05  0.2097091E+04  0.7818609E-02  0.8562526E-01
       -2   -1    0    0    0  501  0.00000000000E+00  0.00000000000E+00  0.14846856540E+04  0.14846856540E+04  0.25500000920E-02 0.  1.
        2   -1    0    0  501    0  0.00000000000E+00  0.00000000000E+00 -0.74052576268E+03  0.74052576268E+03  0.25500000920E-02 0. -1.
    10030    2    1    2    0    0  0.00000000000E+00  0.00000000000E+00  0.74415989132E+03  0.22252114167E+04  0.20970912963E+04 0.  0.
        5    1    3    3  502    0 -0.12796014642E+03 -0.61697697681E+03  0.12613702646E+04  0.14100040509E+04  0.46999998093E+01 0.  1.
       -5    1    3    3    0  502  0.12796014642E+03  0.61697697681E+03 -0.51721037332E+03  0.81520736580E+03  0.46999998093E+01 0. -1.
</event>
<event>
 5   0  0.3257130E-05  0.2180859E+04  0.7818609E-02  0.8526438E-01
        2   -1    0    0  501    0  0.00000000000E+00  0.00000000000E+00  0.20118310581E+04  0.20118310581E+04  0.25500000920E-02 0.  1.
       -2   -1    0    0    0  501  0.00000000000E+00  0.00000000000E+00 -0.59102199453E+03  0.59102199454E+03  0.25500000920E-02 0. -1.
    10030    2    1    2    0    0  0.00000000000E+00  0.00000000000E+00  0.14208090636E+04  0.26028530527E+04  0.21808589176E+04 0.  0.
        3    1    3    3  502    0  0.61900862962E+03  0.23374937326E+03 -0.32404037823E+03  0.73675818962E+03  0.10100000352E+00 0. -1.
       -3    1    3    3    0  502 -0.61900862962E+03 -0.23374937326E+03  0.17448494418E+04  0.18660948630E+04  0.10100000352E+00 0.  1.
</event>
<event>
 5   0  0.3130517E-05  0.2100526E+04  0.7818609E-02  0.8561012E-01
       -2   -1    0    0    0  501  0.00000000000E+00  0.00000000000E+00  0.11190034850E+04  0.11190034850E+04  0.25500000920E-02 0. -1.
        2   -1    0    0  501    0  0.00000000000E+00  0.00000000000E+00 -0.98574540326E+03  0.98574540327E+03  0.25500000920E-02 0.  1.
    10030    2    1    2    0    0  0.00000000000E+00  0.00000000000E+00  0.13325808176E+03  0.21047488883E+04  0.21005261642E+04 0.  0.
        1    1    3    3  502    0 -0.61612330974E+03 -0.31710463806E+03 -0.72419090369E+03  0.10023052176E+04  0.50400001928E-02 0.  1.
       -1    1    3    3    0  502  0.61612330974E+03  0.31710463806E+03  0.85744898545E+03  0.11024436706E+04  0.50400001928E-02 0. -1.
</event>
<event>
 5   0  0.1466480E-05  0.2088542E+04  0.7818609E-02  0.8566307E-01
        1   -1    0    0  501    0  0.00000000000E+00  0.00000000000E+00  0.24013675891E+04  0.24013675891E+04  0.50400001928E-02 0. -1.
       -1   -1    0    0    0  501  0.00000000000E+00  0.00000000000E+00 -0.45411715746E+03  0.45411715749E+03  0.50400001928E-02 0.  1.
    10030    2    1    2    0    0  0.00000000000E+00  0.00000000000E+00  0.19472504317E+04  0.28554847466E+04  0.20885422894E+04 0.  0.
        3    1    3    3  502    0  0.70837578198E+03  0.68378150286E+03  0.49774662410E+03  0.11032248656E+04  0.10100000352E+00 0.  1.
       -3    1    3    3    0  502 -0.70837578198E+03 -0.68378150286E+03  0.14495038076E+04  0.17522598810E+04  0.10100000352E+00 0. -1.
</event>
<event>
 5   0  0.1466480E-05  0.2101697E+04  0.7818609E-02  0.8560496E-01
        1   -1    0    0  501    0  0.00000000000E+00  0.00000000000E+00  0.15435619528E+04  0.15435619528E+04  0.50400001928E-02 0. -1.
       -1   -1    0    0    0  501  0.00000000000E+00  0.00000000000E+00 -0.71541214773E+03  0.71541214775E+03  0.50400001928E-02 0.  1.
    10030    2    1    2    0    0  0.00000000000E+00  0.00000000000E+00  0.82814980505E+03  0.22589741005E+04  0.21016973824E+04 0.  0.
        3    1    3    3  502    0  0.75125284172E+03 -0.21531862590E+03 -0.34102124583E+03  0.85266549312E+03  0.10100000352E+00 0.  1.
       -3    1    3    3    0  502 -0.75125284172E+03  0.21531862590E+03  0.11691710509E+04  0.14063086074E+04  0.10100000352E+00 0. -1.
</event>
<event>
 5   0  0.3108326E-05  0.2097450E+04  0.7818609E-02  0.8562368E-01
        2   -1    0    0  501    0  0.00000000000E+00  0.00000000000E+00  0.12377462228E+04  0.12377462228E+04  0.25500000920E-02 0. -1.
       -2   -1    0    0    0  501  0.00000000000E+00  0.00000000000E+00 -0.88856961269E+03  0.88856961269E+03  0.25500000920E-02 0.  1.
    10030    2    1    2    0    0  0.00000000000E+00  0.00000000000E+00  0.34917661013E+03  0.21263158355E+04  0.20974495768E+04 0.  0.
        5    1    3    3  502    0 -0.90196566765E+03  0.34382583299E+02 -0.36668625014E+03  0.97427158620E+03  0.46999998093E+01 0.  1.
       -5    1    3    3    0  502  0.90196566765E+03 -0.34382583299E+02  0.71586286027E+03  0.11520442493E+04  0.46999998093E+01 0. -1.
</event>
<event>
 5   0  0.1492552E-05  0.2097782E+04  0.7818609E-02  0.8562221E-01
       -1   -1    0    0    0  501  0.00000000000E+00  0.00000000000E+00  0.80363130721E+03  0.80363130723E+03  0.50400001928E-02 0.  1.
        1   -1    0    0  501    0  0.00000000000E+00  0.00000000000E+00 -0.13690008937E+04  0.13690008937E+04  0.50400001928E-02 0. -1.
    10030    2    1    2    0    0  0.00000000000E+00  0.00000000000E+00 -0.56536958644E+03  0.21726322009E+04  0.20977816643E+04 0.  0.
        4    1    3    3  502    0  0.59949490425E+02 -0.58135434401E+03  0.61937092161E+03  0.85158015838E+03  0.12699999809E+01 0.  1.
       -4    1    3    3    0  502 -0.59949490425E+02  0.58135434401E+03 -0.11847405081E+04  0.13210520425E+04  0.12699999809E+01 0. -1.
</event>
<event>
 5   0  0.3130517E-05  0.2099571E+04  0.7818609E-02  0.8561432E-01
       -2   -1    0    0    0  501  0.00000000000E+00  0.00000000000E+00  0.81104648245E+03  0.81104648245E+03  0.25500000920E-02 0.  1.
        2   -1    0    0  501    0  0.00000000000E+00  0.00000000000E+00 -0.13587993896E+04  0.13587993896E+04  0.25500000920E-02 0. -1.
    10030    2    1    2    0    0  0.00000000000E+00  0.00000000000E+00 -0.54775290714E+03  0.21698458720E+04  0.20995708755E+04 0.  0.
        1    1    3    3  502    0  0.84872925991E+03 -0.26371427064E+03 -0.85129268021E+03  0.12306850940E+04  0.50400001928E-02 0. -1.
       -1    1    3    3    0  502 -0.84872925991E+03  0.26371427064E+03  0.30353977307E+03  0.93916077805E+03  0.50400001928E-02 0.  1.
</event>
<event>
 5   0  0.3257130E-05  0.2098275E+04  0.7818609E-02  0.8562004E-01
       -2   -1    0    0    0  501  0.00000000000E+00  0.00000000000E+00  0.55781670217E+03  0.55781670218E+03  0.25500000920E-02 0. -1.
        2   -1    0    0  501    0  0.00000000000E+00  0.00000000000E+00 -0.19732097099E+04  0.19732097099E+04  0.25500000920E-02 0.  1.
    10030    2    1    2    0    0  0.00000000000E+00  0.00000000000E+00 -0.14153930078E+04  0.25310264121E+04  0.20982748467E+04 0.  0.
        3    1    3    3  502    0  0.54710871193E+02  0.80978070537E+03  0.94205848142E+02  0.81707577509E+03  0.10100000352E+00 0. -1.
       -3    1    3    3    0  502 -0.54710871193E+02 -0.80978070537E+03 -0.15095988559E+04  0.17139506370E+04  0.10100000352E+00 0.  1.
</event>
<event>
 5   0  0.1466480E-05  0.2073235E+04  0.7818609E-02  0.8573126E-01
        1   -1    0    0  501    0  0.00000000000E+00  0.00000000000E+00  0.21303882257E+04  0.21303882257E+04  0.50400001928E-02 0.  1.
       -1   -1    0    0    0  501  0.00000000000E+00  0.00000000000E+00 -0.50440373021E+03  0.50440373024E+03  0.50400001928E-02 0. -1.
    10030    2    1    2    0    0  0.00000000000E+00  0.00000000000E+00  0.16259844955E+04  0.26347919560E+04  0.20732349292E+04 0.  0.
        3    1    3    3  502    0  0.82421757736E+03 -0.11047914679E+03  0.15995259304E+04  0.18027821468E+04  0.10100000352E+00 0.  1.
       -3    1    3    3    0  502 -0.82421757736E+03  0.11047914679E+03  0.26458565155E+02  0.83200980918E+03  0.10100000352E+00 0. -1.
</event>
<event>
 5   0  0.3257130E-05  0.2095804E+04  0.7818609E-02  0.8563094E-01
       -2   -1    0    0    0  501  0.00000000000E+00  0.00000000000E+00  0.40089539952E+03  0.40089539953E+03  0.25500000920E-02 0.  1.
        2   -1    0    0  501    0  0.00000000000E+00  0.00000000000E+00 -0.27391147447E+04  0.27391147447E+04  0.25500000920E-02 0. -1.
    10030    2    1    2    0    0  0.00000000000E+00  0.00000000000E+00 -0.23382193452E+04  0.31400101442E+04  0.20958039030E+04 0.  0.
        3    1    3    3  502    0 -0.41306116831E+03 -0.66791311061E+03 -0.12961950748E+03  0.79594514824E+03  0.10100000352E+00 0.  1.
       -3    1    3    3    0  502  0.41306116831E+03  0.66791311061E+03 -0.22085998377E+04  0.23440649960E+04  0.10100000352E+00 0. -1.
</event>
<event>
 5   0  0.3130517E-05  0.2057600E+04  0.7818609E-02  0.8580155E-01
       -2   -1    0    0    0  501  0.00000000000E+00  0.00000000000E+00  0.69514968309E+03  0.69514968309E+03  0.25500000920E-02 0. -1.
        2   -1    0    0  501    0  0.00000000000E+00  0.00000000000E+00 -0.15225916747E+04  0.15225916747E+04  0.25500000920E-02 0.  1.
    10030    2    1    2    0    0  0.00000000000E+00  0.00000000000E+00 -0.82744199164E+03  0.22177413578E+04  0.20575996891E+04 0.  0.
        1    1    3    3  502    0 -0.83119055821E+03  0.25373134445E+03  0.17974302870E+03  0.88744853124E+03  0.50400001928E-02 0. -1.
       -1    1    3    3    0  502  0.83119055821E+03 -0.25373134445E+03 -0.10071850203E+04  0.13302928266E+04  0.50400001928E-02 0.  1.
</event>
<event>
 5   0  0.1435410E-05  0.2099725E+04  0.7818609E-02  0.8561364E-01
       -1   -1    0    0    0  501  0.00000000000E+00  0.00000000000E+00  0.75005425142E+03  0.75005425144E+03  0.50400001928E-02 0.  1.
        1   -1    0    0  501    0  0.00000000000E+00  0.00000000000E+00 -0.14695093264E+04  0.14695093264E+04  0.50400001928E-02 0. -1.
    10030    2    1    2    0    0  0.00000000000E+00  0.00000000000E+00 -0.71945507498E+03  0.22195635779E+04  0.20997254276E+04 0.  0.
        2    1    3    3  502    0 -0.77222542497E+03 -0.46603776221E+03  0.20823509062E+03  0.92568091465E+03  0.25500000920E-02 0.  1.
       -2    1    3    3    0  502  0.77222542497E+03  0.46603776221E+03 -0.92769016560E+03  0.12938826632E+04  0.25500000920E-02 0. -1.
</event>
<event>
 5   0  0.3242231E-05  0.2110240E+04  0.7818609E-02  0.8556746E-01
       -2   -1    0    0    0  501  0.00000000000E+00  0.00000000000E+00  0.11947395234E+04  0.11947395234E+04  0.25500000920E-02 0. -1.
        2   -1    0    0  501    0  0.00000000000E+00  0.00000000000E+00 -0.93181660687E+03  0.93181660687E+03  0.25500000920E-02 0.  1.
    10030    2    1    2    0    0  0.00000000000E+00  0.00000000000E+00  0.26292291652E+03  0.21265561303E+04  0.21102399188E+04 0.  0.
        4    1    3    3  502    0 -0.58594664656E+03 -0.19991907425E+03  0.99245348687E+03  0.11697293043E+04  0.12699999809E+01 0. -1.
       -4    1    3    3    0  502  0.58594664656E+03  0.19991907425E+03 -0.72953057036E+03  0.95682682594E+03  0.12699999809E+01 0.  1.
</event>
<event>
 5   0  0.3279789E-05  0.2087922E+04  0.7818609E-02  0.8566582E-01
        2   -1    0    0  501    0  0.00000000000E+00  0.00000000000E+00  0.84200269736E+03  0.84200269737E+03  0.25500000920E-02 0.  1.
       -2   -1    0    0    0  501  0.00000000000E+00  0.00000000000E+00 -0.12943601644E+04  0.12943601644E+04  0.25500000920E-02 0. -1.
    10030    2    1    2    0    0  0.00000000000E+00  0.00000000000E+00 -0.45235746702E+03  0.21363628618E+04  0.20879221727E+04 0.  0.
        2    1    3    3  502    0 -0.28800284273E+03 -0.37010987334E+03 -0.11805169526E+04  0.12702547899E+04  0.25500000920E-02 0. -1.
       -2    1    3    3    0  502  0.28800284273E+03  0.37010987334E+03  0.72815948558E+03  0.86610807190E+03  0.25500000920E-02 0.  1.
</event>
<event>
 5   0  0.1466480E-05  0.2103076E+04  0.7818609E-02  0.8559889E-01
       -1   -1    0    0    0  501  0.00000000000E+00  0.00000000000E+00  0.15449124401E+04  0.15449124401E+04  0.50400001928E-02 0. -1.
        1   -1    0    0  501    0  0.00000000000E+00  0.00000000000E+00 -0.71572504667E+03  0.71572504668E+03  0.50400001928E-02 0.  1.
    10030    2    1    2    0    0  0.00000000000E+00  0.00000000000E+00  0.82918739346E+03  0.22606374868E+04  0.21030763451E+04 0.  0.
        3    1    3    3  502    0  0.55459252752E+03  0.74697731575E+03 -0.11220950755E+03  0.93709069231E+03  0.10100000352E+00 0.  1.
       -3    1    3    3    0  502 -0.55459252752E+03 -0.74697731575E+03  0.94139690101E+03  0.13235467945E+04  0.10100000352E+00 0. -1.
</event>
<event>
 5   0  0.1492552E-05  0.2108100E+04  0.7818609E-02  0.8557684E-01
        1   -1    0    0  501    0  0.00000000000E+00  0.00000000000E+00  0.19493880396E+04  0.19493880396E+04  0.50400001928E-02 0. -1.
       -1   -1    0    0    0  501  0.00000000000E+00  0.00000000000E+00 -0.56993325710E+03  0.56993325712E+03  0.50400001928E-02 0.  1.
    10030    2    1    2    0    0  0.00000000000E+00  0.00000000000E+00  0.13794547825E+04  0.25193212967E+04  0.21080996891E+04 0.  0.
        4    1    3    3  502    0  0.54894166014E+03 -0.51659483319E+03 -0.19074805911E+03  0.77755617345E+03  0.12699999809E+01 0.  1.
       -4    1    3    3    0  502 -0.54894166014E+03  0.51659483319E+03  0.15702028416E+04  0.17417651232E+04  0.12699999809E+01 0. -1.
</event>
<event>
 5   0  0.1453430E-05  0.2097673E+04  0.7818609E-02  0.8562269E-01
       -1   -1    0    0    0  501  0.00000000000E+00  0.00000000000E+00  0.53775406966E+03  0.53775406968E+03  0.50400001928E-02 0. -1.
        1   -1    0    0  501    0  0.00000000000E+00  0.00000000000E+00 -0.20456528079E+04  0.20456528079E+04  0.50400001928E-02 0.  1.
    10030    2    1    2    0    0  0.00000000000E+00  0.00000000000E+00 -0.15078987382E+04  0.25834068775E+04  0.20976731133E+04 0.  0.
        5    1    3    3  502    0  0.73873589170E+03  0.74315014320E+03 -0.69841742659E+03  0.12592902147E+04  0.46999998093E+01 0.  1.
       -5    1    3    3    0  502 -0.73873589170E+03 -0.74315014320E+03 -0.80948131161E+03  0.13241166629E+04  0.46999998093E+01 0. -1.
</event>
<event>
 5   0  0.1492552E-05  0.2144160E+04  0.7818609E-02  0.8542036E-01
        1   -1    0    0  501    0  0.00000000000E+00  0.00000000000E+00  0.20735168325E+04  0.20735168325E+04  0.50400001928E-02 0.  1.
       -1   -1    0    0    0  501  0.00000000000E+00  0.00000000000E+00 -0.55430244377E+03  0.55430244380E+03  0.50400001928E-02 0. -1.
    10030    2    1    2    0    0  0.00000000000E+00  0.00000000000E+00  0.15192143888E+04  0.26278192763E+04  0.21441599264E+04 0.  0.
        4    1    3    3  502    0 -0.10065397737E+04  0.20727333154E+03  0.11338966928E+04  0.15302966617E+04  0.12699999809E+01 0.  1.
       -4    1    3    3    0  502  0.10065397737E+04 -0.20727333154E+03  0.38531769596E+03  0.10975226146E+04  0.12699999809E+01 0. -1.
</event>
<event>
 5   0  0.1513292E-05  0.2086121E+04  0.7818609E-02  0.8567382E-01
       -1   -1    0    0    0  501  0.00000000000E+00  0.00000000000E+00  0.68141845823E+03  0.68141845825E+03  0.50400001928E-02 0. -1.
        1   -1    0    0  501    0  0.00000000000E+00  0.00000000000E+00 -0.15966334640E+04  0.15966334640E+04  0.50400001928E-02 0.  1.
    10030    2    1    2    0    0  0.00000000000E+00  0.00000000000E+00 -0.91521500579E+03  0.22780519223E+04  0.20861212941E+04 0.  0.
        1    1    3    3  502    0  0.52095765096E+03  0.16454081692E+03 -0.14278973642E+04  0.15288431696E+04  0.50400001928E-02 0.  1.
       -1    1    3    3    0  502 -0.52095765096E+03 -0.16454081692E+03  0.51268235837E+03  0.74920875271E+03  0.50400001928E-02 0. -1.
</event>
<event>
 5   0  0.3108326E-05  0.2095837E+04  0.7818609E-02  0.8563080E-01
        2   -1    0    0  501    0  0.00000000000E+00  0.00000000000E+00  0.12020712921E+04  0.12020712921E+04  0.25500000920E-02 0. -1.
       -2   -1    0    0    0  501  0.00000000000E+00  0.00000000000E+00 -0.91353394912E+03  0.91353394912E+03  0.25500000920E-02 0.  1.
    10030    2    1    2    0    0  0.00000000000E+00  0.00000000000E+00  0.28853734296E+03  0.21156052412E+04  0.20958367633E+04 0.  0.
        5    1    3    3  502    0 -0.20601091711E+03 -0.61787271913E+03 -0.68439077269E+03  0.94478569779E+03  0.46999998093E+01 0.  1.
       -5    1    3    3    0  502  0.20601091711E+03  0.61787271913E+03  0.97292811565E+03  0.11708195434E+04  0.46999998093E+01 0. -1.
</event>
<event>
 5   0  0.1492552E-05  0.2102496E+04  0.7818609E-02  0.8560145E-01
       -1   -1    0    0    0  501  0.00000000000E+00  0.00000000000E+00  0.52451693269E+03  0.52451693272E+03  0.50400001928E-02 0.  1.
        1   -1    0    0  501    0  0.00000000000E+00  0.00000000000E+00 -0.21069341501E+04  0.21069341501E+04  0.50400001928E-02 0. -1.
    10030    2    1    2    0    0  0.00000000000E+00  0.00000000000E+00 -0.15824172174E+04  0.26314510829E+04  0.21024962667E+04 0.  0.
        4    1    3    3  502    0 -0.96495177244E+03  0.15794241971E+03 -0.30802044427E+03  0.10251614205E+04  0.12699999809E+01 0.  1.
       -4    1    3    3    0  502  0.96495177244E+03 -0.15794241971E+03 -0.12743967732E+04  0.16062896624E+04  0.12699999809E+01 0. -1.
</event>
<event>
 5   0  0.1129987E-05  0.2098154E+04  0.7818609E-02  0.8562057E-01
        4   -1    0    0  501    0  0.00000000000E+00  0.00000000000E+00  0.76140827832E+03  0.76140933748E+03  0.12699999809E+01 0.  1.
       -4   -1    0    0    0  501  0.00000000000E+00  0.00000000000E+00 -0.14454281953E+04  0.14454287533E+04  0.12699999809E+01 0. -1.
    10030    2    1    2    0    0  0.00000000000E+00  0.00000000000E+00 -0.68401991701E+03  0.22068380907E+04  0.20981542155E+04 0.  0.
        1    1    3    3  502    0 -0.56956863103E+03  0.66632883059E+03  0.26417742002E+03  0.91552839672E+03  0.50400001928E-02 0.  1.
       -1    1    3    3    0  502  0.56956863103E+03 -0.66632883059E+03 -0.94819733702E+03  0.12913096940E+04  0.50400001928E-02 0. -1.
</event>
<event>
 5   0  0.3257130E-05  0.2094161E+04  0.7818609E-02  0.8563820E-01
        2   -1    0    0  501    0  0.00000000000E+00  0.00000000000E+00  0.11301700951E+04  0.11301700951E+04  0.25500000920E-02 0. -1.
       -2   -1    0    0    0  501  0.00000000000E+00  0.00000000000E+00 -0.97009989733E+03  0.97009989733E+03  0.25500000920E-02 0.  1.
    10030    2    1    2    0    0  0.00000000000E+00  0.00000000000E+00  0.16007019776E+03  0.21002699924E+04  0.20941613054E+04 0.  0.
        3    1    3    3  502    0 -0.10173539419E+04  0.14765288534E+03 -0.11946086426E+03  0.10349305899E+04  0.10100000352E+00 0.  1.
       -3    1    3    3    0  502  0.10173539419E+04 -0.14765288534E+03  0.27953106203E+03  0.10653394025E+04  0.10100000352E+00 0. -1.
</event>
<event>
 5   0  0.3257130E-05  0.2093781E+04  0.7818609E-02  0.8563988E-01
       -2   -1    0    0    0  501  0.00000000000E+00  0.00000000000E+00  0.12679328768E+04  0.12679328768E+04  0.25500000920E-02 0. -1.
        2   -1    0    0  501    0  0.00000000000E+00  0.00000000000E+00 -0.86438336147E+03  0.86438336147E+03  0.25500000920E-02 0.  1.
    10030    2    1    2    0    0  0.00000000000E+00  0.00000000000E+00  0.40354951529E+03  0.21323162382E+04  0.20937813469E+04 0.  0.
        3    1    3    3  502    0 -0.20222321094E+03  0.33907038409E+03  0.11892160137E+04  0.12530353905E+04  0.10100000352E+00 0. -1.
       -3    1    3    3    0  502  0.20222321094E+03 -0.33907038409E+03 -0.78566649837E+03  0.87928084778E+03  0.10100000352E+00 0.  1.
</event>
<event>
 5   0  0.1453430E-05  0.2098594E+04  0.7818609E-02  0.8561863E-01
       -1   -1    0    0    0  501  0.00000000000E+00  0.00000000000E+00  0.67346827472E+03  0.67346827474E+03  0.50400001928E-02 0.  1.
        1   -1    0    0  501    0  0.00000000000E+00  0.00000000000E+00 -0.16348572757E+04  0.16348572757E+04  0.50400001928E-02 0. -1.
    10030    2    1    2    0    0  0.00000000000E+00  0.00000000000E+00 -0.96138900094E+03  0.23083255504E+04  0.20985942999E+04 0.  0.
        5    1    3    3  502    0  0.79023918107E+03 -0.63149410917E+03 -0.78737760305E+03  0.12818924889E+04  0.46999998093E+01 0. -1.
       -5    1    3    3    0  502 -0.79023918107E+03  0.63149410917E+03 -0.17401139789E+03  0.10264330615E+04  0.46999998093E+01 0.  1.
</event>
<event>
 5   0  0.3108326E-05  0.2101119E+04  0.7818609E-02  0.8560751E-01
       -2   -1    0    0    0  501  0.00000000000E+00  0.00000000000E+00  0.42720070453E+03  0.42720070454E+03  0.25500000920E-02 0. -1.
        2   -1    0    0  501    0  0.00000000000E+00  0.00000000000E+00 -0.25835042370E+04  0.25835042370E+04  0.25500000920E-02 0.  1.
    10030    2    1    2    0    0  0.00000000000E+00  0.00000000000E+00 -0.21563035325E+04  0.30107049415E+04  0.21011185880E+04 0.  0.
        5    1    3    3  502    0  0.66992754212E+03  0.52720675218E+03 -0.19578472293E+04  0.21354010712E+04  0.46999998093E+01 0.  1.
       -5    1    3    3    0  502 -0.66992754212E+03 -0.52720675218E+03 -0.19845630311E+03  0.87530387036E+03  0.46999998093E+01 0. -1.
</event>
<event>
 5   0  0.3257130E-05  0.2100058E+04  0.7818609E-02  0.8561218E-01
        2   -1    0    0  501    0  0.00000000000E+00  0.00000000000E+00  0.12081313576E+04  0.12081313576E+04  0.25500000920E-02 0.  1.
       -2   -1    0    0    0  501  0.00000000000E+00  0.00000000000E+00 -0.91261673132E+03  0.91261673132E+03  0.25500000920E-02 0. -1.
    10030    2    1    2    0    0  0.00000000000E+00  0.00000000000E+00  0.29551462629E+03  0.21207480889E+04  0.21000579902E+04 0.  0.
        3    1    3    3  502    0 -0.12824379974E+02  0.80979822007E+03 -0.52712564993E+03  0.96633280135E+03  0.10100000352E+00 0. -1.
       -3    1    3    3    0  502  0.12824379974E+02 -0.80979822007E+03  0.82264027622E+03  0.11544152876E+04  0.10100000352E+00 0.  1.
</event>
<event>
 5   0  0.1466480E-05  0.2100428E+04  0.7818609E-02  0.8561055E-01
       -1   -1    0    0    0  501  0.00000000000E+00  0.00000000000E+00  0.56556489058E+03  0.56556489060E+03  0.50400001928E-02 0. -1.
        1   -1    0    0  501    0  0.00000000000E+00  0.00000000000E+00 -0.19501723515E+04  0.19501723515E+04  0.50400001928E-02 0.  1.
    10030    2    1    2    0    0  0.00000000000E+00  0.00000000000E+00 -0.13846074609E+04  0.25157372421E+04  0.21004275875E+04 0.  0.
        3    1    3    3  502    0 -0.38133774616E+03  0.12178314617E+03  0.47060111062E+03  0.61783090474E+03  0.10100000352E+00 0. -1.
       -3    1    3    3    0  502  0.38133774616E+03 -0.12178314617E+03 -0.18552085715E+04  0.18979063374E+04  0.10100000352E+00 0.  1.
</event>
<event>
 5   0  0.1466480E-05  0.2100890E+04  0.7818609E-02  0.8560851E-01
       -1   -1    0    0    0  501  0.00000000000E+00  0.00000000000E+00  0.68238971410E+03  0.68238971412E+03  0.50400001928E-02 0. -1.
        1   -1    0    0  501    0  0.00000000000E+00  0.00000000000E+00 -0.16170158604E+04  0.16170158604E+04  0.50400001928E-02 0.  1.
    10030    2    1    2    0    0  0.00000000000E+00  0.00000000000E+00 -0.93462614634E+03  0.22994055746E+04  0.21008902786E+04 0.  0.
        3    1    3    3  502    0 -0.87519490810E+03 -0.35697857771E+02  0.16729781791E+03  0.89175615181E+03  0.10100000352E+00 0. -1.
       -3    1    3    3    0  502  0.87519490810E+03  0.35697857771E+02 -0.11019239642E+04  0.14076494228E+04  0.10100000352E+00 0.  1.
</event>
<event>
 5   0  0.1492552E-05  0.2095170E+04  0.7818609E-02  0.8563374E-01
       -1   -1    0    0    0  501  0.00000000000E+00  0.00000000000E+00  0.11208634840E+04  0.11208634840E+04  0.50400001928E-02 0. -1.
        1   -1    0    0  501    0  0.00000000000E+00  0.00000000000E+00 -0.97909719060E+03  0.97909719061E+03  0.50400001928E-02 0.  1.
    10030    2    1    2    0    0  0.00000000000E+00  0.00000000000E+00  0.14176629336E+03  0.20999606746E+04  0.20951699580E+04 0.  0.
        4    1    3    3  502    0 -0.86589023217E+03 -0.57807533650E+03  0.18731971410E+03  0.10578408562E+04  0.12699999809E+01 0.  1.
       -4    1    3    3    0  502  0.86589023217E+03  0.57807533650E+03 -0.45553420739E+02  0.10421198184E+04  0.12699999809E+01 0. -1.
</event>
<event>
 5   0  0.3130517E-05  0.2098685E+04  0.7818609E-02  0.8561823E-01
       -2   -1    0    0    0  501  0.00000000000E+00  0.00000000000E+00  0.14285650996E+04  0.14285650996E+04  0.25500000920E-02 0.  1.
        2   -1    0    0  501    0  0.00000000000E+00  0.00000000000E+00 -0.77078739670E+03  0.77078739671E+03  0.25500000920E-02 0. -1.
    10030    2    1    2    0    0  0.00000000000E+00  0.00000000000E+00  0.65777770294E+03  0.21993524964E+04  0.20986852782E+04 0.  0.
        1    1    3    3  502    0 -0.68473594623E+03  0.19355484363E+03 -0.47933286366E+03  0.85795500334E+03  0.50400001928E-02 0. -1.
       -1    1    3    3    0  502  0.68473594623E+03 -0.19355484363E+03  0.11371105666E+04  0.13413974930E+04  0.50400001928E-02 0.  1.
</event>
<event>
 5   0  0.1129987E-05  0.2104851E+04  0.7818609E-02  0.8559110E-01
        4   -1    0    0  501    0  0.00000000000E+00  0.00000000000E+00  0.58012932263E+03  0.58013071275E+03  0.12699999809E+01 0. -1.
       -4   -1    0    0    0  501  0.00000000000E+00  0.00000000000E+00 -0.19092243274E+04  0.19092247498E+04  0.12699999809E+01 0.  1.
    10030    2    1    2    0    0  0.00000000000E+00  0.00000000000E+00 -0.13290950048E+04  0.24893554625E+04  0.21048508468E+04 0.  0.
        2    1    3    3  502    0 -0.48184509928E+03  0.35774201071E+03 -0.16870285692E+04  0.17905919242E+04  0.25500000920E-02 0.  1.
       -2    1    3    3    0  502  0.48184509928E+03 -0.35774201071E+03  0.35793356441E+03  0.69876353831E+03  0.25500000920E-02 0. -1.
</event>
<event>
 5   0  0.3279789E-05  0.2055400E+04  0.7818609E-02  0.8581148E-01
        2   -1    0    0  501    0  0.00000000000E+00  0.00000000000E+00  0.10262759777E+04  0.10262759777E+04  0.25500000920E-02 0. -1.
       -2   -1    0    0    0  501  0.00000000000E+00  0.00000000000E+00 -0.10291263451E+04  0.10291263451E+04  0.25500000920E-02 0.  1.
    10030    2    1    2    0    0  0.00000000000E+00  0.00000000000E+00 -0.28503674618E+01  0.20554023228E+04  0.20554003464E+04 0.  0.
        2    1    3    3  502    0 -0.97005408898E+03  0.30968156891E+03 -0.14020585002E+03  0.10278936181E+04  0.25500000920E-02 0.  1.
       -2    1    3    3    0  502  0.97005408898E+03 -0.30968156891E+03  0.13735548256E+03  0.10275087047E+04  0.25500000920E-02 0. -1.
</event>
<event>
 5   0  0.3257130E-05  0.2100047E+04  0.7818609E-02  0.8561223E-01
       -2   -1    0    0    0  501  0.00000000000E+00  0.00000000000E+00  0.49685808521E+03  0.49685808522E+03  0.25500000920E-02 0.  1.
        2   -1    0    0  501    0  0.00000000000E+00  0.00000000000E+00 -0.22190428654E+04  0.22190428654E+04  0.25500000920E-02 0. -1.
    10030    2    1    2    0    0  0.00000000000E+00  0.00000000000E+00 -0.17221847802E+04  0.27159009506E+04  0.21000470367E+04 0.  0.
        3    1    3    3  502    0  0.92025707806E+03 -0.25597610058E+02 -0.20800255990E+03  0.94381852201E+03  0.10100000352E+00 0. -1.
       -3    1    3    3    0  502 -0.92025707806E+03  0.25597610058E+02 -0.15141822203E+04  0.17720824286E+04  0.10100000352E+00 0.  1.
</event>
<event>
 5   0  0.1435410E-05  0.2104455E+04  0.7818609E-02  0.8559283E-01
        1   -1    0    0  501    0  0.00000000000E+00  0.00000000000E+00  0.16676717614E+04  0.16676717614E+04  0.50400001928E-02 0.  1.
       -1   -1    0    0    0  501  0.00000000000E+00  0.00000000000E+00 -0.66390921650E+03  0.66390921652E+03  0.50400001928E-02 0. -1.
    10030    2    1    2    0    0  0.00000000000E+00  0.00000000000E+00  0.10037625449E+04  0.23315809779E+04  0.21044549437E+04 0.  0.
        2    1    3    3  502    0 -0.31979462471E+03  0.99260359507E+03  0.34656536236E+03  0.10989258616E+04  0.25500000920E-02 0. -1.
       -2    1    3    3    0  502  0.31979462471E+03 -0.99260359507E+03  0.65719718250E+03  0.12326551163E+04  0.25500000920E-02 0.  1.
</event>
<event>
 5   0  0.1513292E-05  0.2106357E+04  0.7818609E-02  0.8558448E-01
       -1   -1    0    0    0  501  0.00000000000E+00  0.00000000000E+00  0.10208765594E+04  0.10208765594E+04  0.50400001928E-02 0.  1.
        1   -1    0    0  501    0  0.00000000000E+00  0.00000000000E+00 -0.10865023097E+04  0.10865023097E+04  0.50400001928E-02 0. -1.
    10030    2    1    2    0    0  0.00000000000E+00  0.00000000000E+00 -0.65625750241E+02  0.21073788691E+04  0.21063567976E+04 0.  0.
        1    1    3    3  502    0 -0.26421585846E+03  0.41102980841E+03 -0.96623354204E+03  0.10827570277E+04  0.50400001928E-02 0. -1.
       -1    1    3    3    0  502  0.26421585846E+03 -0.41102980841E+03  0.90060779180E+03  0.10246218414E+04  0.50400001928E-02 0.  1.
</event>
<event>
 5   0  0.3257130E-05  0.2107729E+04  0.7818609E-02  0.8557846E-01
       -2   -1    0    0    0  501  0.00000000000E+00  0.00000000000E+00  0.68840536813E+03  0.68840536814E+03  0.25500000920E-02 0. -1.
        2   -1    0    0  501    0  0.00000000000E+00  0.00000000000E+00 -0.16133375694E+04  0.16133375694E+04  0.25500000920E-02 0.  1.
    10030    2    1    2    0    0  0.00000000000E+00  0.00000000000E+00 -0.92493220127E+03  0.23017429375E+04  0.21077288662E+04 0.  0.
        3    1    3    3  502    0  0.44995431211E+03 -0.75113250278E+03 -0.11029425841E+04  0.14082404886E+04  0.10100000352E+00 0.  1.
       -3    1    3    3    0  502 -0.44995431211E+03  0.75113250278E+03  0.17801038281E+03  0.89350244896E+03  0.10100000352E+00 0. -1.
</event>
<event>
 5   0  0.3108326E-05  0.2108068E+04  0.7818609E-02  0.8557698E-01
       -2   -1    0    0    0  501  0.00000000000E+00  0.00000000000E+00  0.39929372761E+03  0.39929372762E+03  0.25500000920E-02 0.  1.
        2   -1    0    0  501    0  0.00000000000E+00  0.00000000000E+00 -0.27823811112E+04  0.27823811112E+04  0.25500000920E-02 0. -1.
    10030    2    1    2    0    0  0.00000000000E+00  0.00000000000E+00 -0.23830873835E+04  0.31816748388E+04  0.21080676702E+04 0.  0.
        5    1    3    3  502    0 -0.32194596882E+03 -0.84569015871E+03 -0.37579759980E+03  0.97984028157E+03  0.46999998093E+01 0.  1.
       -5    1    3    3    0  502  0.32194596882E+03  0.84569015871E+03 -0.20072897837E+04  0.22018345572E+04  0.46999998093E+01 0. -1.
</event>
<event>
 5   0  0.1466480E-05  0.2098880E+04  0.7818609E-02  0.8561737E-01
       -1   -1    0    0    0  501  0.00000000000E+00  0.00000000000E+00  0.13459553111E+04  0.13459553111E+04  0.50400001928E-02 0.  1.
        1   -1    0    0  501    0  0.00000000000E+00  0.00000000000E+00 -0.81824723803E+03  0.81824723805E+03  0.50400001928E-02 0. -1.
    10030    2    1    2    0    0  0.00000000000E+00  0.00000000000E+00  0.52770807311E+03  0.21642025492E+04  0.20988799069E+04 0.  0.
        3    1    3    3  502    0  0.27776174040E+03 -0.38512190788E+03 -0.70114328526E+03  0.84680126655E+03  0.10100000352E+00 0. -1.
       -3    1    3    3    0  502 -0.27776174040E+03  0.38512190788E+03  0.12288513584E+04  0.13174012826E+04  0.10100000352E+00 0.  1.
</event>
<event>
 5   0  0.1435410E-05  0.2100335E+04  0.7818609E-02  0.8561096E-01
        1   -1    0    0  501    0  0.00000000000E+00  0.00000000000E+00  0.12569617892E+04  0.12569617892E+04  0.50400001928E-02 0.  1.
       -1   -1    0    0    0  501  0.00000000000E+00  0.00000000000E+00 -0.87739524541E+03  0.87739524543E+03  0.50400001928E-02 0. -1.
    10030    2    1    2    0    0  0.00000000000E+00  0.00000000000E+00  0.37956654376E+03  0.21343570346E+04  0.21003354946E+04 0.  0.
        2    1    3    3  502    0 -0.93281972721E+03  0.11587424446E+03 -0.28606751583E+03  0.98255488784E+03  0.25500000920E-02 0. -1.
       -2    1    3    3    0  502  0.93281972721E+03 -0.11587424446E+03  0.66563405959E+03  0.11518021468E+04  0.25500000920E-02 0.  1.
</event>
<event>
 5   0  0.1435410E-05  0.2112012E+04  0.7818609E-02  0.8555970E-01
       -1   -1    0    0    0  501  0.00000000000E+00  0.00000000000E+00  0.54587929469E+03  0.54587929471E+03  0.50400001928E-02 0. -1.
        1   -1    0    0  501    0  0.00000000000E+00  0.00000000000E+00 -0.20428489372E+04  0.20428489373E+04  0.50400001928E-02 0.  1.
    10030    2    1    2    0    0  0.00000000000E+00  0.00000000000E+00 -0.14969696426E+04  0.25887282320E+04  0.21120122510E+04 0.  0.
        2    1    3    3  502    0  0.45948500734E+03 -0.93475223666E+03 -0.96170566804E+03  0.14176621628E+04  0.25500000920E-02 0. -1.
       -2    1    3    3    0  502 -0.45948500734E+03  0.93475223666E+03 -0.53526397451E+03  0.11710660692E+04  0.25500000920E-02 0.  1.
</event>
<event>
 5   0  0.3242231E-05  0.2095908E+04  0.7818609E-02  0.8563048E-01
       -2   -1    0    0    0  501  0.00000000000E+00  0.00000000000E+00  0.69260662804E+03  0.69260662804E+03  0.25500000920E-02 0. -1.
        2   -1    0    0  501    0  0.00000000000E+00  0.00000000000E+00 -0.15856157983E+04  0.15856157983E+04  0.25500000920E-02 0.  1.
    10030    2    1    2    0    0  0.00000000000E+00  0.00000000000E+00 -0.89300917028E+03  0.22782224264E+04  0.20959084059E+04 0.  0.
        4    1    3    3  502    0  0.47701615781E+03  0.81046014317E+03 -0.94912979667E+03  0.13361283779E+04  0.12699999809E+01 0.  1.
       -4    1    3    3    0  502 -0.47701615781E+03 -0.81046014317E+03  0.56120626391E+02  0.94209404843E+03  0.12699999809E+01 0. -1.
</event>
<event>
 5   0  0.1453430E-05  0.2102416E+04  0.7818609E-02  0.8560180E-01
       -1   -1    0    0    0  501  0.00000000000E+00  0.00000000000E+00  0.61872057617E+03  0.61872057619E+03  0.50400001928E-02 0. -1.
        1   -1    0    0  501    0  0.00000000000E+00  0.00000000000E+00 -0.17860046709E+04  0.17860046709E+04  0.50400001928E-02 0.  1.
    10030    2    1    2    0    0  0.00000000000E+00  0.00000000000E+00 -0.11672840947E+04  0.24047252471E+04  0.21024156002E+04 0.  0.
        5    1    3    3  502    0 -0.39388629888E+03  0.16538075005E+03 -0.16822290185E+04  0.17356306547E+04  0.46999998093E+01 0.  1.
       -5    1    3    3    0  502  0.39388629888E+03 -0.16538075005E+03  0.51494492380E+03  0.66909459233E+03  0.46999998093E+01 0. -1.
</event>
<event>
 5   0  0.3108326E-05  0.2106855E+04  0.7818609E-02  0.8558230E-01
        2   -1    0    0  501    0  0.00000000000E+00  0.00000000000E+00  0.69910054197E+03  0.69910054197E+03  0.25500000920E-02 0.  1.
       -2   -1    0    0    0  501  0.00000000000E+00  0.00000000000E+00 -0.15873387949E+04  0.15873387949E+04  0.25500000920E-02 0. -1.
    10030    2    1    2    0    0  0.00000000000E+00  0.00000000000E+00 -0.88823825294E+03  0.22864393369E+04  0.21068549184E+04 0.  0.
        5    1    3    3  502    0 -0.70241210556E+03  0.68535425994E+03 -0.85963085790E+03  0.13046380837E+04  0.46999998093E+01 0.  1.
       -5    1    3    3    0  502  0.70241210556E+03 -0.68535425994E+03 -0.28607395040E+02  0.98180125316E+03  0.46999998093E+01 0. -1.
</event>
<event>
 5   0  0.1435410E-05  0.2205736E+04  0.7818609E-02  0.8516045E-01
        1   -1    0    0  501    0  0.00000000000E+00  0.00000000000E+00  0.16316703505E+04  0.16316703505E+04  0.50400001928E-02 0.  1.
       -1   -1    0    0    0  501  0.00000000000E+00  0.00000000000E+00 -0.74544322163E+03  0.74544322165E+03  0.50400001928E-02 0. -1.
    10030    2    1    2    0    0  0.00000000000E+00  0.00000000000E+00  0.88622712884E+03  0.23771135721E+04  0.22057357981E+04 0.  0.
        2    1    3    3  502    0 -0.41869673555E+03 -0.94291013312E+03  0.23045350706E+02  0.10319484307E+04  0.25500000920E-02 0. -1.
       -2    1    3    3    0  502  0.41869673555E+03  0.94291013312E+03  0.86318177813E+03  0.13451651414E+04  0.25500000920E-02 0.  1.
</event>
<event>
 5   0  0.3130517E-05  0.2090812E+04  0.7818609E-02  0.8565302E-01
       -2   -1    0    0    0  501  0.00000000000E+00  0.00000000000E+00  0.11986361403E+04  0.11986361403E+04  0.25500000920E-02 0. -1.
        2   -1    0    0  501    0  0.00000000000E+00  0.00000000000E+00 -0.91176417485E+03  0.91176417486E+03  0.25500000920E-02 0.  1.
    10030    2    1    2    0    0  0.00000000000E+00  0.00000000000E+00  0.28687196542E+03  0.21104003151E+04  0.20908117958E+04 0.  0.
        1    1    3    3  502    0 -0.49161089611E+03 -0.16926029487E+03  0.10588746484E+04  0.11796380130E+04  0.50400001928E-02 0. -1.
       -1    1    3    3    0  502  0.49161089611E+03  0.16926029487E+03 -0.77200268298E+03  0.93076230217E+03  0.50400001928E-02 0.  1.
</event>
<event>
 5   0  0.1453430E-05  0.2099948E+04  0.7818609E-02  0.8561266E-01
       -1   -1    0    0    0  501  0.00000000000E+00  0.00000000000E+00  0.14785871672E+04  0.14785871672E+04  0.50400001928E-02 0.  1.
        1   -1    0    0  501    0  0.00000000000E+00  0.00000000000E+00 -0.74560723075E+03  0.74560723077E+03  0.50400001928E-02 0. -1.
    10030    2    1    2    0    0  0.00000000000E+00  0.00000000000E+00  0.73297993642E+03  0.22241943980E+04  0.20999478881E+04 0.  0.
        5    1    3    3  502    0  0.54851050686E+03 -0.89522342785E+03  0.35420951605E+03  0.11080501943E+04  0.46999998093E+01 0. -1.
       -5    1    3    3    0  502 -0.54851050686E+03  0.89522342785E+03  0.37877042037E+03  0.11161442036E+04  0.46999998093E+01 0.  1.
</event>
<event>
 5   0  0.1435410E-05  0.2099962E+04  0.7818609E-02  0.8561260E-01
        1   -1    0    0  501    0  0.00000000000E+00  0.00000000000E+00  0.14856117232E+04  0.14856117232E+04  0.50400001928E-02 0.  1.
       -1   -1    0    0    0  501  0.00000000000E+00  0.00000000000E+00 -0.74209134981E+03  0.74209134983E+03  0.50400001928E-02 0. -1.
    10030    2    1    2    0    0  0.00000000000E+00  0.00000000000E+00  0.74352037339E+03  0.22277030730E+04  0.20999615320E+04 0.  0.
        2    1    3    3  502    0 -0.71187001771E+03 -0.17756509623E+03  0.11685641185E+04  0.13797936022E+04  0.25500000920E-02 0.  1.
       -2    1    3    3    0  502  0.71187001771E+03  0.17756509623E+03 -0.42504374512E+03  0.84790947087E+03  0.25500000920E-02 0. -1.
</event>
<event>
 5   0  0.3279789E-05  0.2100385E+04  0.7818609E-02  0.8561074E-01
        2   -1    0    0  501    0  0.00000000000E+00  0.00000000000E+00  0.96720687235E+03  0.96720687235E+03  0.25500000920E-02 0.  1.
       -2   -1    0    0    0  501  0.00000000000E+00  0.00000000000E+00 -0.11402982340E+04  0.11402982340E+04  0.25500000920E-02 0. -1.
    10030    2    1    2    0    0  0.00000000000E+00  0.00000000000E+00 -0.17309136163E+03  0.21075051063E+04  0.21003850013E+04 0.  0.
        2    1    3    3  502    0 -0.49224010322E+03 -0.19744830927E+03 -0.99604993608E+03  0.11284509866E+04  0.25500000920E-02 0. -1.
       -2    1    3    3    0  502  0.49224010322E+03  0.19744830927E+03  0.82295857445E+03  0.97905411971E+03  0.25500000920E-02 0.  1.
</event>
<event>
 5   0  0.3279789E-05  0.2112682E+04  0.7818609E-02  0.8555677E-01
       -2   -1    0    0    0  501  0.00000000000E+00  0.00000000000E+00  0.74657140427E+03  0.74657140428E+03  0.25500000920E-02 0. -1.
        2   -1    0    0  501    0  0.00000000000E+00  0.00000000000E+00 -0.14946410838E+04  0.14946410838E+04  0.25500000920E-02 0.  1.
    10030    2    1    2    0    0  0.00000000000E+00  0.00000000000E+00 -0.74806967957E+03  0.22412124881E+04  0.21126819854E+04 0.  0.
        2    1    3    3  502    0  0.61474866520E+03  0.72098625067E+03 -0.86948029676E+03  0.12859755369E+04  0.25500000920E-02 0.  1.
       -2    1    3    3    0  502 -0.61474866520E+03 -0.72098625067E+03  0.12141061719E+03  0.95523695123E+03  0.25500000920E-02 0. -1.
</event>
<event>
 5   0  0.3242231E-05  0.2094574E+04  0.7818609E-02  0.8563637E-01
       -2   -1    0    0    0  501  0.00000000000E+00  0.00000000000E+00  0.11252021201E+04  0.11252021201E+04  0.25500000920E-02 0. -1.
        2   -1    0    0  501    0  0.00000000000E+00  0.00000000000E+00 -0.97476695436E+03  0.97476695437E+03  0.25500000920E-02 0.  1.
    10030    2    1    2    0    0  0.00000000000E+00  0.00000000000E+00  0.15043516571E+03  0.20999690744E+04  0.20945737931E+04 0.  0.
        4    1    3    3  502    0 -0.51415211333E+03 -0.42515406013E+03 -0.73414113237E+03  0.99200462984E+03  0.12699999809E+01 0.  1.
       -4    1    3    3    0  502  0.51415211333E+03  0.42515406013E+03  0.88457629808E+03  0.11079644446E+04  0.12699999809E+01 0. -1.
</event>
<event>
 5   0  0.3279789E-05  0.2079420E+04  0.7818609E-02  0.8570364E-01
        2   -1    0    0  501    0  0.00000000000E+00  0.00000000000E+00  0.13643479669E+04  0.13643479669E+04  0.25500000920E-02 0.  1.
       -2   -1    0    0    0  501  0.00000000000E+00  0.00000000000E+00 -0.79231737444E+03  0.79231737445E+03  0.25500000920E-02 0. -1.
    10030    2    1    2    0    0  0.00000000000E+00  0.00000000000E+00  0.57203059247E+03  0.21566653414E+04  0.20794197258E+04 0.  0.
        2    1    3    3  502    0  0.89081793049E+03  0.52981108318E+03  0.20086660978E+03  0.10557479643E+04  0.25500000920E-02 0. -1.
       -2    1    3    3    0  502 -0.89081793049E+03 -0.52981108318E+03  0.37116398269E+03  0.11009173771E+04  0.25500000920E-02 0.  1.
</event>
<event>
 5   0  0.3279789E-05  0.2033185E+04  0.7818609E-02  0.8591261E-01
       -2   -1    0    0    0  501  0.00000000000E+00  0.00000000000E+00  0.65017762232E+03  0.65017762232E+03  0.25500000920E-02 0.  1.
        2   -1    0    0  501    0  0.00000000000E+00  0.00000000000E+00 -0.15895052247E+04  0.15895052247E+04  0.25500000920E-02 0. -1.
    10030    2    1    2    0    0  0.00000000000E+00  0.00000000000E+00 -0.93932760242E+03  0.22396828471E+04  0.20331854098E+04 0.  0.
        2    1    3    3  502    0  0.57899342944E+03 -0.70537436431E+02 -0.13868447903E+04  0.15045090208E+04  0.25500000920E-02 0. -1.
       -2    1    3    3    0  502 -0.57899342944E+03  0.70537436431E+02  0.44751718793E+03  0.73517382622E+03  0.25500000920E-02 0.  1.
</event>
<event>
 5   0  0.3257130E-05  0.2064545E+04  0.7818609E-02  0.8577025E-01
       -2   -1    0    0    0  501  0.00000000000E+00  0.00000000000E+00  0.62908737033E+03  0.62908737033E+03  0.25500000920E-02 0.  1.
        2   -1    0    0  501    0  0.00000000000E+00  0.00000000000E+00 -0.16938601630E+04  0.16938601630E+04  0.25500000920E-02 0. -1.
    10030    2    1    2    0    0  0.00000000000E+00  0.00000000000E+00 -0.10647727927E+04  0.23229475333E+04  0.20645445364E+04 0.  0.
        3    1    3    3  502    0 -0.91795180840E+03 -0.14074107302E+03 -0.10395119459E+04  0.13939256322E+04  0.10100000352E+00 0. -1.
       -3    1    3    3    0  502  0.91795180840E+03  0.14074107302E+03 -0.25260846732E+02  0.92902190112E+03  0.10100000352E+00 0.  1.
</event>
<event>
 5   0  0.1492552E-05  0.2098252E+04  0.7818609E-02  0.8562014E-01
        1   -1    0    0  501    0  0.00000000000E+00  0.00000000000E+00  0.13586481765E+04  0.13586481765E+04  0.50400001928E-02 0.  1.
       -1   -1    0    0    0  501  0.00000000000E+00  0.00000000000E+00 -0.81011792174E+03  0.81011792175E+03  0.50400001928E-02 0. -1.
    10030    2    1    2    0    0  0.00000000000E+00  0.00000000000E+00  0.54853025472E+03  0.21687660982E+04  0.20982518792E+04 0.  0.
        4    1    3    3  502    0  0.25392755818E+03  0.89354550915E+03 -0.22972875000E+03  0.95691153886E+03  0.12699999809E+01 0. -1.
       -4    1    3    3    0  502 -0.25392755818E+03 -0.89354550915E+03  0.77825900472E+03  0.12118545594E+04  0.12699999809E+01 0.  1.
</event>
<event>
 5   0  0.1513292E-05  0.2098220E+04  0.7818609E-02  0.8562028E-01
        1   -1    0    0  501    0  0.00000000000E+00  0.00000000000E+00  0.15557316046E+04  0.15557316046E+04  0.50400001928E-02 0.  1.
       -1   -1    0    0    0  501  0.00000000000E+00  0.00000000000E+00 -0.70746871092E+03  0.70746871094E+03  0.50400001928E-02 0. -1.
    10030    2    1    2    0    0  0.00000000000E+00  0.00000000000E+00  0.84826289368E+03  0.22632003155E+04  0.20982196576E+04 0.  0.
        1    1    3    3  502    0  0.41666680328E+03  0.74513946619E+02  0.14595409439E+04  0.15196786898E+04  0.50400001928E-02 0.  1.
       -1    1    3    3    0  502 -0.41666680328E+03 -0.74513946619E+02 -0.61127805025E+03  0.74352162574E+03  0.50400001928E-02 0. -1.
</event>
<event>
 5   0  0.1466480E-05  0.2085834E+04  0.7818609E-02  0.8567510E-01
       -1   -1    0    0    0  501  0.00000000000E+00  0.00000000000E+00  0.12379443104E+04  0.12379443104E+04  0.50400001928E-02 0. -1.
        1   -1    0    0  501    0  0.00000000000E+00  0.00000000000E+00 -0.87861421030E+03  0.87861421031E+03  0.50400001928E-02 0.  1.
    10030    2    1    2    0    0  0.00000000000E+00  0.00000000000E+00  0.35933010012E+03  0.21165585207E+04  0.20858336105E+04 0.  0.
        3    1    3    3  502    0 -0.99617122951E+03 -0.30398452773E+03  0.23442045354E+03  0.10675751359E+04  0.10100000352E+00 0.  1.
       -3    1    3    3    0  502  0.99617122951E+03  0.30398452773E+03  0.12490964658E+03  0.10489833848E+04  0.10100000352E+00 0. -1.
</event>
<event>
 5   0  0.1435410E-05  0.2106150E+04  0.7818609E-02  0.8558539E-01
       -1   -1    0    0    0  501  0.00000000000E+00  0.00000000000E+00  0.60188093285E+03  0.60188093287E+03  0.50400001928E-02 0. -1.
        1   -1    0    0  501    0  0.00000000000E+00  0.00000000000E+00 -0.18425022448E+04  0.18425022448E+04  0.50400001928E-02 0.  1.
    10030    2    1    2    0    0  0.00000000000E+00  0.00000000000E+00 -0.12406213119E+04  0.24443831777E+04  0.21061500135E+04 0.  0.
        2    1    3    3  502    0  0.82710720792E+03  0.60749559893E+03 -0.89449014358E+03  0.13613485421E+04  0.25500000920E-02 0.  1.
       -2    1    3    3    0  502 -0.82710720792E+03 -0.60749559893E+03 -0.34613116836E+03  0.10830346356E+04  0.25500000920E-02 0. -1.
</event>
<event>
 5   0  0.1466480E-05  0.2104080E+04  0.7818609E-02  0.8559448E-01
        1   -1    0    0  501    0  0.00000000000E+00  0.00000000000E+00  0.12510863717E+04  0.12510863717E+04  0.50400001928E-02 0.  1.
       -1   -1    0    0    0  501  0.00000000000E+00  0.00000000000E+00 -0.88466160480E+03  0.88466160482E+03  0.50400001928E-02 0. -1.
    10030    2    1    2    0    0  0.00000000000E+00  0.00000000000E+00  0.36642476692E+03  0.21357479766E+04  0.21040799200E+04 0.  0.
        3    1    3    3  502    0 -0.86507263061E+03 -0.30784489099E+03  0.70442780088E+03  0.11572975719E+04  0.10100000352E+00 0.  1.
       -3    1    3    3    0  502  0.86507263061E+03  0.30784489099E+03 -0.33800303396E+03  0.97845040462E+03  0.10100000352E+00 0. -1.
</event>
<event>
 5   0  0.3242231E-05  0.2101881E+04  0.7818609E-02  0.8560415E-01
       -2   -1    0    0    0  501  0.00000000000E+00  0.00000000000E+00  0.49027953119E+03  0.49027953120E+03  0.25500000920E-02 0. -1.
        2   -1    0    0  501    0  0.00000000000E+00  0.00000000000E+00 -0.22527483088E+04  0.22527483088E+04  0.25500000920E-02 0.  1.
    10030    2    1    2    0    0  0.00000000000E+00  0.00000000000E+00 -0.17624687776E+04  0.27430278400E+04  0.21018814284E+04 0.  0.
        4    1    3    3  502    0 -0.15543512893E+03  0.47489947020E+03  0.32532997994E+03  0.59626403115E+03  0.12699999809E+01 0. -1.
       -4    1    3    3    0  502  0.15543512893E+03 -0.47489947020E+03 -0.20877987575E+04  0.21467638088E+04  0.12699999809E+01 0.  1.
</event>
<event>
 5   0  0.3242231E-05  0.2091746E+04  0.7818609E-02  0.8564888E-01
       -2   -1    0    0    0  501  0.00000000000E+00  0.00000000000E+00  0.11440240910E+04  0.11440240910E+04  0.25500000920E-02 0. -1.
        2   -1    0    0  501    0  0.00000000000E+00  0.00000000000E+00 -0.95614313916E+03  0.95614313916E+03  0.25500000920E-02 0.  1.
    10030    2    1    2    0    0  0.00000000000E+00  0.00000000000E+00  0.18788095187E+03  0.21001672302E+04  0.20917464337E+04 0.  0.
        4    1    3    3  502    0 -0.23010765254E+03  0.23405896921E+03  0.10909719127E+04  0.11392780434E+04  0.12699999809E+01 0. -1.
       -4    1    3    3    0  502  0.23010765254E+03 -0.23405896921E+03 -0.90309096087E+03  0.96088918681E+03  0.12699999809E+01 0.  1.
</event>
<event>
 5   0  0.3279789E-05  0.2102213E+04  0.7818609E-02  0.8560269E-01
       -2   -1    0    0    0  501  0.00000000000E+00  0.00000000000E+00  0.77406763569E+03  0.77406763569E+03  0.25500000920E-02 0. -1.
        2   -1    0    0  501    0  0.00000000000E+00  0.00000000000E+00 -0.14272975505E+04  0.14272975505E+04  0.25500000920E-02 0.  1.
    10030    2    1    2    0    0  0.00000000000E+00  0.00000000000E+00 -0.65322991478E+03  0.22013651862E+04  0.21022129676E+04 0.  0.
        2    1    3    3  502    0 -0.85858712144E+03 -0.32730745194E+03  0.20787343064E+03  0.94207928348E+03  0.25500000920E-02 0. -1.
       -2    1    3    3    0  502  0.85858712144E+03  0.32730745194E+03 -0.86110334541E+03  0.12592859027E+04  0.25500000920E-02 0.  1.
</event>
<event>
 5   0  0.1129987E-05  0.2086383E+04  0.7818609E-02  0.8567266E-01
        3   -1    0    0  501    0  0.00000000000E+00  0.00000000000E+00  0.61985003800E+03  0.61985004623E+03  0.10100000352E+00 0. -1.
       -3   -1    0    0    0  501  0.00000000000E+00  0.00000000000E+00 -0.17556641457E+04  0.17556641486E+04  0.10100000352E+00 0.  1.
    10030    2    1    2    0    0  0.00000000000E+00  0.00000000000E+00 -0.11358141077E+04  0.23755141949E+04  0.20863829952E+04 0.  0.
        4    1    3    3  502    0 -0.36476613683E+03  0.82019078778E+03 -0.11730488631E+04  0.14770959722E+04  0.12699999809E+01 0.  1.
       -4    1    3    3    0  502  0.36476613683E+03 -0.82019078778E+03  0.37234755368E+02  0.89841822268E+03  0.12699999809E+01 0. -1.
</event>
<event>
 5   0  0.1492552E-05  0.2061938E+04  0.7818609E-02  0.8578198E-01
        1   -1    0    0  501    0  0.00000000000E+00  0.00000000000E+00  0.13686782294E+04  0.13686782294E+04  0.50400001928E-02 0. -1.
       -1   -1    0    0    0  501  0.00000000000E+00  0.00000000000E+00 -0.77658642437E+03  0.77658642438E+03  0.50400001928E-02 0.  1.
    10030    2    1    2    0    0  0.00000000000E+00  0.00000000000E+00  0.59209180505E+03  0.21452646538E+04  0.20619378578E+04 0.  0.
        4    1    3    3  502    0 -0.84860955484E+03  0.32011521030E+02 -0.31215685728E+03  0.90476871658E+03  0.12699999809E+01 0.  1.
       -4    1    3    3    0  502  0.84860955484E+03 -0.32011521030E+02  0.90424866233E+03  0.12404959372E+04  0.12699999809E+01 0. -1.
</event>
<event>
 5   0  0.1466480E-05  0.2126235E+04  0.7818609E-02  0.8549774E-01
       -1   -1    0    0    0  501  0.00000000000E+00  0.00000000000E+00  0.78184253062E+03  0.78184253064E+03  0.50400001928E-02 0.  1.
        1   -1    0    0  501    0  0.00000000000E+00  0.00000000000E+00 -0.14455835139E+04  0.14455835139E+04  0.50400001928E-02 0. -1.
    10030    2    1    2    0    0  0.00000000000E+00  0.00000000000E+00 -0.66374098330E+03  0.22274260446E+04  0.21262348626E+04 0.  0.
        3    1    3    3  502    0 -0.11095988097E+03  0.99693246423E+02 -0.14345660694E+04  0.14423004736E+04  0.10100000352E+00 0. -1.
       -3    1    3    3    0  502  0.11095988097E+03 -0.99693246423E+02  0.77082508611E+03  0.78512557094E+03  0.10100000352E+00 0.  1.
</event>
<event>
 5   0  0.1492552E-05  0.2096791E+04  0.7818609E-02  0.8562658E-01
       -1   -1    0    0    0  501  0.00000000000E+00  0.00000000000E+00  0.16676949093E+04  0.16676949093E+04  0.50400001928E-02 0.  1.
        1   -1    0    0  501    0  0.00000000000E+00  0.00000000000E+00 -0.65907342740E+03  0.65907342742E+03  0.50400001928E-02 0. -1.
    10030    2    1    2    0    0  0.00000000000E+00  0.00000000000E+00  0.10086214819E+04  0.23267683367E+04  0.20967912626E+04 0.  0.
        4    1    3    3  502    0  0.48832707015E+03 -0.47536376626E+03  0.13883700997E+04  0.15466115170E+04  0.12699999809E+01 0.  1.
       -4    1    3    3    0  502 -0.48832707015E+03  0.47536376626E+03 -0.37974861786E+03  0.78015681973E+03  0.12699999809E+01 0. -1.
</event>
<event>
 5   0  0.1492552E-05  0.2105694E+04  0.7818609E-02  0.8558739E-01
        1   -1    0    0  501    0  0.00000000000E+00  0.00000000000E+00  0.84908246610E+03  0.84908246611E+03  0.50400001928E-02 0.  1.
       -1   -1    0    0    0  501  0.00000000000E+00  0.00000000000E+00 -0.13055111430E+04  0.13055111430E+04  0.50400001928E-02 0. -1.
    10030    2    1    2    0    0  0.00000000000E+00  0.00000000000E+00 -0.45642867691E+03  0.21545936091E+04  0.21056938247E+04 0.  0.
        4    1    3    3  502    0 -0.44959322201E+03  0.24436713988E+03 -0.11697102058E+04  0.12767430998E+04  0.12699999809E+01 0. -1.
       -4    1    3    3    0  502  0.44959322201E+03 -0.24436713988E+03  0.71328152893E+03  0.87785050933E+03  0.12699999809E+01 0.  1.
</event>
<event>
 5   0  0.3130517E-05  0.2099604E+04  0.7818609E-02  0.8561418E-01
        2   -1    0    0  501    0  0.00000000000E+00  0.00000000000E+00  0.65706069564E+03  0.65706069564E+03  0.25500000920E-02 0. -1.
       -2   -1    0    0    0  501  0.00000000000E+00  0.00000000000E+00 -0.16772941470E+04  0.16772941470E+04  0.25500000920E-02 0.  1.
    10030    2    1    2    0    0  0.00000000000E+00  0.00000000000E+00 -0.10202334514E+04  0.23343548427E+04  0.20996038284E+04 0.  0.
        1    1    3    3  502    0  0.83127124118E+03 -0.61231930603E+03 -0.29876438216E+03  0.10748055475E+04  0.50400001928E-02 0. -1.
       -1    1    3    3    0  502 -0.83127124118E+03  0.61231930603E+03 -0.72146906922E+03  0.12595492951E+04  0.50400001928E-02 0.  1.
</event>
<event>
 5   0  0.3279789E-05  0.2096308E+04  0.7818609E-02  0.8562872E-01
       -2   -1    0    0    0  501  0.00000000000E+00  0.00000000000E+00  0.10173969887E+04  0.10173969887E+04  0.25500000920E-02 0.  1.
        2   -1    0    0  501    0  0.00000000000E+00  0.00000000000E+00 -0.10798403407E+04  0.10798403407E+04  0.25500000920E-02 0. -1.
    10030    2    1    2    0    0  0.00000000000E+00  0.00000000000E+00 -0.62443352031E+02  0.20972373295E+04  0.20963075261E+04 0.  0.
        2    1    3    3  502    0 -0.64529241222E+03  0.77044415061E+03 -0.32907813999E+03  0.10574870726E+04  0.25500000920E-02 0. -1.
       -2    1    3    3    0  502  0.64529241222E+03 -0.77044415061E+03  0.26663478796E+03  0.10397502569E+04  0.25500000920E-02 0.  1.
</event>
<event>
 5   0  0.3257130E-05  0.2075299E+04  0.7818609E-02  0.8572203E-01
        2   -1    0    0  501    0  0.00000000000E+00  0.00000000000E+00  0.95714664007E+03  0.95714664008E+03  0.25500000920E-02 0. -1.
       -2   -1    0    0    0  501  0.00000000000E+00  0.00000000000E+00 -0.11249235656E+04  0.11249235656E+04  0.25500000920E-02 0.  1.
    10030    2    1    2    0    0  0.00000000000E+00  0.00000000000E+00 -0.16777692554E+03  0.20820702057E+04  0.20752993145E+04 0.  0.
        3    1    3    3  502    0 -0.10614910277E+03  0.79353161056E+03 -0.74616091326E+03  0.10944021965E+04  0.10100000352E+00 0.  1.
       -3    1    3    3    0  502  0.10614910277E+03 -0.79353161056E+03  0.57838398772E+03  0.98766800922E+03  0.10100000352E+00 0. -1.
</event>
<event>
 5   0  0.3108326E-05  0.2099795E+04  0.7818609E-02  0.8561334E-01
        2   -1    0    0  501    0  0.00000000000E+00  0.00000000000E+00  0.20383979074E+04  0.20383979074E+04  0.25500000920E-02 0.  1.
       -2   -1    0    0    0  501  0.00000000000E+00  0.00000000000E+00 -0.54076009123E+03  0.54076009123E+03  0.25500000920E-02 0. -1.
    10030    2    1    2    0    0  0.00000000000E+00  0.00000000000E+00  0.14976378161E+04  0.25791579986E+04  0.20997945027E+04 0.  0.
        5    1    3    3  502    0 -0.20240454270E+03 -0.59965225635E+03 -0.28009850871E+03  0.69211826448E+03  0.46999998093E+01 0. -1.
       -5    1    3    3    0  502  0.20240454270E+03  0.59965225635E+03  0.17777363248E+04  0.18870397341E+04  0.46999998093E+01 0.  1.
</event>
<event>
 5   0  0.1453430E-05  0.2098133E+04  0.7818609E-02  0.8562066E-01
        1   -1    0    0  501    0  0.00000000000E+00  0.00000000000E+00  0.11654654581E+04  0.11654654581E+04  0.50400001928E-02 0.  1.
       -1   -1    0    0    0  501  0.00000000000E+00  0.00000000000E+00 -0.94429257406E+03  0.94429257408E+03  0.50400001928E-02 0. -1.
    10030    2    1    2    0    0  0.00000000000E+00  0.00000000000E+00  0.22117288401E+03  0.21097580322E+04  0.20981328627E+04 0.  0.
        5    1    3    3  502    0  0.10203484121E+03 -0.14628465770E+03 -0.92892479531E+03  0.94590362894E+03  0.46999998093E+01 0. -1.
       -5    1    3    3    0  502 -0.10203484121E+03  0.14628465770E+03  0.11500976793E+04  0.11638544032E+04  0.46999998093E+01 0.  1.
</event>
<event>
 5   0  0.1435410E-05  0.2083411E+04  0.7818609E-02  0.8568586E-01
       -1   -1    0    0    0  501  0.00000000000E+00  0.00000000000E+00  0.62406310572E+03  0.62406310574E+03  0.50400001928E-02 0.  1.
        1   -1    0    0  501    0  0.00000000000E+00  0.00000000000E+00 -0.17388472568E+04  0.17388472568E+04  0.50400001928E-02 0. -1.
    10030    2    1    2    0    0  0.00000000000E+00  0.00000000000E+00 -0.11147841511E+04  0.23629103625E+04  0.20834110679E+04 0.  0.
        2    1    3    3  502    0 -0.48376407146E+03  0.78886562166E+03 -0.10999090882E+04  0.14374062224E+04  0.25500000920E-02 0. -1.
       -2    1    3    3    0  502  0.48376407146E+03 -0.78886562166E+03 -0.14875062847E+02  0.92550414012E+03  0.25500000920E-02 0.  1.
</event>
<event>
 5   0  0.1453430E-05  0.2102903E+04  0.7818609E-02  0.8559966E-01
        1   -1    0    0  501    0  0.00000000000E+00  0.00000000000E+00  0.95188782796E+03  0.95188782797E+03  0.50400001928E-02 0.  1.
       -1   -1    0    0    0  501  0.00000000000E+00  0.00000000000E+00 -0.11614293233E+04  0.11614293233E+04  0.50400001928E-02 0. -1.
    10030    2    1    2    0    0  0.00000000000E+00  0.00000000000E+00 -0.20954149534E+03  0.21133171513E+04  0.21029031703E+04 0.  0.
        5    1    3    3  502    0  0.13140411227E+03 -0.88104362205E+03 -0.66612758032E+03  0.11123187259E+04  0.46999998093E+01 0. -1.
       -5    1    3    3    0  502 -0.13140411227E+03  0.88104362205E+03  0.45658608498E+03  0.10009984254E+04  0.46999998093E+01 0.  1.
</event>
<event>
 5   0  0.3279789E-05  0.2091167E+04  0.7818609E-02  0.8565144E-01
       -2   -1    0    0    0  501  0.00000000000E+00  0.00000000000E+00  0.63086248118E+03  0.63086248118E+03  0.25500000920E-02 0. -1.
        2   -1    0    0  501    0  0.00000000000E+00  0.00000000000E+00 -0.17329374664E+04  0.17329374664E+04  0.25500000920E-02 0.  1.
    10030    2    1    2    0    0  0.00000000000E+00  0.00000000000E+00 -0.11020749852E+04  0.23637999476E+04  0.20911673580E+04 0.  0.
        2    1    3    3  502    0 -0.11691470871E+03  0.76723320311E+03  0.24097392951E+03  0.81264030898E+03  0.25500000920E-02 0. -1.
       -2    1    3    3    0  502  0.11691470871E+03 -0.76723320311E+03 -0.13430489148E+04  0.15511596386E+04  0.25500000920E-02 0.  1.
</event>
<event>
 5   0  0.3130517E-05  0.2099387E+04  0.7818609E-02  0.8561514E-01
       -2   -1    0    0    0  501  0.00000000000E+00  0.00000000000E+00  0.75527437710E+03  0.75527437711E+03  0.25500000920E-02 0. -1.
        2   -1    0    0  501    0  0.00000000000E+00  0.00000000000E+00 -0.14588820759E+04  0.14588820759E+04  0.25500000920E-02 0.  1.
    10030    2    1    2    0    0  0.00000000000E+00  0.00000000000E+00 -0.70360769881E+03  0.22141564530E+04  0.20993868163E+04 0.  0.
        1    1    3    3  502    0 -0.95092520554E+03 -0.25789325263E+03  0.30050956072E+02  0.98573360310E+03  0.50400001928E-02 0. -1.
       -1    1    3    3    0  502  0.95092520554E+03  0.25789325263E+03 -0.73365865488E+03  0.12284228499E+04  0.50400001928E-02 0.  1.
</event>
<event>
 5   0  0.3130517E-05  0.2095523E+04  0.7818609E-02  0.8563218E-01
        2   -1    0    0  501    0  0.00000000000E+00  0.00000000000E+00  0.12515328298E+04  0.12515328298E+04  0.25500000920E-02 0. -1.
       -2   -1    0    0    0  501  0.00000000000E+00  0.00000000000E+00 -0.87716787381E+03  0.87716787381E+03  0.25500000920E-02 0.  1.
    10030    2    1    2    0    0  0.00000000000E+00  0.00000000000E+00  0.37436495597E+03  0.21287007036E+04  0.20955232199E+04 0.  0.
        1    1    3    3  502    0 -0.78866849784E+03  0.56400736983E+03 -0.21622211163E+03  0.99340541286E+03  0.50400001928E-02 0. -1.
       -1    1    3    3    0  502  0.78866849784E+03 -0.56400736983E+03  0.59058706760E+03  0.11352952907E+04  0.50400001928E-02 0.  1.
</event>
<event>
 5   0  0.3257130E-05  0.2112614E+04  0.7818609E-02  0.8555707E-01
        2   -1    0    0  501    0  0.00000000000E+00  0.00000000000E+00  0.14177539486E+04  0.14177539486E+04  0.25500000920E-02 0.  1.
       -2   -1    0    0    0  501  0.00000000000E+00  0.00000000000E+00 -0.78700867640E+03  0.78700867641E+03  0.25500000920E-02 0. -1.
    10030    2    1    2    0    0  0.00000000000E+00  0.00000000000E+00  0.63074527215E+03  0.22047626250E+04  0.21126141707E+04 0.  0.
        3    1    3    3  502    0  0.10376008386E+04  0.17865987941E+03  0.40423227216E+03  0.11278025504E+04  0.10100000352E+00 0.  1.
       -3    1    3    3    0  502 -0.10376008386E+04 -0.17865987941E+03  0.22651299999E+03  0.10769600745E+04  0.10100000352E+00 0. -1.
</event>
<event>
 5   0  0.1492552E-05  0.2015633E+04  0.7818609E-02  0.8599347E-01
        1   -1    0    0  501    0  0.00000000000E+00  0.00000000000E+00  0.13146211734E+04  0.13146211734E+04  0.50400001928E-02 0. -1.
       -1   -1    0    0    0  501  0.00000000000E+00  0.00000000000E+00 -0.77261315076E+03  0.77261315077E+03  0.50400001928E-02 0.  1.
    10030    2    1    2    0    0  0.00000000000E+00  0.00000000000E+00  0.54200802264E+03  0.20872343242E+04  0.20156325130E+04 0.  0.
        4    1    3    3  502    0  0.32965022680E+03  0.89786175831E+03  0.59988167039E+03  0.11290193269E+04  0.12699999809E+01 0. -1.
       -4    1    3    3    0  502 -0.32965022680E+03 -0.89786175831E+03 -0.57873647747E+02  0.95821499731E+03  0.12699999809E+01 0.  1.
</event>
<event>
 5   0  0.3257130E-05  0.2026076E+04  0.7818609E-02  0.8594525E-01
        2   -1    0    0  501    0  0.00000000000E+00  0.00000000000E+00  0.17124864768E+04  0.17124864768E+04  0.25500000920E-02 0.  1.
       -2   -1    0    0    0  501  0.00000000000E+00  0.00000000000E+00 -0.59927251390E+03  0.59927251391E+03  0.25500000920E-02 0. -1.
    10030    2    1    2    0    0  0.00000000000E+00  0.00000000000E+00  0.11132139629E+04  0.23117589907E+04  0.20260760854E+04 0.  0.
        3    1    3    3  502    0  0.90774044780E+03 -0.20213971037E+03  0.98223462525E+02  0.93514760432E+03  0.10100000352E+00 0. -1.
       -3    1    3    3    0  502 -0.90774044780E+03  0.20213971037E+03  0.10149905004E+04  0.13766113864E+04  0.10100000352E+00 0.  1.
</event>
<event>
 5   0  0.1435410E-05  0.2086241E+04  0.7818609E-02  0.8567329E-01
        1   -1    0    0  501    0  0.00000000000E+00  0.00000000000E+00  0.85102320704E+03  0.85102320706E+03  0.50400001928E-02 0. -1.
       -1   -1    0    0    0  501  0.00000000000E+00  0.00000000000E+00 -0.12785784584E+04  0.12785784584E+04  0.50400001928E-02 0.  1.
    10030    2    1    2    0    0  0.00000000000E+00  0.00000000000E+00 -0.42755525134E+03  0.21296016654E+04  0.20862405807E+04 0.  0.
        2    1    3    3  502    0  0.27739521953E+03  0.85533485583E+03 -0.75349566616E+03  0.11731587882E+04  0.25500000920E-02 0.  1.
       -2    1    3    3    0  502 -0.27739521953E+03 -0.85533485583E+03  0.32594041482E+03  0.95644287724E+03  0.25500000920E-02 0. -1.
</event>
<event>
 5   0  0.3108326E-05  0.2099405E+04  0.7818609E-02  0.8561505E-01
       -2   -1    0    0    0  501  0.00000000000E+00  0.00000000000E+00  0.82771836103E+03  0.82771836104E+03  0.25500000920E-02 0.  1.
        2   -1    0    0  501    0  0.00000000000E+00  0.00000000000E+00 -0.13312201891E+04  0.13312201891E+04  0.25500000920E-02 0. -1.
    10030    2    1    2    0    0  0.00000000000E+00  0.00000000000E+00 -0.50350182806E+03  0.21589385501E+04  0.20994050520E+04 0.  0.
        5    1    3    3  502    0 -0.37785662776E+03  0.39196315530E+03  0.67116328890E+03  0.86422971288E+03  0.46999998093E+01 0.  1.
       -5    1    3    3    0  502  0.37785662776E+03 -0.39196315530E+03 -0.11746651170E+04  0.12947088373E+04  0.46999998093E+01 0. -1.
</event>
<event>
 5   0  0.3257130E-05  0.2122679E+04  0.7818609E-02  0.8551319E-01
       -2   -1    0    0    0  501  0.00000000000E+00  0.00000000000E+00  0.60462381627E+03  0.60462381628E+03  0.25500000920E-02 0. -1.
        2   -1    0    0  501    0  0.00000000000E+00  0.00000000000E+00 -0.18630447417E+04  0.18630447417E+04  0.25500000920E-02 0.  1.
    10030    2    1    2    0    0  0.00000000000E+00  0.00000000000E+00 -0.12584209254E+04  0.24676685580E+04  0.21226787054E+04 0.  0.
        3    1    3    3  502    0  0.68475993914E+03 -0.66733126641E+03 -0.93673318238E+02  0.96072987573E+03  0.10100000352E+00 0. -1.
       -3    1    3    3    0  502 -0.68475993914E+03  0.66733126641E+03 -0.11647476072E+04  0.15069386822E+04  0.10100000352E+00 0.  1.
</event>
<event>
 5   0  0.1435410E-05  0.2106372E+04  0.7818609E-02  0.8558442E-01
       -1   -1    0    0    0  501  0.00000000000E+00  0.00000000000E+00  0.94602593603E+03  0.94602593605E+03  0.50400001928E-02 0.  1.
        1   -1    0    0  501    0  0.00000000000E+00  0.00000000000E+00 -0.11724843654E+04  0.11724843654E+04  0.50400001928E-02 0. -1.
    10030    2    1    2    0    0  0.00000000000E+00  0.00000000000E+00 -0.22645842934E+03  0.21185103014E+04  0.21063718753E+04 0.  0.
        2    1    3    3  502    0 -0.10085744095E+04 -0.25785967894E+03 -0.27379464400E+03  0.10764188128E+04  0.25500000920E-02 0. -1.
       -2    1    3    3    0  502  0.10085744095E+04  0.25785967894E+03  0.47336214657E+02  0.10420914886E+04  0.25500000920E-02 0.  1.
</event>
<event>
 5   0  0.1435410E-05  0.2120115E+04  0.7818609E-02  0.8552434E-01
       -1   -1    0    0    0  501  0.00000000000E+00  0.00000000000E+00  0.54602585582E+03  0.54602585584E+03  0.50400001928E-02 0. -1.
        1   -1    0    0  501    0  0.00000000000E+00  0.00000000000E+00 -0.20580011625E+04  0.20580011625E+04  0.50400001928E-02 0.  1.
    10030    2    1    2    0    0  0.00000000000E+00  0.00000000000E+00 -0.15119753067E+04  0.26040270184E+04  0.21201149460E+04 0.  0.
        2    1    3    3  502    0  0.71246974801E+03  0.73828893175E+03 -0.42862289653E+03  0.11119358237E+04  0.25500000920E-02 0. -1.
       -2    1    3    3    0  502 -0.71246974801E+03 -0.73828893175E+03 -0.10833524102E+04  0.14920911947E+04  0.25500000920E-02 0.  1.
</event>
<event>
 5   0  0.1453430E-05  0.2095707E+04  0.7818609E-02  0.8563137E-01
       -1   -1    0    0    0  501  0.00000000000E+00  0.00000000000E+00  0.69966510320E+03  0.69966510322E+03  0.50400001928E-02 0. -1.
        1   -1    0    0  501    0  0.00000000000E+00  0.00000000000E+00 -0.15693181343E+04  0.15693181343E+04  0.50400001928E-02 0.  1.
    10030    2    1    2    0    0  0.00000000000E+00  0.00000000000E+00 -0.86965303109E+03  0.22689832375E+04  0.20957071689E+04 0.  0.
        5    1    3    3  502    0 -0.10239134273E+04  0.22264204371E+03 -0.43766183673E+03  0.11355783371E+04  0.46999998093E+01 0.  1.
       -5    1    3    3    0  502  0.10239134273E+04 -0.22264204371E+03 -0.43199119437E+03  0.11334049004E+04  0.46999998093E+01 0. -1.
</event>
<event>
 5   0  0.3279789E-05  0.2099155E+04  0.7818609E-02  0.8561616E-01
        2   -1    0    0  501    0  0.00000000000E+00  0.00000000000E+00  0.12695223938E+04  0.12695223938E+04  0.25500000920E-02 0. -1.
       -2   -1    0    0    0  501  0.00000000000E+00  0.00000000000E+00 -0.86773807797E+03  0.86773807797E+03  0.25500000920E-02 0.  1.
    10030    2    1    2    0    0  0.00000000000E+00  0.00000000000E+00  0.40178431581E+03  0.21372604717E+04  0.20991549937E+04 0.  0.
        2    1    3    3  502    0 -0.52985265297E+03 -0.76679703049E+03  0.69224070359E+03  0.11609990144E+04  0.25500000920E-02 0. -1.
       -2    1    3    3    0  502  0.52985265297E+03  0.76679703049E+03 -0.29045638778E+03  0.97626145731E+03  0.25500000920E-02 0.  1.
</event>
<event>
 5   0  0.3279789E-05  0.2107074E+04  0.7818609E-02  0.8558134E-01
       -2   -1    0    0    0  501  0.00000000000E+00  0.00000000000E+00  0.53364143485E+03  0.53364143485E+03  0.25500000920E-02 0. -1.
        2   -1    0    0  501    0  0.00000000000E+00  0.00000000000E+00 -0.20799354998E+04  0.20799354998E+04  0.25500000920E-02 0.  1.
    10030    2    1    2    0    0  0.00000000000E+00  0.00000000000E+00 -0.15462940650E+04  0.26135769347E+04  0.21070735768E+04 0.  0.
        2    1    3    3  502    0  0.94560982723E+03 -0.46434841581E+03 -0.78794702941E+03  0.13155447228E+04  0.25500000920E-02 0. -1.
       -2    1    3    3    0  502 -0.94560982723E+03  0.46434841581E+03 -0.75834703558E+03  0.12980322119E+04  0.25500000920E-02 0.  1.
</event>
<event>
 5   0  0.1466480E-05  0.2080604E+04  0.7818609E-02  0.8569836E-01
       -1   -1    0    0    0  501  0.00000000000E+00  0.00000000000E+00  0.62261307481E+03  0.62261307483E+03  0.50400001928E-02 0. -1.
        1   -1    0    0  501    0  0.00000000000E+00  0.00000000000E+00 -0.17382043596E+04  0.17382043596E+04  0.50400001928E-02 0.  1.
    10030    2    1    2    0    0  0.00000000000E+00  0.00000000000E+00 -0.11155912848E+04  0.23608174344E+04  0.20806044900E+04 0.  0.
        3    1    3    3  502    0  0.97794632136E+03  0.34645175509E+03 -0.64436593075E+03  0.12213170305E+04  0.10100000352E+00 0.  1.
       -3    1    3    3    0  502 -0.97794632136E+03 -0.34645175509E+03 -0.47122535401E+03  0.11395004039E+04  0.10100000352E+00 0. -1.
</event>
<event>
 5   0  0.3242231E-05  0.2101446E+04  0.7818609E-02  0.8560607E-01
        2   -1    0    0  501    0  0.00000000000E+00  0.00000000000E+00  0.10690387588E+04  0.10690387589E+04  0.25500000920E-02 0. -1.
       -2   -1    0    0    0  501  0.00000000000E+00  0.00000000000E+00 -0.10327205877E+04  0.10327205877E+04  0.25500000920E-02 0.  1.
    10030    2    1    2    0    0  0.00000000000E+00  0.00000000000E+00  0.36318171122E+02  0.21017593466E+04  0.21014455361E+04 0.  0.
        4    1    3    3  502    0 -0.81388788686E+01 -0.82544425009E+03  0.66832713503E+03  0.10621145059E+04  0.12699999809E+01 0. -1.
       -4    1    3    3    0  502  0.81388788686E+01  0.82544425009E+03 -0.63200896391E+03  0.10396448407E+04  0.12699999809E+01 0.  1.
</event>
<event>
 5   0  0.1513292E-05  0.2110559E+04  0.7818609E-02  0.8556606E-01
       -1   -1    0    0    0  501  0.00000000000E+00  0.00000000000E+00  0.89372905405E+03  0.89372905406E+03  0.50400001928E-02 0.  1.
        1   -1    0    0  501    0  0.00000000000E+00  0.00000000000E+00 -0.12460321665E+04  0.12460321665E+04  0.50400001928E-02 0. -1.
    10030    2    1    2    0    0  0.00000000000E+00  0.00000000000E+00 -0.35230311241E+03  0.21397612205E+04  0.21105593092E+04 0.  0.
        1    1    3    3  502    0 -0.92966028973E+02 -0.95833922819E+02  0.88513114728E+03  0.89514466496E+03  0.50400001928E-02 0.  1.
       -1    1    3    3    0  502  0.92966028973E+02  0.95833922819E+02 -0.12374342597E+04  0.12446165556E+04  0.50400001928E-02 0. -1.
</event>
<event>
 5   0  0.3279789E-05  0.2109441E+04  0.7818609E-02  0.8557096E-01
       -2   -1    0    0    0  501  0.00000000000E+00  0.00000000000E+00  0.99443365675E+03  0.99443365675E+03  0.25500000920E-02 0.  1.
        2   -1    0    0  501    0  0.00000000000E+00  0.00000000000E+00 -0.11186619381E+04  0.11186619381E+04  0.25500000920E-02 0. -1.
    10030    2    1    2    0    0  0.00000000000E+00  0.00000000000E+00 -0.12422828140E+03  0.21130955949E+04  0.21094407617E+04 0.  0.
        2    1    3    3  502    0  0.65412355582E+03 -0.50279558325E+03 -0.72033254963E+03  0.10952442681E+04  0.25500000920E-02 0. -1.
       -2    1    3    3    0  502 -0.65412355582E+03  0.50279558325E+03  0.59610426823E+03  0.10178513268E+04  0.25500000920E-02 0.  1.
</event>
<event>
 5   0  0.1466480E-05  0.2100147E+04  0.7818609E-02  0.8561179E-01
        1   -1    0    0  501    0  0.00000000000E+00  0.00000000000E+00  0.89241464520E+03  0.89241464521E+03  0.50400001928E-02 0.  1.
       -1   -1    0    0    0  501  0.00000000000E+00  0.00000000000E+00 -0.12355855382E+04  0.12355855382E+04  0.50400001928E-02 0. -1.
    10030    2    1    2    0    0  0.00000000000E+00  0.00000000000E+00 -0.34317089297E+03  0.21280001834E+04  0.21001472612E+04 0.  0.
        3    1    3    3  502    0 -0.79133665713E+03 -0.63125064040E+03 -0.45450808384E+03  0.11096254703E+04  0.10100000352E+00 0.  1.
       -3    1    3    3    0  502  0.79133665713E+03  0.63125064040E+03  0.11133719088E+03  0.10183747131E+04  0.10100000352E+00 0. -1.
</event>
<event>
 5   0  0.3130517E-05  0.2115464E+04  0.7818609E-02  0.8554462E-01
       -2   -1    0    0    0  501  0.00000000000E+00  0.00000000000E+00  0.12514393065E+04  0.12514393065E+04  0.25500000920E-02 0.  1.
        2   -1    0    0  501    0  0.00000000000E+00  0.00000000000E+00 -0.89400822708E+03  0.89400822708E+03  0.25500000920E-02 0. -1.
    10030    2    1    2    0    0  0.00000000000E+00  0.00000000000E+00  0.35743107946E+03  0.21454475336E+04  0.21154640491E+04 0.  0.
        1    1    3    3  502    0  0.37115665447E+03 -0.73682771276E+03  0.85000698990E+03  0.11845607723E+04  0.50400001928E-02 0. -1.
       -1    1    3    3    0  502 -0.37115665447E+03  0.73682771276E+03 -0.49257591044E+03  0.96088676129E+03  0.50400001928E-02 0.  1.
</event>
<event>
 5   0  0.1129987E-05  0.2136377E+04  0.7818609E-02  0.8545386E-01
        4   -1    0    0  501    0  0.00000000000E+00  0.00000000000E+00  0.11411835242E+04  0.11411842309E+04  0.12699999809E+01 0.  1.
       -4   -1    0    0    0  501  0.00000000000E+00  0.00000000000E+00 -0.99986124599E+03  0.99986205255E+03  0.12699999809E+01 0. -1.
    10030    2    1    2    0    0  0.00000000000E+00  0.00000000000E+00  0.14132227821E+03  0.21410462834E+04  0.21363771206E+04 0.  0.
        2    1    3    3  502    0 -0.47322331476E+03 -0.47328405399E+02 -0.88790538208E+03  0.10072518310E+04  0.25500000920E-02 0. -1.
       -2    1    3    3    0  502  0.47322331476E+03  0.47328405399E+02  0.10292276603E+04  0.11337944524E+04  0.25500000920E-02 0.  1.
</event>
<event>
 5   0  0.1513292E-05  0.2098887E+04  0.7818609E-02  0.8561734E-01
       -1   -1    0    0    0  501  0.00000000000E+00  0.00000000000E+00  0.62213471714E+03  0.62213471716E+03  0.50400001928E-02 0.  1.
        1   -1    0    0  501    0  0.00000000000E+00  0.00000000000E+00 -0.17702460582E+04  0.17702460582E+04  0.50400001928E-02 0. -1.
    10030    2    1    2    0    0  0.00000000000E+00  0.00000000000E+00 -0.11481113410E+04  0.23923807753E+04  0.20988868771E+04 0.  0.
        1    1    3    3  502    0  0.48848590108E+03  0.51134927188E+03 -0.14578747866E+04  0.16203380656E+04  0.50400001928E-02 0. -1.
       -1    1    3    3    0  502 -0.48848590108E+03 -0.51134927188E+03  0.30976344557E+03  0.77204270973E+03  0.50400001928E-02 0.  1.
</event>
<event>
 5   0  0.1492552E-05  0.2117221E+04  0.7818609E-02  0.8553695E-01
       -1   -1    0    0    0  501  0.00000000000E+00  0.00000000000E+00  0.20515224298E+04  0.20515224298E+04  0.50400001928E-02 0. -1.
        1   -1    0    0  501    0  0.00000000000E+00  0.00000000000E+00 -0.54625594586E+03  0.54625594588E+03  0.50400001928E-02 0.  1.
    10030    2    1    2    0    0  0.00000000000E+00  0.00000000000E+00  0.15052664840E+04  0.25977783757E+04  0.21172211272E+04 0.  0.
        4    1    3    3  502    0  0.63348368044E+03 -0.58382241059E+03 -0.22354617350E+01  0.86148522371E+03  0.12699999809E+01 0.  1.
       -4    1    3    3    0  502 -0.63348368044E+03  0.58382241059E+03  0.15075019457E+04  0.17362931520E+04  0.12699999809E+01 0. -1.
</event>
<event>
 5   0  0.1492552E-05  0.2077986E+04  0.7818609E-02  0.8571003E-01
        1   -1    0    0  501    0  0.00000000000E+00  0.00000000000E+00  0.79232848950E+03  0.79232848952E+03  0.50400001928E-02 0. -1.
       -1   -1    0    0    0  501  0.00000000000E+00  0.00000000000E+00 -0.13624483267E+04  0.13624483267E+04  0.50400001928E-02 0.  1.
    10030    2    1    2    0    0  0.00000000000E+00  0.00000000000E+00 -0.57011983720E+03  0.21547768162E+04  0.20779861643E+04 0.  0.
        4    1    3    3  502    0  0.51831909524E+03 -0.87389714458E+03 -0.59885313499E+02  0.10178107719E+04  0.12699999809E+01 0. -1.
       -4    1    3    3    0  502 -0.51831909524E+03  0.87389714458E+03 -0.51023452371E+03  0.11369660443E+04  0.12699999809E+01 0.  1.
</event>
<event>
 5   0  0.3279789E-05  0.2090102E+04  0.7818609E-02  0.8565616E-01
       -2   -1    0    0    0  501  0.00000000000E+00  0.00000000000E+00  0.14355193343E+04  0.14355193343E+04  0.25500000920E-02 0. -1.
        2   -1    0    0  501    0  0.00000000000E+00  0.00000000000E+00 -0.76079175363E+03  0.76079175363E+03  0.25500000920E-02 0.  1.
    10030    2    1    2    0    0  0.00000000000E+00  0.00000000000E+00  0.67472758067E+03  0.21963110879E+04  0.20901016929E+04 0.  0.
        2    1    3    3  502    0  0.72628501318E+03 -0.52674524649E+03  0.90048791728E+03  0.12711526125E+04  0.25500000920E-02 0.  1.
       -2    1    3    3    0  502 -0.72628501318E+03  0.52674524649E+03 -0.22576033662E+03  0.92515847543E+03  0.25500000920E-02 0. -1.
</event>
<event>
 5   0  0.3279789E-05  0.2101554E+04  0.7818609E-02  0.8560559E-01
        2   -1    0    0  501    0  0.00000000000E+00  0.00000000000E+00  0.96561092253E+03  0.96561092253E+03  0.25500000920E-02 0.  1.
       -2   -1    0    0    0  501  0.00000000000E+00  0.00000000000E+00 -0.11434549350E+04  0.11434549351E+04  0.25500000920E-02 0. -1.
    10030    2    1    2    0    0  0.00000000000E+00  0.00000000000E+00 -0.17784401252E+03  0.21090658576E+04  0.21015542579E+04 0.  0.
        2    1    3    3  502    0  0.28620330596E+03 -0.83952220787E+03  0.47649455912E+03  0.10068549720E+04  0.25500000920E-02 0.  1.
       -2    1    3    3    0  502 -0.28620330596E+03  0.83952220787E+03 -0.65433857164E+03  0.11022108855E+04  0.25500000920E-02 0. -1.
</event>
<event>
 5   0  0.3242231E-05  0.2107298E+04  0.7818609E-02  0.8558035E-01
        2   -1    0    0  501    0  0.00000000000E+00  0.00000000000E+00  0.14313902991E+04  0.14313902991E+04  0.25500000920E-02 0. -1.
       -2   -1    0    0    0  501  0.00000000000E+00  0.00000000000E+00 -0.77559268904E+03  0.77559268904E+03  0.25500000920E-02 0.  1.
    10030    2    1    2    0    0  0.00000000000E+00  0.00000000000E+00  0.65579761005E+03  0.22069829881E+04  0.21072976545E+04 0.  0.
        4    1    3    3  502    0  0.19674617834E+03  0.69557299521E+03 -0.47494309248E+03  0.86492971065E+03  0.12699999809E+01 0.  1.
       -4    1    3    3    0  502 -0.19674617834E+03 -0.69557299521E+03  0.11307407025E+04  0.13420532775E+04  0.12699999809E+01 0. -1.
</event>
<event>
 5   0  0.3108326E-05  0.2085064E+04  0.7818609E-02  0.8567851E-01
       -2   -1    0    0    0  501  0.00000000000E+00  0.00000000000E+00  0.49219978777E+03  0.49219978778E+03  0.25500000920E-02 0.  1.
        2   -1    0    0  501    0  0.00000000000E+00  0.00000000000E+00 -0.22081947037E+04  0.22081947037E+04  0.25500000920E-02 0. -1.
    10030    2    1    2    0    0  0.00000000000E+00  0.00000000000E+00 -0.17159949160E+04  0.27003944915E+04  0.20850639938E+04 0.  0.
        5    1    3    3  502    0  0.38619763011E+03 -0.61121524141E+02 -0.21096202316E+04  0.21455544882E+04  0.46999998093E+01 0. -1.
       -5    1    3    3    0  502 -0.38619763011E+03  0.61121524141E+02  0.39362531562E+03  0.55484000334E+03  0.46999998093E+01 0.  1.
</event>
<event>
 5   0  0.3279789E-05  0.2110357E+04  0.7818609E-02  0.8556695E-01
       -2   -1    0    0    0  501  0.00000000000E+00  0.00000000000E+00  0.16089927338E+04  0.16089927338E+04  0.25500000920E-02 0. -1.
        2   -1    0    0  501    0  0.00000000000E+00  0.00000000000E+00 -0.69198682489E+03  0.69198682489E+03  0.25500000920E-02 0.  1.
    10030    2    1    2    0    0  0.00000000000E+00  0.00000000000E+00  0.91700590889E+03  0.23009795587E+04  0.21103571007E+04 0.  0.
        2    1    3    3  502    0 -0.10307895567E+04  0.20559638672E+02  0.70340693835E+03  0.12480909942E+04  0.25500000920E-02 0.  1.
       -2    1    3    3    0  502  0.10307895567E+04 -0.20559638672E+02  0.21359897054E+03  0.10528885645E+04  0.25500000920E-02 0. -1.
</event>
<event>
 5   0  0.3130517E-05  0.2165457E+04  0.7818609E-02  0.8532945E-01
        2   -1    0    0  501    0  0.00000000000E+00  0.00000000000E+00  0.13088281830E+04  0.13088281830E+04  0.25500000920E-02 0. -1.
       -2   -1    0    0    0  501  0.00000000000E+00  0.00000000000E+00 -0.89568777918E+03  0.89568777918E+03  0.25500000920E-02 0.  1.
    10030    2    1    2    0    0  0.00000000000E+00  0.00000000000E+00  0.41314040383E+03  0.22045159622E+04  0.21654573730E+04 0.  0.
        1    1    3    3  502    0 -0.59773044134E+03 -0.51332340375E+03 -0.54946805764E+03  0.96057157138E+03  0.50400001928E-02 0.  1.
       -1    1    3    3    0  502  0.59773044134E+03  0.51332340375E+03  0.96260846147E+03  0.12439443908E+04  0.50400001928E-02 0. -1.
</event>
<event>
 5   0  0.3242231E-05  0.2111163E+04  0.7818609E-02  0.8556342E-01
        2   -1    0    0  501    0  0.00000000000E+00  0.00000000000E+00  0.12989410240E+04  0.12989410240E+04  0.25500000920E-02 0. -1.
       -2   -1    0    0    0  501  0.00000000000E+00  0.00000000000E+00 -0.85781558066E+03  0.85781558066E+03  0.25500000920E-02 0.  1.
    10030    2    1    2    0    0  0.00000000000E+00  0.00000000000E+00  0.44112544335E+03  0.21567566047E+04  0.21111625695E+04 0.  0.
        4    1    3    3  502    0  0.88302982598E+03 -0.57242527488E+03  0.30503997465E+03  0.10956565921E+04  0.12699999809E+01 0.  1.
       -4    1    3    3    0  502 -0.88302982598E+03  0.57242527488E+03  0.13608546870E+03  0.10611000125E+04  0.12699999809E+01 0. -1.
</event>
<event>
 5   0  0.3242231E-05  0.2098556E+04  0.7818609E-02  0.8561880E-01
       -2   -1    0    0    0  501  0.00000000000E+00  0.00000000000E+00  0.10182625317E+04  0.10182625317E+04  0.25500000920E-02 0.  1.
        2   -1    0    0  501    0  0.00000000000E+00  0.00000000000E+00 -0.10812381529E+04  0.10812381529E+04  0.25500000920E-02 0. -1.
    10030    2    1    2    0    0  0.00000000000E+00  0.00000000000E+00 -0.62975621202E+02  0.20995006846E+04  0.20985559787E+04 0.  0.
        4    1    3    3  502    0 -0.36647531604E+03 -0.16504038470E+03 -0.10011713699E+04  0.10788365078E+04  0.12699999809E+01 0. -1.
       -4    1    3    3    0  502  0.36647531604E+03  0.16504038470E+03  0.93819574871E+03  0.10206641767E+04  0.12699999809E+01 0.  1.
</event>
<event>
 5   0  0.3108326E-05  0.2099590E+04  0.7818609E-02  0.8561424E-01
       -2   -1    0    0    0  501  0.00000000000E+00  0.00000000000E+00  0.74277167773E+03  0.74277167774E+03  0.25500000920E-02 0.  1.
        2   -1    0    0  501    0  0.00000000000E+00  0.00000000000E+00 -0.14837254192E+04  0.14837254192E+04  0.25500000920E-02 0. -1.
    10030    2    1    2    0    0  0.00000000000E+00  0.00000000000E+00 -0.74095374146E+03  0.22264970969E+04  0.20995896922E+04 0.  0.
        5    1    3    3  502    0 -0.75121277198E+03  0.30763823171E+03  0.33540386921E+03  0.87833920320E+03  0.46999998093E+01 0.  1.
       -5    1    3    3    0  502  0.75121277198E+03 -0.30763823171E+03 -0.10763576107E+04  0.13481578937E+04  0.46999998093E+01 0. -1.
</event>
<event>
 5   0  0.1492552E-05  0.2106473E+04  0.7818609E-02  0.8558397E-01
        1   -1    0    0  501    0  0.00000000000E+00  0.00000000000E+00  0.15684745349E+04  0.15684745349E+04  0.50400001928E-02 0. -1.
       -1   -1    0    0    0  501  0.00000000000E+00  0.00000000000E+00 -0.70725214915E+03  0.70725214917E+03  0.50400001928E-02 0.  1.
    10030    2    1    2    0    0  0.00000000000E+00  0.00000000000E+00  0.86122238575E+03  0.22757266841E+04  0.21064728678E+04 0.  0.
        4    1    3    3  502    0 -0.71422361969E+03 -0.29462742186E+03  0.12039366353E+04  0.14305193921E+04  0.12699999809E+01 0. -1.
       -4    1    3    3    0  502  0.71422361969E+03  0.29462742186E+03 -0.34271424952E+03  0.84520729195E+03  0.12699999809E+01 0.  1.
</event>
<event>
 5   0  0.3108326E-05  0.2101059E+04  0.7818609E-02  0.8560777E-01
       -2   -1    0    0    0  501  0.00000000000E+00  0.00000000000E+00  0.21363937500E+04  0.21363937500E+04  0.25500000920E-02 0. -1.
        2   -1    0    0  501    0  0.00000000000E+00  0.00000000000E+00 -0.51657705537E+03  0.51657705538E+03  0.25500000920E-02 0.  1.
    10030    2    1    2    0    0  0.00000000000E+00  0.00000000000E+00  0.16198166946E+04  0.26529708053E+04  0.21010587736E+04 0.  0.
        5    1    3    3  502    0 -0.53122471048E+03  0.89186194461E+03  0.10134020574E+04  0.14507319674E+04  0.46999998093E+01 0. -1.
       -5    1    3    3    0  502  0.53122471048E+03 -0.89186194461E+03  0.60641463718E+03  0.12022388379E+04  0.46999998093E+01 0.  1.
</event>
<event>
 5   0  0.3257130E-05  0.2095605E+04  0.7818609E-02  0.8563182E-01
       -2   -1    0    0    0  501  0.00000000000E+00  0.00000000000E+00  0.84321864378E+03  0.84321864378E+03  0.25500000920E-02 0. -1.
        2   -1    0    0  501    0  0.00000000000E+00  0.00000000000E+00 -0.13020224023E+04  0.13020224023E+04  0.25500000920E-02 0.  1.
    10030    2    1    2    0    0  0.00000000000E+00  0.00000000000E+00 -0.45880375857E+03  0.21452410461E+04  0.20956045088E+04 0.  0.
        3    1    3    3  502    0  0.29769224655E+03  0.93637814465E+03 -0.60197978817E+03  0.11523039438E+04  0.10100000352E+00 0.  1.
       -3    1    3    3    0  502 -0.29769224655E+03 -0.93637814465E+03  0.14317602961E+03  0.99293710228E+03  0.10100000352E+00 0. -1.
</event>
<event>
 5   0  0.1129987E-05  0.2089332E+04  0.7818609E-02  0.8565957E-01
       -4   -1    0    0    0  501  0.00000000000E+00  0.00000000000E+00  0.73901009631E+03  0.73901118756E+03  0.12699999809E+01 0. -1.
        4   -1    0    0  501    0  0.00000000000E+00  0.00000000000E+00 -0.14767390156E+04  0.14767395617E+04  0.12699999809E+01 0.  1.
    10030    2    1    2    0    0  0.00000000000E+00  0.00000000000E+00 -0.73772891930E+03  0.22157507493E+04  0.20893318129E+04 0.  0.
        1    1    3    3  502    0  0.47512555336E+03  0.79515992826E+03 -0.88110492704E+03  0.12784246147E+04  0.50400001928E-02 0.  1.
       -1    1    3    3    0  502 -0.47512555336E+03 -0.79515992826E+03  0.14337600774E+03  0.93732613459E+03  0.50400001928E-02 0. -1.
</event>
<event>
 5   0  0.1513292E-05  0.2110654E+04  0.7818609E-02  0.8556565E-01
       -1   -1    0    0    0  501  0.00000000000E+00  0.00000000000E+00  0.10916571051E+04  0.10916571052E+04  0.50400001928E-02 0.  1.
        1   -1    0    0  501    0  0.00000000000E+00  0.00000000000E+00 -0.10202060619E+04  0.10202060619E+04  0.50400001928E-02 0. -1.
    10030    2    1    2    0    0  0.00000000000E+00  0.00000000000E+00  0.71451043276E+02  0.21118631670E+04  0.21106541130E+04 0.  0.
        1    1    3    3  502    0 -0.45781228890E+02  0.96986834656E+03  0.44945321204E+03  0.10699293063E+04  0.50400001928E-02 0.  1.
       -1    1    3    3    0  502  0.45781228890E+02 -0.96986834656E+03 -0.37800216876E+03  0.10419338608E+04  0.50400001928E-02 0. -1.
</event>
<event>
 5   0  0.1453430E-05  0.2100888E+04  0.7818609E-02  0.8560852E-01
       -1   -1    0    0    0  501  0.00000000000E+00  0.00000000000E+00  0.70311207438E+03  0.70311207440E+03  0.50400001928E-02 0. -1.
        1   -1    0    0  501    0  0.00000000000E+00  0.00000000000E+00 -0.15693556810E+04  0.15693556810E+04  0.50400001928E-02 0.  1.
    10030    2    1    2    0    0  0.00000000000E+00  0.00000000000E+00 -0.86624360664E+03  0.22724677554E+04  0.21008883153E+04 0.  0.
        5    1    3    3  502    0  0.60901316375E+02  0.88474868094E+03  0.17581288002E+03  0.90411363088E+03  0.46999998093E+01 0. -1.
       -5    1    3    3    0  502 -0.60901316375E+02 -0.88474868094E+03 -0.10420564867E+04  0.13683541245E+04  0.46999998093E+01 0.  1.
</event>
<event>
 5   0  0.1453430E-05  0.2106591E+04  0.7818609E-02  0.8558345E-01
       -1   -1    0    0    0  501  0.00000000000E+00  0.00000000000E+00  0.94090453241E+03  0.94090453243E+03  0.50400001928E-02 0. -1.
        1   -1    0    0  501    0  0.00000000000E+00  0.00000000000E+00 -0.11791118146E+04  0.11791118146E+04  0.50400001928E-02 0.  1.
    10030    2    1    2    0    0  0.00000000000E+00  0.00000000000E+00 -0.23820728222E+03  0.21200163471E+04  0.21065912282E+04 0.  0.
        5    1    3    3  502    0  0.24826884783E+03  0.72789547709E+03 -0.84337080535E+03  0.11413875992E+04  0.46999998093E+01 0.  1.
       -5    1    3    3    0  502 -0.24826884783E+03 -0.72789547709E+03  0.60516352313E+03  0.97862874784E+03  0.46999998093E+01 0. -1.
</event>
<event>
 5   0  0.3130517E-05  0.2103870E+04  0.7818609E-02  0.8559540E-01
       -2   -1    0    0    0  501  0.00000000000E+00  0.00000000000E+00  0.56974870397E+03  0.56974870398E+03  0.25500000920E-02 0.  1.
        2   -1    0    0  501    0  0.00000000000E+00  0.00000000000E+00 -0.19422027900E+04  0.19422027900E+04  0.25500000920E-02 0. -1.
    10030    2    1    2    0    0  0.00000000000E+00  0.00000000000E+00 -0.13724540860E+04  0.25119514940E+04  0.21038702645E+04 0.  0.
        1    1    3    3  502    0 -0.75484844223E+03 -0.47670781209E+03 -0.21968172243E+02  0.89304485300E+03  0.50400001928E-02 0.  1.
       -1    1    3    3    0  502  0.75484844223E+03  0.47670781209E+03 -0.13504859138E+04  0.16189066410E+04  0.50400001928E-02 0. -1.
</event>
<event>
 5   0  0.3130517E-05  0.2102527E+04  0.7818609E-02  0.8560131E-01
       -2   -1    0    0    0  501  0.00000000000E+00  0.00000000000E+00  0.65725628699E+03  0.65725628700E+03  0.25500000920E-02 0.  1.
        2   -1    0    0  501    0  0.00000000000E+00  0.00000000000E+00 -0.16814668253E+04  0.16814668253E+04  0.25500000920E-02 0. -1.
    10030    2    1    2    0    0  0.00000000000E+00  0.00000000000E+00 -0.10242105383E+04  0.23387231123E+04  0.21025267107E+04 0.  0.
        1    1    3    3  502    0  0.29908156472E+03 -0.55133298968E+03  0.42631416830E+03  0.75839410466E+03  0.50400001928E-02 0.  1.
       -1    1    3    3    0  502 -0.29908156472E+03  0.55133298968E+03 -0.14505247066E+04  0.15803290076E+04  0.50400001928E-02 0. -1.
</event>
<event>
 5   0  0.1492552E-05  0.2143679E+04  0.7818609E-02  0.8542243E-01
       -1   -1    0    0    0  501  0.00000000000E+00  0.00000000000E+00  0.95362342830E+03  0.95362342832E+03  0.50400001928E-02 0.  1.
        1   -1    0    0  501    0  0.00000000000E+00  0.00000000000E+00 -0.12047099201E+04  0.12047099201E+04  0.50400001928E-02 0. -1.
    10030    2    1    2    0    0  0.00000000000E+00  0.00000000000E+00 -0.25108649181E+03  0.21583333484E+04  0.21436787111E+04 0.  0.
        4    1    3    3  502    0 -0.44386898303E+03  0.56434328905E+03  0.67572062372E+03  0.98595283671E+03  0.12699999809E+01 0.  1.
       -4    1    3    3    0  502  0.44386898303E+03 -0.56434328905E+03 -0.92680711553E+03  0.11723805117E+04  0.12699999809E+01 0. -1.
</event>
<event>
 5   0  0.3279789E-05  0.2043057E+04  0.7818609E-02  0.8586751E-01
        2   -1    0    0  501    0  0.00000000000E+00  0.00000000000E+00  0.94162637846E+03  0.94162637846E+03  0.25500000920E-02 0. -1.
       -2   -1    0    0    0  501  0.00000000000E+00  0.00000000000E+00 -0.11082104453E+04  0.11082104453E+04  0.25500000920E-02 0.  1.
    10030    2    1    2    0    0  0.00000000000E+00  0.00000000000E+00 -0.16658406684E+03  0.20498368238E+04  0.20430567179E+04 0.  0.
        2    1    3    3  502    0 -0.23832239489E+03 -0.63341221560E+03 -0.85101868103E+03  0.10873092450E+04  0.25500000920E-02 0.  1.
       -2    1    3    3    0  502  0.23832239489E+03  0.63341221560E+03  0.68443461419E+03  0.96252757877E+03  0.25500000920E-02 0. -1.
</event>
<event>
 5   0  0.1129987E-05  0.2106385E+04  0.7818609E-02  0.8558436E-01
        3   -1    0    0  501    0  0.00000000000E+00  0.00000000000E+00  0.82752861171E+03  0.82752861788E+03  0.10100000352E+00 0. -1.
       -3   -1    0    0    0  501  0.00000000000E+00  0.00000000000E+00 -0.13403935737E+04  0.13403935776E+04  0.10100000352E+00 0.  1.
    10030    2    1    2    0    0  0.00000000000E+00  0.00000000000E+00 -0.51286496203E+03  0.21679221954E+04  0.21063846221E+04 0.  0.
        3    1    3    3  502    0  0.29052578820E+03  0.64671502924E+03  0.54514578356E+03  0.89433187251E+03  0.10100000352E+00 0. -1.
       -3    1    3    3    0  502 -0.29052578820E+03 -0.64671502924E+03 -0.10580107456E+04  0.12735903229E+04  0.10100000352E+00 0.  1.
</event>
<event>
 5   0  0.3108326E-05  0.2102500E+04  0.7818609E-02  0.8560143E-01
       -2   -1    0    0    0  501  0.00000000000E+00  0.00000000000E+00  0.68779450721E+03  0.68779450721E+03  0.25500000920E-02 0. -1.
        2   -1    0    0  501    0  0.00000000000E+00  0.00000000000E+00 -0.16067690293E+04  0.16067690293E+04  0.25500000920E-02 0.  1.
    10030    2    1    2    0    0  0.00000000000E+00  0.00000000000E+00 -0.91897452207E+03  0.22945635365E+04  0.21025003331E+04 0.  0.
        5    1    3    3  502    0  0.74543643811E+03  0.63487098669E+03 -0.41957597416E+02  0.98006080575E+03  0.46999998093E+01 0. -1.
       -5    1    3    3    0  502 -0.74543643811E+03 -0.63487098669E+03 -0.87701692465E+03  0.13145027307E+04  0.46999998093E+01 0.  1.
</event>
<event>
 5   0  0.3108326E-05  0.2098694E+04  0.7818609E-02  0.8561819E-01
        2   -1    0    0  501    0  0.00000000000E+00  0.00000000000E+00  0.88407708619E+03  0.88407708620E+03  0.25500000920E-02 0.  1.
       -2   -1    0    0    0  501  0.00000000000E+00  0.00000000000E+00 -0.12455124548E+04  0.12455124548E+04  0.25500000920E-02 0. -1.
    10030    2    1    2    0    0  0.00000000000E+00  0.00000000000E+00 -0.36143536861E+03  0.21295895410E+04  0.20986939004E+04 0.  0.
        5    1    3    3  502    0 -0.84467965932E+03  0.56906177936E+03  0.75571076334E+02  0.10212972697E+04  0.46999998093E+01 0.  1.
       -5    1    3    3    0  502  0.84467965932E+03 -0.56906177936E+03 -0.43700644494E+03  0.11082922713E+04  0.46999998093E+01 0. -1.
</event>
<event>
 5   0  0.1513292E-05  0.2100098E+04  0.7818609E-02  0.8561200E-01
        1   -1    0    0  501    0  0.00000000000E+00  0.00000000000E+00  0.11067392179E+04  0.11067392179E+04  0.50400001928E-02 0. -1.
       -1   -1    0    0    0  501  0.00000000000E+00  0.00000000000E+00 -0.99626267003E+03  0.99626267004E+03  0.50400001928E-02 0.  1.
    10030    2    1    2    0    0  0.00000000000E+00  0.00000000000E+00  0.11047654782E+03  0.21030018879E+04  0.21000980627E+04 0.  0.
        1    1    3    3  502    0  0.63604044926E+03  0.41560736557E+03  0.78103423944E+03  0.10896290280E+04  0.50400001928E-02 0. -1.
       -1    1    3    3    0  502 -0.63604044926E+03 -0.41560736557E+03 -0.67055769163E+03  0.10133728599E+04  0.50400001928E-02 0.  1.
</event>
<event>
 5   0  0.1492552E-05  0.2110669E+04  0.7818609E-02  0.8556558E-01
        1   -1    0    0  501    0  0.00000000000E+00  0.00000000000E+00  0.16039312218E+04  0.16039312218E+04  0.50400001928E-02 0. -1.
       -1   -1    0    0    0  501  0.00000000000E+00  0.00000000000E+00 -0.69437568588E+03  0.69437568590E+03  0.50400001928E-02 0.  1.
    10030    2    1    2    0    0  0.00000000000E+00  0.00000000000E+00  0.90955553593E+03  0.22983069077E+04  0.21106689388E+04 0.  0.
        4    1    3    3  502    0  0.12715007414E+03 -0.19288107784E+03 -0.66650297165E+03  0.70540631955E+03  0.12699999809E+01 0.  1.
       -4    1    3    3    0  502 -0.12715007414E+03  0.19288107784E+03  0.15760585076E+04  0.15929005882E+04  0.12699999809E+01 0. -1.
</event>
<event>
 5   0  0.3257130E-05  0.2087736E+04  0.7818609E-02  0.8566665E-01
       -2   -1    0    0    0  501  0.00000000000E+00  0.00000000000E+00  0.55841003644E+03  0.55841003645E+03  0.25500000920E-02 0. -1.
        2   -1    0    0  501    0  0.00000000000E+00  0.00000000000E+00 -0.19513621466E+04  0.19513621466E+04  0.25500000920E-02 0.  1.
    10030    2    1    2    0    0  0.00000000000E+00  0.00000000000E+00 -0.13929521102E+04  0.25097721831E+04  0.20877358141E+04 0.  0.
        3    1    3    3  502    0 -0.55286913317E+03 -0.39745596051E+03  0.25468593517E+03  0.72698036750E+03  0.10100000352E+00 0. -1.
       -3    1    3    3    0  502  0.55286913317E+03  0.39745596051E+03 -0.16476380453E+04  0.17827918156E+04  0.10100000352E+00 0.  1.
</event>
<event>
 5   0  0.3130517E-05  0.2089925E+04  0.7818609E-02  0.8565695E-01
        2   -1    0    0  501    0  0.00000000000E+00  0.00000000000E+00  0.28328945516E+04  0.28328945516E+04  0.25500000920E-02 0.  1.
       -2   -1    0    0    0  501  0.00000000000E+00  0.00000000000E+00 -0.38545252630E+03  0.38545252631E+03  0.25500000920E-02 0. -1.
    10030    2    1    2    0    0  0.00000000000E+00  0.00000000000E+00  0.24474420253E+04  0.32183470779E+04  0.20899247466E+04 0.  0.
        1    1    3    3  502    0  0.76702266671E+03  0.18509664362E+03  0.16871214347E+03  0.80687565715E+03  0.50400001928E-02 0. -1.
       -1    1    3    3    0  502 -0.76702266671E+03 -0.18509664362E+03  0.22787298818E+04  0.24114714207E+04  0.50400001928E-02 0.  1.
</event>
<event>
 5   0  0.3108326E-05  0.2094765E+04  0.7818609E-02  0.8563553E-01
       -2   -1    0    0    0  501  0.00000000000E+00  0.00000000000E+00  0.80478837405E+03  0.80478837406E+03  0.25500000920E-02 0. -1.
        2   -1    0    0  501    0  0.00000000000E+00  0.00000000000E+00 -0.13631040770E+04  0.13631040771E+04  0.25500000920E-02 0.  1.
    10030    2    1    2    0    0  0.00000000000E+00  0.00000000000E+00 -0.55831570300E+03  0.21678924511E+04  0.20947652029E+04 0.  0.
        5    1    3    3  502    0 -0.91734181315E+03  0.11659941468E+03 -0.78813641022E+03  0.12150277844E+04  0.46999998093E+01 0.  1.
       -5    1    3    3    0  502  0.91734181315E+03 -0.11659941468E+03  0.22982070722E+03  0.95286466674E+03  0.46999998093E+01 0. -1.
</event>
<event>
 5   0  0.1129987E-05  0.2045023E+04  0.7818609E-02  0.8585855E-01
       -4   -1    0    0    0  501  0.00000000000E+00  0.00000000000E+00  0.82774596821E+03  0.82774694248E+03  0.12699999809E+01 0. -1.
        4   -1    0    0  501    0  0.00000000000E+00  0.00000000000E+00 -0.12631031853E+04  0.12631038237E+04  0.12699999809E+01 0.  1.
    10030    2    1    2    0    0  0.00000000000E+00  0.00000000000E+00 -0.43535721707E+03  0.20908507662E+04  0.20450234767E+04 0.  0.
        5    1    3    3  502    0 -0.58343916765E+03 -0.74650525044E+03  0.17543315075E+03  0.96357160173E+03  0.46999998093E+01 0. -1.
       -5    1    3    3    0  502  0.58343916765E+03  0.74650525044E+03 -0.61079036782E+03  0.11272791645E+04  0.46999998093E+01 0.  1.
</event>
<event>
 5   0  0.3257130E-05  0.2099858E+04  0.7818609E-02  0.8561306E-01
        2   -1    0    0  501    0  0.00000000000E+00  0.00000000000E+00  0.10390385015E+04  0.10390385015E+04  0.25500000920E-02 0.  1.
       -2   -1    0    0    0  501  0.00000000000E+00  0.00000000000E+00 -0.10609332325E+04  0.10609332325E+04  0.25500000920E-02 0. -1.
    10030    2    1    2    0    0  0.00000000000E+00  0.00000000000E+00 -0.21894731008E+02  0.20999717339E+04  0.20998575914E+04 0.  0.
        3    1    3    3  502    0  0.48996251896E+03 -0.37190314070E+03  0.83996623678E+03  0.10411140692E+04  0.10100000352E+00 0.  1.
       -3    1    3    3    0  502 -0.48996251896E+03  0.37190314070E+03 -0.86186096779E+03  0.10588576647E+04  0.10100000352E+00 0. -1.
</event>
<event>
 5   0  0.3242231E-05  0.1979601E+04  0.7818609E-02  0.8616217E-01
       -2   -1    0    0    0  501  0.00000000000E+00  0.00000000000E+00  0.36769306302E+03  0.36769306303E+03  0.25500000920E-02 0. -1.
        2   -1    0    0  501    0  0.00000000000E+00  0.00000000000E+00 -0.26644655760E+04  0.26644655760E+04  0.25500000920E-02 0.  1.
    10030    2    1    2    0    0  0.00000000000E+00  0.00000000000E+00 -0.22967725130E+04  0.30321586391E+04  0.19796014841E+04 0.  0.
        4    1    3    3  502    0 -0.53999932047E+03  0.64769232021E+03 -0.19422145564E+04  0.21173813081E+04  0.12699999809E+01 0.  1.
       -4    1    3    3    0  502  0.53999932047E+03 -0.64769232021E+03 -0.35455795657E+03  0.91477733096E+03  0.12699999809E+01 0. -1.
</event>
<event>
 5   0  0.1129987E-05  0.2102223E+04  0.7818609E-02  0.8560265E-01
        3   -1    0    0  501    0  0.00000000000E+00  0.00000000000E+00  0.54096871747E+03  0.54096872690E+03  0.10100000352E+00 0. -1.
       -3   -1    0    0    0  501  0.00000000000E+00  0.00000000000E+00 -0.20423278577E+04  0.20423278602E+04  0.10100000352E+00 0.  1.
    10030    2    1    2    0    0  0.00000000000E+00  0.00000000000E+00 -0.15013591402E+04  0.25832965871E+04  0.21022231064E+04 0.  0.
        2    1    3    3  502    0 -0.78852563313E+03  0.41464795159E+03 -0.14361146685E+04  0.16900091535E+04  0.25500000920E-02 0.  1.
       -2    1    3    3    0  502  0.78852563313E+03 -0.41464795159E+03 -0.65244471680E+02  0.89328743355E+03  0.25500000920E-02 0. -1.
</event>
<event>
 5   0  0.3257130E-05  0.2109563E+04  0.7818609E-02  0.8557042E-01
        2   -1    0    0  501    0  0.00000000000E+00  0.00000000000E+00  0.28303890750E+04  0.28303890750E+04  0.25500000920E-02 0.  1.
       -2   -1    0    0    0  501  0.00000000000E+00  0.00000000000E+00 -0.39307817210E+03  0.39307817211E+03  0.25500000920E-02 0. -1.
    10030    2    1    2    0    0  0.00000000000E+00  0.00000000000E+00  0.24373109029E+04  0.32234672471E+04  0.21095631434E+04 0.  0.
        3    1    3    3  502    0  0.60720565069E+03  0.26172669695E+03 -0.37084972702E+02  0.66224985581E+03  0.10100000352E+00 0. -1.
       -3    1    3    3    0  502 -0.60720565069E+03 -0.26172669695E+03  0.24743958756E+04  0.25612173913E+04  0.10100000352E+00 0.  1.
</event>
<event>
 5   0  0.3242231E-05  0.2099686E+04  0.7818609E-02  0.8561382E-01
        2   -1    0    0  501    0  0.00000000000E+00  0.00000000000E+00  0.12105763272E+04  0.12105763272E+04  0.25500000920E-02 0. -1.
       -2   -1    0    0    0  501  0.00000000000E+00  0.00000000000E+00 -0.91045081864E+03  0.91045081864E+03  0.25500000920E-02 0.  1.
    10030    2    1    2    0    0  0.00000000000E+00  0.00000000000E+00  0.30012550857E+03  0.21210271459E+04  0.20996858890E+04 0.  0.
        4    1    3    3  502    0  0.39593238775E+03 -0.94657162169E+03  0.37460180027E+03  0.10922858657E+04  0.12699999809E+01 0. -1.
       -4    1    3    3    0  502 -0.39593238775E+03  0.94657162169E+03 -0.74476291697E+02  0.10287412802E+04  0.12699999809E+01 0.  1.
</event>
<event>
 5   0  0.3130517E-05  0.2133365E+04  0.7818609E-02  0.8546687E-01
       -2   -1    0    0    0  501  0.00000000000E+00  0.00000000000E+00  0.79031271068E+03  0.79031271069E+03  0.25500000920E-02 0. -1.
        2   -1    0    0  501    0  0.00000000000E+00  0.00000000000E+00 -0.14396981835E+04  0.14396981835E+04  0.25500000920E-02 0.  1.
    10030    2    1    2    0    0  0.00000000000E+00  0.00000000000E+00 -0.64938547285E+03  0.22300108942E+04  0.21333652046E+04 0.  0.
        1    1    3    3  502    0 -0.63432875384E+03 -0.45162597866E+03  0.43735519957E+03  0.89309493514E+03  0.50400001928E-02 0. -1.
       -1    1    3    3    0  502  0.63432875384E+03  0.45162597866E+03 -0.10867406724E+04  0.13369159591E+04  0.50400001928E-02 0.  1.
</event>
<event>
 5   0  0.1492552E-05  0.2111120E+04  0.7818609E-02  0.8556361E-01
       -1   -1    0    0    0  501  0.00000000000E+00  0.00000000000E+00  0.49306354213E+03  0.49306354215E+03  0.50400001928E-02 0.  1.
        1   -1    0    0  501    0  0.00000000000E+00  0.00000000000E+00 -0.22597625501E+04  0.22597625501E+04  0.50400001928E-02 0. -1.
    10030    2    1    2    0    0  0.00000000000E+00  0.00000000000E+00 -0.17666990080E+04  0.27528260923E+04  0.21111196341E+04 0.  0.
        4    1    3    3  502    0  0.66769139208E+03  0.45190943993E+03  0.50430757075E+01  0.80626359367E+03  0.12699999809E+01 0.  1.
       -4    1    3    3    0  502 -0.66769139208E+03 -0.45190943993E+03 -0.17717420837E+04  0.19465624986E+04  0.12699999809E+01 0. -1.
</event>
<event>
 5   0  0.3257130E-05  0.2068636E+04  0.7818609E-02  0.8575187E-01
        2   -1    0    0  501    0  0.00000000000E+00  0.00000000000E+00  0.93286010091E+03  0.93286010091E+03  0.25500000920E-02 0. -1.
       -2   -1    0    0    0  501  0.00000000000E+00  0.00000000000E+00 -0.11468108892E+04  0.11468108892E+04  0.25500000920E-02 0.  1.
    10030    2    1    2    0    0  0.00000000000E+00  0.00000000000E+00 -0.21395078829E+03  0.20796709901E+04  0.20686363835E+04 0.  0.
        3    1    3    3  502    0 -0.10491481427E+03 -0.64614472186E+03 -0.91206171286E+03  0.11226605445E+04  0.10100000352E+00 0.  1.
       -3    1    3    3    0  502  0.10491481427E+03  0.64614472186E+03  0.69811092458E+03  0.95701044564E+03  0.10100000352E+00 0. -1.
</event>
<event>
 5   0  0.3108326E-05  0.2103359E+04  0.7818609E-02  0.8559765E-01
        2   -1    0    0  501    0  0.00000000000E+00  0.00000000000E+00  0.13836598342E+04  0.13836598342E+04  0.25500000920E-02 0. -1.
       -2   -1    0    0    0  501  0.00000000000E+00  0.00000000000E+00 -0.79935099476E+03  0.79935099476E+03  0.25500000920E-02 0.  1.
    10030    2    1    2    0    0  0.00000000000E+00  0.00000000000E+00  0.58430883943E+03  0.21830108289E+04  0.21033590895E+04 0.  0.
        5    1    3    3  502    0 -0.12475485938E+03  0.31711005717E+03 -0.74045215405E+03  0.81511597073E+03  0.46999998093E+01 0.  1.
       -5    1    3    3    0  502  0.12475485938E+03 -0.31711005717E+03  0.13247609935E+04  0.13678948582E+04  0.46999998093E+01 0. -1.
</event>
<event>
 5   0  0.1466480E-05  0.2103659E+04  0.7818609E-02  0.8559633E-01
       -1   -1    0    0    0  501  0.00000000000E+00  0.00000000000E+00  0.77153378318E+03  0.77153378319E+03  0.50400001928E-02 0.  1.
        1   -1    0    0  501    0  0.00000000000E+00  0.00000000000E+00 -0.14339551140E+04  0.14339551141E+04  0.50400001928E-02 0. -1.
    10030    2    1    2    0    0  0.00000000000E+00  0.00000000000E+00 -0.66242133087E+03  0.22054888972E+04  0.21036585408E+04 0.  0.
        3    1    3    3  502    0  0.74688623320E+03 -0.30740261408E+03  0.37520780523E+03  0.89057078315E+03  0.10100000352E+00 0.  1.
       -3    1    3    3    0  502 -0.74688623320E+03  0.30740261408E+03 -0.10376291361E+04  0.13149181141E+04  0.10100000352E+00 0. -1.
</event>
<event>
 5   0  0.1492552E-05  0.2083910E+04  0.7818609E-02  0.8568365E-01
       -1   -1    0    0    0  501  0.00000000000E+00  0.00000000000E+00  0.95756649727E+03  0.95756649728E+03  0.50400001928E-02 0.  1.
        1   -1    0    0  501    0  0.00000000000E+00  0.00000000000E+00 -0.11337800870E+04  0.11337800870E+04  0.50400001928E-02 0. -1.
    10030    2    1    2    0    0  0.00000000000E+00  0.00000000000E+00 -0.17621358971E+03  0.20913465843E+04  0.20839096205E+04 0.  0.
        4    1    3    3  502    0  0.86999889758E+03  0.36219061963E+02  0.48617512129E+03  0.99728519678E+03  0.12699999809E+01 0.  1.
       -4    1    3    3    0  502 -0.86999889758E+03 -0.36219061963E+02 -0.66238871100E+03  0.10940613875E+04  0.12699999809E+01 0. -1.
</event>
<event>
 5   0  0.3242231E-05  0.2092559E+04  0.7818609E-02  0.8564528E-01
       -2   -1    0    0    0  501  0.00000000000E+00  0.00000000000E+00  0.59285098056E+03  0.59285098056E+03  0.25500000920E-02 0. -1.
        2   -1    0    0  501    0  0.00000000000E+00  0.00000000000E+00 -0.18465027363E+04  0.18465027363E+04  0.25500000920E-02 0.  1.
    10030    2    1    2    0    0  0.00000000000E+00  0.00000000000E+00 -0.12536517557E+04  0.24393537169E+04  0.20925591584E+04 0.  0.
        4    1    3    3  502    0  0.70855175663E+03  0.59969710083E+03 -0.64107668706E+02  0.93048031181E+03  0.12699999809E+01 0. -1.
       -4    1    3    3    0  502 -0.70855175663E+03 -0.59969710083E+03 -0.11895440870E+04  0.15088734050E+04  0.12699999809E+01 0.  1.
</event>
<event>
 5   0  0.1466480E-05  0.2095690E+04  0.7818609E-02  0.8563144E-01
       -1   -1    0    0    0  501  0.00000000000E+00  0.00000000000E+00  0.64385170969E+03  0.64385170971E+03  0.50400001928E-02 0. -1.
        1   -1    0    0  501    0  0.00000000000E+00  0.00000000000E+00 -0.17053297056E+04  0.17053297056E+04  0.50400001928E-02 0.  1.
    10030    2    1    2    0    0  0.00000000000E+00  0.00000000000E+00 -0.10614779959E+04  0.23491814153E+04  0.20956902887E+04 0.  0.
        3    1    3    3  502    0  0.54202105951E+03 -0.58805465690E+03  0.22819557239E+03  0.83166600142E+03  0.10100000352E+00 0. -1.
       -3    1    3    3    0  502 -0.54202105951E+03  0.58805465690E+03 -0.12896735683E+04  0.15175154139E+04  0.10100000352E+00 0.  1.
</event>
<event>
 5   0  0.3108326E-05  0.2100147E+04  0.7818609E-02  0.8561179E-01
        2   -1    0    0  501    0  0.00000000000E+00  0.00000000000E+00  0.76015776646E+03  0.76015776647E+03  0.25500000920E-02 0. -1.
       -2   -1    0    0    0  501  0.00000000000E+00  0.00000000000E+00 -0.14505601003E+04  0.14505601004E+04  0.25500000920E-02 0.  1.
    10030    2    1    2    0    0  0.00000000000E+00  0.00000000000E+00 -0.69040233388E+03  0.22107178668E+04  0.21001471625E+04 0.  0.
        5    1    3    3  502    0  0.49005645486E+03 -0.92483946555E+03 -0.25619740394E+03  0.10775632537E+04  0.46999998093E+01 0.  1.
       -5    1    3    3    0  502 -0.49005645486E+03  0.92483946555E+03 -0.43420492995E+03  0.11331546131E+04  0.46999998093E+01 0. -1.
</event>
<event>
 5   0  0.3279789E-05  0.2088347E+04  0.7818609E-02  0.8566394E-01
       -2   -1    0    0    0  501  0.00000000000E+00  0.00000000000E+00  0.94129543458E+03  0.94129543458E+03  0.25500000920E-02 0.  1.
        2   -1    0    0  501    0  0.00000000000E+00  0.00000000000E+00 -0.11582960414E+04  0.11582960414E+04  0.25500000920E-02 0. -1.
    10030    2    1    2    0    0  0.00000000000E+00  0.00000000000E+00 -0.21700060686E+03  0.20995914760E+04  0.20883474574E+04 0.  0.
        2    1    3    3  502    0 -0.31971502148E+03  0.51072764072E+03  0.74887393831E+03  0.96118291362E+03  0.25500000920E-02 0.  1.
       -2    1    3    3    0  502  0.31971502148E+03 -0.51072764072E+03 -0.96587454517E+03  0.11384085624E+04  0.25500000920E-02 0. -1.
</event>
<event>
 5   0  0.3108326E-05  0.2099462E+04  0.7818609E-02  0.8561480E-01
       -2   -1    0    0    0  501  0.00000000000E+00  0.00000000000E+00  0.12694404771E+04  0.12694404771E+04  0.25500000920E-02 0. -1.
        2   -1    0    0  501    0  0.00000000000E+00  0.00000000000E+00 -0.86804829165E+03  0.86804829165E+03  0.25500000920E-02 0.  1.
    10030    2    1    2    0    0  0.00000000000E+00  0.00000000000E+00  0.40139218546E+03  0.21374887688E+04  0.20994624431E+04 0.  0.
        5    1    3    3  502    0 -0.20593192152E+03 -0.50993429430E+03 -0.70963111950E+03  0.89779694618E+03  0.46999998093E+01 0.  1.
       -5    1    3    3    0  502  0.20593192152E+03  0.50993429430E+03  0.11110233050E+04  0.12396918226E+04  0.46999998093E+01 0. -1.
</event>
<event>
 5   0  0.1453430E-05  0.2081820E+04  0.7818609E-02  0.8569294E-01
        1   -1    0    0  501    0  0.00000000000E+00  0.00000000000E+00  0.99704031993E+03  0.99704031994E+03  0.50400001928E-02 0. -1.
       -1   -1    0    0    0  501  0.00000000000E+00  0.00000000000E+00 -0.10867100829E+04  0.10867100829E+04  0.50400001928E-02 0.  1.
    10030    2    1    2    0    0  0.00000000000E+00  0.00000000000E+00 -0.89669762983E+02  0.20837504029E+04  0.20818201351E+04 0.  0.
        5    1    3    3  502    0 -0.77461613128E+03 -0.19446380867E+03  0.62333583588E+03  0.10131218969E+04  0.46999998093E+01 0. -1.
       -5    1    3    3    0  502  0.77461613128E+03  0.19446380867E+03 -0.71300559887E+03  0.10706285059E+04  0.46999998093E+01 0.  1.
</event>
<event>
 5   0  0.1492552E-05  0.2102036E+04  0.7818609E-02  0.8560347E-01
       -1   -1    0    0    0  501  0.00000000000E+00  0.00000000000E+00  0.60578327746E+03  0.60578327748E+03  0.50400001928E-02 0.  1.
        1   -1    0    0  501    0  0.00000000000E+00  0.00000000000E+00 -0.18234876314E+04  0.18234876314E+04  0.50400001928E-02 0. -1.
    10030    2    1    2    0    0  0.00000000000E+00  0.00000000000E+00 -0.12177043540E+04  0.24292709089E+04  0.21020355028E+04 0.  0.
        4    1    3    3  502    0 -0.13070846971E+03  0.57110485109E+03  0.39956408858E+03  0.70915338875E+03  0.12699999809E+01 0.  1.
       -4    1    3    3    0  502  0.13070846971E+03 -0.57110485109E+03 -0.16172684426E+04  0.17201175202E+04  0.12699999809E+01 0. -1.
</event>
<event>
 5   0  0.3257130E-05  0.2100029E+04  0.7818609E-02  0.8561230E-01
        2   -1    0    0  501    0  0.00000000000E+00  0.00000000000E+00  0.82805454962E+03  0.82805454963E+03  0.25500000920E-02 0. -1.
       -2   -1    0    0    0  501  0.00000000000E+00  0.00000000000E+00 -0.13314711459E+04  0.13314711459E+04  0.25500000920E-02 0.  1.
    10030    2    1    2    0    0  0.00000000000E+00  0.00000000000E+00 -0.50341659624E+03  0.21595256955E+04  0.21000292760E+04 0.  0.
        3    1    3    3  502    0  0.13386691053E+03 -0.72799043184E+03  0.51413292977E+03  0.90123420833E+03  0.10100000352E+00 0. -1.
       -3    1    3    3    0  502 -0.13386691053E+03  0.72799043184E+03 -0.10175495260E+04  0.12582914872E+04  0.10100000352E+00 0.  1.
</event>
<event>
 5   0  0.1435410E-05  0.2096419E+04  0.7818609E-02  0.8562822E-01
        1   -1    0    0  501    0  0.00000000000E+00  0.00000000000E+00  0.84332561227E+03  0.84332561228E+03  0.50400001928E-02 0.  1.
       -1   -1    0    0    0  501  0.00000000000E+00  0.00000000000E+00 -0.13028697061E+04  0.13028697061E+04  0.50400001928E-02 0. -1.
    10030    2    1    2    0    0  0.00000000000E+00  0.00000000000E+00 -0.45954409386E+03  0.21461953184E+04  0.20964192259E+04 0.  0.
        2    1    3    3  502    0  0.12070905791E+03 -0.10337243602E+04 -0.35758288554E+03  0.11004645608E+04  0.25500000920E-02 0. -1.
       -2    1    3    3    0  502 -0.12070905791E+03  0.10337243602E+04 -0.10196120832E+03  0.10457307576E+04  0.25500000920E-02 0.  1.
</event>
<event>
 5   0  0.3242231E-05  0.2039893E+04  0.7818609E-02  0.8588193E-01
        2   -1    0    0  501    0  0.00000000000E+00  0.00000000000E+00  0.19449584951E+04  0.19449584951E+04  0.25500000920E-02 0. -1.
       -2   -1    0    0    0  501  0.00000000000E+00  0.00000000000E+00 -0.53486526600E+03  0.53486526601E+03  0.25500000920E-02 0.  1.
    10030    2    1    2    0    0  0.00000000000E+00  0.00000000000E+00  0.14100932291E+04  0.24798237611E+04  0.20398928823E+04 0.  0.
        4    1    3    3  502    0  0.13464803458E+03 -0.16517072438E+03 -0.50749958761E+03  0.55042611287E+03  0.12699999809E+01 0.  1.
       -4    1    3    3    0  502 -0.13464803458E+03  0.16517072438E+03  0.19175928167E+04  0.19293976483E+04  0.12699999809E+01 0. -1.
</event>
<event>
 5   0  0.1492552E-05  0.2104449E+04  0.7818609E-02  0.8559286E-01
       -1   -1    0    0    0  501  0.00000000000E+00  0.00000000000E+00  0.61688359193E+03  0.61688359195E+03  0.50400001928E-02 0.  1.
        1   -1    0    0  501    0  0.00000000000E+00  0.00000000000E+00 -0.17947900804E+04  0.17947900804E+04  0.50400001928E-02 0. -1.
    10030    2    1    2    0    0  0.00000000000E+00  0.00000000000E+00 -0.11779064884E+04  0.24116736723E+04  0.21044491456E+04 0.  0.
        4    1    3    3  502    0  0.74161812905E+03  0.26610616507E+03  0.21025740739E+03  0.81548741909E+03  0.12699999809E+01 0.  1.
       -4    1    3    3    0  502 -0.74161812905E+03 -0.26610616507E+03 -0.13881638958E+04  0.15961862532E+04  0.12699999809E+01 0. -1.
</event>
<event>
 5   0  0.1513292E-05  0.2094234E+04  0.7818609E-02  0.8563787E-01
       -1   -1    0    0    0  501  0.00000000000E+00  0.00000000000E+00  0.68403283533E+03  0.68403283535E+03  0.50400001928E-02 0. -1.
        1   -1    0    0  501    0  0.00000000000E+00  0.00000000000E+00 -0.16029266575E+04  0.16029266575E+04  0.50400001928E-02 0.  1.
    10030    2    1    2    0    0  0.00000000000E+00  0.00000000000E+00 -0.91889382217E+03  0.22869594929E+04  0.20942344342E+04 0.  0.
        1    1    3    3  502    0 -0.19132666954E+02  0.22405358262E+03 -0.15762480527E+04  0.15922072699E+04  0.50400001928E-02 0.  1.
       -1    1    3    3    0  502  0.19132666954E+02 -0.22405358262E+03  0.65735423052E+03  0.69475222291E+03  0.50400001928E-02 0. -1.
</event>
<event>
 5   0  0.1453430E-05  0.2093837E+04  0.7818609E-02  0.8563963E-01
        1   -1    0    0  501    0  0.00000000000E+00  0.00000000000E+00  0.24099774549E+04  0.24099774549E+04  0.50400001928E-02 0. -1.
       -1   -1    0    0    0  501  0.00000000000E+00  0.00000000000E+00 -0.45479193013E+03  0.45479193016E+03  0.50400001928E-02 0.  1.
    10030    2    1    2    0    0  0.00000000000E+00  0.00000000000E+00  0.19551855248E+04  0.28647693851E+04  0.20938369548E+04 0.  0.
        5    1    3    3  502    0  0.75473747537E+03  0.12856898755E+03  0.64522848333E+00  0.76562467803E+03  0.46999998093E+01 0. -1.
       -5    1    3    3    0  502 -0.75473747537E+03 -0.12856898755E+03  0.19545402963E+04  0.20991447070E+04  0.46999998093E+01 0.  1.
</event>
<event>
 5   0  0.1466480E-05  0.2101820E+04  0.7818609E-02  0.8560442E-01
       -1   -1    0    0    0  501  0.00000000000E+00  0.00000000000E+00  0.18505147350E+04  0.18505147350E+04  0.50400001928E-02 0. -1.
        1   -1    0    0  501    0  0.00000000000E+00  0.00000000000E+00 -0.59681355557E+03  0.59681355559E+03  0.50400001928E-02 0.  1.
    10030    2    1    2    0    0  0.00000000000E+00  0.00000000000E+00  0.12537011794E+04  0.24473282906E+04  0.21018204287E+04 0.  0.
        3    1    3    3  502    0 -0.31951528383E+03  0.98382529818E+03  0.84284334061E+03  0.13343114857E+04  0.10100000352E+00 0. -1.
       -3    1    3    3    0  502  0.31951528383E+03 -0.98382529818E+03  0.41085783880E+03  0.11130168048E+04  0.10100000352E+00 0.  1.
</event>
<event>
 5   0  0.3279789E-05  0.2103757E+04  0.7818609E-02  0.8559590E-01
        2   -1    0    0  501    0  0.00000000000E+00  0.00000000000E+00  0.19996431664E+04  0.19996431664E+04  0.25500000920E-02 0. -1.
       -2   -1    0    0    0  501  0.00000000000E+00  0.00000000000E+00 -0.55332275343E+03  0.55332275344E+03  0.25500000920E-02 0.  1.
    10030    2    1    2    0    0  0.00000000000E+00  0.00000000000E+00  0.14463204129E+04  0.25529659198E+04  0.21037566995E+04 0.  0.
        2    1    3    3  502    0  0.35269663186E+03  0.61364113539E+02 -0.47712037060E+03  0.59649335001E+03  0.25500000920E-02 0.  1.
       -2    1    3    3    0  502 -0.35269663186E+03 -0.61364113539E+02  0.19234407835E+04  0.19564725698E+04  0.25500000920E-02 0. -1.
</event>
<event>
 5   0  0.1492552E-05  0.2100730E+04  0.7818609E-02  0.8560922E-01
        1   -1    0    0  501    0  0.00000000000E+00  0.00000000000E+00  0.11562915997E+04  0.11562915997E+04  0.50400001928E-02 0. -1.
       -1   -1    0    0    0  501  0.00000000000E+00  0.00000000000E+00 -0.95414217984E+03  0.95414217985E+03  0.50400001928E-02 0.  1.
    10030    2    1    2    0    0  0.00000000000E+00  0.00000000000E+00  0.20214941989E+03  0.21104337796E+04  0.21007299565E+04 0.  0.
        4    1    3    3  502    0 -0.29510716505E+03 -0.53252493679E+03 -0.75879600508E+03  0.97285355393E+03  0.12699999809E+01 0.  1.
       -4    1    3    3    0  502  0.29510716505E+03  0.53252493679E+03  0.96094542497E+03  0.11375802257E+04  0.12699999809E+01 0. -1.
</event>
<event>
 5   0  0.3108326E-05  0.2043772E+04  0.7818609E-02  0.8586425E-01
       -2   -1    0    0    0  501  0.00000000000E+00  0.00000000000E+00  0.56050589654E+03  0.56050589655E+03  0.25500000920E-02 0.  1.
        2   -1    0    0  501    0  0.00000000000E+00  0.00000000000E+00 -0.18630514448E+04  0.18630514448E+04  0.25500000920E-02 0. -1.
    10030    2    1    2    0    0  0.00000000000E+00  0.00000000000E+00 -0.13025455483E+04  0.24235573413E+04  0.20437723165E+04 0.  0.
        5    1    3    3  502    0 -0.54177624579E+03  0.51334408251E+03  0.17641778455E+03  0.76693479009E+03  0.46999998093E+01 0.  1.
       -5    1    3    3    0  502  0.54177624579E+03 -0.51334408251E+03 -0.14789633328E+04  0.16566225513E+04  0.46999998093E+01 0. -1.
</event>
<event>
 5   0  0.3242231E-05  0.2100157E+04  0.7818609E-02  0.8561174E-01
        2   -1    0    0  501    0  0.00000000000E+00  0.00000000000E+00  0.10511991421E+04  0.10511991421E+04  0.25500000920E-02 0. -1.
       -2   -1    0    0    0  501  0.00000000000E+00  0.00000000000E+00 -0.10489594489E+04  0.10489594489E+04  0.25500000920E-02 0.  1.
    10030    2    1    2    0    0  0.00000000000E+00  0.00000000000E+00  0.22396931889E+01  0.21001585910E+04  0.21001573967E+04 0.  0.
        4    1    3    3  502    0 -0.32980317261E+03 -0.99529643810E+03  0.58378306581E+02  0.10501403582E+04  0.12699999809E+01 0. -1.
       -4    1    3    3    0  502  0.32980317261E+03  0.99529643810E+03 -0.56138613392E+02  0.10500182328E+04  0.12699999809E+01 0.  1.
</event>
<event>
 5   0  0.1513292E-05  0.2072093E+04  0.7818609E-02  0.8573637E-01
       -1   -1    0    0    0  501  0.00000000000E+00  0.00000000000E+00  0.15292473358E+04  0.15292473358E+04  0.50400001928E-02 0.  1.
        1   -1    0    0  501    0  0.00000000000E+00  0.00000000000E+00 -0.70190891612E+03  0.70190891614E+03  0.50400001928E-02 0. -1.
    10030    2    1    2    0    0  0.00000000000E+00  0.00000000000E+00  0.82733841972E+03  0.22311562520E+04  0.20720929902E+04 0.  0.
        1    1    3    3  502    0  0.55358208848E+03  0.52450599569E+03 -0.34147419145E+03  0.83556226079E+03  0.50400001928E-02 0. -1.
       -1    1    3    3    0  502 -0.55358208848E+03 -0.52450599569E+03  0.11688126112E+04  0.13955939912E+04  0.50400001928E-02 0.  1.
</event>
<event>
 5   0  0.3108326E-05  0.2100870E+04  0.7818609E-02  0.8560860E-01
        2   -1    0    0  501    0  0.00000000000E+00  0.00000000000E+00  0.90070922484E+03  0.90070922484E+03  0.25500000920E-02 0. -1.
       -2   -1    0    0    0  501  0.00000000000E+00  0.00000000000E+00 -0.12250503078E+04  0.12250503078E+04  0.25500000920E-02 0.  1.
    10030    2    1    2    0    0  0.00000000000E+00  0.00000000000E+00 -0.32434108294E+03  0.21257595326E+04  0.21008704035E+04 0.  0.
        5    1    3    3  502    0 -0.51779471147E+03  0.31431121194E+03 -0.10305270039E+04  0.11953706107E+04  0.46999998093E+01 0.  1.
       -5    1    3    3    0  502  0.51779471147E+03 -0.31431121194E+03  0.70618592092E+03  0.93038892195E+03  0.46999998093E+01 0. -1.
</event>
<event>
 5   0  0.3130517E-05  0.2098953E+04  0.7818609E-02  0.8561705E-01
       -2   -1    0    0    0  501  0.00000000000E+00  0.00000000000E+00  0.15848071089E+04  0.15848071089E+04  0.25500000920E-02 0.  1.
        2   -1    0    0  501    0  0.00000000000E+00  0.00000000000E+00 -0.69497493259E+03  0.69497493259E+03  0.25500000920E-02 0. -1.
    10030    2    1    2    0    0  0.00000000000E+00  0.00000000000E+00  0.88983217630E+03  0.22797820415E+04  0.20989532760E+04 0.  0.
        1    1    3    3  502    0  0.65768047726E+03  0.54290305969E+03  0.11092592403E+04  0.13991938410E+04  0.50400001928E-02 0.  1.
       -1    1    3    3    0  502 -0.65768047726E+03 -0.54290305969E+03 -0.21942706403E+03  0.88058820049E+03  0.50400001928E-02 0. -1.
</event>
<event>
 5   0  0.3257130E-05  0.2063762E+04  0.7818609E-02  0.8577377E-01
       -2   -1    0    0    0  501  0.00000000000E+00  0.00000000000E+00  0.12388293322E+04  0.12388293322E+04  0.25500000920E-02 0. -1.
        2   -1    0    0  501    0  0.00000000000E+00  0.00000000000E+00 -0.85950395051E+03  0.85950395052E+03  0.25500000920E-02 0.  1.
    10030    2    1    2    0    0  0.00000000000E+00  0.00000000000E+00  0.37932538168E+03  0.20983332827E+04  0.20637622974E+04 0.  0.
        3    1    3    3  502    0  0.87580599646E+02  0.40391691183E+03  0.11509953744E+04  0.12229511827E+04  0.10100000352E+00 0. -1.
       -3    1    3    3    0  502 -0.87580599646E+02 -0.40391691183E+03 -0.77166999276E+03  0.87538210001E+03  0.10100000352E+00 0.  1.
</event>
<event>
 5   0  0.1513292E-05  0.2113784E+04  0.7818609E-02  0.8555195E-01
       -1   -1    0    0    0  501  0.00000000000E+00  0.00000000000E+00  0.13065743955E+04  0.13065743956E+04  0.50400001928E-02 0.  1.
        1   -1    0    0  501    0  0.00000000000E+00  0.00000000000E+00 -0.85492345791E+03  0.85492345793E+03  0.50400001928E-02 0. -1.
    10030    2    1    2    0    0  0.00000000000E+00  0.00000000000E+00  0.45165093764E+03  0.21614978535E+04  0.21137843791E+04 0.  0.
        1    1    3    3  502    0  0.13206731673E+03 -0.47127191915E+03  0.11837102163E+04  0.12809015865E+04  0.50400001928E-02 0.  1.
       -1    1    3    3    0  502 -0.13206731673E+03  0.47127191915E+03 -0.73205927870E+03  0.88059626702E+03  0.50400001928E-02 0. -1.
</event>
<event>
 5   0  0.1435410E-05  0.2093177E+04  0.7818609E-02  0.8564255E-01
        1   -1    0    0  501    0  0.00000000000E+00  0.00000000000E+00  0.13522424812E+04  0.13522424813E+04  0.50400001928E-02 0.  1.
       -1   -1    0    0    0  501  0.00000000000E+00  0.00000000000E+00 -0.81002307765E+03  0.81002307766E+03  0.50400001928E-02 0. -1.
    10030    2    1    2    0    0  0.00000000000E+00  0.00000000000E+00  0.54221940360E+03  0.21622655589E+04  0.20931771224E+04 0.  0.
        2    1    3    3  502    0 -0.77032358547E+03 -0.26212947582E+03  0.95104249184E+03  0.12516357736E+04  0.25500000920E-02 0.  1.
       -2    1    3    3    0  502  0.77032358547E+03  0.26212947582E+03 -0.40882308824E+03  0.91062978532E+03  0.25500000920E-02 0. -1.
</event>
<event>
 5   0  0.3130517E-05  0.2090667E+04  0.7818609E-02  0.8565366E-01
        2   -1    0    0  501    0  0.00000000000E+00  0.00000000000E+00  0.71900314101E+03  0.71900314101E+03  0.25500000920E-02 0.  1.
       -2   -1    0    0    0  501  0.00000000000E+00  0.00000000000E+00 -0.15197741824E+04  0.15197741824E+04  0.25500000920E-02 0. -1.
    10030    2    1    2    0    0  0.00000000000E+00  0.00000000000E+00 -0.80077104144E+03  0.22387773235E+04  0.20906672722E+04 0.  0.
        1    1    3    3  502    0  0.10181558942E+04  0.23161642581E+03 -0.45322507587E+03  0.11382884358E+04  0.50400001928E-02 0. -1.
       -1    1    3    3    0  502 -0.10181558942E+04 -0.23161642581E+03 -0.34754596557E+03  0.11004888877E+04  0.50400001928E-02 0.  1.
</event>
<event>
 5   0  0.3257130E-05  0.2111026E+04  0.7818609E-02  0.8556402E-01
        2   -1    0    0  501    0  0.00000000000E+00  0.00000000000E+00  0.76094527416E+03  0.76094527416E+03  0.25500000920E-02 0.  1.
       -2   -1    0    0    0  501  0.00000000000E+00  0.00000000000E+00 -0.14641106002E+04  0.14641106002E+04  0.25500000920E-02 0. -1.
    10030    2    1    2    0    0  0.00000000000E+00  0.00000000000E+00 -0.70316532603E+03  0.22250558744E+04  0.21110263305E+04 0.  0.
        3    1    3    3  502    0 -0.40031192146E+03 -0.72174413298E+03 -0.10451091230E+04  0.13316971567E+04  0.10100000352E+00 0. -1.
       -3    1    3    3    0  502  0.40031192146E+03  0.72174413298E+03  0.34194379696E+03  0.89335871767E+03  0.10100000352E+00 0.  1.
</event>
<event>
 5   0  0.1453430E-05  0.2114857E+04  0.7818609E-02  0.8554727E-01
       -1   -1    0    0    0  501  0.00000000000E+00  0.00000000000E+00  0.13671483845E+04  0.13671483845E+04  0.50400001928E-02 0.  1.
        1   -1    0    0  501    0  0.00000000000E+00  0.00000000000E+00 -0.81787364553E+03  0.81787364555E+03  0.50400001928E-02 0. -1.
    10030    2    1    2    0    0  0.00000000000E+00  0.00000000000E+00  0.54927473900E+03  0.21850220301E+04  0.21148566223E+04 0.  0.
        5    1    3    3  502    0  0.59988314867E+03  0.47887207694E+03 -0.47678472441E+03  0.90361718751E+03  0.46999998093E+01 0. -1.
       -5    1    3    3    0  502 -0.59988314867E+03 -0.47887207694E+03  0.10260594634E+04  0.12814048426E+04  0.46999998093E+01 0.  1.
</event>
<event>
 5   0  0.3257130E-05  0.2102741E+04  0.7818609E-02  0.8560037E-01
       -2   -1    0    0    0  501  0.00000000000E+00  0.00000000000E+00  0.40244342486E+03  0.40244342487E+03  0.25500000920E-02 0.  1.
        2   -1    0    0  501    0  0.00000000000E+00  0.00000000000E+00 -0.27466716163E+04  0.27466716163E+04  0.25500000920E-02 0. -1.
    10030    2    1    2    0    0  0.00000000000E+00  0.00000000000E+00 -0.23442281914E+04  0.31491150411E+04  0.21027410038E+04 0.  0.
        3    1    3    3  502    0  0.28309211455E+03 -0.97598388963E+03 -0.76832675902E+03  0.12739747709E+04  0.10100000352E+00 0.  1.
       -3    1    3    3    0  502 -0.28309211455E+03  0.97598388963E+03 -0.15759014324E+04  0.18751402702E+04  0.10100000352E+00 0. -1.
</event>
<event>
 5   0  0.1492552E-05  0.2098586E+04  0.7818609E-02  0.8561867E-01
        1   -1    0    0  501    0  0.00000000000E+00  0.00000000000E+00  0.10388426669E+04  0.10388426670E+04  0.50400001928E-02 0. -1.
       -1   -1    0    0    0  501  0.00000000000E+00  0.00000000000E+00 -0.10598481418E+04  0.10598481418E+04  0.50400001928E-02 0.  1.
    10030    2    1    2    0    0  0.00000000000E+00  0.00000000000E+00 -0.21005474852E+02  0.20986908088E+04  0.20985856859E+04 0.  0.
        4    1    3    3  502    0  0.27759534266E+03 -0.45178042891E+03 -0.91600329809E+03  0.10584084208E+04  0.12699999809E+01 0.  1.
       -4    1    3    3    0  502 -0.27759534266E+03  0.45178042891E+03  0.89499782324E+03  0.10402823880E+04  0.12699999809E+01 0. -1.
</event>
<event>
 5   0  0.1492552E-05  0.2101847E+04  0.7818609E-02  0.8560430E-01
        1   -1    0    0  501    0  0.00000000000E+00  0.00000000000E+00  0.16123101770E+04  0.16123101770E+04  0.50400001928E-02 0.  1.
       -1   -1    0    0    0  501  0.00000000000E+00  0.00000000000E+00 -0.68500459431E+03  0.68500459432E+03  0.50400001928E-02 0. -1.
    10030    2    1    2    0    0  0.00000000000E+00  0.00000000000E+00  0.92730558268E+03  0.22973147713E+04  0.21018466916E+04 0.  0.
        4    1    3    3  502    0  0.33731745935E+02  0.75975810902E+03  0.12564104258E+04  0.14686520983E+04  0.12699999809E+01 0.  1.
       -4    1    3    3    0  502 -0.33731745935E+02 -0.75975810902E+03 -0.32910484316E+03  0.82866267298E+03  0.12699999809E+01 0. -1.
</event>
<event>
 5   0  0.3257130E-05  0.2128547E+04  0.7818609E-02  0.8548771E-01
       -2   -1    0    0    0  501  0.00000000000E+00  0.00000000000E+00  0.10129796853E+04  0.10129796853E+04  0.25500000920E-02 0. -1.
        2   -1    0    0  501    0  0.00000000000E+00  0.00000000000E+00 -0.11181644795E+04  0.11181644795E+04  0.25500000920E-02 0.  1.
    10030    2    1    2    0    0  0.00000000000E+00  0.00000000000E+00 -0.10518479425E+03  0.21311441648E+04  0.21285468306E+04 0.  0.
        3    1    3    3  502    0  0.50665265433E+03 -0.25732120176E+03  0.84837608279E+03  0.10211038640E+04  0.10100000352E+00 0. -1.
       -3    1    3    3    0  502 -0.50665265433E+03  0.25732120176E+03 -0.95356087704E+03  0.11100403008E+04  0.10100000352E+00 0.  1.
</event>
<event>
 5   0  0.1466480E-05  0.2095594E+04  0.7818609E-02  0.8563187E-01
       -1   -1    0    0    0  501  0.00000000000E+00  0.00000000000E+00  0.63755973699E+03  0.63755973701E+03  0.50400001928E-02 0.  1.
        1   -1    0    0  501    0  0.00000000000E+00  0.00000000000E+00 -0.17220009475E+04  0.17220009475E+04  0.50400001928E-02 0. -1.
    10030    2    1    2    0    0  0.00000000000E+00  0.00000000000E+00 -0.10844412105E+04  0.23595606845E+04  0.20955939217E+04 0.  0.
        3    1    3    3  502    0 -0.68913659602E+03 -0.72864573774E+03 -0.20061641992E+03  0.10227809234E+04  0.10100000352E+00 0. -1.
       -3    1    3    3    0  502  0.68913659602E+03  0.72864573774E+03 -0.88382479055E+03  0.13367797611E+04  0.10100000352E+00 0.  1.
</event>
<event>
 5   0  0.1513292E-05  0.2091811E+04  0.7818609E-02  0.8564859E-01
        1   -1    0    0  501    0  0.00000000000E+00  0.00000000000E+00  0.13122033445E+04  0.13122033445E+04  0.50400001928E-02 0.  1.
       -1   -1    0    0    0  501  0.00000000000E+00  0.00000000000E+00 -0.83365029355E+03  0.83365029357E+03  0.50400001928E-02 0. -1.
    10030    2    1    2    0    0  0.00000000000E+00  0.00000000000E+00  0.47855305094E+03  0.21458536381E+04  0.20918113714E+04 0.  0.
        1    1    3    3  502    0  0.48169653800E+03  0.76380295889E+02  0.11884114509E+04  0.12845961549E+04  0.50400001928E-02 0.  1.
       -1    1    3    3    0  502 -0.48169653800E+03 -0.76380295889E+02 -0.70985840000E+03  0.86125748322E+03  0.50400001928E-02 0. -1.
</event>
<event>
 5   0  0.1492552E-05  0.2104797E+04  0.7818609E-02  0.8559133E-01
        1   -1    0    0  501    0  0.00000000000E+00  0.00000000000E+00  0.14573731146E+04  0.14573731146E+04  0.50400001928E-02 0.  1.
       -1   -1    0    0    0  501  0.00000000000E+00  0.00000000000E+00 -0.75995797388E+03  0.75995797389E+03  0.50400001928E-02 0. -1.
    10030    2    1    2    0    0  0.00000000000E+00  0.00000000000E+00  0.69741514068E+03  0.22173310885E+04  0.21047967307E+04 0.  0.
        4    1    3    3  502    0  0.27123196862E+03 -0.62510922394E+03  0.11935925403E+04  0.13744064492E+04  0.12699999809E+01 0.  1.
       -4    1    3    3    0  502 -0.27123196862E+03  0.62510922394E+03 -0.49617739957E+03  0.84292463922E+03  0.12699999809E+01 0. -1.
</event>
<event>
 5   0  0.3279789E-05  0.2099156E+04  0.7818609E-02  0.8561615E-01
       -2   -1    0    0    0  501  0.00000000000E+00  0.00000000000E+00  0.57578816822E+03  0.57578816822E+03  0.25500000920E-02 0.  1.
        2   -1    0    0  501    0  0.00000000000E+00  0.00000000000E+00 -0.19132271656E+04  0.19132271656E+04  0.25500000920E-02 0. -1.
    10030    2    1    2    0    0  0.00000000000E+00  0.00000000000E+00 -0.13374389974E+04  0.24890153338E+04  0.20991556065E+04 0.  0.
        2    1    3    3  502    0 -0.55446347584E+03 -0.81417722887E+03 -0.10983687670E+04  0.14753739371E+04  0.25500000920E-02 0. -1.
       -2    1    3    3    0  502  0.55446347584E+03  0.81417722887E+03 -0.23907023041E+03  0.10136413967E+04  0.25500000920E-02 0.  1.
</event>
<event>
 5   0  0.3279789E-05  0.2102345E+04  0.7818609E-02  0.8560211E-01
       -2   -1    0    0    0  501  0.00000000000E+00  0.00000000000E+00  0.12830220276E+04  0.12830220276E+04  0.25500000920E-02 0.  1.
        2   -1    0    0  501    0  0.00000000000E+00  0.00000000000E+00 -0.86121951928E+03  0.86121951928E+03  0.25500000920E-02 0. -1.
    10030    2    1    2    0    0  0.00000000000E+00  0.00000000000E+00  0.42180250835E+03  0.21442415469E+04  0.21023449896E+04 0.  0.
        2    1    3    3  502    0 -0.24203377285E+03  0.51676952453E+03  0.11112922087E+04  0.12492403539E+04  0.25500000920E-02 0.  1.
       -2    1    3    3    0  502  0.24203377285E+03 -0.51676952453E+03 -0.68948970033E+03  0.89500119304E+03  0.25500000920E-02 0. -1.
</event>
<event>
 5   0  0.3279789E-05  0.2102059E+04  0.7818609E-02  0.8560337E-01
        2   -1    0    0  501    0  0.00000000000E+00  0.00000000000E+00  0.15750553869E+04  0.15750553869E+04  0.25500000920E-02 0.  1.
       -2   -1    0    0    0  501  0.00000000000E+00  0.00000000000E+00 -0.70134869221E+03  0.70134869222E+03  0.25500000920E-02 0. -1.
    10030    2    1    2    0    0  0.00000000000E+00  0.00000000000E+00  0.87370669473E+03  0.22764040792E+04  0.21020590247E+04 0.  0.
        2    1    3    3  502    0 -0.53773259673E+03 -0.86602333619E+03  0.71403159694E+03  0.12445858290E+04  0.25500000920E-02 0.  1.
       -2    1    3    3    0  502  0.53773259673E+03  0.86602333619E+03  0.15967509779E+03  0.10318182501E+04  0.25500000920E-02 0. -1.
</event>
<event>
 5   0  0.1435410E-05  0.2099433E+04  0.7818609E-02  0.8561493E-01
        1   -1    0    0  501    0  0.00000000000E+00  0.00000000000E+00  0.74441591215E+03  0.74441591216E+03  0.50400001928E-02 0.  1.
       -1   -1    0    0    0  501  0.00000000000E+00  0.00000000000E+00 -0.14802268784E+04  0.14802268784E+04  0.50400001928E-02 0. -1.
    10030    2    1    2    0    0  0.00000000000E+00  0.00000000000E+00 -0.73581096622E+03  0.22246427905E+04  0.20994327252E+04 0.  0.
        2    1    3    3  502    0 -0.13653901933E+03 -0.22256815004E+03 -0.14452654274E+04  0.14686632156E+04  0.25500000920E-02 0. -1.
       -2    1    3    3    0  502  0.13653901933E+03  0.22256815004E+03  0.70945446119E+03  0.75597957493E+03  0.25500000920E-02 0.  1.
</event>
<event>
 5   0  0.1492552E-05  0.2104333E+04  0.7818609E-02  0.8559337E-01
       -1   -1    0    0    0  501  0.00000000000E+00  0.00000000000E+00  0.10867605314E+04  0.10867605314E+04  0.50400001928E-02 0. -1.
        1   -1    0    0  501    0  0.00000000000E+00  0.00000000000E+00 -0.10186740536E+04  0.10186740536E+04  0.50400001928E-02 0.  1.
    10030    2    1    2    0    0  0.00000000000E+00  0.00000000000E+00  0.68086477789E+02  0.21054345850E+04  0.21043333917E+04 0.  0.
        4    1    3    3  502    0  0.25747388556E+03  0.92313809362E+03 -0.40043784956E+03  0.10386668503E+04  0.12699999809E+01 0.  1.
       -4    1    3    3    0  502 -0.25747388556E+03 -0.92313809362E+03  0.46852432735E+03  0.10667677347E+04  0.12699999809E+01 0. -1.
</event>
<event>
 5   0  0.1466480E-05  0.2096255E+04  0.7818609E-02  0.8562895E-01
        1   -1    0    0  501    0  0.00000000000E+00  0.00000000000E+00  0.11933811858E+04  0.11933811858E+04  0.50400001928E-02 0.  1.
       -1   -1    0    0    0  501  0.00000000000E+00  0.00000000000E+00 -0.92055379641E+03  0.92055379643E+03  0.50400001928E-02 0. -1.
    10030    2    1    2    0    0  0.00000000000E+00  0.00000000000E+00  0.27282738934E+03  0.21139349822E+04  0.20962553100E+04 0.  0.
        3    1    3    3  502    0  0.73246441896E+03 -0.37425006827E+03  0.79151113829E+03  0.11415152784E+04  0.10100000352E+00 0.  1.
       -3    1    3    3    0  502 -0.73246441896E+03  0.37425006827E+03 -0.51868374895E+03  0.97241970376E+03  0.10100000352E+00 0. -1.
</event>
<event>
 5   0  0.3108326E-05  0.2091643E+04  0.7818609E-02  0.8564934E-01
        2   -1    0    0  501    0  0.00000000000E+00  0.00000000000E+00  0.17429151273E+04  0.17429151273E+04  0.25500000920E-02 0.  1.
       -2   -1    0    0    0  501  0.00000000000E+00  0.00000000000E+00 -0.62753623837E+03  0.62753623837E+03  0.25500000920E-02 0. -1.
    10030    2    1    2    0    0  0.00000000000E+00  0.00000000000E+00  0.11153788889E+04  0.23704513657E+04  0.20916428020E+04 0.  0.
        5    1    3    3  502    0 -0.54406373465E+03  0.91867800366E+02  0.15645232232E+04  0.16589756014E+04  0.46999998093E+01 0.  1.
       -5    1    3    3    0  502  0.54406373465E+03 -0.91867800366E+02 -0.44914433428E+03  0.71147576426E+03  0.46999998093E+01 0. -1.
</event>
<event>
 5   0  0.1492552E-05  0.2092015E+04  0.7818609E-02  0.8564769E-01
        1   -1    0    0  501    0  0.00000000000E+00  0.00000000000E+00  0.17145193267E+04  0.17145193267E+04  0.50400001928E-02 0. -1.
       -1   -1    0    0    0  501  0.00000000000E+00  0.00000000000E+00 -0.63815681578E+03  0.63815681580E+03  0.50400001928E-02 0.  1.
    10030    2    1    2    0    0  0.00000000000E+00  0.00000000000E+00  0.10763625109E+04  0.23526761425E+04  0.20920154819E+04 0.  0.
        4    1    3    3  502    0 -0.75635306721E+03  0.71623039515E+03  0.43105104520E+03  0.11273254001E+04  0.12699999809E+01 0.  1.
       -4    1    3    3    0  502  0.75635306721E+03 -0.71623039515E+03  0.64531146569E+03  0.12253507424E+04  0.12699999809E+01 0. -1.
</event>
<event>
 5   0  0.3108326E-05  0.2094592E+04  0.7818609E-02  0.8563630E-01
        2   -1    0    0  501    0  0.00000000000E+00  0.00000000000E+00  0.11077309446E+04  0.11077309446E+04  0.25500000920E-02 0.  1.
       -2   -1    0    0    0  501  0.00000000000E+00  0.00000000000E+00 -0.99015786618E+03  0.99015786619E+03  0.25500000920E-02 0. -1.
    10030    2    1    2    0    0  0.00000000000E+00  0.00000000000E+00  0.11757307840E+03  0.20978888108E+04  0.20945916150E+04 0.  0.
        5    1    3    3  502    0  0.53912214601E+03  0.39373493236E+03 -0.74940779680E+03  0.10036503481E+04  0.46999998093E+01 0. -1.
       -5    1    3    3    0  502 -0.53912214601E+03 -0.39373493236E+03  0.86698087520E+03  0.10942384627E+04  0.46999998093E+01 0.  1.
</event>
<event>
 5   0  0.1492552E-05  0.2108327E+04  0.7818609E-02  0.8557584E-01
       -1   -1    0    0    0  501  0.00000000000E+00  0.00000000000E+00  0.10786751481E+04  0.10786751481E+04  0.50400001928E-02 0. -1.
        1   -1    0    0  501    0  0.00000000000E+00  0.00000000000E+00 -0.10302086474E+04  0.10302086474E+04  0.50400001928E-02 0.  1.
    10030    2    1    2    0    0  0.00000000000E+00  0.00000000000E+00  0.48466500670E+02  0.21088837955E+04  0.21083267918E+04 0.  0.
        4    1    3    3  502    0  0.62724779942E+03  0.41695715298E+03  0.76196846310E+03  0.10713965750E+04  0.12699999809E+01 0. -1.
       -4    1    3    3    0  502 -0.62724779942E+03 -0.41695715298E+03 -0.71350196243E+03  0.10374872204E+04  0.12699999809E+01 0.  1.
</event>
<event>
 5   0  0.1453430E-05  0.2108033E+04  0.7818609E-02  0.8557713E-01
       -1   -1    0    0    0  501  0.00000000000E+00  0.00000000000E+00  0.77878932219E+03  0.77878932221E+03  0.50400001928E-02 0. -1.
        1   -1    0    0  501    0  0.00000000000E+00  0.00000000000E+00 -0.14265096651E+04  0.14265096651E+04  0.50400001928E-02 0.  1.
    10030    2    1    2    0    0  0.00000000000E+00  0.00000000000E+00 -0.64772034287E+03  0.22052989873E+04  0.21080327276E+04 0.  0.
        5    1    3    3  502    0  0.15914469699E+03 -0.33324441580E+03  0.70888241747E+03  0.79932174188E+03  0.46999998093E+01 0. -1.
       -5    1    3    3    0  502 -0.15914469699E+03  0.33324441580E+03 -0.13566027603E+04  0.14059772454E+04  0.46999998093E+01 0.  1.
</event>
<event>
 5   0  0.1466480E-05  0.2096776E+04  0.7818609E-02  0.8562665E-01
        1   -1    0    0  501    0  0.00000000000E+00  0.00000000000E+00  0.13372823679E+04  0.13372823679E+04  0.50400001928E-02 0. -1.
       -1   -1    0    0    0  501  0.00000000000E+00  0.00000000000E+00 -0.82190374245E+03  0.82190374246E+03  0.50400001928E-02 0.  1.
    10030    2    1    2    0    0  0.00000000000E+00  0.00000000000E+00  0.51537862549E+03  0.21591861104E+04  0.20967759851E+04 0.  0.
        3    1    3    3  502    0 -0.66966208662E+03 -0.35394217289E+03  0.10041054360E+04  0.12577559814E+04  0.10100000352E+00 0. -1.
       -3    1    3    3    0  502  0.66966208662E+03  0.35394217289E+03 -0.48872681048E+03  0.90143012901E+03  0.10100000352E+00 0.  1.
</event>
<event>
 5   0  0.1466480E-05  0.2099537E+04  0.7818609E-02  0.8561447E-01
       -1   -1    0    0    0  501  0.00000000000E+00  0.00000000000E+00  0.17566262896E+04  0.17566262896E+04  0.50400001928E-02 0. -1.
        1   -1    0    0  501    0  0.00000000000E+00  0.00000000000E+00 -0.62734665908E+03  0.62734665911E+03  0.50400001928E-02 0.  1.
    10030    2    1    2    0    0  0.00000000000E+00  0.00000000000E+00  0.11292796305E+04  0.23839729487E+04  0.20995367433E+04 0.  0.
        3    1    3    3  502    0  0.89797017619E+03  0.54048952855E+03  0.49713622837E+03  0.11600102618E+04  0.10100000352E+00 0. -1.
       -3    1    3    3    0  502 -0.89797017619E+03 -0.54048952855E+03  0.63214340215E+03  0.12239626869E+04  0.10100000352E+00 0.  1.
</event>
<event>
 5   0  0.3242231E-05  0.2106660E+04  0.7818609E-02  0.8558315E-01
       -2   -1    0    0    0  501  0.00000000000E+00  0.00000000000E+00  0.42118146802E+03  0.42118146803E+03  0.25500000920E-02 0.  1.
        2   -1    0    0  501    0  0.00000000000E+00  0.00000000000E+00 -0.26342669131E+04  0.26342669131E+04  0.25500000920E-02 0. -1.
    10030    2    1    2    0    0  0.00000000000E+00  0.00000000000E+00 -0.22130854451E+04  0.30554483811E+04  0.21066603007E+04 0.  0.
        4    1    3    3  502    0  0.20134519772E+02 -0.80702566220E+03 -0.12519788488E+03  0.81692835770E+03  0.12699999809E+01 0.  1.
       -4    1    3    3    0  502 -0.20134519772E+02  0.80702566220E+03 -0.20878875602E+04  0.22385200234E+04  0.12699999809E+01 0. -1.
</event>
<event>
 5   0  0.3279789E-05  0.2097853E+04  0.7818609E-02  0.8562190E-01
       -2   -1    0    0    0  501  0.00000000000E+00  0.00000000000E+00  0.61431295237E+03  0.61431295237E+03  0.25500000920E-02 0.  1.
        2   -1    0    0  501    0  0.00000000000E+00  0.00000000000E+00 -0.17910207307E+04  0.17910207307E+04  0.25500000920E-02 0. -1.
    10030    2    1    2    0    0  0.00000000000E+00  0.00000000000E+00 -0.11767077783E+04  0.24053336830E+04  0.20978534103E+04 0.  0.
        2    1    3    3  502    0  0.72656920122E+03 -0.48011982676E+03  0.82001166154E+02  0.87472398130E+03  0.25500000920E-02 0.  1.
       -2    1    3    3    0  502 -0.72656920122E+03  0.48011982676E+03 -0.12587089445E+04  0.15306097017E+04  0.25500000920E-02 0. -1.
</event>
<event>
 5   0  0.1466480E-05  0.2089506E+04  0.7818609E-02  0.8565880E-01
       -1   -1    0    0    0  501  0.00000000000E+00  0.00000000000E+00  0.68522836267E+03  0.68522836269E+03  0.50400001928E-02 0. -1.
        1   -1    0    0  501    0  0.00000000000E+00  0.00000000000E+00 -0.15929118167E+04  0.15929118167E+04  0.50400001928E-02 0.  1.
    10030    2    1    2    0    0  0.00000000000E+00  0.00000000000E+00 -0.90768345406E+03  0.22781401794E+04  0.20895055454E+04 0.  0.
        3    1    3    3  502    0 -0.56588854468E+03  0.22939094964E+03 -0.13781101937E+04  0.15073280231E+04  0.10100000352E+00 0.  1.
       -3    1    3    3    0  502  0.56588854468E+03 -0.22939094964E+03  0.47042673969E+03  0.77081215637E+03  0.10100000352E+00 0. -1.
</event>
<event>
 5   0  0.3257130E-05  0.2094569E+04  0.7818609E-02  0.8563640E-01
       -2   -1    0    0    0  501  0.00000000000E+00  0.00000000000E+00  0.12947552129E+04  0.12947552129E+04  0.25500000920E-02 0.  1.
        2   -1    0    0  501    0  0.00000000000E+00  0.00000000000E+00 -0.84711372897E+03  0.84711372898E+03  0.25500000920E-02 0. -1.
    10030    2    1    2    0    0  0.00000000000E+00  0.00000000000E+00  0.44764148388E+03  0.21418689418E+04  0.20945690884E+04 0.  0.
        3    1    3    3  502    0 -0.63186213157E+03 -0.36893093632E+03  0.99003787364E+03  0.12310705871E+04  0.10100000352E+00 0.  1.
       -3    1    3    3    0  502  0.63186213157E+03  0.36893093632E+03 -0.54239638976E+03  0.91079835469E+03  0.10100000352E+00 0. -1.
</event>
<event>
 5   0  0.1513292E-05  0.2099060E+04  0.7818609E-02  0.8561658E-01
       -1   -1    0    0    0  501  0.00000000000E+00  0.00000000000E+00  0.43719688603E+03  0.43719688606E+03  0.50400001928E-02 0. -1.
        1   -1    0    0  501    0  0.00000000000E+00  0.00000000000E+00 -0.25194890324E+04  0.25194890324E+04  0.50400001928E-02 0.  1.
    10030    2    1    2    0    0  0.00000000000E+00  0.00000000000E+00 -0.20822921464E+04  0.29566859185E+04  0.20990595603E+04 0.  0.
        1    1    3    3  502    0 -0.51088523271E+02 -0.43637049278E+03 -0.23837223124E+04  0.24238732036E+04  0.50400001928E-02 0.  1.
       -1    1    3    3    0  502  0.51088523271E+02  0.43637049278E+03  0.30143016602E+03  0.53281271493E+03  0.50400001928E-02 0. -1.
</event>
<event>
 5   0  0.1492552E-05  0.2098775E+04  0.7818609E-02  0.8561783E-01
        1   -1    0    0  501    0  0.00000000000E+00  0.00000000000E+00  0.12946752443E+04  0.12946752443E+04  0.50400001928E-02 0. -1.
       -1   -1    0    0    0  501  0.00000000000E+00  0.00000000000E+00 -0.85057136743E+03  0.85057136745E+03  0.50400001928E-02 0.  1.
    10030    2    1    2    0    0  0.00000000000E+00  0.00000000000E+00  0.44410387684E+03  0.21452466117E+04  0.20987745881E+04 0.  0.
        4    1    3    3  502    0  0.51620901944E+03 -0.73704443591E+03  0.77391973012E+03  0.11868696701E+04  0.12699999809E+01 0. -1.
       -4    1    3    3    0  502 -0.51620901944E+03  0.73704443591E+03 -0.32981585327E+03  0.95837694162E+03  0.12699999809E+01 0.  1.
</event>
<event>
 5   0  0.1453430E-05  0.2101206E+04  0.7818609E-02  0.8560712E-01
       -1   -1    0    0    0  501  0.00000000000E+00  0.00000000000E+00  0.59708098495E+03  0.59708098497E+03  0.50400001928E-02 0. -1.
        1   -1    0    0  501    0  0.00000000000E+00  0.00000000000E+00 -0.18486052546E+04  0.18486052546E+04  0.50400001928E-02 0.  1.
    10030    2    1    2    0    0  0.00000000000E+00  0.00000000000E+00 -0.12515242697E+04  0.24456862396E+04  0.21012063642E+04 0.  0.
        5    1    3    3  502    0 -0.54342861146E+03 -0.98048403551E+02 -0.16660550254E+04  0.17551893296E+04  0.46999998093E+01 0.  1.
       -5    1    3    3    0  502  0.54342861146E+03  0.98048403551E+02  0.41453075575E+03  0.69049690995E+03  0.46999998093E+01 0. -1.
</event>
<event>
 5   0  0.3257130E-05  0.2106627E+04  0.7818609E-02  0.8558330E-01
        2   -1    0    0  501    0  0.00000000000E+00  0.00000000000E+00  0.76085890242E+03  0.76085890243E+03  0.25500000920E-02 0. -1.
       -2   -1    0    0    0  501  0.00000000000E+00  0.00000000000E+00 -0.14581807291E+04  0.14581807291E+04  0.25500000920E-02 0.  1.
    10030    2    1    2    0    0  0.00000000000E+00  0.00000000000E+00 -0.69732182666E+03  0.22190396315E+04  0.21066274365E+04 0.  0.
        3    1    3    3  502    0  0.89487567895E+02 -0.87888477601E+03  0.25555290391E+03  0.91964872163E+03  0.10100000352E+00 0. -1.
       -3    1    3    3    0  502 -0.89487567895E+02  0.87888477601E+03 -0.95287473057E+03  0.12993909099E+04  0.10100000352E+00 0.  1.
</event>
<event>
 5   0  0.1513292E-05  0.2102184E+04  0.7818609E-02  0.8560282E-01
       -1   -1    0    0    0  501  0.00000000000E+00  0.00000000000E+00  0.52445322549E+03  0.52445322551E+03  0.50400001928E-02 0.  1.
        1   -1    0    0  501    0  0.00000000000E+00  0.00000000000E+00 -0.21065632675E+04  0.21065632675E+04  0.50400001928E-02 0. -1.
    10030    2    1    2    0    0  0.00000000000E+00  0.00000000000E+00 -0.15821100420E+04  0.26310164930E+04  0.21021835318E+04 0.  0.
        1    1    3    3  502    0  0.69375234770E+03  0.74300264909E+03 -0.11255964719E+04  0.15166781709E+04  0.50400001928E-02 0. -1.
       -1    1    3    3    0  502 -0.69375234770E+03 -0.74300264909E+03 -0.45651357018E+03  0.11143383222E+04  0.50400001928E-02 0.  1.
</event>
<event>
 5   0  0.3130517E-05  0.2110843E+04  0.7818609E-02  0.8556482E-01
       -2   -1    0    0    0  501  0.00000000000E+00  0.00000000000E+00  0.10066687648E+04  0.10066687648E+04  0.25500000920E-02 0. -1.
        2   -1    0    0  501    0  0.00000000000E+00  0.00000000000E+00 -0.11065355676E+04  0.11065355676E+04  0.25500000920E-02 0.  1.
    10030    2    1    2    0    0  0.00000000000E+00  0.00000000000E+00 -0.99866802776E+02  0.21132043324E+04  0.21108432372E+04 0.  0.
        1    1    3    3  502    0  0.26440153993E+02 -0.65374653200E+03 -0.87900898397E+03  0.10957830094E+04  0.50400001928E-02 0.  1.
       -1    1    3    3    0  502 -0.26440153993E+02  0.65374653200E+03  0.77914218119E+03  0.10174213229E+04  0.50400001928E-02 0. -1.
</event>
<event>
 5   0  0.1492552E-05  0.2115686E+04  0.7818609E-02  0.8554365E-01
       -1   -1    0    0    0  501  0.00000000000E+00  0.00000000000E+00  0.64928715673E+03  0.64928715675E+03  0.50400001928E-02 0.  1.
        1   -1    0    0  501    0  0.00000000000E+00  0.00000000000E+00 -0.17234779167E+04  0.17234779167E+04  0.50400001928E-02 0. -1.
    10030    2    1    2    0    0  0.00000000000E+00  0.00000000000E+00 -0.10741907599E+04  0.23727650734E+04  0.21156862492E+04 0.  0.
        4    1    3    3  502    0  0.86946719360E+03  0.12886095804E+03  0.12302795757E+03  0.88753357035E+03  0.12699999809E+01 0.  1.
       -4    1    3    3    0  502 -0.86946719360E+03 -0.12886095804E+03 -0.11972187175E+04  0.14852315031E+04  0.12699999809E+01 0. -1.
</event>
<event>
 5   0  0.1453430E-05  0.2101041E+04  0.7818609E-02  0.8560785E-01
        1   -1    0    0  501    0  0.00000000000E+00  0.00000000000E+00  0.15903367538E+04  0.15903367538E+04  0.50400001928E-02 0. -1.
       -1   -1    0    0    0  501  0.00000000000E+00  0.00000000000E+00 -0.69393669011E+03  0.69393669013E+03  0.50400001928E-02 0.  1.
    10030    2    1    2    0    0  0.00000000000E+00  0.00000000000E+00  0.89640006371E+03  0.22842734440E+04  0.21010407165E+04 0.  0.
        5    1    3    3  502    0  0.21594711688E+03  0.85477868037E+03 -0.17283527559E+03  0.89842855708E+03  0.46999998093E+01 0.  1.
       -5    1    3    3    0  502 -0.21594711688E+03 -0.85477868037E+03  0.10692353393E+04  0.13858448869E+04  0.46999998093E+01 0. -1.
</event>
<event>
 5   0  0.1435410E-05  0.2097333E+04  0.7818609E-02  0.8562419E-01
       -1   -1    0    0    0  501  0.00000000000E+00  0.00000000000E+00  0.80708384661E+03  0.80708384662E+03  0.50400001928E-02 0. -1.
        1   -1    0    0  501    0  0.00000000000E+00  0.00000000000E+00 -0.13625620917E+04  0.13625620917E+04  0.50400001928E-02 0.  1.
    10030    2    1    2    0    0  0.00000000000E+00  0.00000000000E+00 -0.55547824511E+03  0.21696459383E+04  0.20973334063E+04 0.  0.
        2    1    3    3  502    0  0.31003476702E+03 -0.62993981254E+02 -0.13120167631E+04  0.13496213487E+04  0.25500000920E-02 0.  1.
       -2    1    3    3    0  502 -0.31003476702E+03  0.62993981254E+02  0.75653851794E+03  0.82002458961E+03  0.25500000920E-02 0. -1.
</event>
<event>
 5   0  0.1435410E-05  0.2100360E+04  0.7818609E-02  0.8561085E-01
        1   -1    0    0  501    0  0.00000000000E+00  0.00000000000E+00  0.14420344046E+04  0.14420344046E+04  0.50400001928E-02 0. -1.
       -1   -1    0    0    0  501  0.00000000000E+00  0.00000000000E+00 -0.76480726155E+03  0.76480726157E+03  0.50400001928E-02 0.  1.
    10030    2    1    2    0    0  0.00000000000E+00  0.00000000000E+00  0.67722714307E+03  0.22068416662E+04  0.21003603349E+04 0.  0.
        2    1    3    3  502    0 -0.67615878403E+03 -0.64975601510E+03  0.83534403796E+03  0.12558555817E+04  0.25500000920E-02 0. -1.
       -2    1    3    3    0  502  0.67615878403E+03  0.64975601510E+03 -0.15811689490E+03  0.95098608446E+03  0.25500000920E-02 0.  1.
</event>
<event>
 5   0  0.1453430E-05  0.2089516E+04  0.7818609E-02  0.8565876E-01
       -1   -1    0    0    0  501  0.00000000000E+00  0.00000000000E+00  0.10210140731E+04  0.10210140731E+04  0.50400001928E-02 0. -1.
        1   -1    0    0  501    0  0.00000000000E+00  0.00000000000E+00 -0.10690545537E+04  0.10690545537E+04  0.50400001928E-02 0.  1.
    10030    2    1    2    0    0  0.00000000000E+00  0.00000000000E+00 -0.48040480620E+02  0.20900686269E+04  0.20895164458E+04 0.  0.
        5    1    3    3  502    0 -0.20369194452E+03  0.63697799141E+03 -0.82689435279E+03  0.10634884722E+04  0.46999998093E+01 0.  1.
       -5    1    3    3    0  502  0.20369194452E+03 -0.63697799141E+03  0.77885387217E+03  0.10265801547E+04  0.46999998093E+01 0. -1.
</event>
<event>
 5   0  0.3279789E-05  0.2107733E+04  0.7818609E-02  0.8557844E-01
       -2   -1    0    0    0  501  0.00000000000E+00  0.00000000000E+00  0.12172717023E+04  0.12172717023E+04  0.25500000920E-02 0. -1.
        2   -1    0    0  501    0  0.00000000000E+00  0.00000000000E+00 -0.91239680130E+03  0.91239680131E+03  0.25500000920E-02 0.  1.
    10030    2    1    2    0    0  0.00000000000E+00  0.00000000000E+00  0.30487490098E+03  0.21296685036E+04  0.21077331970E+04 0.  0.
        2    1    3    3  502    0  0.34722715891E+03  0.35648273538E+03 -0.78620197676E+03  0.93046235215E+03  0.25500000920E-02 0.  1.
       -2    1    3    3    0  502 -0.34722715891E+03 -0.35648273538E+03  0.10910768777E+04  0.11992061514E+04  0.25500000920E-02 0. -1.
</event>
<event>
 5   0  0.1513292E-05  0.2043694E+04  0.7818609E-02  0.8586460E-01
        1   -1    0    0  501    0  0.00000000000E+00  0.00000000000E+00  0.11755191183E+04  0.11755191183E+04  0.50400001928E-02 0. -1.
       -1   -1    0    0    0  501  0.00000000000E+00  0.00000000000E+00 -0.88826430967E+03  0.88826430969E+03  0.50400001928E-02 0.  1.
    10030    2    1    2    0    0  0.00000000000E+00  0.00000000000E+00  0.28725480862E+03  0.20637834280E+04  0.20436943785E+04 0.  0.
        1    1    3    3  502    0 -0.21797485083E+03 -0.66569081454E+03 -0.60767127476E+03  0.92731961823E+03  0.50400001928E-02 0.  1.
       -1    1    3    3    0  502  0.21797485083E+03  0.66569081454E+03  0.89492608338E+03  0.11364638098E+04  0.50400001928E-02 0. -1.
</event>
<event>
 5   0  0.1513292E-05  0.2101673E+04  0.7818609E-02  0.8560507E-01
        1   -1    0    0  501    0  0.00000000000E+00  0.00000000000E+00  0.12292363291E+04  0.12292363292E+04  0.50400001928E-02 0. -1.
       -1   -1    0    0    0  501  0.00000000000E+00  0.00000000000E+00 -0.89832768990E+03  0.89832768992E+03  0.50400001928E-02 0.  1.
    10030    2    1    2    0    0  0.00000000000E+00  0.00000000000E+00  0.33090863925E+03  0.21275640191E+04  0.21016726976E+04 0.  0.
        1    1    3    3  502    0  0.10041480493E+04  0.13715453724E+03  0.44660288006E+03  0.11075101826E+04  0.50400001928E-02 0. -1.
       -1    1    3    3    0  502 -0.10041480493E+04 -0.13715453724E+03 -0.11569424081E+03  0.10200538365E+04  0.50400001928E-02 0.  1.
</event>
<event>
 5   0  0.1513292E-05  0.2107027E+04  0.7818609E-02  0.8558154E-01
        1   -1    0    0  501    0  0.00000000000E+00  0.00000000000E+00  0.10363853234E+04  0.10363853234E+04  0.50400001928E-02 0. -1.
       -1   -1    0    0    0  501  0.00000000000E+00  0.00000000000E+00 -0.10709248029E+04  0.10709248029E+04  0.50400001928E-02 0.  1.
    10030    2    1    2    0    0  0.00000000000E+00  0.00000000000E+00 -0.34539479447E+02  0.21073101263E+04  0.21070270508E+04 0.  0.
        1    1    3    3  502    0  0.70135331356E+03  0.24559239972E+03  0.72960943881E+03  0.10414134772E+04  0.50400001928E-02 0. -1.
       -1    1    3    3    0  502 -0.70135331356E+03 -0.24559239972E+03 -0.76414891826E+03  0.10658966491E+04  0.50400001928E-02 0.  1.
</event>
<event>
 5   0  0.3242231E-05  0.2099524E+04  0.7818609E-02  0.8561453E-01
        2   -1    0    0  501    0  0.00000000000E+00  0.00000000000E+00  0.12807650480E+04  0.12807650480E+04  0.25500000920E-02 0.  1.
       -2   -1    0    0    0  501  0.00000000000E+00  0.00000000000E+00 -0.86042338603E+03  0.86042338603E+03  0.25500000920E-02 0. -1.
    10030    2    1    2    0    0  0.00000000000E+00  0.00000000000E+00  0.42034166197E+03  0.21411884340E+04  0.20995239454E+04 0.  0.
        4    1    3    3  502    0 -0.40283552296E+03 -0.10068243964E+03 -0.77311244119E+03  0.87756359988E+03  0.12699999809E+01 0. -1.
       -4    1    3    3    0  502  0.40283552296E+03  0.10068243964E+03  0.11934541032E+04  0.12636248341E+04  0.12699999809E+01 0.  1.
</event>
<event>
 5   0  0.1466480E-05  0.2101068E+04  0.7818609E-02  0.8560773E-01
        1   -1    0    0  501    0  0.00000000000E+00  0.00000000000E+00  0.12046309025E+04  0.12046309025E+04  0.50400001928E-02 0.  1.
       -1   -1    0    0    0  501  0.00000000000E+00  0.00000000000E+00 -0.91614885788E+03  0.91614885789E+03  0.50400001928E-02 0. -1.
    10030    2    1    2    0    0  0.00000000000E+00  0.00000000000E+00  0.28848204462E+03  0.21207797604E+04  0.21010675625E+04 0.  0.
        3    1    3    3  502    0  0.98464498291E+03 -0.35687914810E+03  0.61417883225E+02  0.10491237464E+04  0.10100000352E+00 0.  1.
       -3    1    3    3    0  502 -0.98464498291E+03  0.35687914810E+03  0.22706416139E+03  0.10716560140E+04  0.10100000352E+00 0. -1.
</event>
<event>
 5   0  0.3242231E-05  0.2088383E+04  0.7818609E-02  0.8566378E-01
       -2   -1    0    0    0  501  0.00000000000E+00  0.00000000000E+00  0.77029343474E+03  0.77029343474E+03  0.25500000920E-02 0. -1.
        2   -1    0    0  501    0  0.00000000000E+00  0.00000000000E+00 -0.14154812909E+04  0.14154812909E+04  0.25500000920E-02 0.  1.
    10030    2    1    2    0    0  0.00000000000E+00  0.00000000000E+00 -0.64518785615E+03  0.21857747256E+04  0.20883830543E+04 0.  0.
        4    1    3    3  502    0  0.97038103730E+03  0.32816127971E+03 -0.53453466434E+03  0.11554471443E+04  0.12699999809E+01 0.  1.
       -4    1    3    3    0  502 -0.97038103730E+03 -0.32816127971E+03 -0.11065319182E+03  0.10303275813E+04  0.12699999809E+01 0. -1.
</event>
<event>
 5   0  0.3257130E-05  0.1970903E+04  0.7818609E-02  0.8620347E-01
       -2   -1    0    0    0  501  0.00000000000E+00  0.00000000000E+00  0.10198334851E+04  0.10198334851E+04  0.25500000920E-02 0. -1.
        2   -1    0    0  501    0  0.00000000000E+00  0.00000000000E+00 -0.95222874296E+03  0.95222874296E+03  0.25500000920E-02 0.  1.
    10030    2    1    2    0    0  0.00000000000E+00  0.00000000000E+00  0.67604742155E+02  0.19720622281E+04  0.19709031002E+04 0.  0.
        3    1    3    3  502    0  0.83910049024E+03  0.50157513667E+03  0.15816342702E+03  0.99029436547E+03  0.10100000352E+00 0. -1.
       -3    1    3    3    0  502 -0.83910049024E+03 -0.50157513667E+03 -0.90558684864E+02  0.98176786261E+03  0.10100000352E+00 0.  1.
</event>
<event>
 5   0  0.3130517E-05  0.2096781E+04  0.7818609E-02  0.8562663E-01
       -2   -1    0    0    0  501  0.00000000000E+00  0.00000000000E+00  0.59224589758E+03  0.59224589758E+03  0.25500000920E-02 0.  1.
        2   -1    0    0  501    0  0.00000000000E+00  0.00000000000E+00 -0.18558552263E+04  0.18558552263E+04  0.25500000920E-02 0. -1.
    10030    2    1    2    0    0  0.00000000000E+00  0.00000000000E+00 -0.12636093287E+04  0.24481011238E+04  0.20967810036E+04 0.  0.
        1    1    3    3  502    0 -0.18212231124E+03  0.95032788955E+03 -0.16067023918E+03  0.98087030728E+03  0.50400001928E-02 0.  1.
       -1    1    3    3    0  502  0.18212231124E+03 -0.95032788955E+03 -0.11029390895E+04  0.14672308166E+04  0.50400001928E-02 0. -1.
</event>
<event>
 5   0  0.3242231E-05  0.2103094E+04  0.7818609E-02  0.8559882E-01
       -2   -1    0    0    0  501  0.00000000000E+00  0.00000000000E+00  0.14227565918E+04  0.14227565918E+04  0.25500000920E-02 0.  1.
        2   -1    0    0  501    0  0.00000000000E+00  0.00000000000E+00 -0.77718933593E+03  0.77718933594E+03  0.25500000920E-02 0. -1.
    10030    2    1    2    0    0  0.00000000000E+00  0.00000000000E+00  0.64556725589E+03  0.21999459278E+04  0.21030941499E+04 0.  0.
        4    1    3    3  502    0  0.11131062708E+02 -0.34819184611E+03 -0.71507090225E+03  0.79541779613E+03  0.12699999809E+01 0. -1.
       -4    1    3    3    0  502 -0.11131062708E+02  0.34819184611E+03  0.13606381581E+04  0.14045281316E+04  0.12699999809E+01 0.  1.
</event>
<event>
 5   0  0.1466480E-05  0.2107030E+04  0.7818609E-02  0.8558153E-01
        1   -1    0    0  501    0  0.00000000000E+00  0.00000000000E+00  0.18765453972E+04  0.18765453972E+04  0.50400001928E-02 0. -1.
       -1   -1    0    0    0  501  0.00000000000E+00  0.00000000000E+00 -0.59145603306E+03  0.59145603308E+03  0.50400001928E-02 0.  1.
    10030    2    1    2    0    0  0.00000000000E+00  0.00000000000E+00  0.12850893641E+04  0.24680014302E+04  0.21070302290E+04 0.  0.
        3    1    3    3  502    0  0.88005694921E+03  0.57774879199E+03  0.59568926088E+03  0.12096030780E+04  0.10100000352E+00 0. -1.
       -3    1    3    3    0  502 -0.88005694921E+03 -0.57774879199E+03  0.68940010321E+03  0.12583983523E+04  0.10100000352E+00 0.  1.
</event>
<event>
 5   0  0.3257130E-05  0.2111470E+04  0.7818609E-02  0.8556208E-01
       -2   -1    0    0    0  501  0.00000000000E+00  0.00000000000E+00  0.83229577670E+03  0.83229577670E+03  0.25500000920E-02 0.  1.
        2   -1    0    0  501    0  0.00000000000E+00  0.00000000000E+00 -0.13391589382E+04  0.13391589382E+04  0.25500000920E-02 0. -1.
    10030    2    1    2    0    0  0.00000000000E+00  0.00000000000E+00 -0.50686316146E+03  0.21714547149E+04  0.21114699416E+04 0.  0.
        3    1    3    3  502    0  0.58064792602E+02  0.52563799891E+03  0.68626051278E+03  0.86638347609E+03  0.10100000352E+00 0.  1.
       -3    1    3    3    0  502 -0.58064792602E+02 -0.52563799891E+03 -0.11931236742E+04  0.13050712388E+04  0.10100000352E+00 0. -1.
</event>
<event>
 5   0  0.1466480E-05  0.2098036E+04  0.7818609E-02  0.8562109E-01
        1   -1    0    0  501    0  0.00000000000E+00  0.00000000000E+00  0.10949704252E+04  0.10949704252E+04  0.50400001928E-02 0.  1.
       -1   -1    0    0    0  501  0.00000000000E+00  0.00000000000E+00 -0.10049944355E+04  0.10049944355E+04  0.50400001928E-02 0. -1.
    10030    2    1    2    0    0  0.00000000000E+00  0.00000000000E+00  0.89975989688E+02  0.20999648607E+04  0.20980364004E+04 0.  0.
        3    1    3    3  502    0  0.44661311079E+03 -0.91123284436E+03  0.31099647227E+03  0.10613799430E+04  0.10100000352E+00 0.  1.
       -3    1    3    3    0  502 -0.44661311079E+03  0.91123284436E+03 -0.22102048258E+03  0.10385849177E+04  0.10100000352E+00 0. -1.
</event>
<event>
 5   0  0.3242231E-05  0.2125273E+04  0.7818609E-02  0.8550192E-01
        2   -1    0    0  501    0  0.00000000000E+00  0.00000000000E+00  0.24100398409E+04  0.24100398409E+04  0.25500000920E-02 0. -1.
       -2   -1    0    0    0  501  0.00000000000E+00  0.00000000000E+00 -0.46853831370E+03  0.46853831370E+03  0.25500000920E-02 0.  1.
    10030    2    1    2    0    0  0.00000000000E+00  0.00000000000E+00  0.19415015272E+04  0.28785781546E+04  0.21252726912E+04 0.  0.
        4    1    3    3  502    0  0.80585492711E+03  0.69213410448E+03  0.93384083826E+03  0.14143946077E+04  0.12699999809E+01 0. -1.
       -4    1    3    3    0  502 -0.80585492711E+03 -0.69213410448E+03  0.10076606889E+04  0.14641835469E+04  0.12699999809E+01 0.  1.
</event>
<event>
 5   0  0.3279789E-05  0.2088445E+04  0.7818609E-02  0.8566351E-01
        2   -1    0    0  501    0  0.00000000000E+00  0.00000000000E+00  0.97000193249E+03  0.97000193250E+03  0.25500000920E-02 0.  1.
       -2   -1    0    0    0  501  0.00000000000E+00  0.00000000000E+00 -0.11241219107E+04  0.11241219107E+04  0.25500000920E-02 0. -1.
    10030    2    1    2    0    0  0.00000000000E+00  0.00000000000E+00 -0.15411997822E+03  0.20941238432E+04  0.20884448049E+04 0.  0.
        2    1    3    3  502    0 -0.14275810477E+03 -0.39095045768E+03 -0.10373584717E+04  0.11177364339E+04  0.25500000920E-02 0. -1.
       -2    1    3    3    0  502  0.14275810477E+03  0.39095045768E+03  0.88323849344E+03  0.97638740935E+03  0.25500000920E-02 0.  1.
</event>
<event>
 5   0  0.3130517E-05  0.2103869E+04  0.7818609E-02  0.8559541E-01
       -2   -1    0    0    0  501  0.00000000000E+00  0.00000000000E+00  0.11995477645E+04  0.11995477645E+04  0.25500000920E-02 0. -1.
        2   -1    0    0  501    0  0.00000000000E+00  0.00000000000E+00 -0.92248581782E+03  0.92248581782E+03  0.25500000920E-02 0.  1.
    10030    2    1    2    0    0  0.00000000000E+00  0.00000000000E+00  0.27706194666E+03  0.21220335823E+04  0.21038686276E+04 0.  0.
        1    1    3    3  502    0  0.31644264774E+01 -0.45589197641E+03  0.10947236777E+04  0.11858614752E+04  0.50400001928E-02 0. -1.
       -1    1    3    3    0  502 -0.31644264774E+01  0.45589197641E+03 -0.81766173103E+03  0.93617210713E+03  0.50400001928E-02 0.  1.
</event>
<event>
 5   0  0.3257130E-05  0.2117215E+04  0.7818609E-02  0.8553698E-01
        2   -1    0    0  501    0  0.00000000000E+00  0.00000000000E+00  0.11993960354E+04  0.11993960354E+04  0.25500000920E-02 0. -1.
       -2   -1    0    0    0  501  0.00000000000E+00  0.00000000000E+00 -0.93434518341E+03  0.93434518341E+03  0.25500000920E-02 0.  1.
    10030    2    1    2    0    0  0.00000000000E+00  0.00000000000E+00  0.26505085195E+03  0.21337412188E+04  0.21172150657E+04 0.  0.
        3    1    3    3  502    0 -0.20696324783E+03  0.99757298947E+02  0.11739668901E+04  0.11962372565E+04  0.10100000352E+00 0. -1.
       -3    1    3    3    0  502  0.20696324783E+03 -0.99757298947E+02 -0.90891603814E+03  0.93750396225E+03  0.10100000352E+00 0.  1.
</event>
<event>
 5   0  0.3279789E-05  0.2013690E+04  0.7818609E-02  0.8600247E-01
        2   -1    0    0  501    0  0.00000000000E+00  0.00000000000E+00  0.17693943569E+04  0.17693943569E+04  0.25500000920E-02 0. -1.
       -2   -1    0    0    0  501  0.00000000000E+00  0.00000000000E+00 -0.57292881640E+03  0.57292881641E+03  0.25500000920E-02 0.  1.
    10030    2    1    2    0    0  0.00000000000E+00  0.00000000000E+00  0.11964655405E+04  0.23423231733E+04  0.20136901596E+04 0.  0.
        2    1    3    3  502    0  0.11303534237E+02  0.50023080634E+03  0.16145378510E+04  0.16902931999E+04  0.25500000920E-02 0. -1.
       -2    1    3    3    0  502 -0.11303534237E+02 -0.50023080634E+03 -0.41807231043E+03  0.65202997343E+03  0.25500000920E-02 0.  1.
</event>
<event>
 5   0  0.1435410E-05  0.2107643E+04  0.7818609E-02  0.8557884E-01
       -1   -1    0    0    0  501  0.00000000000E+00  0.00000000000E+00  0.97900194613E+03  0.97900194614E+03  0.50400001928E-02 0. -1.
        1   -1    0    0  501    0  0.00000000000E+00  0.00000000000E+00 -0.11343594168E+04  0.11343594168E+04  0.50400001928E-02 0.  1.
    10030    2    1    2    0    0  0.00000000000E+00  0.00000000000E+00 -0.15535747065E+03  0.21133613629E+04  0.21076433063E+04 0.  0.
        2    1    3    3  502    0  0.26552543555E+03  0.68041357046E+02 -0.10979887133E+04  0.11316857328E+04  0.25500000920E-02 0.  1.
       -2    1    3    3    0  502 -0.26552543555E+03 -0.68041357046E+02  0.94263124266E+03  0.98167563016E+03  0.25500000920E-02 0. -1.
</event>
<event>
 5   0  0.1435410E-05  0.2098979E+04  0.7818609E-02  0.8561693E-01
       -1   -1    0    0    0  501  0.00000000000E+00  0.00000000000E+00  0.10631460554E+04  0.10631460554E+04  0.50400001928E-02 0.  1.
        1   -1    0    0  501    0  0.00000000000E+00  0.00000000000E+00 -0.10360080577E+04  0.10360080577E+04  0.50400001928E-02 0. -1.
    10030    2    1    2    0    0  0.00000000000E+00  0.00000000000E+00  0.27137997722E+02  0.20991541131E+04  0.20989786848E+04 0.  0.
        2    1    3    3  502    0  0.10044278856E+04 -0.23802085576E+03 -0.17591602855E+03  0.10471273821E+04  0.25500000920E-02 0.  1.
       -2    1    3    3    0  502 -0.10044278856E+04  0.23802085576E+03  0.20305402627E+03  0.10520267310E+04  0.25500000920E-02 0. -1.
</event>
<event>
 5   0  0.1492552E-05  0.2099067E+04  0.7818609E-02  0.8561654E-01
        1   -1    0    0  501    0  0.00000000000E+00  0.00000000000E+00  0.79923595135E+03  0.79923595136E+03  0.50400001928E-02 0.  1.
       -1   -1    0    0    0  501  0.00000000000E+00  0.00000000000E+00 -0.13782171757E+04  0.13782171757E+04  0.50400001928E-02 0. -1.
    10030    2    1    2    0    0  0.00000000000E+00  0.00000000000E+00 -0.57898122434E+03  0.21774531271E+04  0.20990671410E+04 0.  0.
        4    1    3    3  502    0 -0.77318280735E+03  0.33261770601E+03  0.36087720448E+03  0.91579482503E+03  0.12699999809E+01 0.  1.
       -4    1    3    3    0  502  0.77318280735E+03 -0.33261770601E+03 -0.93985842882E+03  0.12616583020E+04  0.12699999809E+01 0. -1.
</event>
<event>
 5   0  0.1453430E-05  0.2107064E+04  0.7818609E-02  0.8558138E-01
       -1   -1    0    0    0  501  0.00000000000E+00  0.00000000000E+00  0.10978501449E+04  0.10978501449E+04  0.50400001928E-02 0. -1.
        1   -1    0    0  501    0  0.00000000000E+00  0.00000000000E+00 -0.10110033375E+04  0.10110033375E+04  0.50400001928E-02 0.  1.
    10030    2    1    2    0    0  0.00000000000E+00  0.00000000000E+00  0.86846807382E+02  0.21088534824E+04  0.21070644608E+04 0.  0.
        5    1    3    3  502    0 -0.68382578111E+03  0.38543342726E+03  0.74668026625E+03  0.10833882664E+04  0.46999998093E+01 0. -1.
       -5    1    3    3    0  502  0.68382578111E+03 -0.38543342726E+03 -0.65983345887E+03  0.10254652160E+04  0.46999998093E+01 0.  1.
</event>
<event>
 5   0  0.1453430E-05  0.2102146E+04  0.7818609E-02  0.8560299E-01
        1   -1    0    0  501    0  0.00000000000E+00  0.00000000000E+00  0.56850756778E+03  0.56850756780E+03  0.50400001928E-02 0. -1.
       -1   -1    0    0    0  501  0.00000000000E+00  0.00000000000E+00 -0.19432531994E+04  0.19432531994E+04  0.50400001928E-02 0.  1.
    10030    2    1    2    0    0  0.00000000000E+00  0.00000000000E+00 -0.13747456316E+04  0.25117607672E+04  0.21021457133E+04 0.  0.
        5    1    3    3  502    0 -0.43266994760E+03  0.95419645660E+03 -0.58713376139E+03  0.12010171960E+04  0.46999998093E+01 0. -1.
       -5    1    3    3    0  502  0.43266994760E+03 -0.95419645660E+03 -0.78761187025E+03  0.13107435712E+04  0.46999998093E+01 0.  1.
</event>
<event>
 5   0  0.3257130E-05  0.2101056E+04  0.7818609E-02  0.8560778E-01
       -2   -1    0    0    0  501  0.00000000000E+00  0.00000000000E+00  0.62592446884E+03  0.62592446884E+03  0.25500000920E-02 0. -1.
        2   -1    0    0  501    0  0.00000000000E+00  0.00000000000E+00 -0.17631669423E+04  0.17631669423E+04  0.25500000920E-02 0.  1.
    10030    2    1    2    0    0  0.00000000000E+00  0.00000000000E+00 -0.11372424735E+04  0.23890914112E+04  0.21010562409E+04 0.  0.
        3    1    3    3  502    0  0.63358209202E+03  0.70702227010E+03 -0.57179951583E+02  0.95109216945E+03  0.10100000352E+00 0. -1.
       -3    1    3    3    0  502 -0.63358209202E+03 -0.70702227010E+03 -0.10800625219E+04  0.14379992417E+04  0.10100000352E+00 0.  1.
</event>
<event>
 5   0  0.3257130E-05  0.2090359E+04  0.7818609E-02  0.8565502E-01
       -2   -1    0    0    0  501  0.00000000000E+00  0.00000000000E+00  0.49124796821E+03  0.49124796821E+03  0.25500000920E-02 0. -1.
        2   -1    0    0  501    0  0.00000000000E+00  0.00000000000E+00 -0.22237237251E+04  0.22237237251E+04  0.25500000920E-02 0.  1.
    10030    2    1    2    0    0  0.00000000000E+00  0.00000000000E+00 -0.17324757569E+04  0.27149716934E+04  0.20903585930E+04 0.  0.
        3    1    3    3  502    0  0.63933917471E+02 -0.40805971905E+03 -0.21132272139E+04  0.21532137720E+04  0.10100000352E+00 0.  1.
       -3    1    3    3    0  502 -0.63933917471E+02  0.40805971905E+03  0.38075145692E+03  0.56175792141E+03  0.10100000352E+00 0. -1.
</event>
<event>
 5   0  0.1453430E-05  0.2093231E+04  0.7818609E-02  0.8564231E-01
        1   -1    0    0  501    0  0.00000000000E+00  0.00000000000E+00  0.68569216064E+03  0.68569216066E+03  0.50400001928E-02 0. -1.
       -1   -1    0    0    0  501  0.00000000000E+00  0.00000000000E+00 -0.15975149713E+04  0.15975149713E+04  0.50400001928E-02 0.  1.
    10030    2    1    2    0    0  0.00000000000E+00  0.00000000000E+00 -0.91182281067E+03  0.22832071320E+04  0.20932305104E+04 0.  0.
        5    1    3    3  502    0 -0.35662527262E+03 -0.26072530544E+03 -0.14908226343E+04  0.15549062630E+04  0.46999998093E+01 0.  1.
       -5    1    3    3    0  502  0.35662527262E+03  0.26072530544E+03  0.57899982361E+03  0.72830086894E+03  0.46999998093E+01 0. -1.
</event>
<event>
 5   0  0.3130517E-05  0.2101479E+04  0.7818609E-02  0.8560592E-01
       -2   -1    0    0    0  501  0.00000000000E+00  0.00000000000E+00  0.36393695910E+03  0.36393695911E+03  0.25500000920E-02 0.  1.
        2   -1    0    0  501    0  0.00000000000E+00  0.00000000000E+00 -0.30336380578E+04  0.30336380578E+04  0.25500000920E-02 0. -1.
    10030    2    1    2    0    0  0.00000000000E+00  0.00000000000E+00 -0.26697010987E+04  0.33975750169E+04  0.21014785364E+04 0.  0.
        1    1    3    3  502    0 -0.46231718126E+03 -0.15144463316E+03  0.17088563538E+03  0.51563024873E+03  0.50400001928E-02 0.  1.
       -1    1    3    3    0  502  0.46231718126E+03  0.15144463316E+03 -0.28405867341E+04  0.28819447682E+04  0.50400001928E-02 0. -1.
</event>
<event>
 5   0  0.1435410E-05  0.2120108E+04  0.7818609E-02  0.8552437E-01
        1   -1    0    0  501    0  0.00000000000E+00  0.00000000000E+00  0.73749367323E+03  0.73749367324E+03  0.50400001928E-02 0. -1.
       -1   -1    0    0    0  501  0.00000000000E+00  0.00000000000E+00 -0.15236930474E+04  0.15236930475E+04  0.50400001928E-02 0.  1.
    10030    2    1    2    0    0  0.00000000000E+00  0.00000000000E+00 -0.78619937422E+03  0.22611867207E+04  0.21201075279E+04 0.  0.
        2    1    3    3  502    0  0.69268279375E+03  0.69291128500E+03  0.38525676686E+02  0.98052013207E+03  0.25500000920E-02 0. -1.
       -2    1    3    3    0  502 -0.69268279375E+03 -0.69291128500E+03 -0.82472505091E+03  0.12806665886E+04  0.25500000920E-02 0.  1.
</event>
<event>
 5   0  0.3257130E-05  0.2101222E+04  0.7818609E-02  0.8560705E-01
        2   -1    0    0  501    0  0.00000000000E+00  0.00000000000E+00  0.14343521525E+04  0.14343521525E+04  0.25500000920E-02 0. -1.
       -2   -1    0    0    0  501  0.00000000000E+00  0.00000000000E+00 -0.76953416380E+03  0.76953416380E+03  0.25500000920E-02 0.  1.
    10030    2    1    2    0    0  0.00000000000E+00  0.00000000000E+00  0.66481798865E+03  0.22038863163E+04  0.21012215345E+04 0.  0.
        3    1    3    3  502    0 -0.10501265250E+03  0.84034105908E+03  0.98454515744E+03  0.12986646719E+04  0.10100000352E+00 0. -1.
       -3    1    3    3    0  502  0.10501265250E+03 -0.84034105908E+03 -0.31972716879E+03  0.90522164437E+03  0.10100000352E+00 0.  1.
</event>
<event>
 5   0  0.3242231E-05  0.2107064E+04  0.7818609E-02  0.8558138E-01
        2   -1    0    0  501    0  0.00000000000E+00  0.00000000000E+00  0.54854937033E+03  0.54854937033E+03  0.25500000920E-02 0. -1.
       -2   -1    0    0    0  501  0.00000000000E+00  0.00000000000E+00 -0.20233904110E+04  0.20233904110E+04  0.25500000920E-02 0.  1.
    10030    2    1    2    0    0  0.00000000000E+00  0.00000000000E+00 -0.14748410406E+04  0.25719397813E+04  0.21070638679E+04 0.  0.
        4    1    3    3  502    0  0.66481703444E+03  0.28350417687E+03 -0.16730706882E+04  0.18225047183E+04  0.12699999809E+01 0.  1.
       -4    1    3    3    0  502 -0.66481703444E+03 -0.28350417687E+03  0.19822964756E+03  0.74943506301E+03  0.12699999809E+01 0. -1.
</event>
<event>
 5   0  0.3108326E-05  0.2146744E+04  0.7818609E-02  0.8540927E-01
        2   -1    0    0  501    0  0.00000000000E+00  0.00000000000E+00  0.15445816218E+04  0.15445816218E+04  0.25500000920E-02 0.  1.
       -2   -1    0    0    0  501  0.00000000000E+00  0.00000000000E+00 -0.74591550575E+03  0.74591550576E+03  0.25500000920E-02 0. -1.
    10030    2    1    2    0    0  0.00000000000E+00  0.00000000000E+00  0.79866611606E+03  0.22904971276E+04  0.21467439359E+04 0.  0.
        5    1    3    3  502    0 -0.67108525066E+03 -0.76198238971E+03  0.27985789585E+02  0.10157646727E+04  0.46999998093E+01 0.  1.
       -5    1    3    3    0  502  0.67108525066E+03  0.76198238971E+03  0.77068032647E+03  0.12747324549E+04  0.46999998093E+01 0. -1.
</event>
<event>
 5   0  0.1513292E-05  0.2097275E+04  0.7818609E-02  0.8562445E-01
       -1   -1    0    0    0  501  0.00000000000E+00  0.00000000000E+00  0.15324744261E+04  0.15324744261E+04  0.50400001928E-02 0. -1.
        1   -1    0    0  501    0  0.00000000000E+00  0.00000000000E+00 -0.71755908202E+03  0.71755908204E+03  0.50400001928E-02 0.  1.
    10030    2    1    2    0    0  0.00000000000E+00  0.00000000000E+00  0.81491534409E+03  0.22500335082E+04  0.20972753205E+04 0.  0.
        1    1    3    3  502    0 -0.96435833397E+03 -0.35598284420E+03  0.18517029727E+03  0.10445088897E+04  0.50400001928E-02 0. -1.
       -1    1    3    3    0  502  0.96435833397E+03  0.35598284420E+03  0.62974504682E+03  0.12055246184E+04  0.50400001928E-02 0.  1.
</event>
<event>
 5   0  0.1466480E-05  0.2100909E+04  0.7818609E-02  0.8560843E-01
       -1   -1    0    0    0  501  0.00000000000E+00  0.00000000000E+00  0.10660543782E+04  0.10660543782E+04  0.50400001928E-02 0.  1.
        1   -1    0    0  501    0  0.00000000000E+00  0.00000000000E+00 -0.10350826360E+04  0.10350826360E+04  0.50400001928E-02 0. -1.
    10030    2    1    2    0    0  0.00000000000E+00  0.00000000000E+00  0.30971742173E+02  0.21011370142E+04  0.21009087328E+04 0.  0.
        3    1    3    3  502    0 -0.10762505921E+03  0.41594097118E+03 -0.94319239418E+03  0.10364371411E+04  0.10100000352E+00 0. -1.
       -3    1    3    3    0  502  0.10762505921E+03 -0.41594097118E+03  0.97416413635E+03  0.10646998730E+04  0.10100000352E+00 0.  1.
</event>
<event>
 5   0  0.1492552E-05  0.2092979E+04  0.7818609E-02  0.8564342E-01
       -1   -1    0    0    0  501  0.00000000000E+00  0.00000000000E+00  0.47604067274E+03  0.47604067277E+03  0.50400001928E-02 0.  1.
        1   -1    0    0  501    0  0.00000000000E+00  0.00000000000E+00 -0.23005183561E+04  0.23005183561E+04  0.50400001928E-02 0. -1.
    10030    2    1    2    0    0  0.00000000000E+00  0.00000000000E+00 -0.18244776833E+04  0.27765590288E+04  0.20929790309E+04 0.  0.
        4    1    3    3  502    0  0.46840371722E+03 -0.71990290711E+03 -0.17054078835E+04  0.19094711047E+04  0.12699999809E+01 0. -1.
       -4    1    3    3    0  502 -0.46840371722E+03  0.71990290711E+03 -0.11906979987E+03  0.86708792410E+03  0.12699999809E+01 0.  1.
</event>
<event>
 5   0  0.1453430E-05  0.2100562E+04  0.7818609E-02  0.8560996E-01
       -1   -1    0    0    0  501  0.00000000000E+00  0.00000000000E+00  0.46641680381E+03  0.46641680384E+03  0.50400001928E-02 0. -1.
        1   -1    0    0  501    0  0.00000000000E+00  0.00000000000E+00 -0.23650311788E+04  0.23650311788E+04  0.50400001928E-02 0.  1.
    10030    2    1    2    0    0  0.00000000000E+00  0.00000000000E+00 -0.18986143750E+04  0.28314479826E+04  0.21005620994E+04 0.  0.
        5    1    3    3  502    0 -0.38603837467E+03 -0.21772138891E+03 -0.22327912830E+04  0.22763583271E+04  0.46999998093E+01 0.  1.
       -5    1    3    3    0  502  0.38603837467E+03  0.21772138891E+03  0.33417690798E+03  0.55508965558E+03  0.46999998093E+01 0. -1.
</event>
<event>
 5   0  0.3257130E-05  0.2080024E+04  0.7818609E-02  0.8570095E-01
       -2   -1    0    0    0  501  0.00000000000E+00  0.00000000000E+00  0.18667827962E+04  0.18667827962E+04  0.25500000920E-02 0.  1.
        2   -1    0    0  501    0  0.00000000000E+00  0.00000000000E+00 -0.57940569038E+03  0.57940569038E+03  0.25500000920E-02 0. -1.
    10030    2    1    2    0    0  0.00000000000E+00  0.00000000000E+00  0.12873771058E+04  0.24461884866E+04  0.20800236295E+04 0.  0.
        3    1    3    3  502    0  0.36175081467E+03  0.20476413969E+03  0.17648382087E+04  0.18131315225E+04  0.10100000352E+00 0.  1.
       -3    1    3    3    0  502 -0.36175081467E+03 -0.20476413969E+03 -0.47746110287E+03  0.63305696408E+03  0.10100000352E+00 0. -1.
</event>
<event>
 5   0  0.1435410E-05  0.2098861E+04  0.7818609E-02  0.8561745E-01
       -1   -1    0    0    0  501  0.00000000000E+00  0.00000000000E+00  0.84892745407E+03  0.84892745408E+03  0.50400001928E-02 0.  1.
        1   -1    0    0  501    0  0.00000000000E+00  0.00000000000E+00 -0.12972895079E+04  0.12972895079E+04  0.50400001928E-02 0. -1.
    10030    2    1    2    0    0  0.00000000000E+00  0.00000000000E+00 -0.44836205380E+03  0.21462169620E+04  0.20988612904E+04 0.  0.
        2    1    3    3  502    0 -0.15981545818E+03 -0.10040632555E+04 -0.49008794915E+03  0.11286585842E+04  0.25500000920E-02 0.  1.
       -2    1    3    3    0  502  0.15981545818E+03  0.10040632555E+04  0.41725895351E+02  0.10175583778E+04  0.25500000920E-02 0. -1.
</event>
<event>
 5   0  0.1492552E-05  0.2104905E+04  0.7818609E-02  0.8559086E-01
        1   -1    0    0  501    0  0.00000000000E+00  0.00000000000E+00  0.19574842590E+04  0.19574842590E+04  0.50400001928E-02 0. -1.
       -1   -1    0    0    0  501  0.00000000000E+00  0.00000000000E+00 -0.56585707808E+03  0.56585707810E+03  0.50400001928E-02 0.  1.
    10030    2    1    2    0    0  0.00000000000E+00  0.00000000000E+00  0.13916271809E+04  0.25233413371E+04  0.21049050556E+04 0.  0.
        4    1    3    3  502    0  0.85340505272E+03 -0.50481374556E+03  0.27279556203E+03  0.10283754826E+04  0.12699999809E+01 0. -1.
       -4    1    3    3    0  502 -0.85340505272E+03  0.50481374556E+03  0.11188316189E+04  0.14949658545E+04  0.12699999809E+01 0.  1.
</event>
<event>
 5   0  0.1466480E-05  0.2100578E+04  0.7818609E-02  0.8560989E-01
        1   -1    0    0  501    0  0.00000000000E+00  0.00000000000E+00  0.83184144373E+03  0.83184144375E+03  0.50400001928E-02 0. -1.
       -1   -1    0    0    0  501  0.00000000000E+00  0.00000000000E+00 -0.13261021416E+04  0.13261021416E+04  0.50400001928E-02 0.  1.
    10030    2    1    2    0    0  0.00000000000E+00  0.00000000000E+00 -0.49426069788E+03  0.21579435854E+04  0.21005777491E+04 0.  0.
        3    1    3    3  502    0  0.56760579647E+03 -0.49971448364E+03  0.50161962411E+03  0.90747626021E+03  0.10100000352E+00 0. -1.
       -3    1    3    3    0  502 -0.56760579647E+03  0.49971448364E+03 -0.99588032199E+03  0.12504673252E+04  0.10100000352E+00 0.  1.
</event>
<event>
 5   0  0.1492552E-05  0.2089940E+04  0.7818609E-02  0.8565688E-01
       -1   -1    0    0    0  501  0.00000000000E+00  0.00000000000E+00  0.92050152275E+03  0.92050152276E+03  0.50400001928E-02 0. -1.
        1   -1    0    0  501    0  0.00000000000E+00  0.00000000000E+00 -0.11862685413E+04  0.11862685413E+04  0.50400001928E-02 0.  1.
    10030    2    1    2    0    0  0.00000000000E+00  0.00000000000E+00 -0.26576701851E+03  0.21067700640E+04  0.20899397107E+04 0.  0.
        4    1    3    3  502    0  0.73277819905E+03 -0.27839235719E+03  0.56369075902E+03  0.96551285763E+03  0.12699999809E+01 0. -1.
       -4    1    3    3    0  502 -0.73277819905E+03  0.27839235719E+03 -0.82945777753E+03  0.11412572064E+04  0.12699999809E+01 0.  1.
</event>
<event>
 5   0  0.3279789E-05  0.2100572E+04  0.7818609E-02  0.8560991E-01
        2   -1    0    0  501    0  0.00000000000E+00  0.00000000000E+00  0.19810759668E+04  0.19810759668E+04  0.25500000920E-02 0.  1.
       -2   -1    0    0    0  501  0.00000000000E+00  0.00000000000E+00 -0.55681895547E+03  0.55681895548E+03  0.25500000920E-02 0. -1.
    10030    2    1    2    0    0  0.00000000000E+00  0.00000000000E+00  0.14242570113E+04  0.25378949223E+04  0.21005719702E+04 0.  0.
        2    1    3    3  502    0  0.66415955475E+03 -0.27727719935E+03  0.16363048862E+04  0.17875917431E+04  0.25500000920E-02 0.  1.
       -2    1    3    3    0  502 -0.66415955475E+03  0.27727719935E+03 -0.21204787486E+03  0.75030317918E+03  0.25500000920E-02 0. -1.
</event>
<event>
 5   0  0.3108326E-05  0.2104127E+04  0.7818609E-02  0.8559427E-01
       -2   -1    0    0    0  501  0.00000000000E+00  0.00000000000E+00  0.81210448086E+03  0.81210448087E+03  0.25500000920E-02 0. -1.
        2   -1    0    0  501    0  0.00000000000E+00  0.00000000000E+00 -0.13629255933E+04  0.13629255933E+04  0.25500000920E-02 0.  1.
    10030    2    1    2    0    0  0.00000000000E+00  0.00000000000E+00 -0.55082111239E+03  0.21750300741E+04  0.21041273549E+04 0.  0.
        5    1    3    3  502    0  0.95354224782E+03  0.26627257568E+03 -0.64331373288E+03  0.11806856279E+04  0.46999998093E+01 0.  1.
       -5    1    3    3    0  502 -0.95354224782E+03 -0.26627257568E+03  0.92492620491E+02  0.99434444625E+03  0.46999998093E+01 0. -1.
</event>
<event>
 5   0  0.3257130E-05  0.2099321E+04  0.7818609E-02  0.8561542E-01
        2   -1    0    0  501    0  0.00000000000E+00  0.00000000000E+00  0.24042051692E+04  0.24042051692E+04  0.25500000920E-02 0. -1.
       -2   -1    0    0    0  501  0.00000000000E+00  0.00000000000E+00 -0.45827509261E+03  0.45827509262E+03  0.25500000920E-02 0.  1.
    10030    2    1    2    0    0  0.00000000000E+00  0.00000000000E+00  0.19459300766E+04  0.28624802618E+04  0.20993211727E+04 0.  0.
        3    1    3    3  502    0  0.79209611320E+02 -0.57217251194E+03  0.21680024034E+04  0.22436332092E+04  0.10100000352E+00 0. -1.
       -3    1    3    3    0  502 -0.79209611320E+02  0.57217251194E+03 -0.22207232687E+03  0.61884705260E+03  0.10100000352E+00 0.  1.
</event>
<event>
 5   0  0.3108326E-05  0.2114750E+04  0.7818609E-02  0.8554774E-01
        2   -1    0    0  501    0  0.00000000000E+00  0.00000000000E+00  0.19087293775E+04  0.19087293775E+04  0.25500000920E-02 0.  1.
       -2   -1    0    0    0  501  0.00000000000E+00  0.00000000000E+00 -0.58575178149E+03  0.58575178149E+03  0.25500000920E-02 0. -1.
    10030    2    1    2    0    0  0.00000000000E+00  0.00000000000E+00  0.13229775960E+04  0.24944811590E+04  0.21147497566E+04 0.  0.
        5    1    3    3  502    0  0.77100827031E+03 -0.69847308651E+03  0.88436426844E+03  0.13654452222E+04  0.46999998093E+01 0. -1.
       -5    1    3    3    0  502 -0.77100827031E+03  0.69847308651E+03  0.43861332755E+03  0.11290359368E+04  0.46999998093E+01 0.  1.
</event>
<event>
 5   0  0.1492552E-05  0.2099549E+04  0.7818609E-02  0.8561442E-01
       -1   -1    0    0    0  501  0.00000000000E+00  0.00000000000E+00  0.92633570343E+03  0.92633570344E+03  0.50400001928E-02 0.  1.
        1   -1    0    0  501    0  0.00000000000E+00  0.00000000000E+00 -0.11896622037E+04  0.11896622037E+04  0.50400001928E-02 0. -1.
    10030    2    1    2    0    0  0.00000000000E+00  0.00000000000E+00 -0.26332650024E+03  0.21159979071E+04  0.20995490700E+04 0.  0.
        4    1    3    3  502    0  0.90270083327E+03 -0.43517799618E+03  0.18347851020E+03  0.10187809673E+04  0.12699999809E+01 0. -1.
       -4    1    3    3    0  502 -0.90270083327E+03  0.43517799618E+03 -0.44680501044E+03  0.10972169398E+04  0.12699999809E+01 0.  1.
</event>
<event>
 5   0  0.1453430E-05  0.2108338E+04  0.7818609E-02  0.8557579E-01
       -1   -1    0    0    0  501  0.00000000000E+00  0.00000000000E+00  0.53299246952E+03  0.53299246954E+03  0.50400001928E-02 0. -1.
        1   -1    0    0  501    0  0.00000000000E+00  0.00000000000E+00 -0.20849688280E+04  0.20849688280E+04  0.50400001928E-02 0.  1.
    10030    2    1    2    0    0  0.00000000000E+00  0.00000000000E+00 -0.15519763585E+04  0.26179612976E+04  0.21083383832E+04 0.  0.
        5    1    3    3  502    0  0.23540021980E+03  0.90070023798E+03 -0.13900755865E+04  0.16730231344E+04  0.46999998093E+01 0.  1.
       -5    1    3    3    0  502 -0.23540021980E+03 -0.90070023798E+03 -0.16190077200E+03  0.94493816314E+03  0.46999998093E+01 0. -1.
</event>
<event>
 5   0  0.1466480E-05  0.2103213E+04  0.7818609E-02  0.8559829E-01
        1   -1    0    0  501    0  0.00000000000E+00  0.00000000000E+00  0.12831874785E+04  0.12831874785E+04  0.50400001928E-02 0.  1.
       -1   -1    0    0    0  501  0.00000000000E+00  0.00000000000E+00 -0.86181993209E+03  0.86181993210E+03  0.50400001928E-02 0. -1.
    10030    2    1    2    0    0  0.00000000000E+00  0.00000000000E+00  0.42136754638E+03  0.21450074106E+04  0.21032132993E+04 0.  0.
        3    1    3    3  502    0  0.23283125881E+03  0.16732334111E+03  0.12425544282E+04  0.12752054787E+04  0.10100000352E+00 0.  1.
       -3    1    3    3    0  502 -0.23283125881E+03 -0.16732334111E+03 -0.82118688186E+03  0.86980193188E+03  0.10100000352E+00 0. -1.
</event>
<event>
 5   0  0.1453430E-05  0.2103729E+04  0.7818609E-02  0.8559602E-01
        1   -1    0    0  501    0  0.00000000000E+00  0.00000000000E+00  0.22052619024E+04  0.22052619024E+04  0.50400001928E-02 0. -1.
       -1   -1    0    0    0  501  0.00000000000E+00  0.00000000000E+00 -0.50171780676E+03  0.50171780679E+03  0.50400001928E-02 0.  1.
    10030    2    1    2    0    0  0.00000000000E+00  0.00000000000E+00  0.17035440956E+04  0.27069797092E+04  0.21037292269E+04 0.  0.
        5    1    3    3  502    0  0.28882553956E+03 -0.54811066732E+03 -0.24200696778E+03  0.66515784471E+03  0.46999998093E+01 0.  1.
       -5    1    3    3    0  502 -0.28882553956E+03  0.54811066732E+03  0.19455510634E+04  0.20418218645E+04  0.46999998093E+01 0. -1.
</event>
<event>
 5   0  0.3279789E-05  0.2105839E+04  0.7818609E-02  0.8558676E-01
       -2   -1    0    0    0  501  0.00000000000E+00  0.00000000000E+00  0.74749666349E+03  0.74749666350E+03  0.25500000920E-02 0. -1.
        2   -1    0    0  501    0  0.00000000000E+00  0.00000000000E+00 -0.14831357645E+04  0.14831357645E+04  0.25500000920E-02 0.  1.
    10030    2    1    2    0    0  0.00000000000E+00  0.00000000000E+00 -0.73563910101E+03  0.22306324280E+04  0.21058385840E+04 0.  0.
        2    1    3    3  502    0 -0.10124630755E+04 -0.73564098944E+02 -0.71707572991E+02  0.10176615999E+04  0.25500000920E-02 0. -1.
       -2    1    3    3    0  502  0.10124630755E+04  0.73564098944E+02 -0.66393152802E+03  0.12129708281E+04  0.25500000920E-02 0.  1.
</event>
<event>
 5   0  0.3257130E-05  0.2106809E+04  0.7818609E-02  0.8558250E-01
       -2   -1    0    0    0  501  0.00000000000E+00  0.00000000000E+00  0.15869554787E+04  0.15869554787E+04  0.25500000920E-02 0.  1.
        2   -1    0    0  501    0  0.00000000000E+00  0.00000000000E+00 -0.69923900041E+03  0.69923900042E+03  0.25500000920E-02 0. -1.
    10030    2    1    2    0    0  0.00000000000E+00  0.00000000000E+00  0.88771647825E+03  0.22861944791E+04  0.21068091158E+04 0.  0.
        3    1    3    3  502    0  0.68508866765E+03  0.74750747942E+03  0.13397890712E+03  0.10227728350E+04  0.10100000352E+00 0. -1.
       -3    1    3    3    0  502 -0.68508866765E+03 -0.74750747942E+03  0.75373757113E+03  0.12634216441E+04  0.10100000352E+00 0.  1.
</event>
<event>
 5   0  0.3257130E-05  0.2097286E+04  0.7818609E-02  0.8562440E-01
        2   -1    0    0  501    0  0.00000000000E+00  0.00000000000E+00  0.13864731651E+04  0.13864731651E+04  0.25500000920E-02 0. -1.
       -2   -1    0    0    0  501  0.00000000000E+00  0.00000000000E+00 -0.79312918140E+03  0.79312918140E+03  0.25500000920E-02 0.  1.
    10030    2    1    2    0    0  0.00000000000E+00  0.00000000000E+00  0.59334398369E+03  0.21796023465E+04  0.20972861764E+04 0.  0.
        3    1    3    3  502    0  0.76134668045E+03 -0.25155849172E+02  0.10456314480E+04  0.12936872574E+04  0.10100000352E+00 0. -1.
       -3    1    3    3    0  502 -0.76134668045E+03  0.25155849172E+02 -0.45228746433E+03  0.88591508914E+03  0.10100000352E+00 0.  1.
</event>
<event>
 5   0  0.1435410E-05  0.2113406E+04  0.7818609E-02  0.8555361E-01
        1   -1    0    0  501    0  0.00000000000E+00  0.00000000000E+00  0.12721054262E+04  0.12721054262E+04  0.50400001928E-02 0. -1.
       -1   -1    0    0    0  501  0.00000000000E+00  0.00000000000E+00 -0.87777399480E+03  0.87777399481E+03  0.50400001928E-02 0.  1.
    10030    2    1    2    0    0  0.00000000000E+00  0.00000000000E+00  0.39433143141E+03  0.21498794210E+04  0.21134058406E+04 0.  0.
        2    1    3    3  502    0 -0.79421866059E+03  0.18494630036E+03 -0.48646861394E+03  0.94954732751E+03  0.25500000920E-02 0.  1.
       -2    1    3    3    0  502  0.79421866059E+03 -0.18494630036E+03  0.88080004534E+03  0.12003320935E+04  0.25500000920E-02 0. -1.
</event>
<event>
 5   0  0.3242231E-05  0.2092318E+04  0.7818609E-02  0.8564635E-01
        2   -1    0    0  501    0  0.00000000000E+00  0.00000000000E+00  0.81995801185E+03  0.81995801185E+03  0.25500000920E-02 0.  1.
       -2   -1    0    0    0  501  0.00000000000E+00  0.00000000000E+00 -0.13347620211E+04  0.13347620211E+04  0.25500000920E-02 0. -1.
    10030    2    1    2    0    0  0.00000000000E+00  0.00000000000E+00 -0.51480400929E+03  0.21547200330E+04  0.20923181528E+04 0.  0.
        4    1    3    3  502    0 -0.74267714802E+03 -0.86498817219E+02  0.49612810389E+03  0.89732719782E+03  0.12699999809E+01 0.  1.
       -4    1    3    3    0  502  0.74267714802E+03  0.86498817219E+02 -0.10109321132E+04  0.12573928352E+04  0.12699999809E+01 0. -1.
</event>
<event>
 5   0  0.3257130E-05  0.2105492E+04  0.7818609E-02  0.8558828E-01
       -2   -1    0    0    0  501  0.00000000000E+00  0.00000000000E+00  0.14231468608E+04  0.14231468608E+04  0.25500000920E-02 0. -1.
        2   -1    0    0  501    0  0.00000000000E+00  0.00000000000E+00 -0.77874882471E+03  0.77874882472E+03  0.25500000920E-02 0.  1.
    10030    2    1    2    0    0  0.00000000000E+00  0.00000000000E+00  0.64439803606E+03  0.22018956855E+04  0.21054918145E+04 0.  0.
        3    1    3    3  502    0  0.88325614266E+02  0.10147594058E+04  0.44059286962E+02  0.10195485750E+04  0.10100000352E+00 0.  1.
       -3    1    3    3    0  502 -0.88325614266E+02 -0.10147594058E+04  0.60033874910E+03  0.11823471105E+04  0.10100000352E+00 0. -1.
</event>
<event>
 5   0  0.3257130E-05  0.2098069E+04  0.7818609E-02  0.8562095E-01
       -2   -1    0    0    0  501  0.00000000000E+00  0.00000000000E+00  0.59218881672E+03  0.59218881672E+03  0.25500000920E-02 0.  1.
        2   -1    0    0  501    0  0.00000000000E+00  0.00000000000E+00 -0.18583148924E+04  0.18583148924E+04  0.25500000920E-02 0. -1.
    10030    2    1    2    0    0  0.00000000000E+00  0.00000000000E+00 -0.12661260757E+04  0.24505037091E+04  0.20980689190E+04 0.  0.
        3    1    3    3  502    0 -0.12332937397E+03 -0.65802065708E+03 -0.15763633349E+04  0.17126361825E+04  0.10100000352E+00 0. -1.
       -3    1    3    3    0  502  0.12332937397E+03  0.65802065708E+03  0.31023725925E+03  0.73786752663E+03  0.10100000352E+00 0.  1.
</event>
<event>
 5   0  0.3257130E-05  0.2098487E+04  0.7818609E-02  0.8561910E-01
        2   -1    0    0  501    0  0.00000000000E+00  0.00000000000E+00  0.15055243291E+04  0.15055243291E+04  0.25500000920E-02 0. -1.
       -2   -1    0    0    0  501  0.00000000000E+00  0.00000000000E+00 -0.73124835305E+03  0.73124835306E+03  0.25500000920E-02 0.  1.
    10030    2    1    2    0    0  0.00000000000E+00  0.00000000000E+00  0.77427597601E+03  0.22367726821E+04  0.20984872514E+04 0.  0.
        3    1    3    3  502    0  0.39679189629E+03 -0.78757924200E+03 -0.21882020394E+03  0.90862927712E+03  0.10100000352E+00 0.  1.
       -3    1    3    3    0  502 -0.39679189629E+03  0.78757924200E+03  0.99309617995E+03  0.13281434050E+04  0.10100000352E+00 0. -1.
</event>
<event>
 5   0  0.3108326E-05  0.2104035E+04  0.7818609E-02  0.8559468E-01
        2   -1    0    0  501    0  0.00000000000E+00  0.00000000000E+00  0.15609011490E+04  0.15609011490E+04  0.25500000920E-02 0. -1.
       -2   -1    0    0    0  501  0.00000000000E+00  0.00000000000E+00 -0.70903935741E+03  0.70903935742E+03  0.25500000920E-02 0.  1.
    10030    2    1    2    0    0  0.00000000000E+00  0.00000000000E+00  0.85186179159E+03  0.22699405064E+04  0.21040345507E+04 0.  0.
        5    1    3    3  502    0  0.86124683178E+03  0.45378821905E+03 -0.43244413337E+01  0.97350431113E+03  0.46999998093E+01 0.  1.
       -5    1    3    3    0  502 -0.86124683178E+03 -0.45378821905E+03  0.85618623292E+03  0.12964361953E+04  0.46999998093E+01 0. -1.
</event>
<event>
 5   0  0.1466480E-05  0.2114429E+04  0.7818609E-02  0.8554914E-01
        1   -1    0    0  501    0  0.00000000000E+00  0.00000000000E+00  0.11450862915E+04  0.11450862915E+04  0.50400001928E-02 0. -1.
       -1   -1    0    0    0  501  0.00000000000E+00  0.00000000000E+00 -0.97608624325E+03  0.97608624326E+03  0.50400001928E-02 0.  1.
    10030    2    1    2    0    0  0.00000000000E+00  0.00000000000E+00  0.16900004824E+03  0.21211725348E+04  0.21144294516E+04 0.  0.
        3    1    3    3  502    0  0.26228743146E+03 -0.95053555109E+03  0.46701700101E+03  0.10910625188E+04  0.10100000352E+00 0. -1.
       -3    1    3    3    0  502 -0.26228743146E+03  0.95053555109E+03 -0.29801695276E+03  0.10301100159E+04  0.10100000352E+00 0.  1.
</event>
<event>
 5   0  0.1435410E-05  0.2099596E+04  0.7818609E-02  0.8561421E-01
        1   -1    0    0  501    0  0.00000000000E+00  0.00000000000E+00  0.19228754523E+04  0.19228754523E+04  0.50400001928E-02 0.  1.
       -1   -1    0    0    0  501  0.00000000000E+00  0.00000000000E+00 -0.57313956686E+03  0.57313956688E+03  0.50400001928E-02 0. -1.
    10030    2    1    2    0    0  0.00000000000E+00  0.00000000000E+00  0.13497358854E+04  0.24960150192E+04  0.20995961553E+04 0.  0.
        2    1    3    3  502    0  0.24033993912E+03 -0.26511558247E+03  0.18481347915E+04  0.18824589679E+04  0.25500000920E-02 0.  1.
       -2    1    3    3    0  502 -0.24033993912E+03  0.26511558247E+03 -0.49839890608E+03  0.61355605122E+03  0.25500000920E-02 0. -1.
</event>
<event>
 5   0  0.1492552E-05  0.2095076E+04  0.7818609E-02  0.8563416E-01
        1   -1    0    0  501    0  0.00000000000E+00  0.00000000000E+00  0.79638253511E+03  0.79638253513E+03  0.50400001928E-02 0.  1.
       -1   -1    0    0    0  501  0.00000000000E+00  0.00000000000E+00 -0.13779004325E+04  0.13779004325E+04  0.50400001928E-02 0. -1.
    10030    2    1    2    0    0  0.00000000000E+00  0.00000000000E+00 -0.58151789737E+03  0.21742829676E+04  0.20950759791E+04 0.  0.
        4    1    3    3  502    0  0.98714153792E+03  0.12857297734E+03 -0.62920919499E+03  0.11776609233E+04  0.12699999809E+01 0. -1.
       -4    1    3    3    0  502 -0.98714153792E+03 -0.12857297734E+03  0.47691297618E+02  0.99662204429E+03  0.12699999809E+01 0.  1.
</event>
<event>
 5   0  0.3257130E-05  0.2029857E+04  0.7818609E-02  0.8592787E-01
       -2   -1    0    0    0  501  0.00000000000E+00  0.00000000000E+00  0.59601460376E+03  0.59601460377E+03  0.25500000920E-02 0. -1.
        2   -1    0    0  501    0  0.00000000000E+00  0.00000000000E+00 -0.17282802171E+04  0.17282802171E+04  0.25500000920E-02 0.  1.
    10030    2    1    2    0    0  0.00000000000E+00  0.00000000000E+00 -0.11322656134E+04  0.23242948209E+04  0.20298573830E+04 0.  0.
        3    1    3    3  502    0  0.51898291064E+02  0.65361542665E+03  0.32094999997E+03  0.73001059667E+03  0.10100000352E+00 0. -1.
       -3    1    3    3    0  502 -0.51898291064E+02 -0.65361542665E+03 -0.14532156133E+04  0.15942842242E+04  0.10100000352E+00 0.  1.
</event>
<event>
 5   0  0.3257130E-05  0.2107151E+04  0.7818609E-02  0.8558100E-01
        2   -1    0    0  501    0  0.00000000000E+00  0.00000000000E+00  0.17551391119E+04  0.17551391119E+04  0.25500000920E-02 0. -1.
       -2   -1    0    0    0  501  0.00000000000E+00  0.00000000000E+00 -0.63244057528E+03  0.63244057529E+03  0.25500000920E-02 0.  1.
    10030    2    1    2    0    0  0.00000000000E+00  0.00000000000E+00  0.11226985366E+04  0.23875796872E+04  0.21071508628E+04 0.  0.
        3    1    3    3  502    0 -0.73838011095E+03 -0.48027252282E+03  0.12163409264E+04  0.15017829883E+04  0.10100000352E+00 0. -1.
       -3    1    3    3    0  502  0.73838011095E+03  0.48027252282E+03 -0.93642389800E+02  0.88579669890E+03  0.10100000352E+00 0.  1.
</event>
<event>
 5   0  0.3130517E-05  0.2101875E+04  0.7818609E-02  0.8560418E-01
        2   -1    0    0  501    0  0.00000000000E+00  0.00000000000E+00  0.12318630379E+04  0.12318630379E+04  0.25500000920E-02 0. -1.
       -2   -1    0    0    0  501  0.00000000000E+00  0.00000000000E+00 -0.89658499042E+03  0.89658499043E+03  0.25500000920E-02 0.  1.
    10030    2    1    2    0    0  0.00000000000E+00  0.00000000000E+00  0.33527804744E+03  0.21284480283E+04  0.21018752675E+04 0.  0.
        1    1    3    3  502    0 -0.37452327183E+03  0.59278050943E+03 -0.62508180796E+03  0.93935279856E+03  0.50400001928E-02 0.  1.
       -1    1    3    3    0  502  0.37452327183E+03 -0.59278050943E+03  0.96035985540E+03  0.11890952297E+04  0.50400001928E-02 0. -1.
</event>
<event>
 5   0  0.1513292E-05  0.2082585E+04  0.7818609E-02  0.8568954E-01
        1   -1    0    0  501    0  0.00000000000E+00  0.00000000000E+00  0.16287490267E+04  0.16287490267E+04  0.50400001928E-02 0. -1.
       -1   -1    0    0    0  501  0.00000000000E+00  0.00000000000E+00 -0.66571962628E+03  0.66571962630E+03  0.50400001928E-02 0.  1.
    10030    2    1    2    0    0  0.00000000000E+00  0.00000000000E+00  0.96302940037E+03  0.22944686530E+04  0.20825851179E+04 0.  0.
        1    1    3    3  502    0  0.47538548336E+03  0.37484120371E+02  0.15013801101E+04  0.15752900216E+04  0.50400001928E-02 0. -1.
       -1    1    3    3    0  502 -0.47538548336E+03 -0.37484120371E+02 -0.53835070975E+03  0.71917863135E+03  0.50400001928E-02 0.  1.
</event>
<event>
 5   0  0.3279789E-05  0.2053858E+04  0.7818609E-02  0.8581846E-01
       -2   -1    0    0    0  501  0.00000000000E+00  0.00000000000E+00  0.14229732687E+04  0.14229732687E+04  0.25500000920E-02 0.  1.
        2   -1    0    0  501    0  0.00000000000E+00  0.00000000000E+00 -0.74111257763E+03  0.74111257764E+03  0.25500000920E-02 0. -1.
    10030    2    1    2    0    0  0.00000000000E+00  0.00000000000E+00  0.68186069102E+03  0.21640858463E+04  0.20538582103E+04 0.  0.
        2    1    3    3  502    0 -0.98237689869E+03  0.29022920031E+03  0.41753739296E+03  0.11061802902E+04  0.25500000920E-02 0.  1.
       -2    1    3    3    0  502  0.98237689869E+03 -0.29022920031E+03  0.26432329806E+03  0.10579055561E+04  0.25500000920E-02 0. -1.
</event>
<event>
 5   0  0.3257130E-05  0.2103890E+04  0.7818609E-02  0.8559532E-01
        2   -1    0    0  501    0  0.00000000000E+00  0.00000000000E+00  0.15576603823E+04  0.15576603823E+04  0.25500000920E-02 0. -1.
       -2   -1    0    0    0  501  0.00000000000E+00  0.00000000000E+00 -0.71041712346E+03  0.71041712346E+03  0.25500000920E-02 0.  1.
    10030    2    1    2    0    0  0.00000000000E+00  0.00000000000E+00  0.84724325884E+03  0.22680775058E+04  0.21038903091E+04 0.  0.
        3    1    3    3  502    0 -0.69109673109E+03  0.22030839151E+03  0.12449423153E+04  0.14408441476E+04  0.10100000352E+00 0. -1.
       -3    1    3    3    0  502  0.69109673109E+03 -0.22030839151E+03 -0.39769905648E+03  0.82723335814E+03  0.10100000352E+00 0.  1.
</event>
<event>
 5   0  0.1513292E-05  0.2098167E+04  0.7818609E-02  0.8562051E-01
        1   -1    0    0  501    0  0.00000000000E+00  0.00000000000E+00  0.84283849046E+03  0.84283849048E+03  0.50400001928E-02 0. -1.
       -1   -1    0    0    0  501  0.00000000000E+00  0.00000000000E+00 -0.13057977024E+04  0.13057977025E+04  0.50400001928E-02 0.  1.
    10030    2    1    2    0    0  0.00000000000E+00  0.00000000000E+00 -0.46295921198E+03  0.21486361929E+04  0.20981673569E+04 0.  0.
        1    1    3    3  502    0 -0.77984109700E+03  0.74593966268E+02  0.48305765890E+03  0.92035922238E+03  0.50400001928E-02 0. -1.
       -1    1    3    3    0  502  0.77984109700E+03 -0.74593966268E+02 -0.94601687088E+03  0.12282769706E+04  0.50400001928E-02 0.  1.
</event>
<event>
 5   0  0.3242231E-05  0.2106028E+04  0.7818609E-02  0.8558592E-01
        2   -1    0    0  501    0  0.00000000000E+00  0.00000000000E+00  0.15224725773E+04  0.15224725773E+04  0.25500000920E-02 0.  1.
       -2   -1    0    0    0  501  0.00000000000E+00  0.00000000000E+00 -0.72831453730E+03  0.72831453731E+03  0.25500000920E-02 0. -1.
    10030    2    1    2    0    0  0.00000000000E+00  0.00000000000E+00  0.79415803998E+03  0.22507871146E+04  0.21060284050E+04 0.  0.
        4    1    3    3  502    0  0.75380578137E+03 -0.43893337874E+03  0.10274985138E+04  0.13478280587E+04  0.12699999809E+01 0.  1.
       -4    1    3    3    0  502 -0.75380578137E+03  0.43893337874E+03 -0.23334047384E+03  0.90295905590E+03  0.12699999809E+01 0. -1.
</event>
<event>
 5   0  0.1453430E-05  0.2105625E+04  0.7818609E-02  0.8558770E-01
       -1   -1    0    0    0  501  0.00000000000E+00  0.00000000000E+00  0.11863190127E+04  0.11863190127E+04  0.50400001928E-02 0.  1.
        1   -1    0    0  501    0  0.00000000000E+00  0.00000000000E+00 -0.93433069964E+03  0.93433069965E+03  0.50400001928E-02 0. -1.
    10030    2    1    2    0    0  0.00000000000E+00  0.00000000000E+00  0.25198831307E+03  0.21206497124E+04  0.21056251073E+04 0.  0.
        5    1    3    3  502    0  0.90001367608E+03 -0.46219743081E+03  0.41917456028E+03  0.10951623095E+04  0.46999998093E+01 0.  1.
       -5    1    3    3    0  502 -0.90001367608E+03  0.46219743081E+03 -0.16718624721E+03  0.10254874029E+04  0.46999998093E+01 0. -1.
</event>
<event>
 5   0  0.3108326E-05  0.2108973E+04  0.7818609E-02  0.8557301E-01
       -2   -1    0    0    0  501  0.00000000000E+00  0.00000000000E+00  0.87722453442E+03  0.87722453442E+03  0.25500000920E-02 0. -1.
        2   -1    0    0  501    0  0.00000000000E+00  0.00000000000E+00 -0.12675681183E+04  0.12675681183E+04  0.25500000920E-02 0.  1.
    10030    2    1    2    0    0  0.00000000000E+00  0.00000000000E+00 -0.39034358385E+03  0.21447926527E+04  0.21089730699E+04 0.  0.
        5    1    3    3  502    0  0.59374761323E+03  0.68846965136E+03  0.34812356468E+03  0.97351876990E+03  0.46999998093E+01 0. -1.
       -5    1    3    3    0  502 -0.59374761323E+03 -0.68846965136E+03 -0.73846714854E+03  0.11712738828E+04  0.46999998093E+01 0.  1.
</event>
<event>
 5   0  0.3242231E-05  0.2103032E+04  0.7818609E-02  0.8559909E-01
        2   -1    0    0  501    0  0.00000000000E+00  0.00000000000E+00  0.15415075053E+04  0.15415075053E+04  0.25500000920E-02 0. -1.
       -2   -1    0    0    0  501  0.00000000000E+00  0.00000000000E+00 -0.71727558066E+03  0.71727558066E+03  0.25500000920E-02 0.  1.
    10030    2    1    2    0    0  0.00000000000E+00  0.00000000000E+00  0.82423192461E+03  0.22587830859E+04  0.21030318028E+04 0.  0.
        4    1    3    3  502    0  0.15399343966E+03  0.81400211006E+02 -0.70167173360E+03  0.72296943811E+03  0.12699999809E+01 0.  1.
       -4    1    3    3    0  502 -0.15399343966E+03 -0.81400211006E+02  0.15259036582E+04  0.15358136478E+04  0.12699999809E+01 0. -1.
</event>
<event>
 5   0  0.3257130E-05  0.2095664E+04  0.7818609E-02  0.8563156E-01
        2   -1    0    0  501    0  0.00000000000E+00  0.00000000000E+00  0.16808066024E+04  0.16808066024E+04  0.25500000920E-02 0.  1.
       -2   -1    0    0    0  501  0.00000000000E+00  0.00000000000E+00 -0.65322937972E+03  0.65322937973E+03  0.25500000920E-02 0. -1.
    10030    2    1    2    0    0  0.00000000000E+00  0.00000000000E+00  0.10275772227E+04  0.23340359822E+04  0.20956643380E+04 0.  0.
        3    1    3    3  502    0 -0.48140249109E+03  0.74510411134E+03  0.11349187459E+04  0.14404752914E+04  0.10100000352E+00 0.  1.
       -3    1    3    3    0  502  0.48140249109E+03 -0.74510411134E+03 -0.10734152324E+03  0.89356069071E+03  0.10100000352E+00 0. -1.
</event>
<event>
 5   0  0.3257130E-05  0.2082255E+04  0.7818609E-02  0.8569101E-01
       -2   -1    0    0    0  501  0.00000000000E+00  0.00000000000E+00  0.47091296264E+03  0.47091296265E+03  0.25500000920E-02 0.  1.
        2   -1    0    0  501    0  0.00000000000E+00  0.00000000000E+00 -0.23017987772E+04  0.23017987772E+04  0.25500000920E-02 0. -1.
    10030    2    1    2    0    0  0.00000000000E+00  0.00000000000E+00 -0.18308858145E+04  0.27727117398E+04  0.20822553941E+04 0.  0.
        3    1    3    3  502    0 -0.89592801430E+03  0.52764930480E+03 -0.98648143446E+03  0.14332642556E+04  0.10100000352E+00 0.  1.
       -3    1    3    3    0  502  0.89592801430E+03 -0.52764930480E+03 -0.84440438005E+03  0.13394474842E+04  0.10100000352E+00 0. -1.
</event>
<event>
 5   0  0.3242231E-05  0.2069851E+04  0.7818609E-02  0.8574642E-01
       -2   -1    0    0    0  501  0.00000000000E+00  0.00000000000E+00  0.70371514334E+03  0.70371514335E+03  0.25500000920E-02 0.  1.
        2   -1    0    0  501    0  0.00000000000E+00  0.00000000000E+00 -0.15220239570E+04  0.15220239570E+04  0.25500000920E-02 0. -1.
    10030    2    1    2    0    0  0.00000000000E+00  0.00000000000E+00 -0.81830881363E+03  0.22257391003E+04  0.20698514991E+04 0.  0.
        4    1    3    3  502    0  0.10123446010E+04  0.17310249104E+03 -0.27202082592E+03  0.10624514136E+04  0.12699999809E+01 0. -1.
       -4    1    3    3    0  502 -0.10123446010E+04 -0.17310249104E+03 -0.54628798771E+03  0.11632876867E+04  0.12699999809E+01 0.  1.
</event>
<event>
 5   0  0.3257130E-05  0.2111999E+04  0.7818609E-02  0.8555976E-01
        2   -1    0    0  501    0  0.00000000000E+00  0.00000000000E+00  0.20102658557E+04  0.20102658557E+04  0.25500000920E-02 0. -1.
       -2   -1    0    0    0  501  0.00000000000E+00  0.00000000000E+00 -0.55472036200E+03  0.55472036200E+03  0.25500000920E-02 0.  1.
    10030    2    1    2    0    0  0.00000000000E+00  0.00000000000E+00  0.14555454937E+04  0.25649862177E+04  0.21119994349E+04 0.  0.
        3    1    3    3  502    0 -0.14800239648E+03 -0.55293212360E+03 -0.34997127712E+03  0.67090874765E+03  0.10100000352E+00 0.  1.
       -3    1    3    3    0  502  0.14800239648E+03  0.55293212360E+03  0.18055167709E+04  0.18940774701E+04  0.10100000352E+00 0. -1.
</event>
<event>
 5   0  0.1453430E-05  0.2100550E+04  0.7818609E-02  0.8561001E-01
       -1   -1    0    0    0  501  0.00000000000E+00  0.00000000000E+00  0.20751976668E+04  0.20751976668E+04  0.50400001928E-02 0.  1.
        1   -1    0    0  501    0  0.00000000000E+00  0.00000000000E+00 -0.53155301415E+03  0.53155301417E+03  0.50400001928E-02 0. -1.
    10030    2    1    2    0    0  0.00000000000E+00  0.00000000000E+00  0.15436446526E+04  0.26067506809E+04  0.21005499992E+04 0.  0.
        5    1    3    3  502    0  0.43985895410E+03  0.75306633281E+03  0.45585658794E+02  0.87331835169E+03  0.46999998093E+01 0. -1.
       -5    1    3    3    0  502 -0.43985895410E+03 -0.75306633281E+03  0.14980589938E+04  0.17334323292E+04  0.46999998093E+01 0.  1.
</event>
<event>
 5   0  0.3130517E-05  0.2089538E+04  0.7818609E-02  0.8565866E-01
        2   -1    0    0  501    0  0.00000000000E+00  0.00000000000E+00  0.22025707824E+04  0.22025707824E+04  0.25500000920E-02 0. -1.
       -2   -1    0    0    0  501  0.00000000000E+00  0.00000000000E+00 -0.49557661025E+03  0.49557661026E+03  0.25500000920E-02 0.  1.
    10030    2    1    2    0    0  0.00000000000E+00  0.00000000000E+00  0.17069941721E+04  0.26981473927E+04  0.20895382860E+04 0.  0.
        1    1    3    3  502    0 -0.76179432978E+03  0.53852571562E+03  0.24618786312E+03  0.96485699005E+03  0.50400001928E-02 0.  1.
       -1    1    3    3    0  502  0.76179432978E+03 -0.53852571562E+03  0.14608063090E+04  0.17332904026E+04  0.50400001928E-02 0. -1.
</event>
<event>
 5   0  0.1466480E-05  0.2099179E+04  0.7818609E-02  0.8561605E-01
       -1   -1    0    0    0  501  0.00000000000E+00  0.00000000000E+00  0.99711956118E+03  0.99711956119E+03  0.50400001928E-02 0. -1.
        1   -1    0    0  501    0  0.00000000000E+00  0.00000000000E+00 -0.11048203546E+04  0.11048203546E+04  0.50400001928E-02 0.  1.
    10030    2    1    2    0    0  0.00000000000E+00  0.00000000000E+00 -0.10770079341E+03  0.21019399158E+04  0.20991788749E+04 0.  0.
        3    1    3    3  502    0  0.47726946337E+03  0.73237214768E+03 -0.63554725675E+03  0.10807753833E+04  0.10100000352E+00 0.  1.
       -3    1    3    3    0  502 -0.47726946337E+03 -0.73237214768E+03  0.52784646334E+03  0.10211645325E+04  0.10100000352E+00 0. -1.
</event>
<event>
 5   0  0.3242231E-05  0.2096270E+04  0.7818609E-02  0.8562888E-01
        2   -1    0    0  501    0  0.00000000000E+00  0.00000000000E+00  0.19427888746E+04  0.19427888746E+04  0.25500000920E-02 0. -1.
       -2   -1    0    0    0  501  0.00000000000E+00  0.00000000000E+00 -0.56546920023E+03  0.56546920024E+03  0.25500000920E-02 0.  1.
    10030    2    1    2    0    0  0.00000000000E+00  0.00000000000E+00  0.13773196743E+04  0.25082580748E+04  0.20962702795E+04 0.  0.
        4    1    3    3  502    0 -0.35540779423E+03 -0.95425825413E+03  0.98578145226E+03  0.14172826819E+04  0.12699999809E+01 0. -1.
       -4    1    3    3    0  502  0.35540779423E+03  0.95425825413E+03  0.39153822208E+03  0.10909753930E+04  0.12699999809E+01 0.  1.
</event>
<event>
 5   0  0.3242231E-05  0.2090247E+04  0.7818609E-02  0.8565552E-01
        2   -1    0    0  501    0  0.00000000000E+00  0.00000000000E+00  0.16405734004E+04  0.16405734004E+04  0.25500000920E-02 0. -1.
       -2   -1    0    0    0  501  0.00000000000E+00  0.00000000000E+00 -0.66579376517E+03  0.66579376518E+03  0.25500000920E-02 0.  1.
    10030    2    1    2    0    0  0.00000000000E+00  0.00000000000E+00  0.97477963527E+03  0.23063671656E+04  0.20902473933E+04 0.  0.
        4    1    3    3  502    0  0.19020769335E+03  0.11728110007E+03 -0.63912561785E+03  0.67706498310E+03  0.12699999809E+01 0.  1.
       -4    1    3    3    0  502 -0.19020769335E+03 -0.11728110007E+03  0.16139052531E+04  0.16293021825E+04  0.12699999809E+01 0. -1.
</event>
<event>
 5   0  0.1129987E-05  0.2045659E+04  0.7818609E-02  0.8585566E-01
       -3   -1    0    0    0  501  0.00000000000E+00  0.00000000000E+00  0.73392183564E+03  0.73392184259E+03  0.10100000352E+00 0. -1.
        3   -1    0    0  501    0  0.00000000000E+00  0.00000000000E+00 -0.14254647501E+04  0.14254647537E+04  0.10100000352E+00 0.  1.
    10030    2    1    2    0    0  0.00000000000E+00  0.00000000000E+00 -0.69154291447E+03  0.21593865963E+04  0.20456585418E+04 0.  0.
        3    1    3    3  502    0 -0.67858912689E+03 -0.58841166594E+03 -0.86233196054E+03  0.12451216455E+04  0.10100000352E+00 0.  1.
       -3    1    3    3    0  502  0.67858912689E+03  0.58841166594E+03  0.17078904607E+03  0.91426495077E+03  0.10100000352E+00 0. -1.
</event>
<event>
 5   0  0.3242231E-05  0.2129120E+04  0.7818609E-02  0.8548523E-01
       -2   -1    0    0    0  501  0.00000000000E+00  0.00000000000E+00  0.17116724566E+04  0.17116724566E+04  0.25500000920E-02 0. -1.
        2   -1    0    0  501    0  0.00000000000E+00  0.00000000000E+00 -0.66209367780E+03  0.66209367780E+03  0.25500000920E-02 0.  1.
    10030    2    1    2    0    0  0.00000000000E+00  0.00000000000E+00  0.10495787788E+04  0.23737661344E+04  0.21291195476E+04 0.  0.
        4    1    3    3  502    0  0.45198471427E+03  0.92445244298E+03  0.82886101002E+03  0.13213306506E+04  0.12699999809E+01 0. -1.
       -4    1    3    3    0  502 -0.45198471427E+03 -0.92445244298E+03  0.22071776875E+03  0.10524354838E+04  0.12699999809E+01 0.  1.
</event>
<event>
 5   0  0.3130517E-05  0.2094123E+04  0.7818609E-02  0.8563837E-01
        2   -1    0    0  501    0  0.00000000000E+00  0.00000000000E+00  0.13053520093E+04  0.13053520093E+04  0.25500000920E-02 0. -1.
       -2   -1    0    0    0  501  0.00000000000E+00  0.00000000000E+00 -0.83987868351E+03  0.83987868351E+03  0.25500000920E-02 0.  1.
    10030    2    1    2    0    0  0.00000000000E+00  0.00000000000E+00  0.46547332577E+03  0.21452306928E+04  0.20941225629E+04 0.  0.
        1    1    3    3  502    0  0.94004377720E+01 -0.72502799350E+03  0.10065415349E+04  0.12405159496E+04  0.50400001928E-02 0. -1.
       -1    1    3    3    0  502 -0.94004377720E+01  0.72502799350E+03 -0.54106820917E+03  0.90471474321E+03  0.50400001928E-02 0.  1.
</event>
<event>
 5   0  0.1492552E-05  0.2095805E+04  0.7818609E-02  0.8563094E-01
       -1   -1    0    0    0  501  0.00000000000E+00  0.00000000000E+00  0.64433234228E+03  0.64433234230E+03  0.50400001928E-02 0. -1.
        1   -1    0    0  501    0  0.00000000000E+00  0.00000000000E+00 -0.17042443521E+04  0.17042443521E+04  0.50400001928E-02 0.  1.
    10030    2    1    2    0    0  0.00000000000E+00  0.00000000000E+00 -0.10599120099E+04  0.23485766944E+04  0.20958051009E+04 0.  0.
        4    1    3    3  502    0 -0.67402951968E+03 -0.27805607738E+03 -0.13733708197E+04  0.15549212188E+04  0.12699999809E+01 0.  1.
       -4    1    3    3    0  502  0.67402951968E+03  0.27805607738E+03  0.31345880983E+03  0.79365547558E+03  0.12699999809E+01 0. -1.
</event>
<event>
 5   0  0.1129987E-05  0.2099407E+04  0.7818609E-02  0.8561505E-01
       -3   -1    0    0    0  501  0.00000000000E+00  0.00000000000E+00  0.83821061622E+03  0.83821062230E+03  0.10100000352E+00 0. -1.
        3   -1    0    0  501    0  0.00000000000E+00  0.00000000000E+00 -0.13145588446E+04  0.13145588485E+04  0.10100000352E+00 0.  1.
    10030    2    1    2    0    0  0.00000000000E+00  0.00000000000E+00 -0.47634822842E+03  0.21527694708E+04  0.20994067638E+04 0.  0.
        5    1    3    3  502    0  0.38836753987E+03  0.53020198356E+03 -0.10774595489E+04  0.12620953446E+04  0.46999998093E+01 0.  1.
       -5    1    3    3    0  502 -0.38836753987E+03 -0.53020198356E+03  0.60111132051E+03  0.89067412618E+03  0.46999998093E+01 0. -1.
</event>
<event>
 5   0  0.1453430E-05  0.2099464E+04  0.7818609E-02  0.8561479E-01
        1   -1    0    0  501    0  0.00000000000E+00  0.00000000000E+00  0.13590749858E+04  0.13590749858E+04  0.50400001928E-02 0.  1.
       -1   -1    0    0    0  501  0.00000000000E+00  0.00000000000E+00 -0.81079980433E+03  0.81079980435E+03  0.50400001928E-02 0. -1.
    10030    2    1    2    0    0  0.00000000000E+00  0.00000000000E+00  0.54827518148E+03  0.21698747902E+04  0.20994644389E+04 0.  0.
        5    1    3    3  502    0 -0.67366752269E+03  0.75367755550E+03 -0.18296583133E+02  0.10110463114E+04  0.46999998093E+01 0.  1.
       -5    1    3    3    0  502  0.67366752269E+03 -0.75367755550E+03  0.56657176461E+03  0.11588284788E+04  0.46999998093E+01 0. -1.
</event>
<event>
 5   0  0.3242231E-05  0.2097084E+04  0.7818609E-02  0.8562529E-01
       -2   -1    0    0    0  501  0.00000000000E+00  0.00000000000E+00  0.95803419069E+03  0.95803419069E+03  0.25500000920E-02 0.  1.
        2   -1    0    0  501    0  0.00000000000E+00  0.00000000000E+00 -0.11476000412E+04  0.11476000412E+04  0.25500000920E-02 0. -1.
    10030    2    1    2    0    0  0.00000000000E+00  0.00000000000E+00 -0.18956585051E+03  0.21056342319E+04  0.20970837625E+04 0.  0.
        4    1    3    3  502    0 -0.22573635363E+03  0.10224838266E+04 -0.14985532328E+03  0.10577751689E+04  0.12699999809E+01 0. -1.
       -4    1    3    3    0  502  0.22573635363E+03 -0.10224838266E+04 -0.39710527225E+02  0.10478590630E+04  0.12699999809E+01 0.  1.
</event>
<event>
 5   0  0.3130517E-05  0.2105474E+04  0.7818609E-02  0.8558836E-01
       -2   -1    0    0    0  501  0.00000000000E+00  0.00000000000E+00  0.65866077848E+03  0.65866077848E+03  0.25500000920E-02 0.  1.
        2   -1    0    0  501    0  0.00000000000E+00  0.00000000000E+00 -0.16825894521E+04  0.16825894521E+04  0.25500000920E-02 0. -1.
    10030    2    1    2    0    0  0.00000000000E+00  0.00000000000E+00 -0.10239286736E+04  0.23412502306E+04  0.21054744628E+04 0.  0.
        1    1    3    3  502    0 -0.57247867223E+03 -0.85360976225E+02 -0.14897738704E+04  0.15982629669E+04  0.50400001928E-02 0. -1.
       -1    1    3    3    0  502  0.57247867223E+03  0.85360976225E+02  0.46584519685E+03  0.74298726361E+03  0.50400001928E-02 0.  1.
</event>
<event>
 5   0  0.3279789E-05  0.2096211E+04  0.7818609E-02  0.8562914E-01
       -2   -1    0    0    0  501  0.00000000000E+00  0.00000000000E+00  0.12284233505E+04  0.12284233505E+04  0.25500000920E-02 0.  1.
        2   -1    0    0  501    0  0.00000000000E+00  0.00000000000E+00 -0.89425655797E+03  0.89425655797E+03  0.25500000920E-02 0. -1.
    10030    2    1    2    0    0  0.00000000000E+00  0.00000000000E+00  0.33416679249E+03  0.21226799084E+04  0.20962114751E+04 0.  0.
        2    1    3    3  502    0  0.47941973334E+03 -0.92365917730E+03  0.40865729451E+02  0.10414699056E+04  0.25500000920E-02 0.  1.
       -2    1    3    3    0  502 -0.47941973334E+03  0.92365917730E+03  0.29330106304E+03  0.10812100028E+04  0.25500000920E-02 0. -1.
</event>
<event>
 5   0  0.3108326E-05  0.2091309E+04  0.7818609E-02  0.8565081E-01
       -2   -1    0    0    0  501  0.00000000000E+00  0.00000000000E+00  0.53534453472E+03  0.53534453473E+03  0.25500000920E-02 0.  1.
        2   -1    0    0  501    0  0.00000000000E+00  0.00000000000E+00 -0.20424114725E+04  0.20424114725E+04  0.25500000920E-02 0. -1.
    10030    2    1    2    0    0  0.00000000000E+00  0.00000000000E+00 -0.15070669377E+04  0.25777560072E+04  0.20913094649E+04 0.  0.
        5    1    3    3  502    0 -0.76066560151E+03 -0.20582684224E+03 -0.16007142540E+04  0.17841762972E+04  0.46999998093E+01 0. -1.
       -5    1    3    3    0  502  0.76066560151E+03  0.20582684224E+03  0.93647316296E+02  0.79357971002E+03  0.46999998093E+01 0.  1.
</event>
<event>
 5   0  0.3279789E-05  0.2059191E+04  0.7818609E-02  0.8579436E-01
        2   -1    0    0  501    0  0.00000000000E+00  0.00000000000E+00  0.16425554869E+04  0.16425554869E+04  0.25500000920E-02 0. -1.
       -2   -1    0    0    0  501  0.00000000000E+00  0.00000000000E+00 -0.64537676566E+03  0.64537676567E+03  0.25500000920E-02 0.  1.
    10030    2    1    2    0    0  0.00000000000E+00  0.00000000000E+00  0.99717872127E+03  0.22879322526E+04  0.20591912467E+04 0.  0.
        2    1    3    3  502    0 -0.45983859506E+03 -0.62689814534E+02  0.15197498967E+04  0.15890315588E+04  0.25500000920E-02 0. -1.
       -2    1    3    3    0  502  0.45983859506E+03  0.62689814534E+02 -0.52257117544E+03  0.69890069378E+03  0.25500000920E-02 0.  1.
</event>
<event>
 5   0  0.1466480E-05  0.2105235E+04  0.7818609E-02  0.8558941E-01
        1   -1    0    0  501    0  0.00000000000E+00  0.00000000000E+00  0.18711689569E+04  0.18711689569E+04  0.50400001928E-02 0. -1.
       -1   -1    0    0    0  501  0.00000000000E+00  0.00000000000E+00 -0.59214523510E+03  0.59214523512E+03  0.50400001928E-02 0.  1.
    10030    2    1    2    0    0  0.00000000000E+00  0.00000000000E+00  0.12790237218E+04  0.24633141920E+04  0.21052351716E+04 0.  0.
        3    1    3    3  502    0  0.96514040103E+03  0.38425164093E+03  0.83828409823E+03  0.13348653703E+04  0.10100000352E+00 0. -1.
       -3    1    3    3    0  502 -0.96514040103E+03 -0.38425164093E+03  0.44073962357E+03  0.11284488217E+04  0.10100000352E+00 0.  1.
</event>
<event>
 5   0  0.3130517E-05  0.2101714E+04  0.7818609E-02  0.8560489E-01
       -2   -1    0    0    0  501  0.00000000000E+00  0.00000000000E+00  0.10101507770E+04  0.10101507770E+04  0.25500000920E-02 0. -1.
        2   -1    0    0  501    0  0.00000000000E+00  0.00000000000E+00 -0.10932035149E+04  0.10932035149E+04  0.25500000920E-02 0.  1.
    10030    2    1    2    0    0  0.00000000000E+00  0.00000000000E+00 -0.83052737852E+02  0.21033542919E+04  0.21017139482E+04 0.  0.
        1    1    3    3  502    0 -0.57308132751E+03 -0.72790957636E+03  0.45487065620E+03  0.10320764861E+04  0.50400001928E-02 0. -1.
       -1    1    3    3    0  502  0.57308132751E+03  0.72790957636E+03 -0.53792339405E+03  0.10712778058E+04  0.50400001928E-02 0.  1.
</event>
<event>
 5   0  0.1435410E-05  0.2110063E+04  0.7818609E-02  0.8556823E-01
       -1   -1    0    0    0  501  0.00000000000E+00  0.00000000000E+00  0.68456891980E+03  0.68456891981E+03  0.50400001928E-02 0.  1.
        1   -1    0    0  501    0  0.00000000000E+00  0.00000000000E+00 -0.16259748800E+04  0.16259748800E+04  0.50400001928E-02 0. -1.
    10030    2    1    2    0    0  0.00000000000E+00  0.00000000000E+00 -0.94140596018E+03  0.23105437998E+04  0.21100633803E+04 0.  0.
        2    1    3    3  502    0 -0.47831224791E+03  0.92730484515E+03 -0.29960419141E+03  0.10855595580E+04  0.25500000920E-02 0.  1.
       -2    1    3    3    0  502  0.47831224791E+03 -0.92730484515E+03 -0.64180176877E+03  0.12249842418E+04  0.25500000920E-02 0. -1.
</event>
<event>
 5   0  0.1492552E-05  0.2130192E+04  0.7818609E-02  0.8548059E-01
       -1   -1    0    0    0  501  0.00000000000E+00  0.00000000000E+00  0.60606848907E+03  0.60606848909E+03  0.50400001928E-02 0.  1.
        1   -1    0    0  501    0  0.00000000000E+00  0.00000000000E+00 -0.18717847162E+04  0.18717847163E+04  0.50400001928E-02 0. -1.
    10030    2    1    2    0    0  0.00000000000E+00  0.00000000000E+00 -0.12657162272E+04  0.24778532053E+04  0.21301922306E+04 0.  0.
        4    1    3    3  502    0 -0.94753743880E+03  0.47820682188E+03 -0.73637145407E+03  0.12918024205E+04  0.12699999809E+01 0. -1.
       -4    1    3    3    0  502  0.94753743880E+03 -0.47820682188E+03 -0.52934477310E+03  0.11860507848E+04  0.12699999809E+01 0.  1.
</event>
<event>
 5   0  0.3257130E-05  0.2094676E+04  0.7818609E-02  0.8563592E-01
        2   -1    0    0  501    0  0.00000000000E+00  0.00000000000E+00  0.20495823176E+04  0.20495823176E+04  0.25500000920E-02 0.  1.
       -2   -1    0    0    0  501  0.00000000000E+00  0.00000000000E+00 -0.53519024949E+03  0.53519024950E+03  0.25500000920E-02 0. -1.
    10030    2    1    2    0    0  0.00000000000E+00  0.00000000000E+00  0.15143920681E+04  0.25847725671E+04  0.20946756044E+04 0.  0.
        3    1    3    3  502    0  0.43432403053E+03  0.73619116570E+03  0.10360440573E+02  0.85482287339E+03  0.10100000352E+00 0. -1.
       -3    1    3    3    0  502 -0.43432403053E+03 -0.73619116570E+03  0.15040316276E+04  0.17299496937E+04  0.10100000352E+00 0.  1.
</event>
<event>
 5   0  0.3108326E-05  0.2093050E+04  0.7818609E-02  0.8564311E-01
        2   -1    0    0  501    0  0.00000000000E+00  0.00000000000E+00  0.11883336430E+04  0.11883336430E+04  0.25500000920E-02 0.  1.
       -2   -1    0    0    0  501  0.00000000000E+00  0.00000000000E+00 -0.92163884640E+03  0.92163884640E+03  0.25500000920E-02 0. -1.
    10030    2    1    2    0    0  0.00000000000E+00  0.00000000000E+00  0.26669479662E+03  0.21099724894E+04  0.20930498779E+04 0.  0.
        5    1    3    3  502    0 -0.91195747950E+03 -0.38020643884E+03 -0.21436011832E+03  0.10110369582E+04  0.46999998093E+01 0. -1.
       -5    1    3    3    0  502  0.91195747950E+03  0.38020643884E+03  0.48105491493E+03  0.10989355312E+04  0.46999998093E+01 0.  1.
</event>
<event>
 5   0  0.1129987E-05  0.2089086E+04  0.7818609E-02  0.8566066E-01
        3   -1    0    0  501    0  0.00000000000E+00  0.00000000000E+00  0.93382827137E+03  0.93382827683E+03  0.10100000352E+00 0.  1.
       -3   -1    0    0    0  501  0.00000000000E+00  0.00000000000E+00 -0.11683846162E+04  0.11683846206E+04  0.10100000352E+00 0. -1.
    10030    2    1    2    0    0  0.00000000000E+00  0.00000000000E+00 -0.23455634486E+03  0.21022128974E+04  0.20890864959E+04 0.  0.
        5    1    3    3  502    0 -0.41423112737E+03 -0.30586471703E+02  0.84714113127E+03  0.94350047452E+03  0.46999998093E+01 0.  1.
       -5    1    3    3    0  502  0.41423112737E+03  0.30586471703E+02 -0.10816974761E+04  0.11587124229E+04  0.46999998093E+01 0. -1.
</event>
<event>
 5   0  0.3108326E-05  0.2110906E+04  0.7818609E-02  0.8556455E-01
       -2   -1    0    0    0  501  0.00000000000E+00  0.00000000000E+00  0.12120580767E+04  0.12120580767E+04  0.25500000920E-02 0. -1.
        2   -1    0    0  501    0  0.00000000000E+00  0.00000000000E+00 -0.91908179925E+03  0.91908179925E+03  0.25500000920E-02 0.  1.
    10030    2    1    2    0    0  0.00000000000E+00  0.00000000000E+00  0.29297627742E+03  0.21311398759E+04  0.21109055099E+04 0.  0.
        5    1    3    3  502    0  0.99747727475E+03  0.30146718702E+03 -0.22794565245E+02  0.10422979712E+04  0.46999998093E+01 0.  1.
       -5    1    3    3    0  502 -0.99747727475E+03 -0.30146718702E+03  0.31577084266E+03  0.10888419048E+04  0.46999998093E+01 0. -1.
</event>
<event>
 5   0  0.3130517E-05  0.2048606E+04  0.7818609E-02  0.8584227E-01
        2   -1    0    0  501    0  0.00000000000E+00  0.00000000000E+00  0.89876239526E+03  0.89876239527E+03  0.25500000920E-02 0.  1.
       -2   -1    0    0    0  501  0.00000000000E+00  0.00000000000E+00 -0.11673794599E+04  0.11673794599E+04  0.25500000920E-02 0. -1.
    10030    2    1    2    0    0  0.00000000000E+00  0.00000000000E+00 -0.26861706467E+03  0.20661418552E+04  0.20486061209E+04 0.  0.
        1    1    3    3  502    0  0.43173596068E+02 -0.10147933772E+04 -0.26783211103E+03  0.10504301964E+04  0.50400001928E-02 0. -1.
       -1    1    3    3    0  502 -0.43173596068E+02  0.10147933772E+04 -0.78495364719E+00  0.10157116588E+04  0.50400001928E-02 0.  1.
</event>
<event>
 5   0  0.1492552E-05  0.2100515E+04  0.7818609E-02  0.8561017E-01
        1   -1    0    0  501    0  0.00000000000E+00  0.00000000000E+00  0.11802194040E+04  0.11802194040E+04  0.50400001928E-02 0. -1.
       -1   -1    0    0    0  501  0.00000000000E+00  0.00000000000E+00 -0.93460648572E+03  0.93460648573E+03  0.50400001928E-02 0.  1.
    10030    2    1    2    0    0  0.00000000000E+00  0.00000000000E+00  0.24561291827E+03  0.21148258897E+04  0.21005148984E+04 0.  0.
        4    1    3    3  502    0  0.60798329775E+03 -0.81475912393E+02 -0.73550218910E+03  0.95773018002E+03  0.12699999809E+01 0.  1.
       -4    1    3    3    0  502 -0.60798329775E+03  0.81475912393E+02  0.98111510737E+03  0.11570957097E+04  0.12699999809E+01 0. -1.
</event>
<event>
 5   0  0.1453430E-05  0.2099217E+04  0.7818609E-02  0.8561588E-01
       -1   -1    0    0    0  501  0.00000000000E+00  0.00000000000E+00  0.87353549463E+03  0.87353549464E+03  0.50400001928E-02 0.  1.
        1   -1    0    0  501    0  0.00000000000E+00  0.00000000000E+00 -0.12611715983E+04  0.12611715983E+04  0.50400001928E-02 0. -1.
    10030    2    1    2    0    0  0.00000000000E+00  0.00000000000E+00 -0.38763610371E+03  0.21347070930E+04  0.20992171455E+04 0.  0.
        5    1    3    3  502    0 -0.83621381970E+03  0.17509429122E+03 -0.81383449291E+03  0.11799407760E+04  0.46999998093E+01 0. -1.
       -5    1    3    3    0  502  0.83621381970E+03 -0.17509429122E+03  0.42619838920E+03  0.95476631697E+03  0.46999998093E+01 0.  1.
</event>
<event>
 5   0  0.3108326E-05  0.2104746E+04  0.7818609E-02  0.8559156E-01
       -2   -1    0    0    0  501  0.00000000000E+00  0.00000000000E+00  0.83333070483E+03  0.83333070483E+03  0.25500000920E-02 0.  1.
        2   -1    0    0  501    0  0.00000000000E+00  0.00000000000E+00 -0.13289905332E+04  0.13289905332E+04  0.25500000920E-02 0. -1.
    10030    2    1    2    0    0  0.00000000000E+00  0.00000000000E+00 -0.49565982838E+03  0.21623212380E+04  0.21047457022E+04 0.  0.
        5    1    3    3  502    0  0.85448857475E+02  0.23110793655E+03 -0.12989272290E+04  0.13220992481E+04  0.46999998093E+01 0. -1.
       -5    1    3    3    0  502 -0.85448857475E+02 -0.23110793655E+03  0.80326740059E+03  0.84022198997E+03  0.46999998093E+01 0.  1.
</event>
<event>
 5   0  0.3279789E-05  0.2097899E+04  0.7818609E-02  0.8562169E-01
        2   -1    0    0  501    0  0.00000000000E+00  0.00000000000E+00  0.14864205160E+04  0.14864205160E+04  0.25500000920E-02 0. -1.
       -2   -1    0    0    0  501  0.00000000000E+00  0.00000000000E+00 -0.74023136237E+03  0.74023136238E+03  0.25500000920E-02 0.  1.
    10030    2    1    2    0    0  0.00000000000E+00  0.00000000000E+00  0.74618915364E+03  0.22266518784E+04  0.20978990287E+04 0.  0.
        2    1    3    3  502    0 -0.87065573123E+03 -0.36921871638E+03 -0.10855239985E+03  0.95191779391E+03  0.25500000920E-02 0.  1.
       -2    1    3    3    0  502  0.87065573123E+03  0.36921871638E+03  0.85474155349E+03  0.12747340845E+04  0.25500000920E-02 0. -1.
</event>
<event>
 5   0  0.3257130E-05  0.2106925E+04  0.7818609E-02  0.8558199E-01
       -2   -1    0    0    0  501  0.00000000000E+00  0.00000000000E+00  0.92104961196E+03  0.92104961197E+03  0.25500000920E-02 0. -1.
        2   -1    0    0  501    0  0.00000000000E+00  0.00000000000E+00 -0.12049109886E+04  0.12049109886E+04  0.25500000920E-02 0.  1.
    10030    2    1    2    0    0  0.00000000000E+00  0.00000000000E+00 -0.28386137662E+03  0.21259606006E+04  0.21069245819E+04 0.  0.
        3    1    3    3  502    0 -0.13525153105E+03 -0.10156258261E+04 -0.38908039867E+03  0.10959800920E+04  0.10100000352E+00 0.  1.
       -3    1    3    3    0  502  0.13525153105E+03  0.10156258261E+04  0.10521902205E+03  0.10299805086E+04  0.10100000352E+00 0. -1.
</event>
<event>
 5   0  0.1513292E-05  0.2125082E+04  0.7818609E-02  0.8550274E-01
       -1   -1    0    0    0  501  0.00000000000E+00  0.00000000000E+00  0.92085378809E+03  0.92085378811E+03  0.50400001928E-02 0. -1.
        1   -1    0    0  501    0  0.00000000000E+00  0.00000000000E+00 -0.12260289094E+04  0.12260289094E+04  0.50400001928E-02 0.  1.
    10030    2    1    2    0    0  0.00000000000E+00  0.00000000000E+00 -0.30517512129E+03  0.21468826975E+04  0.21250819895E+04 0.  0.
        1    1    3    3  502    0 -0.34824118314E+03 -0.34650021630E+03 -0.11044095119E+04  0.12087409530E+04  0.50400001928E-02 0.  1.
       -1    1    3    3    0  502  0.34824118314E+03  0.34650021630E+03  0.79923439062E+03  0.93814174446E+03  0.50400001928E-02 0. -1.
</event>
<event>
 5   0  0.3257130E-05  0.2102939E+04  0.7818609E-02  0.8559950E-01
       -2   -1    0    0    0  501  0.00000000000E+00  0.00000000000E+00  0.46381591008E+03  0.46381591009E+03  0.25500000920E-02 0.  1.
        2   -1    0    0  501    0  0.00000000000E+00  0.00000000000E+00 -0.23836777578E+04  0.23836777578E+04  0.25500000920E-02 0. -1.
    10030    2    1    2    0    0  0.00000000000E+00  0.00000000000E+00 -0.19198618477E+04  0.28474936679E+04  0.21029385807E+04 0.  0.
        3    1    3    3  502    0 -0.10438844978E+04  0.10501797581E+03 -0.86549555619E+03  0.13600758023E+04  0.10100000352E+00 0. -1.
       -3    1    3    3    0  502  0.10438844978E+04 -0.10501797581E+03 -0.10543662915E+04  0.14874178656E+04  0.10100000352E+00 0.  1.
</event>
<event>
 5   0  0.3108326E-05  0.2080485E+04  0.7818609E-02  0.8569889E-01
       -2   -1    0    0    0  501  0.00000000000E+00  0.00000000000E+00  0.74570596469E+03  0.74570596470E+03  0.25500000920E-02 0. -1.
        2   -1    0    0  501    0  0.00000000000E+00  0.00000000000E+00 -0.14511146295E+04  0.14511146295E+04  0.25500000920E-02 0.  1.
    10030    2    1    2    0    0  0.00000000000E+00  0.00000000000E+00 -0.70540866485E+03  0.21968205942E+04  0.20804853614E+04 0.  0.
        5    1    3    3  502    0 -0.23006063959E+03  0.51869485619E+03 -0.12732986519E+04  0.13940171443E+04  0.46999998093E+01 0.  1.
       -5    1    3    3    0  502  0.23006063959E+03 -0.51869485619E+03  0.56788998708E+03  0.80280344989E+03  0.46999998093E+01 0. -1.
</event>
<event>
 5   0  0.1513292E-05  0.2148587E+04  0.7818609E-02  0.8540137E-01
       -1   -1    0    0    0  501  0.00000000000E+00  0.00000000000E+00  0.12258786238E+04  0.12258786238E+04  0.50400001928E-02 0.  1.
        1   -1    0    0  501    0  0.00000000000E+00  0.00000000000E+00 -0.94145231113E+03  0.94145231114E+03  0.50400001928E-02 0. -1.
    10030    2    1    2    0    0  0.00000000000E+00  0.00000000000E+00  0.28442631270E+03  0.21673309350E+04  0.21485867575E+04 0.  0.
        1    1    3    3  502    0 -0.47747063665E+03  0.68375248646E+03 -0.54090271477E+03  0.99401781597E+03  0.50400001928E-02 0. -1.
       -1    1    3    3    0  502  0.47747063665E+03 -0.68375248646E+03  0.82532902747E+03  0.11733131190E+04  0.50400001928E-02 0.  1.
</event>
<event>
 5   0  0.1435410E-05  0.2102984E+04  0.7818609E-02  0.8559930E-01
        1   -1    0    0  501    0  0.00000000000E+00  0.00000000000E+00  0.65944739460E+03  0.65944739462E+03  0.50400001928E-02 0.  1.
       -1   -1    0    0    0  501  0.00000000000E+00  0.00000000000E+00 -0.16766083361E+04  0.16766083361E+04  0.50400001928E-02 0. -1.
    10030    2    1    2    0    0  0.00000000000E+00  0.00000000000E+00 -0.10171609415E+04  0.23360557307E+04  0.21029835939E+04 0.  0.
        2    1    3    3  502    0  0.22738989650E+03  0.12360071917E+03 -0.16406739324E+04  0.16609618464E+04  0.25500000920E-02 0. -1.
       -2    1    3    3    0  502 -0.22738989650E+03 -0.12360071917E+03  0.62351299089E+03  0.67509388431E+03  0.25500000920E-02 0.  1.
</event>
<event>
 5   0  0.3242231E-05  0.2110266E+04  0.7818609E-02  0.8556734E-01
        2   -1    0    0  501    0  0.00000000000E+00  0.00000000000E+00  0.14254493758E+04  0.14254493758E+04  0.25500000920E-02 0.  1.
       -2   -1    0    0    0  501  0.00000000000E+00  0.00000000000E+00 -0.78102098284E+03  0.78102098284E+03  0.25500000920E-02 0. -1.
    10030    2    1    2    0    0  0.00000000000E+00  0.00000000000E+00  0.64442839296E+03  0.22064703586E+04  0.21102662130E+04 0.  0.
        4    1    3    3  502    0  0.73937567302E+03  0.74360847458E+03  0.19994598301E+03  0.10675251558E+04  0.12699999809E+01 0. -1.
       -4    1    3    3    0  502 -0.73937567302E+03 -0.74360847458E+03  0.44448240995E+03  0.11389452028E+04  0.12699999809E+01 0.  1.
</event>
<event>
 5   0  0.3242231E-05  0.2096504E+04  0.7818609E-02  0.8562785E-01
        2   -1    0    0  501    0  0.00000000000E+00  0.00000000000E+00  0.14678991302E+04  0.14678991302E+04  0.25500000920E-02 0.  1.
       -2   -1    0    0    0  501  0.00000000000E+00  0.00000000000E+00 -0.74857479057E+03  0.74857479057E+03  0.25500000920E-02 0. -1.
    10030    2    1    2    0    0  0.00000000000E+00  0.00000000000E+00  0.71932433965E+03  0.22164739208E+04  0.20965040272E+04 0.  0.
        4    1    3    3  502    0  0.43785352569E+03 -0.50690725277E+03 -0.49280379296E+03  0.83158154388E+03  0.12699999809E+01 0. -1.
       -4    1    3    3    0  502 -0.43785352569E+03  0.50690725277E+03  0.12121281326E+04  0.13848923769E+04  0.12699999809E+01 0.  1.
</event>
<event>
 5   0  0.3279789E-05  0.2102829E+04  0.7818609E-02  0.8559998E-01
        2   -1    0    0  501    0  0.00000000000E+00  0.00000000000E+00  0.24345646599E+04  0.24345646599E+04  0.25500000920E-02 0. -1.
       -2   -1    0    0    0  501  0.00000000000E+00  0.00000000000E+00 -0.45407380896E+03  0.45407380897E+03  0.25500000920E-02 0.  1.
    10030    2    1    2    0    0  0.00000000000E+00  0.00000000000E+00  0.19804908509E+04  0.28886384688E+04  0.21028286171E+04 0.  0.
        2    1    3    3  502    0  0.13889019467E+03  0.74834306430E+03  0.19866827065E+04  0.21274905416E+04  0.25500000920E-02 0. -1.
       -2    1    3    3    0  502 -0.13889019467E+03 -0.74834306430E+03 -0.61918556500E+01  0.76114792724E+03  0.25500000920E-02 0.  1.
</event>
<event>
 5   0  0.3130517E-05  0.2093216E+04  0.7818609E-02  0.8564238E-01
       -2   -1    0    0    0  501  0.00000000000E+00  0.00000000000E+00  0.50670430667E+03  0.50670430668E+03  0.25500000920E-02 0. -1.
        2   -1    0    0  501    0  0.00000000000E+00  0.00000000000E+00 -0.21617900625E+04  0.21617900625E+04  0.25500000920E-02 0.  1.
    10030    2    1    2    0    0  0.00000000000E+00  0.00000000000E+00 -0.16550857558E+04  0.26684943692E+04  0.20932160278E+04 0.  0.
        1    1    3    3  502    0  0.66164360533E+03  0.47985287475E+03 -0.16609319455E+04  0.18511418015E+04  0.50400001928E-02 0.  1.
       -1    1    3    3    0  502 -0.66164360533E+03 -0.47985287475E+03  0.58461896321E+01  0.81735256765E+03  0.50400001928E-02 0. -1.
</event>
<event>
 5   0  0.3242231E-05  0.2091032E+04  0.7818609E-02  0.8565204E-01
        2   -1    0    0  501    0  0.00000000000E+00  0.00000000000E+00  0.15367992161E+04  0.15367992161E+04  0.25500000920E-02 0. -1.
       -2   -1    0    0    0  501  0.00000000000E+00  0.00000000000E+00 -0.71128608503E+03  0.71128608503E+03  0.25500000920E-02 0.  1.
    10030    2    1    2    0    0  0.00000000000E+00  0.00000000000E+00  0.82551313104E+03  0.22480853011E+04  0.20910321833E+04 0.  0.
        4    1    3    3  502    0  0.65571145588E+03  0.50787898659E+03  0.10971231145E+04  0.13753469816E+04  0.12699999809E+01 0. -1.
       -4    1    3    3    0  502 -0.65571145588E+03 -0.50787898659E+03 -0.27160998347E+03  0.87273831955E+03  0.12699999809E+01 0.  1.
</event>
<event>
 5   0  0.3108326E-05  0.2095746E+04  0.7818609E-02  0.8563120E-01
       -2   -1    0    0    0  501  0.00000000000E+00  0.00000000000E+00  0.58797122873E+03  0.58797122873E+03  0.25500000920E-02 0. -1.
        2   -1    0    0  501    0  0.00000000000E+00  0.00000000000E+00 -0.18675027337E+04  0.18675027337E+04  0.25500000920E-02 0.  1.
    10030    2    1    2    0    0  0.00000000000E+00  0.00000000000E+00 -0.12795315050E+04  0.24554739625E+04  0.20957460505E+04 0.  0.
        5    1    3    3  502    0 -0.30233074407E+03  0.10031496044E+04 -0.66015305714E+03  0.12383606730E+04  0.46999998093E+01 0.  1.
       -5    1    3    3    0  502  0.30233074407E+03 -0.10031496044E+04 -0.61937844786E+03  0.12171132894E+04  0.46999998093E+01 0. -1.
</event>
<event>
 5   0  0.1466480E-05  0.2096694E+04  0.7818609E-02  0.8562701E-01
       -1   -1    0    0    0  501  0.00000000000E+00  0.00000000000E+00  0.79827250055E+03  0.79827250057E+03  0.50400001928E-02 0. -1.
        1   -1    0    0  501    0  0.00000000000E+00  0.00000000000E+00 -0.13767622098E+04  0.13767622098E+04  0.50400001928E-02 0.  1.
    10030    2    1    2    0    0  0.00000000000E+00  0.00000000000E+00 -0.57848970926E+03  0.21750347104E+04  0.20966939804E+04 0.  0.
        3    1    3    3  502    0 -0.57227399509E+03 -0.65304019855E+01  0.62191933006E+03  0.84517680689E+03  0.10100000352E+00 0. -1.
       -3    1    3    3    0  502  0.57227399509E+03  0.65304019855E+01 -0.12004090393E+04  0.13298579035E+04  0.10100000352E+00 0.  1.
</event>
<event>
 5   0  0.1466480E-05  0.2095561E+04  0.7818609E-02  0.8563201E-01
       -1   -1    0    0    0  501  0.00000000000E+00  0.00000000000E+00  0.66020486784E+03  0.66020486785E+03  0.50400001928E-02 0.  1.
        1   -1    0    0  501    0  0.00000000000E+00  0.00000000000E+00 -0.16628841226E+04  0.16628841226E+04  0.50400001928E-02 0. -1.
    10030    2    1    2    0    0  0.00000000000E+00  0.00000000000E+00 -0.10026792547E+04  0.23230889904E+04  0.20955612064E+04 0.  0.
        3    1    3    3  502    0  0.28416152654E+03 -0.35352585830E+03 -0.15484106258E+04  0.16134756837E+04  0.10100000352E+00 0. -1.
       -3    1    3    3    0  502 -0.28416152654E+03  0.35352585830E+03  0.54573137101E+03  0.70961330677E+03  0.10100000352E+00 0.  1.
</event>
<event>
 5   0  0.1492552E-05  0.2114626E+04  0.7818609E-02  0.8554828E-01
        1   -1    0    0  501    0  0.00000000000E+00  0.00000000000E+00  0.14112598478E+04  0.14112598478E+04  0.50400001928E-02 0.  1.
       -1   -1    0    0    0  501  0.00000000000E+00  0.00000000000E+00 -0.79213651659E+03  0.79213651660E+03  0.50400001928E-02 0. -1.
    10030    2    1    2    0    0  0.00000000000E+00  0.00000000000E+00  0.61912333120E+03  0.22033963644E+04  0.21146256972E+04 0.  0.
        4    1    3    3  502    0 -0.99777410987E+03 -0.11048742331E+03 -0.36256520923E+02  0.10045281446E+04  0.12699999809E+01 0. -1.
       -4    1    3    3    0  502  0.99777410987E+03  0.11048742331E+03  0.65537985212E+03  0.11988682198E+04  0.12699999809E+01 0.  1.
</event>
<event>
 5   0  0.1513292E-05  0.2100478E+04  0.7818609E-02  0.8561033E-01
       -1   -1    0    0    0  501  0.00000000000E+00  0.00000000000E+00  0.85981383310E+03  0.85981383311E+03  0.50400001928E-02 0.  1.
        1   -1    0    0  501    0  0.00000000000E+00  0.00000000000E+00 -0.12828376899E+04  0.12828376899E+04  0.50400001928E-02 0. -1.
    10030    2    1    2    0    0  0.00000000000E+00  0.00000000000E+00 -0.42302385676E+03  0.21426515230E+04  0.21004776518E+04 0.  0.
        1    1    3    3  502    0  0.12214134442E+03 -0.33912032960E+03  0.79474262890E+03  0.87266084602E+03  0.50400001928E-02 0.  1.
       -1    1    3    3    0  502 -0.12214134442E+03  0.33912032960E+03 -0.12177664857E+04  0.12699906770E+04  0.50400001928E-02 0. -1.
</event>
<event>
 5   0  0.3130517E-05  0.2063478E+04  0.7818609E-02  0.8577505E-01
        2   -1    0    0  501    0  0.00000000000E+00  0.00000000000E+00  0.30174571150E+04  0.30174571150E+04  0.25500000920E-02 0. -1.
       -2   -1    0    0    0  501  0.00000000000E+00  0.00000000000E+00 -0.35277548420E+03  0.35277548421E+03  0.25500000920E-02 0.  1.
    10030    2    1    2    0    0  0.00000000000E+00  0.00000000000E+00  0.26646816308E+04  0.33702325992E+04  0.20634775451E+04 0.  0.
        1    1    3    3  502    0 -0.18120880201E+03 -0.20601108886E+03  0.29567815492E+04  0.29694838488E+04  0.50400001928E-02 0. -1.
       -1    1    3    3    0  502  0.18120880201E+03  0.20601108886E+03 -0.29209991835E+03  0.40074875044E+03  0.50400001928E-02 0.  1.
</event>
<event>
 5   0  0.3242231E-05  0.2092521E+04  0.7818609E-02  0.8564545E-01
        2   -1    0    0  501    0  0.00000000000E+00  0.00000000000E+00  0.17945215884E+04  0.17945215884E+04  0.25500000920E-02 0. -1.
       -2   -1    0    0    0  501  0.00000000000E+00  0.00000000000E+00 -0.61000138173E+03  0.61000138173E+03  0.25500000920E-02 0.  1.
    10030    2    1    2    0    0  0.00000000000E+00  0.00000000000E+00  0.11845202067E+04  0.24045229702E+04  0.20925206317E+04 0.  0.
        4    1    3    3  502    0 -0.37562784813E+03 -0.88909303940E+03  0.12822093879E+03  0.97366572038E+03  0.12699999809E+01 0.  1.
       -4    1    3    3    0  502  0.37562784813E+03  0.88909303940E+03  0.10562992679E+04  0.14308572498E+04  0.12699999809E+01 0. -1.
</event>
<event>
 5   0  0.3279789E-05  0.2105960E+04  0.7818609E-02  0.8558622E-01
       -2   -1    0    0    0  501  0.00000000000E+00  0.00000000000E+00  0.57566805221E+03  0.57566805221E+03  0.25500000920E-02 0. -1.
        2   -1    0    0  501    0  0.00000000000E+00  0.00000000000E+00 -0.19260527211E+04  0.19260527211E+04  0.25500000920E-02 0.  1.
    10030    2    1    2    0    0  0.00000000000E+00  0.00000000000E+00 -0.13503846689E+04  0.25017207733E+04  0.21059601311E+04 0.  0.
        2    1    3    3  502    0  0.10464989543E+04  0.58204998193E+02 -0.55510539932E+03  0.11860395810E+04  0.25500000920E-02 0.  1.
       -2    1    3    3    0  502 -0.10464989543E+04 -0.58204998193E+02 -0.79527926955E+03  0.13156811923E+04  0.25500000920E-02 0. -1.
</event>
<event>
 5   0  0.1453430E-05  0.2091544E+04  0.7818609E-02  0.8564978E-01
        1   -1    0    0  501    0  0.00000000000E+00  0.00000000000E+00  0.91442545782E+03  0.91442545784E+03  0.50400001928E-02 0. -1.
       -1   -1    0    0    0  501  0.00000000000E+00  0.00000000000E+00 -0.11959844557E+04  0.11959844557E+04  0.50400001928E-02 0.  1.
    10030    2    1    2    0    0  0.00000000000E+00  0.00000000000E+00 -0.28155899788E+03  0.21104099136E+04  0.20915435769E+04 0.  0.
        5    1    3    3  502    0 -0.44138105924E+03  0.94722870431E+03 -0.10096363290E+03  0.10498929483E+04  0.46999998093E+01 0.  1.
       -5    1    3    3    0  502  0.44138105924E+03 -0.94722870431E+03 -0.18059536498E+03  0.10605169652E+04  0.46999998093E+01 0. -1.
</event>
<event>
 5   0  0.1466480E-05  0.2099628E+04  0.7818609E-02  0.8561407E-01
       -1   -1    0    0    0  501  0.00000000000E+00  0.00000000000E+00  0.56460185801E+03  0.56460185803E+03  0.50400001928E-02 0. -1.
        1   -1    0    0  501    0  0.00000000000E+00  0.00000000000E+00 -0.19520109064E+04  0.19520109064E+04  0.50400001928E-02 0.  1.
    10030    2    1    2    0    0  0.00000000000E+00  0.00000000000E+00 -0.13874090484E+04  0.25166127644E+04  0.20996275714E+04 0.  0.
        3    1    3    3  502    0  0.66635158880E+03 -0.24601315297E+03 -0.16202476471E+04  0.17691097647E+04  0.10100000352E+00 0.  1.
       -3    1    3    3    0  502 -0.66635158880E+03  0.24601315297E+03  0.23283859875E+03  0.74750299973E+03  0.10100000352E+00 0. -1.
</event>
<event>
 5   0  0.3130517E-05  0.2103775E+04  0.7818609E-02  0.8559582E-01
        2   -1    0    0  501    0  0.00000000000E+00  0.00000000000E+00  0.95003468498E+03  0.95003468498E+03  0.25500000920E-02 0.  1.
       -2   -1    0    0    0  501  0.00000000000E+00  0.00000000000E+00 -0.11646600692E+04  0.11646600692E+04  0.25500000920E-02 0. -1.
    10030    2    1    2    0    0  0.00000000000E+00  0.00000000000E+00 -0.21462538419E+03  0.21146947541E+04  0.21037751419E+04 0.  0.
        1    1    3    3  502    0  0.74077384100E+03  0.93445553006E+02 -0.85209678191E+03  0.11329372801E+04  0.50400001928E-02 0. -1.
       -1    1    3    3    0  502 -0.74077384100E+03 -0.93445553006E+02  0.63747139772E+03  0.98175747404E+03  0.50400001928E-02 0.  1.
</event>
<event>
 5   0  0.1492552E-05  0.2097664E+04  0.7818609E-02  0.8562273E-01
       -1   -1    0    0    0  501  0.00000000000E+00  0.00000000000E+00  0.87755326024E+03  0.87755326026E+03  0.50400001928E-02 0. -1.
        1   -1    0    0  501    0  0.00000000000E+00  0.00000000000E+00 -0.12535400820E+04  0.12535400820E+04  0.50400001928E-02 0.  1.
    10030    2    1    2    0    0  0.00000000000E+00  0.00000000000E+00 -0.37598682178E+03  0.21310933423E+04  0.20976636392E+04 0.  0.
        4    1    3    3  502    0  0.42093322209E+03  0.95573650837E+03 -0.28664667573E+03  0.10829519752E+04  0.12699999809E+01 0.  1.
       -4    1    3    3    0  502 -0.42093322209E+03 -0.95573650837E+03 -0.89340146048E+02  0.10481413671E+04  0.12699999809E+01 0. -1.
</event>
<event>
 5   0  0.1466480E-05  0.2091869E+04  0.7818609E-02  0.8564833E-01
        1   -1    0    0  501    0  0.00000000000E+00  0.00000000000E+00  0.11398731034E+04  0.11398731034E+04  0.50400001928E-02 0.  1.
       -1   -1    0    0    0  501  0.00000000000E+00  0.00000000000E+00 -0.95973792879E+03  0.95973792880E+03  0.50400001928E-02 0. -1.
    10030    2    1    2    0    0  0.00000000000E+00  0.00000000000E+00  0.18013517460E+03  0.20996110322E+04  0.20918694523E+04 0.  0.
        3    1    3    3  502    0 -0.46938077724E+03 -0.87560757639E+03 -0.23820932466E+03  0.10216411476E+04  0.10100000352E+00 0.  1.
       -3    1    3    3    0  502  0.46938077724E+03  0.87560757639E+03  0.41834449927E+03  0.10779698846E+04  0.10100000352E+00 0. -1.
</event>
<event>
 5   0  0.1513292E-05  0.2089981E+04  0.7818609E-02  0.8565670E-01
       -1   -1    0    0    0  501  0.00000000000E+00  0.00000000000E+00  0.65795209864E+03  0.65795209866E+03  0.50400001928E-02 0.  1.
        1   -1    0    0  501    0  0.00000000000E+00  0.00000000000E+00 -0.16597029127E+04  0.16597029127E+04  0.50400001928E-02 0. -1.
    10030    2    1    2    0    0  0.00000000000E+00  0.00000000000E+00 -0.10017508140E+04  0.23176550113E+04  0.20899808751E+04 0.  0.
        1    1    3    3  502    0  0.54430355100E+03 -0.85938641909E+03 -0.76607957991E+03  0.12734556513E+04  0.50400001928E-02 0. -1.
       -1    1    3    3    0  502 -0.54430355100E+03  0.85938641909E+03 -0.23567123411E+03  0.10441993601E+04  0.50400001928E-02 0.  1.
</event>
<event>
 5   0  0.1453430E-05  0.2098925E+04  0.7818609E-02  0.8561717E-01
       -1   -1    0    0    0  501  0.00000000000E+00  0.00000000000E+00  0.70501994524E+03  0.70501994525E+03  0.50400001928E-02 0.  1.
        1   -1    0    0  501    0  0.00000000000E+00  0.00000000000E+00 -0.15621853930E+04  0.15621853930E+04  0.50400001928E-02 0. -1.
    10030    2    1    2    0    0  0.00000000000E+00  0.00000000000E+00 -0.85716544780E+03  0.22672053383E+04  0.20989253062E+04 0.  0.
        5    1    3    3  502    0 -0.41466421399E+02 -0.10398997519E+04 -0.57446151210E+03  0.11887552637E+04  0.46999998093E+01 0. -1.
       -5    1    3    3    0  502  0.41466421399E+02  0.10398997519E+04 -0.28270393570E+03  0.10784500746E+04  0.46999998093E+01 0.  1.
</event>
<event>
 5   0  0.1466480E-05  0.2098852E+04  0.7818609E-02  0.8561749E-01
        1   -1    0    0  501    0  0.00000000000E+00  0.00000000000E+00  0.71715248060E+03  0.71715248061E+03  0.50400001928E-02 0.  1.
       -1   -1    0    0    0  501  0.00000000000E+00  0.00000000000E+00 -0.15356495704E+04  0.15356495705E+04  0.50400001928E-02 0. -1.
    10030    2    1    2    0    0  0.00000000000E+00  0.00000000000E+00 -0.81849708985E+03  0.22528020511E+04  0.20988519708E+04 0.  0.
        3    1    3    3  502    0 -0.28067602817E+03  0.72121377839E+03 -0.11700153892E+04  0.14028058911E+04  0.10100000352E+00 0. -1.
       -3    1    3    3    0  502  0.28067602817E+03 -0.72121377839E+03  0.35151829937E+03  0.84999615995E+03  0.10100000352E+00 0.  1.
</event>
<event>
 5   0  0.3242231E-05  0.2073122E+04  0.7818609E-02  0.8573177E-01
        2   -1    0    0  501    0  0.00000000000E+00  0.00000000000E+00  0.12378483030E+04  0.12378483031E+04  0.25500000920E-02 0. -1.
       -2   -1    0    0    0  501  0.00000000000E+00  0.00000000000E+00 -0.86800486845E+03  0.86800486846E+03  0.25500000920E-02 0.  1.
    10030    2    1    2    0    0  0.00000000000E+00  0.00000000000E+00  0.36984343460E+03  0.21058531715E+04  0.20731216592E+04 0.  0.
        4    1    3    3  502    0  0.50134212869E+03 -0.88666390682E+03 -0.10310422399E+02  0.10186386657E+04  0.12699999809E+01 0.  1.
       -4    1    3    3    0  502 -0.50134212869E+03  0.88666390682E+03  0.38015385700E+03  0.10872145058E+04  0.12699999809E+01 0. -1.
</event>
<event>
 5   0  0.3130517E-05  0.2092931E+04  0.7818609E-02  0.8564364E-01
        2   -1    0    0  501    0  0.00000000000E+00  0.00000000000E+00  0.13197616612E+04  0.13197616612E+04  0.25500000920E-02 0.  1.
       -2   -1    0    0    0  501  0.00000000000E+00  0.00000000000E+00 -0.82976338939E+03  0.82976338940E+03  0.25500000920E-02 0. -1.
    10030    2    1    2    0    0  0.00000000000E+00  0.00000000000E+00  0.48999827183E+03  0.21495250506E+04  0.20929308724E+04 0.  0.
        1    1    3    3  502    0 -0.49464736023E+02 -0.89141812408E+03  0.80567008806E+03  0.12025711301E+04  0.50400001928E-02 0.  1.
       -1    1    3    3    0  502  0.49464736023E+02  0.89141812408E+03 -0.31567181623E+03  0.94695392055E+03  0.50400001928E-02 0. -1.
</event>
<event>
 5   0  0.1492552E-05  0.2099450E+04  0.7818609E-02  0.8561486E-01
       -1   -1    0    0    0  501  0.00000000000E+00  0.00000000000E+00  0.78200949539E+03  0.78200949541E+03  0.50400001928E-02 0. -1.
        1   -1    0    0  501    0  0.00000000000E+00  0.00000000000E+00 -0.14090915447E+04  0.14090915447E+04  0.50400001928E-02 0.  1.
    10030    2    1    2    0    0  0.00000000000E+00  0.00000000000E+00 -0.62708204930E+03  0.21911010401E+04  0.20994503737E+04 0.  0.
        4    1    3    3  502    0 -0.79078128133E+02  0.35322042089E+03 -0.13419001092E+04  0.13898616953E+04  0.12699999809E+01 0.  1.
       -4    1    3    3    0  502  0.79078128133E+02 -0.35322042089E+03  0.71481805988E+03  0.80123934484E+03  0.12699999809E+01 0. -1.
</event>
<event>
 5   0  0.3108326E-05  0.2100434E+04  0.7818609E-02  0.8561052E-01
        2   -1    0    0  501    0  0.00000000000E+00  0.00000000000E+00  0.12558740383E+04  0.12558740383E+04  0.25500000920E-02 0. -1.
       -2   -1    0    0    0  501  0.00000000000E+00  0.00000000000E+00 -0.87823720324E+03  0.87823720325E+03  0.25500000920E-02 0.  1.
    10030    2    1    2    0    0  0.00000000000E+00  0.00000000000E+00  0.37763683510E+03  0.21341112416E+04  0.21004335772E+04 0.  0.
        5    1    3    3  502    0  0.85704000759E+03 -0.25641968478E+03 -0.37015210228E+03  0.96814425483E+03  0.46999998093E+01 0.  1.
       -5    1    3    3    0  502 -0.85704000759E+03  0.25641968478E+03  0.74778893738E+03  0.11659669868E+04  0.46999998093E+01 0. -1.
</event>
<event>
 5   0  0.1492552E-05  0.2087944E+04  0.7818609E-02  0.8566573E-01
       -1   -1    0    0    0  501  0.00000000000E+00  0.00000000000E+00  0.56204921539E+03  0.56204921541E+03  0.50400001928E-02 0.  1.
        1   -1    0    0  501    0  0.00000000000E+00  0.00000000000E+00 -0.19391139198E+04  0.19391139198E+04  0.50400001928E-02 0. -1.
    10030    2    1    2    0    0  0.00000000000E+00  0.00000000000E+00 -0.13770647044E+04  0.25011631352E+04  0.20879439238E+04 0.  0.
        4    1    3    3  502    0  0.29482017236E+02 -0.62023070912E+03  0.31679699360E+03  0.69707766420E+03  0.12699999809E+01 0.  1.
       -4    1    3    3    0  502 -0.29482017236E+02  0.62023070912E+03 -0.16938616980E+04  0.18040854710E+04  0.12699999809E+01 0. -1.
</event>
<event>
 5   0  0.1513292E-05  0.2096285E+04  0.7818609E-02  0.8562881E-01
        1   -1    0    0  501    0  0.00000000000E+00  0.00000000000E+00  0.89546069163E+03  0.89546069164E+03  0.50400001928E-02 0. -1.
       -1   -1    0    0    0  501  0.00000000000E+00  0.00000000000E+00 -0.12268580516E+04  0.12268580516E+04  0.50400001928E-02 0.  1.
    10030    2    1    2    0    0  0.00000000000E+00  0.00000000000E+00 -0.33139735996E+03  0.21223187432E+04  0.20962854380E+04 0.  0.
        1    1    3    3  502    0  0.59638861011E+03  0.39388110105E+03 -0.94188884390E+03  0.11823604739E+04  0.50400001928E-02 0.  1.
       -1    1    3    3    0  502 -0.59638861011E+03 -0.39388110105E+03  0.61049148394E+03  0.93995826930E+03  0.50400001928E-02 0. -1.
</event>
<event>
 5   0  0.1513292E-05  0.2081764E+04  0.7818609E-02  0.8569319E-01
       -1   -1    0    0    0  501  0.00000000000E+00  0.00000000000E+00  0.11987982038E+04  0.11987982038E+04  0.50400001928E-02 0.  1.
        1   -1    0    0  501    0  0.00000000000E+00  0.00000000000E+00 -0.90376773251E+03  0.90376773253E+03  0.50400001928E-02 0. -1.
    10030    2    1    2    0    0  0.00000000000E+00  0.00000000000E+00  0.29503047132E+03  0.21025659364E+04  0.20817638045E+04 0.  0.
        1    1    3    3  502    0  0.59305632972E+03 -0.85385668457E+03  0.19948900895E+03  0.10585758890E+04  0.50400001928E-02 0. -1.
       -1    1    3    3    0  502 -0.59305632972E+03  0.85385668457E+03  0.95541462373E+02  0.10439900474E+04  0.50400001928E-02 0.  1.
</event>
<event>
 5   0  0.1466480E-05  0.2102427E+04  0.7818609E-02  0.8560175E-01
       -1   -1    0    0    0  501  0.00000000000E+00  0.00000000000E+00  0.74054246260E+03  0.74054246261E+03  0.50400001928E-02 0. -1.
        1   -1    0    0  501    0  0.00000000000E+00  0.00000000000E+00 -0.14922171593E+04  0.14922171593E+04  0.50400001928E-02 0.  1.
    10030    2    1    2    0    0  0.00000000000E+00  0.00000000000E+00 -0.75167469666E+03  0.22327596219E+04  0.21024273304E+04 0.  0.
        3    1    3    3  502    0 -0.87791661609E+03  0.59967681577E+02  0.23489212070E+03  0.91077331220E+03  0.10100000352E+00 0. -1.
       -3    1    3    3    0  502  0.87791661609E+03 -0.59967681577E+02 -0.98656681736E+03  0.13219863097E+04  0.10100000352E+00 0.  1.
</event>
<event>
 5   0  0.3108326E-05  0.2109133E+04  0.7818609E-02  0.8557231E-01
       -2   -1    0    0    0  501  0.00000000000E+00  0.00000000000E+00  0.97272915832E+03  0.97272915833E+03  0.25500000920E-02 0. -1.
        2   -1    0    0  501    0  0.00000000000E+00  0.00000000000E+00 -0.11432887956E+04  0.11432887956E+04  0.25500000920E-02 0.  1.
    10030    2    1    2    0    0  0.00000000000E+00  0.00000000000E+00 -0.17055963724E+03  0.21160179539E+04  0.21091328529E+04 0.  0.
        5    1    3    3  502    0 -0.66587595249E+03 -0.88573065222E+02  0.73030213954E+03  0.99226976019E+03  0.46999998093E+01 0. -1.
       -5    1    3    3    0  502  0.66587595249E+03  0.88573065222E+02 -0.90086177678E+03  0.11237481937E+04  0.46999998093E+01 0.  1.
</event>
<event>
 5   0  0.3130517E-05  0.2103914E+04  0.7818609E-02  0.8559521E-01
        2   -1    0    0  501    0  0.00000000000E+00  0.00000000000E+00  0.10926152331E+04  0.10926152331E+04  0.25500000920E-02 0.  1.
       -2   -1    0    0    0  501  0.00000000000E+00  0.00000000000E+00 -0.10128116427E+04  0.10128116427E+04  0.25500000920E-02 0. -1.
    10030    2    1    2    0    0  0.00000000000E+00  0.00000000000E+00  0.79803590416E+02  0.21054268757E+04  0.21039139041E+04 0.  0.
        1    1    3    3  502    0  0.45952236357E+03  0.93423540951E+03  0.19053188430E+03  0.10584228843E+04  0.50400001928E-02 0.  1.
       -1    1    3    3    0  502 -0.45952236357E+03 -0.93423540951E+03 -0.11072829388E+03  0.10470039914E+04  0.50400001928E-02 0. -1.
</event>
<event>
 5   0  0.1492552E-05  0.2102002E+04  0.7818609E-02  0.8560362E-01
       -1   -1    0    0    0  501  0.00000000000E+00  0.00000000000E+00  0.83154848585E+03  0.83154848587E+03  0.50400001928E-02 0. -1.
        1   -1    0    0  501    0  0.00000000000E+00  0.00000000000E+00 -0.13283686268E+04  0.13283686268E+04  0.50400001928E-02 0.  1.
    10030    2    1    2    0    0  0.00000000000E+00  0.00000000000E+00 -0.49682014097E+03  0.21599171127E+04  0.21020018271E+04 0.  0.
        4    1    3    3  502    0 -0.32573581743E+03  0.20820307389E+02 -0.12749673606E+04  0.13160853663E+04  0.12699999809E+01 0.  1.
       -4    1    3    3    0  502  0.32573581743E+03 -0.20820307389E+02  0.77814721960E+03  0.84383174640E+03  0.12699999809E+01 0. -1.
</event>
<event>
 5   0  0.1466480E-05  0.2101662E+04  0.7818609E-02  0.8560511E-01
        1   -1    0    0  501    0  0.00000000000E+00  0.00000000000E+00  0.13871603860E+04  0.13871603861E+04  0.50400001928E-02 0.  1.
       -1   -1    0    0    0  501  0.00000000000E+00  0.00000000000E+00 -0.79604803048E+03  0.79604803050E+03  0.50400001928E-02 0. -1.
    10030    2    1    2    0    0  0.00000000000E+00  0.00000000000E+00  0.59111235556E+03  0.21832084166E+04  0.21016624784E+04 0.  0.
        3    1    3    3  502    0  0.12684883506E+03  0.54327633895E+03 -0.62950529368E+03  0.84114013838E+03  0.10100000352E+00 0. -1.
       -3    1    3    3    0  502 -0.12684883506E+03 -0.54327633895E+03  0.12206176492E+04  0.13420682782E+04  0.10100000352E+00 0.  1.
</event>
<event>
 5   0  0.3108326E-05  0.2094810E+04  0.7818609E-02  0.8563533E-01
       -2   -1    0    0    0  501  0.00000000000E+00  0.00000000000E+00  0.84213554984E+03  0.84213554984E+03  0.25500000920E-02 0.  1.
        2   -1    0    0  501    0  0.00000000000E+00  0.00000000000E+00 -0.13027091516E+04  0.13027091516E+04  0.25500000920E-02 0. -1.
    10030    2    1    2    0    0  0.00000000000E+00  0.00000000000E+00 -0.46057360178E+03  0.21448447015E+04  0.20948104331E+04 0.  0.
        5    1    3    3  502    0  0.42010081838E+03  0.95158189879E+03 -0.10470829255E+03  0.10454562278E+04  0.46999998093E+01 0. -1.
       -5    1    3    3    0  502 -0.42010081838E+03 -0.95158189879E+03 -0.35586530923E+03  0.10993884737E+04  0.46999998093E+01 0.  1.
</event>
<event>
 5   0  0.1466480E-05  0.2098088E+04  0.7818609E-02  0.8562086E-01
       -1   -1    0    0    0  501  0.00000000000E+00  0.00000000000E+00  0.50692281077E+03  0.50692281080E+03  0.50400001928E-02 0. -1.
        1   -1    0    0  501    0  0.00000000000E+00  0.00000000000E+00 -0.21709294001E+04  0.21709294001E+04  0.50400001928E-02 0.  1.
    10030    2    1    2    0    0  0.00000000000E+00  0.00000000000E+00 -0.16640065893E+04  0.26778522109E+04  0.20980883047E+04 0.  0.
        3    1    3    3  502    0 -0.95140474618E+03 -0.72378963246E+02 -0.13884653166E+04  0.16847093669E+04  0.10100000352E+00 0.  1.
       -3    1    3    3    0  502  0.95140474618E+03  0.72378963246E+02 -0.27554127273E+03  0.99314284398E+03  0.10100000352E+00 0. -1.
</event>
<event>
 5   0  0.1466480E-05  0.2096923E+04  0.7818609E-02  0.8562600E-01
       -1   -1    0    0    0  501  0.00000000000E+00  0.00000000000E+00  0.10853278951E+04  0.10853278951E+04  0.50400001928E-02 0. -1.
        1   -1    0    0  501    0  0.00000000000E+00  0.00000000000E+00 -0.10128470227E+04  0.10128470227E+04  0.50400001928E-02 0.  1.
    10030    2    1    2    0    0  0.00000000000E+00  0.00000000000E+00  0.72480872484E+02  0.20981749178E+04  0.20969226282E+04 0.  0.
        3    1    3    3  502    0 -0.94675045329E+03  0.38152609565E+03 -0.20342825418E+03  0.10408081703E+04  0.10100000352E+00 0.  1.
       -3    1    3    3    0  502  0.94675045329E+03 -0.38152609565E+03  0.27590912666E+03  0.10573667476E+04  0.10100000352E+00 0. -1.
</event>
<event>
 5   0  0.3242231E-05  0.2104160E+04  0.7818609E-02  0.8559413E-01
        2   -1    0    0  501    0  0.00000000000E+00  0.00000000000E+00  0.19490952794E+04  0.19490952794E+04  0.25500000920E-02 0.  1.
       -2   -1    0    0    0  501  0.00000000000E+00  0.00000000000E+00 -0.56789011672E+03  0.56789011673E+03  0.25500000920E-02 0. -1.
    10030    2    1    2    0    0  0.00000000000E+00  0.00000000000E+00  0.13812051627E+04  0.25169853961E+04  0.21041596382E+04 0.  0.
        4    1    3    3  502    0 -0.93780253904E+03  0.87984426540E+01  0.12609246569E+04  0.15714590730E+04  0.12699999809E+01 0.  1.
       -4    1    3    3    0  502  0.93780253904E+03 -0.87984426540E+01  0.12028050581E+03  0.94552632316E+03  0.12699999809E+01 0. -1.
</event>
<event>
 5   0  0.3279789E-05  0.2108593E+04  0.7818609E-02  0.8557468E-01
        2   -1    0    0  501    0  0.00000000000E+00  0.00000000000E+00  0.15983241337E+04  0.15983241337E+04  0.25500000920E-02 0.  1.
       -2   -1    0    0    0  501  0.00000000000E+00  0.00000000000E+00 -0.69544129075E+03  0.69544129076E+03  0.25500000920E-02 0. -1.
    10030    2    1    2    0    0  0.00000000000E+00  0.00000000000E+00  0.90288284290E+03  0.22937654244E+04  0.21085925150E+04 0.  0.
        2    1    3    3  502    0  0.93805723362E+03 -0.46525661115E+03  0.58522763623E+03  0.11995442776E+04  0.25500000920E-02 0.  1.
       -2    1    3    3    0  502 -0.93805723362E+03  0.46525661115E+03  0.31765520668E+03  0.10942211468E+04  0.25500000920E-02 0. -1.
</event>
<event>
 5   0  0.1435410E-05  0.2091265E+04  0.7818609E-02  0.8565101E-01
       -1   -1    0    0    0  501  0.00000000000E+00  0.00000000000E+00  0.64732216083E+03  0.64732216085E+03  0.50400001928E-02 0.  1.
        1   -1    0    0  501    0  0.00000000000E+00  0.00000000000E+00 -0.16890306544E+04  0.16890306544E+04  0.50400001928E-02 0. -1.
    10030    2    1    2    0    0  0.00000000000E+00  0.00000000000E+00 -0.10417084936E+04  0.23363528153E+04  0.20912646633E+04 0.  0.
        2    1    3    3  502    0 -0.89784335939E+03  0.31746756378E+03 -0.10032432163E+04  0.13832589429E+04  0.25500000920E-02 0. -1.
       -2    1    3    3    0  502  0.89784335939E+03 -0.31746756378E+03 -0.38465277312E+02  0.95309387240E+03  0.25500000920E-02 0.  1.
</event>
<event>
 5   0  0.3279789E-05  0.2238221E+04  0.7818609E-02  0.8502686E-01
       -2   -1    0    0    0  501  0.00000000000E+00  0.00000000000E+00  0.82174525187E+03  0.82174525187E+03  0.25500000920E-02 0. -1.
        2   -1    0    0  501    0  0.00000000000E+00  0.00000000000E+00 -0.15240827609E+04  0.15240827609E+04  0.25500000920E-02 0.  1.
    10030    2    1    2    0    0  0.00000000000E+00  0.00000000000E+00 -0.70233750901E+03  0.23458280127E+04  0.22382205184E+04 0.  0.
        2    1    3    3  502    0  0.40017170635E+03 -0.76981866647E+02 -0.14435569901E+04  0.14999734617E+04  0.25500000920E-02 0.  1.
       -2    1    3    3    0  502 -0.40017170635E+03  0.76981866647E+02  0.74121948105E+03  0.84585455101E+03  0.25500000920E-02 0. -1.
</event>
<event>
 5   0  0.1435410E-05  0.2165721E+04  0.7818609E-02  0.8532833E-01
        1   -1    0    0  501    0  0.00000000000E+00  0.00000000000E+00  0.15950364684E+04  0.15950364684E+04  0.50400001928E-02 0.  1.
       -1   -1    0    0    0  501  0.00000000000E+00  0.00000000000E+00 -0.73514766121E+03  0.73514766123E+03  0.50400001928E-02 0. -1.
    10030    2    1    2    0    0  0.00000000000E+00  0.00000000000E+00  0.85988880717E+03  0.23301841296E+04  0.21657214311E+04 0.  0.
        2    1    3    3  502    0 -0.52123983209E+03 -0.19241093727E+03  0.14299742168E+04  0.15341248946E+04  0.25500000920E-02 0.  1.
       -2    1    3    3    0  502  0.52123983209E+03  0.19241093727E+03 -0.57008540968E+03  0.79605923503E+03  0.25500000920E-02 0. -1.
</event>
<event>
 5   0  0.1129987E-05  0.2099132E+04  0.7818609E-02  0.8561626E-01
       -3   -1    0    0    0  501  0.00000000000E+00  0.00000000000E+00  0.12874737449E+04  0.12874737488E+04  0.10100000352E+00 0.  1.
        3   -1    0    0  501    0  0.00000000000E+00  0.00000000000E+00 -0.85562009110E+03  0.85562009706E+03  0.10100000352E+00 0. -1.
    10030    2    1    2    0    0  0.00000000000E+00  0.00000000000E+00  0.43185365376E+03  0.21430938459E+04  0.20991316428E+04 0.  0.
        3    1    3    3  502    0 -0.31457198746E+03 -0.73022268217E+03 -0.48355529633E+03  0.93059466776E+03  0.10100000352E+00 0. -1.
       -3    1    3    3    0  502  0.31457198746E+03  0.73022268217E+03  0.91540895009E+03  0.12124991781E+04  0.10100000352E+00 0.  1.
</event>
<event>
 5   0  0.1513292E-05  0.2100621E+04  0.7818609E-02  0.8560970E-01
        1   -1    0    0  501    0  0.00000000000E+00  0.00000000000E+00  0.92783753276E+03  0.92783753278E+03  0.50400001928E-02 0. -1.
       -1   -1    0    0    0  501  0.00000000000E+00  0.00000000000E+00 -0.11889495025E+04  0.11889495025E+04  0.50400001928E-02 0.  1.
    10030    2    1    2    0    0  0.00000000000E+00  0.00000000000E+00 -0.26111196975E+03  0.21167870353E+04  0.21006208349E+04 0.  0.
        1    1    3    3  502    0  0.10082903589E+04  0.29088048917E+03 -0.17437704367E+03  0.10637989754E+04  0.50400001928E-02 0. -1.
       -1    1    3    3    0  502 -0.10082903589E+04 -0.29088048917E+03 -0.86734926080E+02  0.10529880599E+04  0.50400001928E-02 0.  1.
</event>
<event>
 5   0  0.3279789E-05  0.2098068E+04  0.7818609E-02  0.8562095E-01
       -2   -1    0    0    0  501  0.00000000000E+00  0.00000000000E+00  0.42167922939E+03  0.42167922940E+03  0.25500000920E-02 0.  1.
        2   -1    0    0  501    0  0.00000000000E+00  0.00000000000E+00 -0.26097389770E+04  0.26097389770E+04  0.25500000920E-02 0. -1.
    10030    2    1    2    0    0  0.00000000000E+00  0.00000000000E+00 -0.21880597476E+04  0.30314182064E+04  0.20980683695E+04 0.  0.
        2    1    3    3  502    0  0.43555808930E+03 -0.84165068597E+03 -0.44402525044E+03  0.10465396072E+04  0.25500000920E-02 0.  1.
       -2    1    3    3    0  502 -0.43555808930E+03  0.84165068597E+03 -0.17440344972E+04  0.19848785993E+04  0.25500000920E-02 0. -1.
</event>
<event>
 5   0  0.3242231E-05  0.2100861E+04  0.7818609E-02  0.8560864E-01
        2   -1    0    0  501    0  0.00000000000E+00  0.00000000000E+00  0.17135962702E+04  0.17135962702E+04  0.25500000920E-02 0.  1.
       -2   -1    0    0    0  501  0.00000000000E+00  0.00000000000E+00 -0.64391149256E+03  0.64391149256E+03  0.25500000920E-02 0. -1.
    10030    2    1    2    0    0  0.00000000000E+00  0.00000000000E+00  0.10696847776E+04  0.23575077627E+04  0.21008610920E+04 0.  0.
        4    1    3    3  502    0  0.45446171996E+03  0.21530001104E+03  0.15697374509E+04  0.16483224282E+04  0.12699999809E+01 0.  1.
       -4    1    3    3    0  502 -0.45446171996E+03 -0.21530001104E+03 -0.50005267332E+03  0.70918533449E+03  0.12699999809E+01 0. -1.
</event>
<event>
 5   0  0.3130517E-05  0.2103592E+04  0.7818609E-02  0.8559663E-01
        2   -1    0    0  501    0  0.00000000000E+00  0.00000000000E+00  0.21415620312E+04  0.21415620312E+04  0.25500000920E-02 0. -1.
       -2   -1    0    0    0  501  0.00000000000E+00  0.00000000000E+00 -0.51657365841E+03  0.51657365841E+03  0.25500000920E-02 0.  1.
    10030    2    1    2    0    0  0.00000000000E+00  0.00000000000E+00  0.16249883728E+04  0.26581356896E+04  0.21035917220E+04 0.  0.
        1    1    3    3  502    0  0.28712654031E+03  0.43837217028E+03  0.19648572021E+04  0.20335377141E+04  0.50400001928E-02 0. -1.
       -1    1    3    3    0  502 -0.28712654031E+03 -0.43837217028E+03 -0.33986882935E+03  0.62459797551E+03  0.50400001928E-02 0.  1.
</event>
<event>
 5   0  0.3130517E-05  0.2113415E+04  0.7818609E-02  0.8555357E-01
       -2   -1    0    0    0  501  0.00000000000E+00  0.00000000000E+00  0.99188511457E+03  0.99188511457E+03  0.25500000920E-02 0. -1.
        2   -1    0    0  501    0  0.00000000000E+00  0.00000000000E+00 -0.11257658367E+04  0.11257658367E+04  0.25500000920E-02 0.  1.
    10030    2    1    2    0    0  0.00000000000E+00  0.00000000000E+00 -0.13388072213E+03  0.21176509513E+04  0.21134146549E+04 0.  0.
        1    1    3    3  502    0 -0.25123347139E+03 -0.64199759461E+03 -0.86938969584E+03  0.11095573946E+04  0.50400001928E-02 0.  1.
       -1    1    3    3    0  502  0.25123347139E+03  0.64199759461E+03  0.73550897370E+03  0.10080935567E+04  0.50400001928E-02 0. -1.
</event>
<event>
 5   0  0.1435410E-05  0.2121741E+04  0.7818609E-02  0.8551726E-01
       -1   -1    0    0    0  501  0.00000000000E+00  0.00000000000E+00  0.10684056859E+04  0.10684056859E+04  0.50400001928E-02 0.  1.
        1   -1    0    0  501    0  0.00000000000E+00  0.00000000000E+00 -0.10533884989E+04  0.10533884989E+04  0.50400001928E-02 0. -1.
    10030    2    1    2    0    0  0.00000000000E+00  0.00000000000E+00  0.15017186954E+02  0.21217941848E+04  0.21217410414E+04 0.  0.
        2    1    3    3  502    0  0.58733329494E+03  0.48385981841E+02  0.88965576944E+03  0.10671405674E+04  0.25500000920E-02 0.  1.
       -2    1    3    3    0  502 -0.58733329494E+03 -0.48385981841E+02 -0.87463858249E+03  0.10546536173E+04  0.25500000920E-02 0. -1.
</event>
<event>
 5   0  0.1129987E-05  0.2099836E+04  0.7818609E-02  0.8561315E-01
       -4   -1    0    0    0  501  0.00000000000E+00  0.00000000000E+00  0.85640265154E+03  0.85640359321E+03  0.12699999809E+01 0.  1.
        4   -1    0    0  501    0  0.00000000000E+00  0.00000000000E+00 -0.12871591562E+04  0.12871597828E+04  0.12699999809E+01 0. -1.
    10030    2    1    2    0    0  0.00000000000E+00  0.00000000000E+00 -0.43075650468E+03  0.21435633760E+04  0.20998363699E+04 0.  0.
        5    1    3    3  502    0  0.60708041301E+03 -0.18610545921E+03  0.63816995258E+03  0.90025821195E+03  0.46999998093E+01 0.  1.
       -5    1    3    3    0  502 -0.60708041301E+03  0.18610545921E+03 -0.10689264573E+04  0.12433051640E+04  0.46999998093E+01 0. -1.
</event>
<event>
 5   0  0.3130517E-05  0.2129626E+04  0.7818609E-02  0.8548304E-01
        2   -1    0    0  501    0  0.00000000000E+00  0.00000000000E+00  0.95532929959E+03  0.95532929959E+03  0.25500000920E-02 0. -1.
       -2   -1    0    0    0  501  0.00000000000E+00  0.00000000000E+00 -0.11868440458E+04  0.11868440458E+04  0.25500000920E-02 0.  1.
    10030    2    1    2    0    0  0.00000000000E+00  0.00000000000E+00 -0.23151474620E+03  0.21421733454E+04  0.21296261559E+04 0.  0.
        1    1    3    3  502    0  0.71010492791E+03 -0.19495555517E+02  0.68213596443E+03  0.98485458791E+03  0.50400001928E-02 0. -1.
       -1    1    3    3    0  502 -0.71010492791E+03  0.19495555517E+02 -0.91365071063E+03  0.11573187575E+04  0.50400001928E-02 0.  1.
</event>
<event>
 5   0  0.3108326E-05  0.2100543E+04  0.7818609E-02  0.8561004E-01
       -2   -1    0    0    0  501  0.00000000000E+00  0.00000000000E+00  0.17357196062E+04  0.17357196062E+04  0.25500000920E-02 0.  1.
        2   -1    0    0  501    0  0.00000000000E+00  0.00000000000E+00 -0.63551178750E+03  0.63551178751E+03  0.25500000920E-02 0. -1.
    10030    2    1    2    0    0  0.00000000000E+00  0.00000000000E+00  0.11002078187E+04  0.23712313937E+04  0.21005430437E+04 0.  0.
        5    1    3    3  502    0  0.17700906093E+03 -0.10038013649E+04  0.83590723110E+03  0.13182231893E+04  0.46999998093E+01 0.  1.
       -5    1    3    3    0  502 -0.17700906093E+03  0.10038013649E+04  0.26430058762E+03  0.10530082044E+04  0.46999998093E+01 0. -1.
</event>
<event>
 5   0  0.3242231E-05  0.2098009E+04  0.7818609E-02  0.8562121E-01
       -2   -1    0    0    0  501  0.00000000000E+00  0.00000000000E+00  0.29385872271E+04  0.29385872271E+04  0.25500000920E-02 0.  1.
        2   -1    0    0  501    0  0.00000000000E+00  0.00000000000E+00 -0.37446914287E+03  0.37446914288E+03  0.25500000920E-02 0. -1.
    10030    2    1    2    0    0  0.00000000000E+00  0.00000000000E+00  0.25641180842E+04  0.33130563700E+04  0.20980088086E+04 0.  0.
        4    1    3    3  502    0  0.43048108096E+03 -0.74860099616E+03  0.34158517174E+03  0.92865464785E+03  0.12699999809E+01 0. -1.
       -4    1    3    3    0  502 -0.43048108096E+03  0.74860099616E+03  0.22225329125E+04  0.23844017221E+04  0.12699999809E+01 0.  1.
</event>
<event>
 5   0  0.1513292E-05  0.2101756E+04  0.7818609E-02  0.8560470E-01
        1   -1    0    0  501    0  0.00000000000E+00  0.00000000000E+00  0.81873727335E+03  0.81873727336E+03  0.50400001928E-02 0.  1.
       -1   -1    0    0    0  501  0.00000000000E+00  0.00000000000E+00 -0.13488381682E+04  0.13488381682E+04  0.50400001928E-02 0. -1.
    10030    2    1    2    0    0  0.00000000000E+00  0.00000000000E+00 -0.53010089485E+03  0.21675754416E+04  0.21017555367E+04 0.  0.
        1    1    3    3  502    0  0.13249128276E+03 -0.10231193482E+04 -0.47135745395E+03  0.11342420333E+04  0.50400001928E-02 0. -1.
       -1    1    3    3    0  502 -0.13249128276E+03  0.10231193482E+04 -0.58743440903E+02  0.10333334083E+04  0.50400001928E-02 0.  1.
</event>
<event>
 5   0  0.3257130E-05  0.2098838E+04  0.7818609E-02  0.8561755E-01
        2   -1    0    0  501    0  0.00000000000E+00  0.00000000000E+00  0.19294595808E+04  0.19294595808E+04  0.25500000920E-02 0. -1.
       -2   -1    0    0    0  501  0.00000000000E+00  0.00000000000E+00 -0.57077148360E+03  0.57077148360E+03  0.25500000920E-02 0.  1.
    10030    2    1    2    0    0  0.00000000000E+00  0.00000000000E+00  0.13586880972E+04  0.25002310644E+04  0.20988382572E+04 0.  0.
        3    1    3    3  502    0 -0.10192248100E+04  0.20686491449E+03  0.51227985294E+03  0.11593286696E+04  0.10100000352E+00 0.  1.
       -3    1    3    3    0  502  0.10192248100E+04 -0.20686491449E+03  0.84640824426E+03  0.13409023948E+04  0.10100000352E+00 0. -1.
</event>
<event>
 5   0  0.3130517E-05  0.2105279E+04  0.7818609E-02  0.8558922E-01
       -2   -1    0    0    0  501  0.00000000000E+00  0.00000000000E+00  0.15147644100E+04  0.15147644100E+04  0.25500000920E-02 0. -1.
        2   -1    0    0  501    0  0.00000000000E+00  0.00000000000E+00 -0.73149956210E+03  0.73149956211E+03  0.25500000920E-02 0.  1.
    10030    2    1    2    0    0  0.00000000000E+00  0.00000000000E+00  0.78326484791E+03  0.22462639721E+04  0.21052786064E+04 0.  0.
        1    1    3    3  502    0  0.59772653108E+03  0.73598407337E+03  0.87952944761E+03  0.12932600711E+04  0.50400001928E-02 0. -1.
       -1    1    3    3    0  502 -0.59772653108E+03 -0.73598407337E+03 -0.96264599707E+02  0.95300390104E+03  0.50400001928E-02 0.  1.
</event>
<event>
 5   0  0.1492552E-05  0.2099838E+04  0.7818609E-02  0.8561315E-01
        1   -1    0    0  501    0  0.00000000000E+00  0.00000000000E+00  0.58442720557E+03  0.58442720559E+03  0.50400001928E-02 0.  1.
       -1   -1    0    0    0  501  0.00000000000E+00  0.00000000000E+00 -0.18861715209E+04  0.18861715209E+04  0.50400001928E-02 0. -1.
    10030    2    1    2    0    0  0.00000000000E+00  0.00000000000E+00 -0.13017443154E+04  0.24705987265E+04  0.20998380426E+04 0.  0.
        4    1    3    3  502    0  0.57737737024E+03  0.77175466404E+03 -0.16099304746E+03  0.97718486653E+03  0.12699999809E+01 0.  1.
       -4    1    3    3    0  502 -0.57737737024E+03 -0.77175466404E+03 -0.11407512679E+04  0.14934138600E+04  0.12699999809E+01 0. -1.
</event>
<event>
 5   0  0.3257130E-05  0.2102209E+04  0.7818609E-02  0.8560271E-01
       -2   -1    0    0    0  501  0.00000000000E+00  0.00000000000E+00  0.81119530448E+03  0.81119530448E+03  0.25500000920E-02 0.  1.
        2   -1    0    0  501    0  0.00000000000E+00  0.00000000000E+00 -0.13619660009E+04  0.13619660009E+04  0.25500000920E-02 0. -1.
    10030    2    1    2    0    0  0.00000000000E+00  0.00000000000E+00 -0.55077069639E+03  0.21731613054E+04  0.21022087668E+04 0.  0.
        3    1    3    3  502    0  0.43716996595E+03  0.92735360531E+03 -0.51497968471E+03  0.11473039590E+04  0.10100000352E+00 0.  1.
       -3    1    3    3    0  502 -0.43716996595E+03 -0.92735360531E+03 -0.35791011676E+02  0.10258573464E+04  0.10100000352E+00 0. -1.
</event>
<event>
 5   0  0.3130517E-05  0.2050349E+04  0.7818609E-02  0.8583436E-01
       -2   -1    0    0    0  501  0.00000000000E+00  0.00000000000E+00  0.69179363241E+03  0.69179363241E+03  0.25500000920E-02 0. -1.
        2   -1    0    0  501    0  0.00000000000E+00  0.00000000000E+00 -0.15192149659E+04  0.15192149659E+04  0.25500000920E-02 0.  1.
    10030    2    1    2    0    0  0.00000000000E+00  0.00000000000E+00 -0.82742133353E+03  0.22110085984E+04  0.20503494724E+04 0.  0.
        1    1    3    3  502    0  0.35312459080E+03  0.68390307797E+03 -0.11439445345E+04  0.13787782616E+04  0.50400001928E-02 0.  1.
       -1    1    3    3    0  502 -0.35312459080E+03 -0.68390307797E+03  0.31652320093E+03  0.83223033677E+03  0.50400001928E-02 0. -1.
</event>
<event>
 5   0  0.1435410E-05  0.2099837E+04  0.7818609E-02  0.8561315E-01
        1   -1    0    0  501    0  0.00000000000E+00  0.00000000000E+00  0.19846392945E+04  0.19846392946E+04  0.50400001928E-02 0. -1.
       -1   -1    0    0    0  501  0.00000000000E+00  0.00000000000E+00 -0.55543052389E+03  0.55543052391E+03  0.50400001928E-02 0.  1.
    10030    2    1    2    0    0  0.00000000000E+00  0.00000000000E+00  0.14292087707E+04  0.25400698185E+04  0.20998373681E+04 0.  0.
        2    1    3    3  502    0  0.60099789053E+02 -0.10441234030E+04  0.60292552838E+03  0.12071971082E+04  0.25500000920E-02 0. -1.
       -2    1    3    3    0  502 -0.60099789053E+02  0.10441234030E+04  0.82628324228E+03  0.13328727103E+04  0.25500000920E-02 0.  1.
</event>
<event>
 5   0  0.3108326E-05  0.2095913E+04  0.7818609E-02  0.8563046E-01
       -2   -1    0    0    0  501  0.00000000000E+00  0.00000000000E+00  0.71026301850E+03  0.71026301850E+03  0.25500000920E-02 0.  1.
        2   -1    0    0  501    0  0.00000000000E+00  0.00000000000E+00 -0.15462052914E+04  0.15462052914E+04  0.25500000920E-02 0. -1.
    10030    2    1    2    0    0  0.00000000000E+00  0.00000000000E+00 -0.83594227286E+03  0.22564683099E+04  0.20959126293E+04 0.  0.
        5    1    3    3  502    0  0.25122644530E+03 -0.68731069035E+03  0.38961092358E+03  0.82905335996E+03  0.46999998093E+01 0.  1.
       -5    1    3    3    0  502 -0.25122644530E+03  0.68731069035E+03 -0.12255531964E+04  0.14274149499E+04  0.46999998093E+01 0. -1.
</event>
<event>
 5   0  0.1513292E-05  0.2191628E+04  0.7818609E-02  0.8521921E-01
        1   -1    0    0  501    0  0.00000000000E+00  0.00000000000E+00  0.13942843574E+04  0.13942843574E+04  0.50400001928E-02 0. -1.
       -1   -1    0    0    0  501  0.00000000000E+00  0.00000000000E+00 -0.86123631723E+03  0.86123631725E+03  0.50400001928E-02 0.  1.
    10030    2    1    2    0    0  0.00000000000E+00  0.00000000000E+00  0.53304804019E+03  0.22555206747E+04  0.21916280024E+04 0.  0.
        1    1    3    3  502    0 -0.21967826005E+03  0.97885805084E+03  0.72027047925E+03  0.12349944068E+04  0.50400001928E-02 0. -1.
       -1    1    3    3    0  502  0.21967826005E+03 -0.97885805084E+03 -0.18722243906E+03  0.10205262678E+04  0.50400001928E-02 0.  1.
</event>
<event>
 5   0  0.3130517E-05  0.2068582E+04  0.7818609E-02  0.8575211E-01
        2   -1    0    0  501    0  0.00000000000E+00  0.00000000000E+00  0.13504425714E+04  0.13504425714E+04  0.25500000920E-02 0.  1.
       -2   -1    0    0    0  501  0.00000000000E+00  0.00000000000E+00 -0.79215349936E+03  0.79215349936E+03  0.25500000920E-02 0. -1.
    10030    2    1    2    0    0  0.00000000000E+00  0.00000000000E+00  0.55828907209E+03  0.21425960708E+04  0.20685819381E+04 0.  0.
        1    1    3    3  502    0 -0.93008483309E+03  0.44506893271E+03  0.36337872736E+03  0.10932466561E+04  0.50400001928E-02 0.  1.
       -1    1    3    3    0  502  0.93008483309E+03 -0.44506893271E+03  0.19491034473E+03  0.10493494147E+04  0.50400001928E-02 0. -1.
</event>
<event>
 5   0  0.3279789E-05  0.2093532E+04  0.7818609E-02  0.8564098E-01
        2   -1    0    0  501    0  0.00000000000E+00  0.00000000000E+00  0.59240112865E+03  0.59240112866E+03  0.25500000920E-02 0. -1.
       -2   -1    0    0    0  501  0.00000000000E+00  0.00000000000E+00 -0.18496227944E+04  0.18496227944E+04  0.25500000920E-02 0.  1.
    10030    2    1    2    0    0  0.00000000000E+00  0.00000000000E+00 -0.12572216657E+04  0.24420239230E+04  0.20935315913E+04 0.  0.
        2    1    3    3  502    0 -0.82601642305E+03  0.92653294539E+01 -0.13785372930E+04  0.16070949087E+04  0.25500000920E-02 0.  1.
       -2    1    3    3    0  502  0.82601642305E+03 -0.92653294539E+01  0.12131562728E+03  0.83492901429E+03  0.25500000920E-02 0. -1.
</event>
<event>
 5   0  0.1453430E-05  0.2104661E+04  0.7818609E-02  0.8559193E-01
        1   -1    0    0  501    0  0.00000000000E+00  0.00000000000E+00  0.21392978610E+04  0.21392978610E+04  0.50400001928E-02 0.  1.
       -1   -1    0    0    0  501  0.00000000000E+00  0.00000000000E+00 -0.51764636127E+03  0.51764636129E+03  0.50400001928E-02 0. -1.
    10030    2    1    2    0    0  0.00000000000E+00  0.00000000000E+00  0.16216514998E+04  0.26569442223E+04  0.21046612587E+04 0.  0.
        5    1    3    3  502    0 -0.93794364679E+03 -0.28751697928E+02  0.20960503922E+03  0.96152031032E+03  0.46999998093E+01 0.  1.
       -5    1    3    3    0  502  0.93794364679E+03  0.28751697928E+02  0.14120464605E+04  0.16954239120E+04  0.46999998093E+01 0. -1.
</event>
<event>
 5   0  0.1466480E-05  0.2101378E+04  0.7818609E-02  0.8560637E-01
        1   -1    0    0  501    0  0.00000000000E+00  0.00000000000E+00  0.14007372818E+04  0.14007372818E+04  0.50400001928E-02 0. -1.
       -1   -1    0    0    0  501  0.00000000000E+00  0.00000000000E+00 -0.78811870585E+03  0.78811870586E+03  0.50400001928E-02 0.  1.
    10030    2    1    2    0    0  0.00000000000E+00  0.00000000000E+00  0.61261857598E+03  0.21888559877E+04  0.21013778849E+04 0.  0.
        3    1    3    3  502    0  0.86843708079E+03  0.35965402347E+03 -0.18271664922E+03  0.95755906554E+03  0.10100000352E+00 0. -1.
       -3    1    3    3    0  502 -0.86843708079E+03 -0.35965402347E+03  0.79533522520E+03  0.12312969222E+04  0.10100000352E+00 0.  1.
</event>
<event>
 5   0  0.3257130E-05  0.2097984E+04  0.7818609E-02  0.8562132E-01
       -2   -1    0    0    0  501  0.00000000000E+00  0.00000000000E+00  0.74378461427E+03  0.74378461428E+03  0.25500000920E-02 0.  1.
        2   -1    0    0  501    0  0.00000000000E+00  0.00000000000E+00 -0.14794393696E+04  0.14794393696E+04  0.25500000920E-02 0. -1.
    10030    2    1    2    0    0  0.00000000000E+00  0.00000000000E+00 -0.73565475530E+03  0.22232239838E+04  0.20979840236E+04 0.  0.
        3    1    3    3  502    0 -0.58525023288E+03 -0.36680238852E+03  0.46881028366E+03  0.83477237591E+03  0.10100000352E+00 0.  1.
       -3    1    3    3    0  502  0.58525023288E+03  0.36680238852E+03 -0.12044650390E+04  0.13884516079E+04  0.10100000352E+00 0. -1.
</event>
<event>
 5   0  0.3108326E-05  0.2133312E+04  0.7818609E-02  0.8546709E-01
        2   -1    0    0  501    0  0.00000000000E+00  0.00000000000E+00  0.11564240742E+04  0.11564240742E+04  0.25500000920E-02 0. -1.
       -2   -1    0    0    0  501  0.00000000000E+00  0.00000000000E+00 -0.98385630380E+03  0.98385630380E+03  0.25500000920E-02 0.  1.
    10030    2    1    2    0    0  0.00000000000E+00  0.00000000000E+00  0.17256777038E+03  0.21402803780E+04  0.21333120871E+04 0.  0.
        5    1    3    3  502    0 -0.10371536205E+04 -0.24893968888E+03  0.94939002398E+02  0.10708380388E+04  0.46999998093E+01 0. -1.
       -5    1    3    3    0  502  0.10371536205E+04  0.24893968888E+03  0.77628767983E+02  0.10694423392E+04  0.46999998093E+01 0.  1.
</event>
<event>
 5   0  0.1453430E-05  0.2097997E+04  0.7818609E-02  0.8562126E-01
       -1   -1    0    0    0  501  0.00000000000E+00  0.00000000000E+00  0.77517112267E+03  0.77517112268E+03  0.50400001928E-02 0. -1.
        1   -1    0    0  501    0  0.00000000000E+00  0.00000000000E+00 -0.14195550911E+04  0.14195550911E+04  0.50400001928E-02 0.  1.
    10030    2    1    2    0    0  0.00000000000E+00  0.00000000000E+00 -0.64438396844E+03  0.21947262138E+04  0.20979972485E+04 0.  0.
        5    1    3    3  502    0  0.85687306264E+03  0.44209198442E+03  0.11001447211E+03  0.97046485883E+03  0.46999998093E+01 0. -1.
       -5    1    3    3    0  502 -0.85687306264E+03 -0.44209198442E+03 -0.75439844055E+03  0.12242613550E+04  0.46999998093E+01 0.  1.
</event>
<event>
 5   0  0.3130517E-05  0.2101405E+04  0.7818609E-02  0.8560625E-01
       -2   -1    0    0    0  501  0.00000000000E+00  0.00000000000E+00  0.68240631996E+03  0.68240631996E+03  0.25500000920E-02 0.  1.
        2   -1    0    0  501    0  0.00000000000E+00  0.00000000000E+00 -0.16177695906E+04  0.16177695906E+04  0.25500000920E-02 0. -1.
    10030    2    1    2    0    0  0.00000000000E+00  0.00000000000E+00 -0.93536327063E+03  0.23001759106E+04  0.21014054277E+04 0.  0.
        1    1    3    3  502    0  0.39287103261E+02 -0.99929833710E+03 -0.82039688320E+03  0.12935191104E+04  0.50400001928E-02 0. -1.
       -1    1    3    3    0  502 -0.39287103261E+02  0.99929833710E+03 -0.11496638744E+03  0.10066568001E+04  0.50400001928E-02 0.  1.
</event>
<event>
 5   0  0.1513292E-05  0.2100707E+04  0.7818609E-02  0.8560932E-01
        1   -1    0    0  501    0  0.00000000000E+00  0.00000000000E+00  0.94822575121E+03  0.94822575123E+03  0.50400001928E-02 0. -1.
       -1   -1    0    0    0  501  0.00000000000E+00  0.00000000000E+00 -0.11634805833E+04  0.11634805833E+04  0.50400001928E-02 0.  1.
    10030    2    1    2    0    0  0.00000000000E+00  0.00000000000E+00 -0.21525483210E+03  0.21117063346E+04  0.21007067860E+04 0.  0.
        1    1    3    3  502    0  0.67254690108E+03 -0.51838552613E+03  0.51383241605E+03  0.99250523408E+03  0.50400001928E-02 0. -1.
       -1    1    3    3    0  502 -0.67254690108E+03  0.51838552613E+03 -0.72908724816E+03  0.11192011005E+04  0.50400001928E-02 0.  1.
</event>
<event>
 5   0  0.3257130E-05  0.2104788E+04  0.7818609E-02  0.8559137E-01
        2   -1    0    0  501    0  0.00000000000E+00  0.00000000000E+00  0.24185134327E+04  0.24185134327E+04  0.25500000920E-02 0.  1.
       -2   -1    0    0    0  501  0.00000000000E+00  0.00000000000E+00 -0.45793947099E+03  0.45793947099E+03  0.25500000920E-02 0. -1.
    10030    2    1    2    0    0  0.00000000000E+00  0.00000000000E+00  0.19605739617E+04  0.28764529037E+04  0.21047876491E+04 0.  0.
        3    1    3    3  502    0 -0.51805157124E+03  0.12183351591E+03  0.22210669392E+04  0.22839350241E+04  0.10100000352E+00 0.  1.
       -3    1    3    3    0  502  0.51805157124E+03 -0.12183351591E+03 -0.26049297746E+03  0.59251787954E+03  0.10100000352E+00 0. -1.
</event>
<event>
 5   0  0.3242231E-05  0.2096189E+04  0.7818609E-02  0.8562924E-01
        2   -1    0    0  501    0  0.00000000000E+00  0.00000000000E+00  0.18218838302E+04  0.18218838302E+04  0.25500000920E-02 0.  1.
       -2   -1    0    0    0  501  0.00000000000E+00  0.00000000000E+00 -0.60294873994E+03  0.60294873995E+03  0.25500000920E-02 0. -1.
    10030    2    1    2    0    0  0.00000000000E+00  0.00000000000E+00  0.12189350902E+04  0.24248325701E+04  0.20961894568E+04 0.  0.
        4    1    3    3  502    0 -0.47828759849E+03 -0.46006042870E+03  0.15478776089E+04  0.16841440942E+04  0.12699999809E+01 0.  1.
       -4    1    3    3    0  502  0.47828759849E+03  0.46006042870E+03 -0.32894251866E+03  0.74068847595E+03  0.12699999809E+01 0. -1.
</event>
<event>
 5   0  0.3279789E-05  0.2039105E+04  0.7818609E-02  0.8588553E-01
       -2   -1    0    0    0  501  0.00000000000E+00  0.00000000000E+00  0.16441107775E+04  0.16441107775E+04  0.25500000920E-02 0.  1.
        2   -1    0    0  501    0  0.00000000000E+00  0.00000000000E+00 -0.63224888026E+03  0.63224888027E+03  0.25500000920E-02 0. -1.
    10030    2    1    2    0    0  0.00000000000E+00  0.00000000000E+00  0.10118618972E+04  0.22763596578E+04  0.20391048998E+04 0.  0.
        2    1    3    3  502    0 -0.65629520135E+03 -0.51354150288E+03  0.11616765140E+04  0.14296645025E+04  0.25500000920E-02 0.  1.
       -2    1    3    3    0  502  0.65629520135E+03  0.51354150288E+03 -0.14981461681E+03  0.84669515524E+03  0.25500000920E-02 0. -1.
</event>
<event>
 5   0  0.3279789E-05  0.2093569E+04  0.7818609E-02  0.8564081E-01
        2   -1    0    0  501    0  0.00000000000E+00  0.00000000000E+00  0.23205835965E+04  0.23205835965E+04  0.25500000920E-02 0.  1.
       -2   -1    0    0    0  501  0.00000000000E+00  0.00000000000E+00 -0.47219081109E+03  0.47219081110E+03  0.25500000920E-02 0. -1.
    10030    2    1    2    0    0  0.00000000000E+00  0.00000000000E+00  0.18483927854E+04  0.27927744076E+04  0.20935694406E+04 0.  0.
        2    1    3    3  502    0  0.81755087340E+03  0.36157420593E+03  0.19765869315E+03  0.91552951671E+03  0.25500000920E-02 0. -1.
       -2    1    3    3    0  502 -0.81755087340E+03 -0.36157420593E+03  0.16507340923E+04  0.18772448909E+04  0.25500000920E-02 0.  1.
</event>
<event>
 5   0  0.3130517E-05  0.2102981E+04  0.7818609E-02  0.8559931E-01
        2   -1    0    0  501    0  0.00000000000E+00  0.00000000000E+00  0.23142959254E+04  0.23142959254E+04  0.25500000920E-02 0. -1.
       -2   -1    0    0    0  501  0.00000000000E+00  0.00000000000E+00 -0.47774013809E+03  0.47774013810E+03  0.25500000920E-02 0.  1.
    10030    2    1    2    0    0  0.00000000000E+00  0.00000000000E+00  0.18365557873E+04  0.27920360635E+04  0.21029807940E+04 0.  0.
        1    1    3    3  502    0  0.86612113821E+03  0.36088599456E+03  0.15483589929E+04  0.18104751028E+04  0.50400001928E-02 0. -1.
       -1    1    3    3    0  502 -0.86612113821E+03 -0.36088599456E+03  0.28819679441E+03  0.98156096065E+03  0.50400001928E-02 0.  1.
</event>
<event>
 5   0  0.1453430E-05  0.2104267E+04  0.7818609E-02  0.8559366E-01
        1   -1    0    0  501    0  0.00000000000E+00  0.00000000000E+00  0.10327593865E+04  0.10327593865E+04  0.50400001928E-02 0. -1.
       -1   -1    0    0    0  501  0.00000000000E+00  0.00000000000E+00 -0.10718712056E+04  0.10718712056E+04  0.50400001928E-02 0.  1.
    10030    2    1    2    0    0  0.00000000000E+00  0.00000000000E+00 -0.39111819073E+02  0.21046305921E+04  0.21042671396E+04 0.  0.
        5    1    3    3  502    0 -0.95060420759E+03  0.42618656997E+03  0.12770948534E+03  0.10495785604E+04  0.46999998093E+01 0.  1.
       -5    1    3    3    0  502  0.95060420759E+03 -0.42618656997E+03 -0.16682130441E+03  0.10550520317E+04  0.46999998093E+01 0. -1.
</event>
<event>
 5   0  0.1513292E-05  0.2107301E+04  0.7818609E-02  0.8558034E-01
       -1   -1    0    0    0  501  0.00000000000E+00  0.00000000000E+00  0.93875618193E+03  0.93875618195E+03  0.50400001928E-02 0. -1.
        1   -1    0    0  501    0  0.00000000000E+00  0.00000000000E+00 -0.11826065683E+04  0.11826065683E+04  0.50400001928E-02 0.  1.
    10030    2    1    2    0    0  0.00000000000E+00  0.00000000000E+00 -0.24385038634E+03  0.21213627502E+04  0.21073008582E+04 0.  0.
        1    1    3    3  502    0  0.13986000030E+03  0.97144278096E+03 -0.50778088302E+03  0.11050354390E+04  0.50400001928E-02 0.  1.
       -1    1    3    3    0  502 -0.13986000030E+03 -0.97144278096E+03  0.26393049668E+03  0.10163273112E+04  0.50400001928E-02 0. -1.
</event>
<event>
 5   0  0.3130517E-05  0.2102350E+04  0.7818609E-02  0.8560209E-01
       -2   -1    0    0    0  501  0.00000000000E+00  0.00000000000E+00  0.55049399459E+03  0.55049399460E+03  0.25500000920E-02 0. -1.
        2   -1    0    0  501    0  0.00000000000E+00  0.00000000000E+00 -0.20072322777E+04  0.20072322777E+04  0.25500000920E-02 0.  1.
    10030    2    1    2    0    0  0.00000000000E+00  0.00000000000E+00 -0.14567382831E+04  0.25577262723E+04  0.21023504129E+04 0.  0.
        1    1    3    3  502    0 -0.26442516463E+03  0.50511671029E+03 -0.18027790942E+04  0.18907871433E+04  0.50400001928E-02 0.  1.
       -1    1    3    3    0  502  0.26442516463E+03 -0.50511671029E+03  0.34604081116E+03  0.66693912895E+03  0.50400001928E-02 0. -1.
</event>
<event>
 5   0  0.1435410E-05  0.2108589E+04  0.7818609E-02  0.8557469E-01
       -1   -1    0    0    0  501  0.00000000000E+00  0.00000000000E+00  0.12396660072E+04  0.12396660073E+04  0.50400001928E-02 0. -1.
        1   -1    0    0  501    0  0.00000000000E+00  0.00000000000E+00 -0.89664224200E+03  0.89664224201E+03  0.50400001928E-02 0.  1.
    10030    2    1    2    0    0  0.00000000000E+00  0.00000000000E+00  0.34302376525E+03  0.21363082493E+04  0.21085890146E+04 0.  0.
        2    1    3    3  502    0  0.75689864764E+02  0.75681540890E+03 -0.56818062868E+03  0.94938282352E+03  0.25500000920E-02 0.  1.
       -2    1    3    3    0  502 -0.75689864764E+02 -0.75681540890E+03  0.91120439393E+03  0.11869254258E+04  0.25500000920E-02 0. -1.
</event>
<event>
 5   0  0.1466480E-05  0.2099452E+04  0.7818609E-02  0.8561485E-01
       -1   -1    0    0    0  501  0.00000000000E+00  0.00000000000E+00  0.72650157257E+03  0.72650157259E+03  0.50400001928E-02 0. -1.
        1   -1    0    0  501    0  0.00000000000E+00  0.00000000000E+00 -0.15167544885E+04  0.15167544885E+04  0.50400001928E-02 0.  1.
    10030    2    1    2    0    0  0.00000000000E+00  0.00000000000E+00 -0.79025291597E+03  0.22432560611E+04  0.20994518534E+04 0.  0.
        3    1    3    3  502    0 -0.17244917586E+03 -0.28290390438E+03  0.66916813467E+03  0.74669896212E+03  0.10100000352E+00 0. -1.
       -3    1    3    3    0  502  0.17244917586E+03  0.28290390438E+03 -0.14594210506E+04  0.14965570990E+04  0.10100000352E+00 0.  1.
</event>
<event>
 5   0  0.1492552E-05  0.2103499E+04  0.7818609E-02  0.8559703E-01
       -1   -1    0    0    0  501  0.00000000000E+00  0.00000000000E+00  0.16936414721E+04  0.16936414721E+04  0.50400001928E-02 0.  1.
        1   -1    0    0  501    0  0.00000000000E+00  0.00000000000E+00 -0.65313554739E+03  0.65313554741E+03  0.50400001928E-02 0. -1.
    10030    2    1    2    0    0  0.00000000000E+00  0.00000000000E+00  0.10405059247E+04  0.23467770195E+04  0.21034994176E+04 0.  0.
        4    1    3    3  502    0  0.48456825885E+03 -0.85990947263E+03  0.92547514372E+03  0.13530545270E+04  0.12699999809E+01 0. -1.
       -4    1    3    3    0  502 -0.48456825885E+03  0.85990947263E+03  0.11503078101E+03  0.99372249249E+03  0.12699999809E+01 0.  1.
</event>
<event>
 5   0  0.3130517E-05  0.2093128E+04  0.7818609E-02  0.8564277E-01
       -2   -1    0    0    0  501  0.00000000000E+00  0.00000000000E+00  0.42920626575E+03  0.42920626576E+03  0.25500000920E-02 0. -1.
        2   -1    0    0  501    0  0.00000000000E+00  0.00000000000E+00 -0.25519105460E+04  0.25519105460E+04  0.25500000920E-02 0.  1.
    10030    2    1    2    0    0  0.00000000000E+00  0.00000000000E+00 -0.21227042803E+04  0.29811168118E+04  0.20931277993E+04 0.  0.
        1    1    3    3  502    0 -0.83752344613E+03 -0.33126750797E+03 -0.30220095450E+03  0.95000479029E+03  0.50400001928E-02 0. -1.
       -1    1    3    3    0  502  0.83752344613E+03  0.33126750797E+03 -0.18205033258E+04  0.20311120215E+04  0.50400001928E-02 0.  1.
</event>
<event>
 5   0  0.1435410E-05  0.2099332E+04  0.7818609E-02  0.8561538E-01
       -1   -1    0    0    0  501  0.00000000000E+00  0.00000000000E+00  0.13458492098E+04  0.13458492098E+04  0.50400001928E-02 0.  1.
        1   -1    0    0  501    0  0.00000000000E+00  0.00000000000E+00 -0.81866401015E+03  0.81866401016E+03  0.50400001928E-02 0. -1.
    10030    2    1    2    0    0  0.00000000000E+00  0.00000000000E+00  0.52718519968E+03  0.21645132200E+04  0.20993316186E+04 0.  0.
        2    1    3    3  502    0 -0.71935232083E+02 -0.24635793289E+03  0.13130013833E+04  0.13378488485E+04  0.25500000920E-02 0.  1.
       -2    1    3    3    0  502  0.71935232083E+02  0.24635793289E+03 -0.78581618364E+03  0.82666437155E+03  0.25500000920E-02 0. -1.
</event>
<event>
 5   0  0.1453430E-05  0.2130909E+04  0.7818609E-02  0.8547749E-01
        1   -1    0    0  501    0  0.00000000000E+00  0.00000000000E+00  0.98944861511E+03  0.98944861512E+03  0.50400001928E-02 0.  1.
       -1   -1    0    0    0  501  0.00000000000E+00  0.00000000000E+00 -0.11472986954E+04  0.11472986954E+04  0.50400001928E-02 0. -1.
    10030    2    1    2    0    0  0.00000000000E+00  0.00000000000E+00 -0.15785008029E+03  0.21367473105E+04  0.21309088252E+04 0.  0.
        5    1    3    3  502    0 -0.59377656253E+03 -0.77912867729E+03  0.34122048269E+03  0.10373358230E+04  0.46999998093E+01 0.  1.
       -5    1    3    3    0  502  0.59377656253E+03  0.77912867729E+03 -0.49907056298E+03  0.10994114875E+04  0.46999998093E+01 0. -1.
</event>
<event>
 5   0  0.1453430E-05  0.2085671E+04  0.7818609E-02  0.8567582E-01
       -1   -1    0    0    0  501  0.00000000000E+00  0.00000000000E+00  0.80221471273E+03  0.80221471274E+03  0.50400001928E-02 0.  1.
        1   -1    0    0  501    0  0.00000000000E+00  0.00000000000E+00 -0.13556294359E+04  0.13556294359E+04  0.50400001928E-02 0. -1.
    10030    2    1    2    0    0  0.00000000000E+00  0.00000000000E+00 -0.55341472317E+03  0.21578441486E+04  0.20856709985E+04 0.  0.
        5    1    3    3  502    0  0.46272230057E+03  0.35959358288E+03 -0.11691483544E+04  0.13078032868E+04  0.46999998093E+01 0. -1.
       -5    1    3    3    0  502 -0.46272230057E+03 -0.35959358288E+03  0.61573363121E+03  0.85004086190E+03  0.46999998093E+01 0.  1.
</event>
<event>
 5   0  0.3130517E-05  0.2090322E+04  0.7818609E-02  0.8565519E-01
       -2   -1    0    0    0  501  0.00000000000E+00  0.00000000000E+00  0.70443588703E+03  0.70443588703E+03  0.25500000920E-02 0. -1.
        2   -1    0    0  501    0  0.00000000000E+00  0.00000000000E+00 -0.15506901159E+04  0.15506901159E+04  0.25500000920E-02 0.  1.
    10030    2    1    2    0    0  0.00000000000E+00  0.00000000000E+00 -0.84625422887E+03  0.22551260029E+04  0.20903222405E+04 0.  0.
        1    1    3    3  502    0  0.77403733144E+03  0.66941106017E+03 -0.19397347416E+03  0.10415712490E+04  0.50400001928E-02 0. -1.
       -1    1    3    3    0  502 -0.77403733144E+03 -0.66941106017E+03 -0.65228075471E+03  0.12135547540E+04  0.50400001928E-02 0.  1.
</event>
<event>
 5   0  0.1453430E-05  0.2084292E+04  0.7818609E-02  0.8568195E-01
       -1   -1    0    0    0  501  0.00000000000E+00  0.00000000000E+00  0.71507596071E+03  0.71507596073E+03  0.50400001928E-02 0. -1.
        1   -1    0    0  501    0  0.00000000000E+00  0.00000000000E+00 -0.15188154015E+04  0.15188154015E+04  0.50400001928E-02 0.  1.
    10030    2    1    2    0    0  0.00000000000E+00  0.00000000000E+00 -0.80373944074E+03  0.22338913622E+04  0.20842920931E+04 0.  0.
        5    1    3    3  502    0 -0.82560719509E+03 -0.23108287303E+03  0.23312373441E+03  0.88847920647E+03  0.46999998093E+01 0. -1.
       -5    1    3    3    0  502  0.82560719509E+03  0.23108287303E+03 -0.10368631751E+04  0.13454121557E+04  0.46999998093E+01 0.  1.
</event>
<event>
 5   0  0.3279789E-05  0.2097188E+04  0.7818609E-02  0.8562483E-01
       -2   -1    0    0    0  501  0.00000000000E+00  0.00000000000E+00  0.11702842636E+04  0.11702842636E+04  0.25500000920E-02 0.  1.
        2   -1    0    0  501    0  0.00000000000E+00  0.00000000000E+00 -0.93955784442E+03  0.93955784443E+03  0.25500000920E-02 0. -1.
    10030    2    1    2    0    0  0.00000000000E+00  0.00000000000E+00  0.23072641915E+03  0.21098421080E+04  0.20971883654E+04 0.  0.
        2    1    3    3  502    0  0.97073127663E+03 -0.17493015899E+03 -0.24263495411E+03  0.10157713783E+04  0.25500000920E-02 0. -1.
       -2    1    3    3    0  502 -0.97073127663E+03  0.17493015899E+03  0.47336137326E+03  0.10940707297E+04  0.25500000920E-02 0.  1.
</event>
<event>
 5   0  0.1435410E-05  0.2103969E+04  0.7818609E-02  0.8559497E-01
        1   -1    0    0  501    0  0.00000000000E+00  0.00000000000E+00  0.12168219843E+04  0.12168219843E+04  0.50400001928E-02 0. -1.
       -1   -1    0    0    0  501  0.00000000000E+00  0.00000000000E+00 -0.90947701642E+03  0.90947701643E+03  0.50400001928E-02 0.  1.
    10030    2    1    2    0    0  0.00000000000E+00  0.00000000000E+00  0.30734496791E+03  0.21262990008E+04  0.21039692278E+04 0.  0.
        2    1    3    3  502    0  0.52468896220E+03  0.52594670992E+03  0.90639490318E+03  0.11719514364E+04  0.25500000920E-02 0. -1.
       -2    1    3    3    0  502 -0.52468896220E+03 -0.52594670992E+03 -0.59904993526E+03  0.95434756440E+03  0.25500000920E-02 0.  1.
</event>
<event>
 5   0  0.3108326E-05  0.2141061E+04  0.7818609E-02  0.8543368E-01
       -2   -1    0    0    0  501  0.00000000000E+00  0.00000000000E+00  0.12028339769E+04  0.12028339769E+04  0.25500000920E-02 0.  1.
        2   -1    0    0  501    0  0.00000000000E+00  0.00000000000E+00 -0.95277934767E+03  0.95277934768E+03  0.25500000920E-02 0. -1.
    10030    2    1    2    0    0  0.00000000000E+00  0.00000000000E+00  0.25005462922E+03  0.21556133246E+04  0.21410608323E+04 0.  0.
        5    1    3    3  502    0  0.79311728066E+03  0.14888007737E+02  0.84877114111E+03  0.11617621158E+04  0.46999998093E+01 0.  1.
       -5    1    3    3    0  502 -0.79311728066E+03 -0.14888007737E+02 -0.59871651189E+03  0.99385120881E+03  0.46999998093E+01 0. -1.
</event>
<event>
 5   0  0.3242231E-05  0.2102419E+04  0.7818609E-02  0.8560178E-01
        2   -1    0    0  501    0  0.00000000000E+00  0.00000000000E+00  0.12635989592E+04  0.12635989592E+04  0.25500000920E-02 0.  1.
       -2   -1    0    0    0  501  0.00000000000E+00  0.00000000000E+00 -0.87451929724E+03  0.87451929724E+03  0.25500000920E-02 0. -1.
    10030    2    1    2    0    0  0.00000000000E+00  0.00000000000E+00  0.38907966195E+03  0.21381182564E+04  0.21024192482E+04 0.  0.
        4    1    3    3  502    0 -0.26503944894E+03 -0.22479750650E+03 -0.81440487764E+03  0.88545849482E+03  0.12699999809E+01 0. -1.
       -4    1    3    3    0  502  0.26503944894E+03  0.22479750650E+03  0.12034845396E+04  0.12526597616E+04  0.12699999809E+01 0.  1.
</event>
<event>
 5   0  0.3242231E-05  0.2097553E+04  0.7818609E-02  0.8562322E-01
        2   -1    0    0  501    0  0.00000000000E+00  0.00000000000E+00  0.13377049281E+04  0.13377049281E+04  0.25500000920E-02 0. -1.
       -2   -1    0    0    0  501  0.00000000000E+00  0.00000000000E+00 -0.82225348917E+03  0.82225348918E+03  0.25500000920E-02 0.  1.
    10030    2    1    2    0    0  0.00000000000E+00  0.00000000000E+00  0.51545143892E+03  0.21599584173E+04  0.20975533792E+04 0.  0.
        4    1    3    3  502    0 -0.34980530451E+03  0.11747022367E+03 -0.75319850473E+03  0.83873273749E+03  0.12699999809E+01 0.  1.
       -4    1    3    3    0  502  0.34980530451E+03 -0.11747022367E+03  0.12686499436E+04  0.13212256798E+04  0.12699999809E+01 0. -1.
</event>
<event>
 5   0  0.1453430E-05  0.2100769E+04  0.7818609E-02  0.8560905E-01
        1   -1    0    0  501    0  0.00000000000E+00  0.00000000000E+00  0.17963810862E+04  0.17963810862E+04  0.50400001928E-02 0. -1.
       -1   -1    0    0    0  501  0.00000000000E+00  0.00000000000E+00 -0.61418372094E+03  0.61418372096E+03  0.50400001928E-02 0.  1.
    10030    2    1    2    0    0  0.00000000000E+00  0.00000000000E+00  0.11821973652E+04  0.24105648071E+04  0.21007694017E+04 0.  0.
        5    1    3    3  502    0 -0.23829662782E+03  0.43237118707E+03 -0.47274413810E+03  0.68354900069E+03  0.46999998093E+01 0.  1.
       -5    1    3    3    0  502  0.23829662782E+03 -0.43237118707E+03  0.16549415033E+04  0.17270158064E+04  0.46999998093E+01 0. -1.
</event>
<event>
 5   0  0.1129987E-05  0.2107249E+04  0.7818609E-02  0.8558057E-01
        3   -1    0    0  501    0  0.00000000000E+00  0.00000000000E+00  0.22867458778E+04  0.22867458801E+04  0.10100000352E+00 0.  1.
       -3   -1    0    0    0  501  0.00000000000E+00  0.00000000000E+00 -0.48546034422E+03  0.48546035472E+03  0.10100000352E+00 0. -1.
    10030    2    1    2    0    0  0.00000000000E+00  0.00000000000E+00  0.18012855336E+04  0.27722062348E+04  0.21072488782E+04 0.  0.
        2    1    3    3  502    0 -0.47341119174E+02 -0.17439040823E+03 -0.46492278486E+03  0.49880496383E+03  0.25500000920E-02 0. -1.
       -2    1    3    3    0  502  0.47341119174E+02  0.17439040823E+03  0.22662083185E+04  0.22734012709E+04  0.25500000920E-02 0.  1.
</event>
<event>
 5   0  0.1453430E-05  0.2092097E+04  0.7818609E-02  0.8564733E-01
       -1   -1    0    0    0  501  0.00000000000E+00  0.00000000000E+00  0.13694163811E+04  0.13694163811E+04  0.50400001928E-02 0.  1.
        1   -1    0    0  501    0  0.00000000000E+00  0.00000000000E+00 -0.79903928577E+03  0.79903928579E+03  0.50400001928E-02 0. -1.
    10030    2    1    2    0    0  0.00000000000E+00  0.00000000000E+00  0.57037709537E+03  0.21684556669E+04  0.20920970218E+04 0.  0.
        5    1    3    3  502    0 -0.39753959627E+03  0.69228218728E+03  0.98580567530E+03  0.12685138063E+04  0.46999998093E+01 0.  1.
       -5    1    3    3    0  502  0.39753959627E+03 -0.69228218728E+03 -0.41542857994E+03  0.89994186059E+03  0.46999998093E+01 0. -1.
</event>
<event>
 5   0  0.3130517E-05  0.2103350E+04  0.7818609E-02  0.8559769E-01
       -2   -1    0    0    0  501  0.00000000000E+00  0.00000000000E+00  0.91791820933E+03  0.91791820934E+03  0.25500000920E-02 0.  1.
        2   -1    0    0  501    0  0.00000000000E+00  0.00000000000E+00 -0.12049226274E+04  0.12049226274E+04  0.25500000920E-02 0. -1.
    10030    2    1    2    0    0  0.00000000000E+00  0.00000000000E+00 -0.28700441807E+03  0.21228408367E+04  0.21033501093E+04 0.  0.
        1    1    3    3  502    0 -0.48402241170E+03 -0.49604990927E+03 -0.94182960722E+03  0.11693529051E+04  0.50400001928E-02 0. -1.
       -1    1    3    3    0  502  0.48402241170E+03  0.49604990927E+03  0.65482518915E+03  0.95348793169E+03  0.50400001928E-02 0.  1.
</event>
<event>
 5   0  0.3108326E-05  0.2101018E+04  0.7818609E-02  0.8560795E-01
       -2   -1    0    0    0  501  0.00000000000E+00  0.00000000000E+00  0.66323553960E+03  0.66323553960E+03  0.25500000920E-02 0. -1.
        2   -1    0    0  501    0  0.00000000000E+00  0.00000000000E+00 -0.16639169109E+04  0.16639169109E+04  0.25500000920E-02 0.  1.
    10030    2    1    2    0    0  0.00000000000E+00  0.00000000000E+00 -0.10006813713E+04  0.23271524505E+04  0.21010176870E+04 0.  0.
        5    1    3    3  502    0  0.57811838143E+03 -0.83366495975E+03 -0.80231717931E+03  0.12934268724E+04  0.46999998093E+01 0.  1.
       -5    1    3    3    0  502 -0.57811838143E+03  0.83366495975E+03 -0.19836419195E+03  0.10337255780E+04  0.46999998093E+01 0. -1.
</event>
<event>
 5   0  0.1466480E-05  0.2100596E+04  0.7818609E-02  0.8560981E-01
        1   -1    0    0  501    0  0.00000000000E+00  0.00000000000E+00  0.11062226011E+04  0.11062226011E+04  0.50400001928E-02 0. -1.
       -1   -1    0    0    0  501  0.00000000000E+00  0.00000000000E+00 -0.99720105499E+03  0.99720105501E+03  0.50400001928E-02 0.  1.
    10030    2    1    2    0    0  0.00000000000E+00  0.00000000000E+00  0.10902154614E+03  0.21034236562E+04  0.21005964343E+04 0.  0.
        3    1    3    3  502    0 -0.64360773733E+03  0.81108545673E+03 -0.12189613243E+03  0.10425685661E+04  0.10100000352E+00 0.  1.
       -3    1    3    3    0  502  0.64360773733E+03 -0.81108545673E+03  0.23091767858E+03  0.10608550901E+04  0.10100000352E+00 0. -1.
</event>
<event>
 5   0  0.3242231E-05  0.2100483E+04  0.7818609E-02  0.8561031E-01
        2   -1    0    0  501    0  0.00000000000E+00  0.00000000000E+00  0.93002514127E+03  0.93002514127E+03  0.25500000920E-02 0. -1.
       -2   -1    0    0    0  501  0.00000000000E+00  0.00000000000E+00 -0.11859971096E+04  0.11859971096E+04  0.25500000920E-02 0.  1.
    10030    2    1    2    0    0  0.00000000000E+00  0.00000000000E+00 -0.25597196832E+03  0.21160222509E+04  0.21004829248E+04 0.  0.
        4    1    3    3  502    0 -0.75957107772E+03 -0.29992469807E+03 -0.79325201408E+03  0.11384873374E+04  0.12699999809E+01 0.  1.
       -4    1    3    3    0  502  0.75957107772E+03  0.29992469807E+03  0.53728004576E+03  0.97753491349E+03  0.12699999809E+01 0. -1.
</event>
<event>
 5   0  0.3130517E-05  0.2134723E+04  0.7818609E-02  0.8546100E-01
        2   -1    0    0  501    0  0.00000000000E+00  0.00000000000E+00  0.13097465332E+04  0.13097465333E+04  0.25500000920E-02 0. -1.
       -2   -1    0    0    0  501  0.00000000000E+00  0.00000000000E+00 -0.86983297892E+03  0.86983297892E+03  0.25500000920E-02 0.  1.
    10030    2    1    2    0    0  0.00000000000E+00  0.00000000000E+00  0.43991355433E+03  0.21795795122E+04  0.21347231471E+04 0.  0.
        1    1    3    3  502    0  0.45301240724E+03  0.91481826377E+03 -0.98278382920E+02  0.10255590365E+04  0.50400001928E-02 0. -1.
       -1    1    3    3    0  502 -0.45301240724E+03 -0.91481826377E+03  0.53819193725E+03  0.11540204756E+04  0.50400001928E-02 0.  1.
</event>
<event>
 5   0  0.1466480E-05  0.2092847E+04  0.7818609E-02  0.8564401E-01
        1   -1    0    0  501    0  0.00000000000E+00  0.00000000000E+00  0.13985466733E+04  0.13985466733E+04  0.50400001928E-02 0. -1.
       -1   -1    0    0    0  501  0.00000000000E+00  0.00000000000E+00 -0.78295742529E+03  0.78295742530E+03  0.50400001928E-02 0.  1.
    10030    2    1    2    0    0  0.00000000000E+00  0.00000000000E+00  0.61558924799E+03  0.21815040986E+04  0.20928473451E+04 0.  0.
        3    1    3    3  502    0 -0.12323158988E+03  0.10250509720E+04  0.48556841802E+03  0.11409172707E+04  0.10100000352E+00 0. -1.
       -3    1    3    3    0  502  0.12323158988E+03 -0.10250509720E+04  0.13002082997E+03  0.10405868279E+04  0.10100000352E+00 0.  1.
</event>
<event>
 5   0  0.3257130E-05  0.2071316E+04  0.7818609E-02  0.8573985E-01
        2   -1    0    0  501    0  0.00000000000E+00  0.00000000000E+00  0.12059101205E+04  0.12059101205E+04  0.25500000920E-02 0. -1.
       -2   -1    0    0    0  501  0.00000000000E+00  0.00000000000E+00 -0.88944195708E+03  0.88944195709E+03  0.25500000920E-02 0.  1.
    10030    2    1    2    0    0  0.00000000000E+00  0.00000000000E+00  0.31646816346E+03  0.20953520776E+04  0.20713155797E+04 0.  0.
        3    1    3    3  502    0  0.38170881354E+03 -0.93743746893E+03 -0.63619842707E+02  0.10141686847E+04  0.10100000352E+00 0.  1.
       -3    1    3    3    0  502 -0.38170881354E+03  0.93743746893E+03  0.38008800617E+03  0.10811833929E+04  0.10100000352E+00 0. -1.
</event>
<event>
 5   0  0.1466480E-05  0.2093620E+04  0.7818609E-02  0.8564059E-01
       -1   -1    0    0    0  501  0.00000000000E+00  0.00000000000E+00  0.11253072162E+04  0.11253072162E+04  0.50400001928E-02 0. -1.
        1   -1    0    0  501    0  0.00000000000E+00  0.00000000000E+00 -0.97378834829E+03  0.97378834830E+03  0.50400001928E-02 0.  1.
    10030    2    1    2    0    0  0.00000000000E+00  0.00000000000E+00  0.15151886794E+03  0.20990955645E+04  0.20936198847E+04 0.  0.
        3    1    3    3  502    0 -0.10434733914E+04 -0.76727659064E+02  0.10881828174E+03  0.10519340668E+04  0.10100000352E+00 0.  1.
       -3    1    3    3    0  502  0.10434733914E+04  0.76727659064E+02  0.42700586208E+02  0.10471614978E+04  0.10100000352E+00 0. -1.
</event>
<event>
 5   0  0.1453430E-05  0.2105342E+04  0.7818609E-02  0.8558894E-01
        1   -1    0    0  501    0  0.00000000000E+00  0.00000000000E+00  0.99594034091E+03  0.99594034092E+03  0.50400001928E-02 0.  1.
       -1   -1    0    0    0  501  0.00000000000E+00  0.00000000000E+00 -0.11126328901E+04  0.11126328901E+04  0.50400001928E-02 0. -1.
    10030    2    1    2    0    0  0.00000000000E+00  0.00000000000E+00 -0.11669254918E+03  0.21085732310E+04  0.21053417584E+04 0.  0.
        5    1    3    3  502    0 -0.46146861600E+03 -0.85821322067E+03 -0.45721711641E+03  0.10763609047E+04  0.46999998093E+01 0. -1.
       -5    1    3    3    0  502  0.46146861600E+03  0.85821322067E+03  0.34052456723E+03  0.10322123263E+04  0.46999998093E+01 0.  1.
</event>
<event>
 5   0  0.1513292E-05  0.2104240E+04  0.7818609E-02  0.8559378E-01
       -1   -1    0    0    0  501  0.00000000000E+00  0.00000000000E+00  0.70243327668E+03  0.70243327669E+03  0.50400001928E-02 0. -1.
        1   -1    0    0  501    0  0.00000000000E+00  0.00000000000E+00 -0.15758878048E+04  0.15758878048E+04  0.50400001928E-02 0.  1.
    10030    2    1    2    0    0  0.00000000000E+00  0.00000000000E+00 -0.87345452811E+03  0.22783210815E+04  0.21042395628E+04 0.  0.
        1    1    3    3  502    0  0.45753850093E+03 -0.19860306888E+03 -0.14397407198E+04  0.15236922259E+04  0.50400001928E-02 0.  1.
       -1    1    3    3    0  502 -0.45753850093E+03  0.19860306888E+03  0.56628619171E+03  0.75462885563E+03  0.50400001928E-02 0. -1.
</event>
<event>
 5   0  0.1513292E-05  0.2217648E+04  0.7818609E-02  0.8511118E-01
        1   -1    0    0  501    0  0.00000000000E+00  0.00000000000E+00  0.11554389915E+04  0.11554389915E+04  0.50400001928E-02 0.  1.
       -1   -1    0    0    0  501  0.00000000000E+00  0.00000000000E+00 -0.10640896019E+04  0.10640896019E+04  0.50400001928E-02 0. -1.
    10030    2    1    2    0    0  0.00000000000E+00  0.00000000000E+00  0.91349389547E+02  0.22195285934E+04  0.22176479581E+04 0.  0.
        1    1    3    3  502    0  0.38808935402E+03  0.90973221092E+03 -0.45601337107E+03  0.10891162642E+04  0.50400001928E-02 0. -1.
       -1    1    3    3    0  502 -0.38808935402E+03 -0.90973221092E+03  0.54736276062E+03  0.11304123292E+04  0.50400001928E-02 0.  1.
</event>
<event>
 5   0  0.3257130E-05  0.2099633E+04  0.7818609E-02  0.8561405E-01
       -2   -1    0    0    0  501  0.00000000000E+00  0.00000000000E+00  0.70238493792E+03  0.70238493793E+03  0.25500000920E-02 0.  1.
        2   -1    0    0  501    0  0.00000000000E+00  0.00000000000E+00 -0.15691036969E+04  0.15691036969E+04  0.25500000920E-02 0. -1.
    10030    2    1    2    0    0  0.00000000000E+00  0.00000000000E+00 -0.86671875896E+03  0.22714886348E+04  0.20996331134E+04 0.  0.
        3    1    3    3  502    0  0.83400963347E+03 -0.56376641205E+03 -0.11113838968E+03  0.10127963211E+04  0.10100000352E+00 0.  1.
       -3    1    3    3    0  502 -0.83400963347E+03  0.56376641205E+03 -0.75558036928E+03  0.12586923138E+04  0.10100000352E+00 0. -1.
</event>
<event>
 5   0  0.1513292E-05  0.2106578E+04  0.7818609E-02  0.8558351E-01
        1   -1    0    0  501    0  0.00000000000E+00  0.00000000000E+00  0.12427985131E+04  0.12427985131E+04  0.50400001928E-02 0. -1.
       -1   -1    0    0    0  501  0.00000000000E+00  0.00000000000E+00 -0.89267720158E+03  0.89267720160E+03  0.50400001928E-02 0.  1.
    10030    2    1    2    0    0  0.00000000000E+00  0.00000000000E+00  0.35012131148E+03  0.21354757147E+04  0.21065781721E+04 0.  0.
        1    1    3    3  502    0  0.14748938992E+03 -0.19966745502E+03  0.12127223254E+04  0.12378673803E+04  0.50400001928E-02 0. -1.
       -1    1    3    3    0  502 -0.14748938992E+03  0.19966745502E+03 -0.86260101389E+03  0.89760833437E+03  0.50400001928E-02 0.  1.
</event>
<event>
 5   0  0.1435410E-05  0.2100097E+04  0.7818609E-02  0.8561201E-01
       -1   -1    0    0    0  501  0.00000000000E+00  0.00000000000E+00  0.55563841336E+03  0.55563841339E+03  0.50400001928E-02 0.  1.
        1   -1    0    0  501    0  0.00000000000E+00  0.00000000000E+00 -0.19843878987E+04  0.19843878987E+04  0.50400001928E-02 0. -1.
    10030    2    1    2    0    0  0.00000000000E+00  0.00000000000E+00 -0.14287494854E+04  0.25400263121E+04  0.21000972774E+04 0.  0.
        2    1    3    3  502    0  0.44016091067E+03  0.71037662850E+03  0.54597547518E+02  0.83747087938E+03  0.25500000920E-02 0.  1.
       -2    1    3    3    0  502 -0.44016091067E+03 -0.71037662850E+03 -0.14833470329E+04  0.17025554328E+04  0.25500000920E-02 0. -1.
</event>
<event>
 5   0  0.1453430E-05  0.2109233E+04  0.7818609E-02  0.8557187E-01
       -1   -1    0    0    0  501  0.00000000000E+00  0.00000000000E+00  0.16776293735E+04  0.16776293735E+04  0.50400001928E-02 0. -1.
        1   -1    0    0  501    0  0.00000000000E+00  0.00000000000E+00 -0.66296893625E+03  0.66296893627E+03  0.50400001928E-02 0.  1.
    10030    2    1    2    0    0  0.00000000000E+00  0.00000000000E+00  0.10146604372E+04  0.23405983098E+04  0.21092331888E+04 0.  0.
        5    1    3    3  502    0 -0.41226968551E+03 -0.31645145555E+02 -0.56925727897E+03  0.70359338292E+03  0.46999998093E+01 0.  1.
       -5    1    3    3    0  502  0.41226968551E+03  0.31645145555E+02  0.15839177162E+04  0.16370049269E+04  0.46999998093E+01 0. -1.
</event>
<event>
 5   0  0.3130517E-05  0.2103548E+04  0.7818609E-02  0.8559682E-01
       -2   -1    0    0    0  501  0.00000000000E+00  0.00000000000E+00  0.46976585738E+03  0.46976585739E+03  0.25500000920E-02 0. -1.
        2   -1    0    0  501    0  0.00000000000E+00  0.00000000000E+00 -0.23548504883E+04  0.23548504883E+04  0.25500000920E-02 0.  1.
    10030    2    1    2    0    0  0.00000000000E+00  0.00000000000E+00 -0.18850846309E+04  0.28246163457E+04  0.21035478208E+04 0.  0.
        1    1    3    3  502    0 -0.53978225862E+03 -0.28439156179E+03 -0.20929470082E+04  0.21800620694E+04  0.50400001928E-02 0.  1.
       -1    1    3    3    0  502  0.53978225862E+03  0.28439156179E+03  0.20786237732E+03  0.64455427628E+03  0.50400001928E-02 0. -1.
</event>
<event>
 5   0  0.3257130E-05  0.2093430E+04  0.7818609E-02  0.8564143E-01
       -2   -1    0    0    0  501  0.00000000000E+00  0.00000000000E+00  0.47509432250E+03  0.47509432251E+03  0.25500000920E-02 0.  1.
        2   -1    0    0  501    0  0.00000000000E+00  0.00000000000E+00 -0.23060939223E+04  0.23060939223E+04  0.25500000920E-02 0. -1.
    10030    2    1    2    0    0  0.00000000000E+00  0.00000000000E+00 -0.18309995998E+04  0.27811882448E+04  0.20934298456E+04 0.  0.
        3    1    3    3  502    0 -0.69683453948E+03 -0.77124658051E+03 -0.75164029353E+03  0.12827169619E+04  0.10100000352E+00 0. -1.
       -3    1    3    3    0  502  0.69683453948E+03  0.77124658051E+03 -0.10793593063E+04  0.14984712829E+04  0.10100000352E+00 0.  1.
</event>
<event>
 5   0  0.1492552E-05  0.2097258E+04  0.7818609E-02  0.8562452E-01
       -1   -1    0    0    0  501  0.00000000000E+00  0.00000000000E+00  0.11844686484E+04  0.11844686484E+04  0.50400001928E-02 0.  1.
        1   -1    0    0  501    0  0.00000000000E+00  0.00000000000E+00 -0.92836767410E+03  0.92836767411E+03  0.50400001928E-02 0. -1.
    10030    2    1    2    0    0  0.00000000000E+00  0.00000000000E+00  0.25610097429E+03  0.21128363225E+04  0.20972576419E+04 0.  0.
        4    1    3    3  502    0 -0.46446630254E+03  0.36792959817E+03  0.99964738017E+03  0.11620661053E+04  0.12699999809E+01 0.  1.
       -4    1    3    3    0  502  0.46446630254E+03 -0.36792959817E+03 -0.74354640588E+03  0.95077021725E+03  0.12699999809E+01 0. -1.
</event>
<event>
 5   0  0.1435410E-05  0.2121249E+04  0.7818609E-02  0.8551940E-01
       -1   -1    0    0    0  501  0.00000000000E+00  0.00000000000E+00  0.19694463871E+04  0.19694463871E+04  0.50400001928E-02 0. -1.
        1   -1    0    0  501    0  0.00000000000E+00  0.00000000000E+00 -0.57118835456E+03  0.57118835459E+03  0.50400001928E-02 0.  1.
    10030    2    1    2    0    0  0.00000000000E+00  0.00000000000E+00  0.13982580326E+04  0.25406347417E+04  0.21212494821E+04 0.  0.
        2    1    3    3  502    0 -0.77671485647E+03 -0.24913174789E+03  0.15110754517E+04  0.17171783882E+04  0.25500000920E-02 0. -1.
       -2    1    3    3    0  502  0.77671485647E+03  0.24913174789E+03 -0.11281741917E+03  0.82345635351E+03  0.25500000920E-02 0.  1.
</event>
<event>
 5   0  0.1492552E-05  0.2096072E+04  0.7818609E-02  0.8562975E-01
       -1   -1    0    0    0  501  0.00000000000E+00  0.00000000000E+00  0.70000551882E+03  0.70000551884E+03  0.50400001928E-02 0.  1.
        1   -1    0    0  501    0  0.00000000000E+00  0.00000000000E+00 -0.15691017933E+04  0.15691017933E+04  0.50400001928E-02 0. -1.
    10030    2    1    2    0    0  0.00000000000E+00  0.00000000000E+00 -0.86909627449E+03  0.22691073122E+04  0.20960724367E+04 0.  0.
        4    1    3    3  502    0  0.41787419538E+02 -0.84263399096E+03  0.23855205243E+03  0.87674792602E+03  0.12699999809E+01 0.  1.
       -4    1    3    3    0  502 -0.41787419538E+02  0.84263399096E+03 -0.11076483269E+04  0.13923593861E+04  0.12699999809E+01 0. -1.
</event>
<event>
 5   0  0.1513292E-05  0.2100645E+04  0.7818609E-02  0.8560959E-01
       -1   -1    0    0    0  501  0.00000000000E+00  0.00000000000E+00  0.10527406460E+04  0.10527406460E+04  0.50400001928E-02 0. -1.
        1   -1    0    0  501    0  0.00000000000E+00  0.00000000000E+00 -0.10479095225E+04  0.10479095225E+04  0.50400001928E-02 0.  1.
    10030    2    1    2    0    0  0.00000000000E+00  0.00000000000E+00  0.48311234965E+01  0.21006501686E+04  0.21006446132E+04 0.  0.
        1    1    3    3  502    0  0.80714179599E+03 -0.15948584022E+03 -0.65047462062E+03  0.10488235524E+04  0.50400001928E-02 0.  1.
       -1    1    3    3    0  502 -0.80714179599E+03  0.15948584022E+03  0.65530574412E+03  0.10518266161E+04  0.50400001928E-02 0. -1.
</event>
<event>
 5   0  0.1129987E-05  0.2113344E+04  0.7818609E-02  0.8555388E-01
       -3   -1    0    0    0  501  0.00000000000E+00  0.00000000000E+00  0.14328712379E+04  0.14328712415E+04  0.10100000352E+00 0. -1.
        3   -1    0    0  501    0  0.00000000000E+00  0.00000000000E+00 -0.77924341214E+03  0.77924341869E+03  0.10100000352E+00 0.  1.
    10030    2    1    2    0    0  0.00000000000E+00  0.00000000000E+00  0.65362782579E+03  0.22121146602E+04  0.21133437806E+04 0.  0.
        3    1    3    3  502    0  0.29915962147E+03 -0.10651142361E+03 -0.72811518031E+03  0.79435060802E+03  0.10100000352E+00 0.  1.
       -3    1    3    3    0  502 -0.29915962147E+03  0.10651142361E+03  0.13817430061E+04  0.14177640522E+04  0.10100000352E+00 0. -1.
</event>
<event>
 5   0  0.1513292E-05  0.2101234E+04  0.7818609E-02  0.8560700E-01
        1   -1    0    0  501    0  0.00000000000E+00  0.00000000000E+00  0.14388596944E+04  0.14388596944E+04  0.50400001928E-02 0.  1.
       -1   -1    0    0    0  501  0.00000000000E+00  0.00000000000E+00 -0.76713273421E+03  0.76713273422E+03  0.50400001928E-02 0. -1.
    10030    2    1    2    0    0  0.00000000000E+00  0.00000000000E+00  0.67172696016E+03  0.22059924286E+04  0.21012342768E+04 0.  0.
        1    1    3    3  502    0  0.28501404537E+03 -0.33692040227E+03  0.13368378341E+04  0.14077939331E+04  0.50400001928E-02 0.  1.
       -1    1    3    3    0  502 -0.28501404537E+03  0.33692040227E+03 -0.66511087392E+03  0.79819849546E+03  0.50400001928E-02 0. -1.
</event>
<event>
 5   0  0.3242231E-05  0.2104515E+04  0.7818609E-02  0.8559257E-01
       -2   -1    0    0    0  501  0.00000000000E+00  0.00000000000E+00  0.76457195950E+03  0.76457195950E+03  0.25500000920E-02 0. -1.
        2   -1    0    0  501    0  0.00000000000E+00  0.00000000000E+00 -0.14481899147E+04  0.14481899147E+04  0.25500000920E-02 0.  1.
    10030    2    1    2    0    0  0.00000000000E+00  0.00000000000E+00 -0.68361795522E+03  0.22127618742E+04  0.21045145766E+04 0.  0.
        4    1    3    3  502    0 -0.47445055573E+03  0.81330247012E+03  0.15211918216E+03  0.95378514154E+03  0.12699999809E+01 0. -1.
       -4    1    3    3    0  502  0.47445055573E+03 -0.81330247012E+03 -0.83573713738E+03  0.12589767327E+04  0.12699999809E+01 0.  1.
</event>
<event>
 5   0  0.3242231E-05  0.2099500E+04  0.7818609E-02  0.8561464E-01
        2   -1    0    0  501    0  0.00000000000E+00  0.00000000000E+00  0.14308199341E+04  0.14308199341E+04  0.25500000920E-02 0. -1.
       -2   -1    0    0    0  501  0.00000000000E+00  0.00000000000E+00 -0.77017026121E+03  0.77017026122E+03  0.25500000920E-02 0.  1.
    10030    2    1    2    0    0  0.00000000000E+00  0.00000000000E+00  0.66064967293E+03  0.22009901954E+04  0.20994999047E+04 0.  0.
        4    1    3    3  502    0 -0.18954412843E+03 -0.99701205470E+03  0.48999586922E+02  0.10160524525E+04  0.12699999809E+01 0.  1.
       -4    1    3    3    0  502  0.18954412843E+03  0.99701205470E+03  0.61165008601E+03  0.11849377429E+04  0.12699999809E+01 0. -1.
</event>
<event>
 5   0  0.1513292E-05  0.2117458E+04  0.7818609E-02  0.8553592E-01
       -1   -1    0    0    0  501  0.00000000000E+00  0.00000000000E+00  0.78779294839E+03  0.78779294841E+03  0.50400001928E-02 0.  1.
        1   -1    0    0  501    0  0.00000000000E+00  0.00000000000E+00 -0.14228442737E+04  0.14228442737E+04  0.50400001928E-02 0. -1.
    10030    2    1    2    0    0  0.00000000000E+00  0.00000000000E+00 -0.63505132530E+03  0.22106372221E+04  0.21174576128E+04 0.  0.
        1    1    3    3  502    0 -0.39375230717E+03  0.34901601854E+03 -0.12766784044E+04  0.13808551006E+04  0.50400001928E-02 0. -1.
       -1    1    3    3    0  502  0.39375230717E+03 -0.34901601854E+03  0.64162707906E+03  0.82978212153E+03  0.50400001928E-02 0.  1.
</event>
<event>
 5   0  0.1492552E-05  0.2096399E+04  0.7818609E-02  0.8562831E-01
       -1   -1    0    0    0  501  0.00000000000E+00  0.00000000000E+00  0.55337413151E+03  0.55337413153E+03  0.50400001928E-02 0.  1.
        1   -1    0    0  501    0  0.00000000000E+00  0.00000000000E+00 -0.19854956019E+04  0.19854956019E+04  0.50400001928E-02 0. -1.
    10030    2    1    2    0    0  0.00000000000E+00  0.00000000000E+00 -0.14321214704E+04  0.25388697334E+04  0.20963987258E+04 0.  0.
        4    1    3    3  502    0 -0.80226718857E+03  0.53838892454E+03 -0.12083319391E+04  0.15471143991E+04  0.12699999809E+01 0. -1.
       -4    1    3    3    0  502  0.80226718857E+03 -0.53838892454E+03 -0.22378953124E+03  0.99175533430E+03  0.12699999809E+01 0.  1.
</event>
<event>
 5   0  0.3242231E-05  0.2105845E+04  0.7818609E-02  0.8558673E-01
       -2   -1    0    0    0  501  0.00000000000E+00  0.00000000000E+00  0.95660237209E+03  0.95660237209E+03  0.25500000920E-02 0. -1.
        2   -1    0    0  501    0  0.00000000000E+00  0.00000000000E+00 -0.11589413628E+04  0.11589413628E+04  0.25500000920E-02 0.  1.
    10030    2    1    2    0    0  0.00000000000E+00  0.00000000000E+00 -0.20233899076E+03  0.21155437349E+04  0.21058452524E+04 0.  0.
        4    1    3    3  502    0  0.27492549608E+03 -0.94229222951E+03  0.28156512250E+03  0.10211656111E+04  0.12699999809E+01 0. -1.
       -4    1    3    3    0  502 -0.27492549608E+03  0.94229222951E+03 -0.48390411326E+03  0.10943781238E+04  0.12699999809E+01 0.  1.
</event>
<event>
 5   0  0.3242231E-05  0.2102994E+04  0.7818609E-02  0.8559926E-01
       -2   -1    0    0    0  501  0.00000000000E+00  0.00000000000E+00  0.38100398400E+03  0.38100398401E+03  0.25500000920E-02 0. -1.
        2   -1    0    0  501    0  0.00000000000E+00  0.00000000000E+00 -0.29019263019E+04  0.29019263019E+04  0.25500000920E-02 0.  1.
    10030    2    1    2    0    0  0.00000000000E+00  0.00000000000E+00 -0.25209223179E+04  0.32829302859E+04  0.21029935638E+04 0.  0.
        4    1    3    3  502    0  0.12267142994E+03  0.56865468375E+03 -0.26278303191E+04  0.26914513237E+04  0.12699999809E+01 0.  1.
       -4    1    3    3    0  502 -0.12267142994E+03 -0.56865468375E+03  0.10690800122E+03  0.59147896218E+03  0.12699999809E+01 0. -1.
</event>
<event>
 5   0  0.3108326E-05  0.2094555E+04  0.7818609E-02  0.8563646E-01
       -2   -1    0    0    0  501  0.00000000000E+00  0.00000000000E+00  0.58172479418E+03  0.58172479419E+03  0.25500000920E-02 0.  1.
        2   -1    0    0  501    0  0.00000000000E+00  0.00000000000E+00 -0.18854105900E+04  0.18854105900E+04  0.25500000920E-02 0. -1.
    10030    2    1    2    0    0  0.00000000000E+00  0.00000000000E+00 -0.13036857958E+04  0.24671353842E+04  0.20945549288E+04 0.  0.
        5    1    3    3  502    0 -0.37854275249E+03  0.39114025950E+03  0.40200321420E+03  0.67669342563E+03  0.46999998093E+01 0.  1.
       -5    1    3    3    0  502  0.37854275249E+03 -0.39114025950E+03 -0.17056890100E+04  0.17904419585E+04  0.46999998093E+01 0. -1.
</event>
<event>
 5   0  0.3130517E-05  0.2071692E+04  0.7818609E-02  0.8573817E-01
       -2   -1    0    0    0  501  0.00000000000E+00  0.00000000000E+00  0.44168484220E+03  0.44168484221E+03  0.25500000920E-02 0.  1.
        2   -1    0    0  501    0  0.00000000000E+00  0.00000000000E+00 -0.24292815562E+04  0.24292815562E+04  0.25500000920E-02 0. -1.
    10030    2    1    2    0    0  0.00000000000E+00  0.00000000000E+00 -0.19875967140E+04  0.28709663984E+04  0.20716919084E+04 0.  0.
        1    1    3    3  502    0 -0.79918470745E+03 -0.22371749991E+03 -0.18528103172E+04  0.20301851610E+04  0.50400001928E-02 0. -1.
       -1    1    3    3    0  502  0.79918470745E+03  0.22371749991E+03 -0.13478639680E+03  0.84078123740E+03  0.50400001928E-02 0.  1.
</event>
<event>
 5   0  0.1453430E-05  0.2049490E+04  0.7818609E-02  0.8583826E-01
       -1   -1    0    0    0  501  0.00000000000E+00  0.00000000000E+00  0.15483340411E+04  0.15483340411E+04  0.50400001928E-02 0. -1.
        1   -1    0    0  501    0  0.00000000000E+00  0.00000000000E+00 -0.67821401426E+03  0.67821401428E+03  0.50400001928E-02 0.  1.
    10030    2    1    2    0    0  0.00000000000E+00  0.00000000000E+00  0.87012002684E+03  0.22265480554E+04  0.20494895418E+04 0.  0.
        5    1    3    3  502    0 -0.37145573298E+03 -0.82448463656E+03  0.95870239095E+03  0.13179099521E+04  0.46999998093E+01 0. -1.
       -5    1    3    3    0  502  0.37145573298E+03  0.82448463656E+03 -0.88582364108E+02  0.90863810327E+03  0.46999998093E+01 0.  1.
</event>
<event>
 5   0  0.3108326E-05  0.2109148E+04  0.7818609E-02  0.8557224E-01
        2   -1    0    0  501    0  0.00000000000E+00  0.00000000000E+00  0.13592110484E+04  0.13592110485E+04  0.25500000920E-02 0. -1.
       -2   -1    0    0    0  501  0.00000000000E+00  0.00000000000E+00 -0.81821473166E+03  0.81821473167E+03  0.25500000920E-02 0.  1.
    10030    2    1    2    0    0  0.00000000000E+00  0.00000000000E+00  0.54099631679E+03  0.21774257801E+04  0.21091481724E+04 0.  0.
        5    1    3    3  502    0  0.79611141956E+03 -0.46940162381E+03 -0.25385454513E+03  0.95843387716E+03  0.46999998093E+01 0.  1.
       -5    1    3    3    0  502 -0.79611141956E+03  0.46940162381E+03  0.79485086192E+03  0.12189919030E+04  0.46999998093E+01 0. -1.
</event>
<event>
 5   0  0.1435410E-05  0.2093257E+04  0.7818609E-02  0.8564220E-01
        1   -1    0    0  501    0  0.00000000000E+00  0.00000000000E+00  0.78083651397E+03  0.78083651399E+03  0.50400001928E-02 0.  1.
       -1   -1    0    0    0  501  0.00000000000E+00  0.00000000000E+00 -0.14028939112E+04  0.14028939112E+04  0.50400001928E-02 0. -1.
    10030    2    1    2    0    0  0.00000000000E+00  0.00000000000E+00 -0.62205739722E+03  0.21837304252E+04  0.20932565931E+04 0.  0.
        2    1    3    3  502    0 -0.65454519177E+03 -0.52035645385E+03  0.34564637675E+03  0.90480476617E+03  0.25500000920E-02 0.  1.
       -2    1    3    3    0  502  0.65454519177E+03  0.52035645385E+03 -0.96770377396E+03  0.12789256590E+04  0.25500000920E-02 0. -1.
</event>
<event>
 5   0  0.3108326E-05  0.2094755E+04  0.7818609E-02  0.8563557E-01
       -2   -1    0    0    0  501  0.00000000000E+00  0.00000000000E+00  0.69480650086E+03  0.69480650086E+03  0.25500000920E-02 0. -1.
        2   -1    0    0  501    0  0.00000000000E+00  0.00000000000E+00 -0.15788559593E+04  0.15788559593E+04  0.25500000920E-02 0.  1.
    10030    2    1    2    0    0  0.00000000000E+00  0.00000000000E+00 -0.88404945843E+03  0.22736624602E+04  0.20947547679E+04 0.  0.
        5    1    3    3  502    0  0.18552316085E+03 -0.68500760414E+03  0.39403712309E+03  0.81175218220E+03  0.46999998093E+01 0. -1.
       -5    1    3    3    0  502 -0.18552316085E+03  0.68500760414E+03 -0.12780865815E+04  0.14619102780E+04  0.46999998093E+01 0.  1.
</event>
<event>
 5   0  0.1466480E-05  0.2102116E+04  0.7818609E-02  0.8560312E-01
       -1   -1    0    0    0  501  0.00000000000E+00  0.00000000000E+00  0.86181318008E+03  0.86181318009E+03  0.50400001928E-02 0. -1.
        1   -1    0    0  501    0  0.00000000000E+00  0.00000000000E+00 -0.12818586936E+04  0.12818586936E+04  0.50400001928E-02 0.  1.
    10030    2    1    2    0    0  0.00000000000E+00  0.00000000000E+00 -0.42004551350E+03  0.21436718737E+04  0.21021158076E+04 0.  0.
        3    1    3    3  502    0  0.26968507089E+03 -0.18861173203E+03  0.80791802953E+03  0.87237375910E+03  0.10100000352E+00 0. -1.
       -3    1    3    3    0  502 -0.26968507089E+03  0.18861173203E+03 -0.12279635430E+04  0.12712981146E+04  0.10100000352E+00 0.  1.
</event>
<event>
 5   0  0.1492552E-05  0.2136123E+04  0.7818609E-02  0.8545496E-01
       -1   -1    0    0    0  501  0.00000000000E+00  0.00000000000E+00  0.54938800271E+03  0.54938800273E+03  0.50400001928E-02 0.  1.
        1   -1    0    0  501    0  0.00000000000E+00  0.00000000000E+00 -0.20764110941E+04  0.20764110941E+04  0.50400001928E-02 0. -1.
    10030    2    1    2    0    0  0.00000000000E+00  0.00000000000E+00 -0.15270230914E+04  0.26257990968E+04  0.21361229776E+04 0.  0.
        4    1    3    3  502    0 -0.17717125303E+03 -0.97460618536E+03 -0.12544476001E+04  0.15984014714E+04  0.12699999809E+01 0. -1.
       -4    1    3    3    0  502  0.17717125303E+03  0.97460618536E+03 -0.27257549129E+03  0.10273976255E+04  0.12699999809E+01 0.  1.
</event>
<event>
 5   0  0.1466480E-05  0.2097202E+04  0.7818609E-02  0.8562477E-01
       -1   -1    0    0    0  501  0.00000000000E+00  0.00000000000E+00  0.97759156940E+03  0.97759156941E+03  0.50400001928E-02 0.  1.
        1   -1    0    0  501    0  0.00000000000E+00  0.00000000000E+00 -0.11247678947E+04  0.11247678947E+04  0.50400001928E-02 0. -1.
    10030    2    1    2    0    0  0.00000000000E+00  0.00000000000E+00 -0.14717632533E+03  0.21023594642E+04  0.20972015749E+04 0.  0.
        3    1    3    3  502    0 -0.85482388432E+03 -0.31856751011E+03 -0.59192314888E+03  0.10874659333E+04  0.10100000352E+00 0. -1.
       -3    1    3    3    0  502  0.85482388432E+03  0.31856751011E+03  0.44474682355E+03  0.10148935309E+04  0.10100000352E+00 0.  1.
</event>
<event>
 5   0  0.1466480E-05  0.2084808E+04  0.7818609E-02  0.8567965E-01
        1   -1    0    0  501    0  0.00000000000E+00  0.00000000000E+00  0.10086914011E+04  0.10086914011E+04  0.50400001928E-02 0.  1.
       -1   -1    0    0    0  501  0.00000000000E+00  0.00000000000E+00 -0.10772430790E+04  0.10772430790E+04  0.50400001928E-02 0. -1.
    10030    2    1    2    0    0  0.00000000000E+00  0.00000000000E+00 -0.68551677892E+02  0.20859344801E+04  0.20848077424E+04 0.  0.
        3    1    3    3  502    0  0.10343159539E+04  0.59691789742E+02 -0.14937373584E+03  0.10467497912E+04  0.10100000352E+00 0. -1.
       -3    1    3    3    0  502 -0.10343159539E+04 -0.59691789742E+02  0.80822057946E+02  0.10391846889E+04  0.10100000352E+00 0.  1.
</event>
<event>
 5   0  0.3279789E-05  0.2106405E+04  0.7818609E-02  0.8558427E-01
       -2   -1    0    0    0  501  0.00000000000E+00  0.00000000000E+00  0.99469688927E+03  0.99469688927E+03  0.25500000920E-02 0. -1.
        2   -1    0    0  501    0  0.00000000000E+00  0.00000000000E+00 -0.11151491000E+04  0.11151491000E+04  0.25500000920E-02 0.  1.
    10030    2    1    2    0    0  0.00000000000E+00  0.00000000000E+00 -0.12045221074E+03  0.21098459893E+04  0.21064048432E+04 0.  0.
        2    1    3    3  502    0 -0.34894678671E+02  0.11502027071E+03 -0.11082566301E+04  0.11147556053E+04  0.25500000920E-02 0.  1.
       -2    1    3    3    0  502  0.34894678671E+02 -0.11502027071E+03  0.98780441941E+03  0.99509038398E+03  0.25500000920E-02 0. -1.
</event>
<event>
 5   0  0.1453430E-05  0.2101698E+04  0.7818609E-02  0.8560496E-01
       -1   -1    0    0    0  501  0.00000000000E+00  0.00000000000E+00  0.44070037103E+03  0.44070037106E+03  0.50400001928E-02 0.  1.
        1   -1    0    0  501    0  0.00000000000E+00  0.00000000000E+00 -0.25057466557E+04  0.25057466557E+04  0.50400001928E-02 0. -1.
    10030    2    1    2    0    0  0.00000000000E+00  0.00000000000E+00 -0.20650462847E+04  0.29464470268E+04  0.21016978669E+04 0.  0.
        5    1    3    3  502    0  0.16814758147E+02 -0.60685408371E+03  0.16996480471E+03  0.63044804691E+03  0.46999998093E+01 0.  1.
       -5    1    3    3    0  502 -0.16814758147E+02  0.60685408371E+03 -0.22350110894E+04  0.23159989799E+04  0.46999998093E+01 0. -1.
</event>
<event>
 5   0  0.1435410E-05  0.2092003E+04  0.7818609E-02  0.8564774E-01
       -1   -1    0    0    0  501  0.00000000000E+00  0.00000000000E+00  0.88761217872E+03  0.88761217874E+03  0.50400001928E-02 0.  1.
        1   -1    0    0  501    0  0.00000000000E+00  0.00000000000E+00 -0.12326548014E+04  0.12326548014E+04  0.50400001928E-02 0. -1.
    10030    2    1    2    0    0  0.00000000000E+00  0.00000000000E+00 -0.34504262270E+03  0.21202669802E+04  0.20920032638E+04 0.  0.
        2    1    3    3  502    0  0.88007506863E+03 -0.32596366536E+03  0.29560087445E+03  0.98395341076E+03  0.25500000920E-02 0.  1.
       -2    1    3    3    0  502 -0.88007506863E+03  0.32596366536E+03 -0.64064349715E+03  0.11363135694E+04  0.25500000920E-02 0. -1.
</event>
<event>
 5   0  0.1466480E-05  0.2039560E+04  0.7818609E-02  0.8588345E-01
       -1   -1    0    0    0  501  0.00000000000E+00  0.00000000000E+00  0.12739737690E+04  0.12739737690E+04  0.50400001928E-02 0. -1.
        1   -1    0    0  501    0  0.00000000000E+00  0.00000000000E+00 -0.81630541429E+03  0.81630541430E+03  0.50400001928E-02 0.  1.
    10030    2    1    2    0    0  0.00000000000E+00  0.00000000000E+00  0.45766835474E+03  0.20902791833E+04  0.20395604285E+04 0.  0.
        3    1    3    3  502    0  0.56684001683E+03 -0.78409606715E+03 -0.10141723178E+03  0.97283077269E+03  0.10100000352E+00 0. -1.
       -3    1    3    3    0  502 -0.56684001683E+03  0.78409606715E+03  0.55908558651E+03  0.11174484106E+04  0.10100000352E+00 0.  1.
</event>
<event>
 5   0  0.3130517E-05  0.2103558E+04  0.7818609E-02  0.8559677E-01
        2   -1    0    0  501    0  0.00000000000E+00  0.00000000000E+00  0.17256018056E+04  0.17256018056E+04  0.25500000920E-02 0.  1.
       -2   -1    0    0    0  501  0.00000000000E+00  0.00000000000E+00 -0.64107460468E+03  0.64107460469E+03  0.25500000920E-02 0. -1.
    10030    2    1    2    0    0  0.00000000000E+00  0.00000000000E+00  0.10845272009E+04  0.23666764103E+04  0.21035584093E+04 0.  0.
        1    1    3    3  502    0 -0.19394521191E+03  0.94550018282E+03  0.10124540101E+04  0.13988025106E+04  0.50400001928E-02 0. -1.
       -1    1    3    3    0  502  0.19394521191E+03 -0.94550018282E+03  0.72073190815E+02  0.96787389973E+03  0.50400001928E-02 0.  1.
</event>
<event>
 5   0  0.3279789E-05  0.2131331E+04  0.7818609E-02  0.8547566E-01
        2   -1    0    0  501    0  0.00000000000E+00  0.00000000000E+00  0.10155297301E+04  0.10155297301E+04  0.25500000920E-02 0.  1.
       -2   -1    0    0    0  501  0.00000000000E+00  0.00000000000E+00 -0.11182765034E+04  0.11182765034E+04  0.25500000920E-02 0. -1.
    10030    2    1    2    0    0  0.00000000000E+00  0.00000000000E+00 -0.10274677331E+03  0.21338062336E+04  0.21313310730E+04 0.  0.
        2    1    3    3  502    0  0.41290585533E+02 -0.37072600187E+02 -0.11168290705E+04  0.11182068068E+04  0.25500000920E-02 0. -1.
       -2    1    3    3    0  502 -0.41290585533E+02  0.37072600187E+02  0.10140822972E+04  0.10155994267E+04  0.25500000920E-02 0.  1.
</event>
<event>
 5   0  0.1466480E-05  0.2108306E+04  0.7818609E-02  0.8557593E-01
        1   -1    0    0  501    0  0.00000000000E+00  0.00000000000E+00  0.18056860069E+04  0.18056860069E+04  0.50400001928E-02 0.  1.
       -1   -1    0    0    0  501  0.00000000000E+00  0.00000000000E+00 -0.61541075055E+03  0.61541075057E+03  0.50400001928E-02 0. -1.
    10030    2    1    2    0    0  0.00000000000E+00  0.00000000000E+00  0.11902752563E+04  0.24210967574E+04  0.21083060316E+04 0.  0.
        3    1    3    3  502    0 -0.91535105062E+03 -0.30986716075E+03  0.11152435242E+03  0.97279129034E+03  0.10100000352E+00 0. -1.
       -3    1    3    3    0  502  0.91535105062E+03  0.30986716075E+03  0.10787509039E+04  0.14483054671E+04  0.10100000352E+00 0.  1.
</event>
<event>
 5   0  0.3130517E-05  0.2094436E+04  0.7818609E-02  0.8563698E-01
        2   -1    0    0  501    0  0.00000000000E+00  0.00000000000E+00  0.10498308001E+04  0.10498308001E+04  0.25500000920E-02 0. -1.
       -2   -1    0    0    0  501  0.00000000000E+00  0.00000000000E+00 -0.10446117633E+04  0.10446117633E+04  0.25500000920E-02 0.  1.
    10030    2    1    2    0    0  0.00000000000E+00  0.00000000000E+00  0.52190368211E+01  0.20944425633E+04  0.20944360608E+04 0.  0.
        1    1    3    3  502    0  0.36498697716E+03 -0.23492249336E+03 -0.95042100130E+03  0.10448464725E+04  0.50400001928E-02 0.  1.
       -1    1    3    3    0  502 -0.36498697716E+03  0.23492249336E+03  0.95564003812E+03  0.10495960908E+04  0.50400001928E-02 0. -1.
</event>
<event>
 5   0  0.1513292E-05  0.2067047E+04  0.7818609E-02  0.8575900E-01
        1   -1    0    0  501    0  0.00000000000E+00  0.00000000000E+00  0.22843749902E+04  0.22843749902E+04  0.50400001928E-02 0.  1.
       -1   -1    0    0    0  501  0.00000000000E+00  0.00000000000E+00 -0.46759891149E+03  0.46759891151E+03  0.50400001928E-02 0. -1.
    10030    2    1    2    0    0  0.00000000000E+00  0.00000000000E+00  0.18167760787E+04  0.27519739017E+04  0.20670474198E+04 0.  0.
        1    1    3    3  502    0 -0.22119970798E+03 -0.45434434012E+03  0.21086864657E+04  0.21683903479E+04  0.50400001928E-02 0.  1.
       -1    1    3    3    0  502  0.22119970798E+03  0.45434434012E+03 -0.29191038700E+03  0.58358355381E+03  0.50400001928E-02 0. -1.
</event>
<event>
 5   0  0.1466480E-05  0.2090615E+04  0.7818609E-02  0.8565389E-01
        1   -1    0    0  501    0  0.00000000000E+00  0.00000000000E+00  0.21870816438E+04  0.21870816438E+04  0.50400001928E-02 0.  1.
       -1   -1    0    0    0  501  0.00000000000E+00  0.00000000000E+00 -0.49960097092E+03  0.49960097094E+03  0.50400001928E-02 0. -1.
    10030    2    1    2    0    0  0.00000000000E+00  0.00000000000E+00  0.16874806728E+04  0.26866826147E+04  0.20906153283E+04 0.  0.
        3    1    3    3  502    0 -0.98612451079E+03 -0.24416595440E+03  0.52735763990E+03  0.11446242417E+04  0.10100000352E+00 0.  1.
       -3    1    3    3    0  502  0.98612451079E+03  0.24416595440E+03  0.11601230330E+04  0.15420583730E+04  0.10100000352E+00 0. -1.
</event>
<event>
 5   0  0.3242231E-05  0.2102613E+04  0.7818609E-02  0.8560093E-01
        2   -1    0    0  501    0  0.00000000000E+00  0.00000000000E+00  0.11428834671E+04  0.11428834671E+04  0.25500000920E-02 0. -1.
       -2   -1    0    0    0  501  0.00000000000E+00  0.00000000000E+00 -0.96706772618E+03  0.96706772618E+03  0.25500000920E-02 0.  1.
    10030    2    1    2    0    0  0.00000000000E+00  0.00000000000E+00  0.17581574095E+03  0.21099511933E+04  0.21026133414E+04 0.  0.
        4    1    3    3  502    0 -0.93516309311E+03  0.46457641802E+03  0.21032888071E+03  0.10651765628E+04  0.12699999809E+01 0. -1.
       -4    1    3    3    0  502  0.93516309311E+03 -0.46457641802E+03 -0.34513139763E+02  0.10447746305E+04  0.12699999809E+01 0.  1.
</event>
<event>
 5   0  0.1129987E-05  0.2109077E+04  0.7818609E-02  0.8557255E-01
        4   -1    0    0  501    0  0.00000000000E+00  0.00000000000E+00  0.11573494161E+04  0.11573501129E+04  0.12699999809E+01 0.  1.
       -4   -1    0    0    0  501  0.00000000000E+00  0.00000000000E+00 -0.96085919782E+03  0.96086003712E+03  0.12699999809E+01 0. -1.
    10030    2    1    2    0    0  0.00000000000E+00  0.00000000000E+00  0.19649021824E+03  0.21182101500E+04  0.21090770099E+04 0.  0.
        4    1    3    3  502    0  0.20325794667E+03  0.35045319984E+03 -0.87958213034E+03  0.96839949147E+03  0.12699999809E+01 0. -1.
       -4    1    3    3    0  502 -0.20325794667E+03 -0.35045319984E+03  0.10760723486E+04  0.11498106585E+04  0.12699999809E+01 0.  1.
</event>
<event>
 5   0  0.3130517E-05  0.2084626E+04  0.7818609E-02  0.8568046E-01
        2   -1    0    0  501    0  0.00000000000E+00  0.00000000000E+00  0.21917170033E+04  0.21917170033E+04  0.25500000920E-02 0. -1.
       -2   -1    0    0    0  501  0.00000000000E+00  0.00000000000E+00 -0.49569208451E+03  0.49569208451E+03  0.25500000920E-02 0.  1.
    10030    2    1    2    0    0  0.00000000000E+00  0.00000000000E+00  0.16960249188E+04  0.26874090878E+04  0.20846263646E+04 0.  0.
        1    1    3    3  502    0 -0.89867215292E+03  0.34964368521E+03  0.33793253732E+03  0.10217929070E+04  0.50400001928E-02 0.  1.
       -1    1    3    3    0  502  0.89867215292E+03 -0.34964368521E+03  0.13580923815E+04  0.16656161808E+04  0.50400001928E-02 0. -1.
</event>
<event>
 5   0  0.3108326E-05  0.2115135E+04  0.7818609E-02  0.8554606E-01
       -2   -1    0    0    0  501  0.00000000000E+00  0.00000000000E+00  0.75813616451E+03  0.75813616451E+03  0.25500000920E-02 0.  1.
        2   -1    0    0  501    0  0.00000000000E+00  0.00000000000E+00 -0.14752609544E+04  0.14752609544E+04  0.25500000920E-02 0. -1.
    10030    2    1    2    0    0  0.00000000000E+00  0.00000000000E+00 -0.71712478994E+03  0.22333971190E+04  0.21151346829E+04 0.  0.
        5    1    3    3  502    0 -0.65600076347E+03 -0.82161788706E+03 -0.47911059948E+03  0.11554055611E+04  0.46999998093E+01 0. -1.
       -5    1    3    3    0  502  0.65600076347E+03  0.82161788706E+03 -0.23801419046E+03  0.10779915579E+04  0.46999998093E+01 0.  1.
</event>
<event>
 5   0  0.3242231E-05  0.2094250E+04  0.7818609E-02  0.8563780E-01
        2   -1    0    0  501    0  0.00000000000E+00  0.00000000000E+00  0.12613595014E+04  0.12613595014E+04  0.25500000920E-02 0. -1.
       -2   -1    0    0    0  501  0.00000000000E+00  0.00000000000E+00 -0.86927712701E+03  0.86927712701E+03  0.25500000920E-02 0.  1.
    10030    2    1    2    0    0  0.00000000000E+00  0.00000000000E+00  0.39208237441E+03  0.21306366284E+04  0.20942501890E+04 0.  0.
        4    1    3    3  502    0 -0.56754692711E+03  0.87983820268E+03  0.21195174136E+03  0.10682461940E+04  0.12699999809E+01 0. -1.
       -4    1    3    3    0  502  0.56754692711E+03 -0.87983820268E+03  0.18013063305E+03  0.10623904345E+04  0.12699999809E+01 0.  1.
</event>
<event>
 5   0  0.1466480E-05  0.2105032E+04  0.7818609E-02  0.8559030E-01
       -1   -1    0    0    0  501  0.00000000000E+00  0.00000000000E+00  0.16477812510E+04  0.16477812510E+04  0.50400001928E-02 0.  1.
        1   -1    0    0  501    0  0.00000000000E+00  0.00000000000E+00 -0.67229156832E+03  0.67229156834E+03  0.50400001928E-02 0. -1.
    10030    2    1    2    0    0  0.00000000000E+00  0.00000000000E+00  0.97548968268E+03  0.23200728194E+04  0.21050315357E+04 0.  0.
        3    1    3    3  502    0 -0.35657516217E+03 -0.29849824645E+03  0.15284171689E+04  0.15975938476E+04  0.10100000352E+00 0.  1.
       -3    1    3    3    0  502  0.35657516217E+03  0.29849824645E+03 -0.55292748624E+03  0.72247897177E+03  0.10100000352E+00 0. -1.
</event>
<event>
 5   0  0.1466480E-05  0.2098428E+04  0.7818609E-02  0.8561936E-01
       -1   -1    0    0    0  501  0.00000000000E+00  0.00000000000E+00  0.43285021498E+03  0.43285021501E+03  0.50400001928E-02 0.  1.
        1   -1    0    0  501    0  0.00000000000E+00  0.00000000000E+00 -0.25432578953E+04  0.25432578953E+04  0.50400001928E-02 0. -1.
    10030    2    1    2    0    0  0.00000000000E+00  0.00000000000E+00 -0.21104076803E+04  0.29761081103E+04  0.20984277226E+04 0.  0.
        3    1    3    3  502    0  0.99401589996E+03 -0.30429675594E+03 -0.85370366473E+03  0.13451669348E+04  0.10100000352E+00 0. -1.
       -3    1    3    3    0  502 -0.99401589996E+03  0.30429675594E+03 -0.12567040156E+04  0.16309411755E+04  0.10100000352E+00 0.  1.
</event>
<event>
 5   0  0.3257130E-05  0.2098317E+04  0.7818609E-02  0.8561985E-01
        2   -1    0    0  501    0  0.00000000000E+00  0.00000000000E+00  0.26167031444E+04  0.26167031444E+04  0.25500000920E-02 0. -1.
       -2   -1    0    0    0  501  0.00000000000E+00  0.00000000000E+00 -0.42065682463E+03  0.42065682464E+03  0.25500000920E-02 0.  1.
    10030    2    1    2    0    0  0.00000000000E+00  0.00000000000E+00  0.21960463198E+04  0.30373599690E+04  0.20983174552E+04 0.  0.
        3    1    3    3  502    0 -0.26488161371E+03  0.46551150240E+03 -0.20785543824E+03  0.57451468350E+03  0.10100000352E+00 0.  1.
       -3    1    3    3    0  502  0.26488161371E+03 -0.46551150240E+03  0.24039017580E+04  0.24628452855E+04  0.10100000352E+00 0. -1.
</event>
<event>
 5   0  0.3242231E-05  0.2094382E+04  0.7818609E-02  0.8563722E-01
       -2   -1    0    0    0  501  0.00000000000E+00  0.00000000000E+00  0.58780617722E+03  0.58780617722E+03  0.25500000920E-02 0.  1.
        2   -1    0    0  501    0  0.00000000000E+00  0.00000000000E+00 -0.18655964537E+04  0.18655964537E+04  0.25500000920E-02 0. -1.
    10030    2    1    2    0    0  0.00000000000E+00  0.00000000000E+00 -0.12777902765E+04  0.24534026309E+04  0.20943821234E+04 0.  0.
        4    1    3    3  502    0  0.68242997782E+02 -0.98441990421E+03 -0.10495075168E+04  0.14405579806E+04  0.12699999809E+01 0.  1.
       -4    1    3    3    0  502 -0.68242997782E+02  0.98441990421E+03 -0.22828275966E+03  0.10128446504E+04  0.12699999809E+01 0. -1.
</event>
<event>
 5   0  0.1435410E-05  0.2102054E+04  0.7818609E-02  0.8560339E-01
       -1   -1    0    0    0  501  0.00000000000E+00  0.00000000000E+00  0.81195078478E+03  0.81195078480E+03  0.50400001928E-02 0. -1.
        1   -1    0    0  501    0  0.00000000000E+00  0.00000000000E+00 -0.13604982971E+04  0.13604982971E+04  0.50400001928E-02 0.  1.
    10030    2    1    2    0    0  0.00000000000E+00  0.00000000000E+00 -0.54854751231E+03  0.21724490819E+04  0.21020539099E+04 0.  0.
        2    1    3    3  502    0  0.37099485860E+03  0.57375002822E+03  0.55111528286E+03  0.87781224360E+03  0.25500000920E-02 0. -1.
       -2    1    3    3    0  502 -0.37099485860E+03 -0.57375002822E+03 -0.10996627952E+04  0.12946368383E+04  0.25500000920E-02 0.  1.
</event>
<event>
 5   0  0.1513292E-05  0.2091172E+04  0.7818609E-02  0.8565142E-01
       -1   -1    0    0    0  501  0.00000000000E+00  0.00000000000E+00  0.10868897505E+04  0.10868897505E+04  0.50400001928E-02 0.  1.
        1   -1    0    0  501    0  0.00000000000E+00  0.00000000000E+00 -0.10058520814E+04  0.10058520815E+04  0.50400001928E-02 0. -1.
    10030    2    1    2    0    0  0.00000000000E+00  0.00000000000E+00  0.81037669023E+02  0.20927418319E+04  0.20911722242E+04 0.  0.
        1    1    3    3  502    0 -0.12259213061E+03  0.87082745410E+03  0.60652361375E+03  0.10682884345E+04  0.50400001928E-02 0.  1.
       -1    1    3    3    0  502  0.12259213061E+03 -0.87082745410E+03 -0.52548594473E+03  0.10244533974E+04  0.50400001928E-02 0. -1.
</event>
<event>
 5   0  0.1435410E-05  0.2083284E+04  0.7818609E-02  0.8568643E-01
       -1   -1    0    0    0  501  0.00000000000E+00  0.00000000000E+00  0.63619953792E+03  0.63619953794E+03  0.50400001928E-02 0.  1.
        1   -1    0    0  501    0  0.00000000000E+00  0.00000000000E+00 -0.17054686343E+04  0.17054686343E+04  0.50400001928E-02 0. -1.
    10030    2    1    2    0    0  0.00000000000E+00  0.00000000000E+00 -0.10692690964E+04  0.23416681723E+04  0.20832842889E+04 0.  0.
        2    1    3    3  502    0 -0.23568791064E+03  0.10055981161E+04 -0.68644895170E+03  0.12401566537E+04  0.25500000920E-02 0.  1.
       -2    1    3    3    0  502  0.23568791064E+03 -0.10055981161E+04 -0.38282014470E+03  0.11015115186E+04  0.25500000920E-02 0. -1.
</event>
<event>
 5   0  0.3242231E-05  0.2090154E+04  0.7818609E-02  0.8565593E-01
       -2   -1    0    0    0  501  0.00000000000E+00  0.00000000000E+00  0.73261688236E+03  0.73261688237E+03  0.25500000920E-02 0.  1.
        2   -1    0    0  501    0  0.00000000000E+00  0.00000000000E+00 -0.14908010639E+04  0.14908010639E+04  0.25500000920E-02 0. -1.
    10030    2    1    2    0    0  0.00000000000E+00  0.00000000000E+00 -0.75818418149E+03  0.22234179462E+04  0.20901540877E+04 0.  0.
        4    1    3    3  502    0 -0.55846932074E+03  0.77084360117E+03 -0.83798568260E+03  0.12681914117E+04  0.12699999809E+01 0. -1.
       -4    1    3    3    0  502  0.55846932074E+03 -0.77084360117E+03  0.79801501114E+02  0.95522653447E+03  0.12699999809E+01 0.  1.
</event>
<event>
 5   0  0.3242231E-05  0.2092462E+04  0.7818609E-02  0.8564571E-01
        2   -1    0    0  501    0  0.00000000000E+00  0.00000000000E+00  0.74268663470E+03  0.74268663470E+03  0.25500000920E-02 0. -1.
       -2   -1    0    0    0  501  0.00000000000E+00  0.00000000000E+00 -0.14738375073E+04  0.14738375073E+04  0.25500000920E-02 0.  1.
    10030    2    1    2    0    0  0.00000000000E+00  0.00000000000E+00 -0.73115087262E+03  0.22165241420E+04  0.20924621081E+04 0.  0.
        4    1    3    3  502    0  0.77778337836E+03  0.51164625959E+03 -0.87123405888E+03  0.12750604993E+04  0.12699999809E+01 0.  1.
       -4    1    3    3    0  502 -0.77778337836E+03 -0.51164625959E+03  0.14008318626E+03  0.94146364273E+03  0.12699999809E+01 0. -1.
</event>
<event>
 5   0  0.3108326E-05  0.2103129E+04  0.7818609E-02  0.8559866E-01
       -2   -1    0    0    0  501  0.00000000000E+00  0.00000000000E+00  0.11299502684E+04  0.11299502684E+04  0.25500000920E-02 0. -1.
        2   -1    0    0  501    0  0.00000000000E+00  0.00000000000E+00 -0.97861673043E+03  0.97861673043E+03  0.25500000920E-02 0.  1.
    10030    2    1    2    0    0  0.00000000000E+00  0.00000000000E+00  0.15133353795E+03  0.21085669988E+04  0.21031293229E+04 0.  0.
        5    1    3    3  502    0 -0.86410731262E+03  0.30702501693E+03 -0.44027073068E+03  0.10172542529E+04  0.46999998093E+01 0.  1.
       -5    1    3    3    0  502  0.86410731262E+03 -0.30702501693E+03  0.59160426863E+03  0.10913127459E+04  0.46999998093E+01 0. -1.
</event>
<event>
 5   0  0.1466480E-05  0.2100557E+04  0.7818609E-02  0.8560998E-01
       -1   -1    0    0    0  501  0.00000000000E+00  0.00000000000E+00  0.11049341841E+04  0.11049341841E+04  0.50400001928E-02 0. -1.
        1   -1    0    0  501    0  0.00000000000E+00  0.00000000000E+00 -0.99832612283E+03  0.99832612285E+03  0.50400001928E-02 0.  1.
    10030    2    1    2    0    0  0.00000000000E+00  0.00000000000E+00  0.10660806124E+03  0.21032603069E+04  0.21005567452E+04 0.  0.
        3    1    3    3  502    0 -0.97093217296E+03 -0.39986784279E+03  0.75265650776E+02  0.10527433232E+04  0.10100000352E+00 0.  1.
       -3    1    3    3    0  502  0.97093217296E+03  0.39986784279E+03  0.31342410464E+02  0.10505169837E+04  0.10100000352E+00 0. -1.
</event>
<event>
 5   0  0.1435410E-05  0.2131356E+04  0.7818609E-02  0.8547555E-01
       -1   -1    0    0    0  501  0.00000000000E+00  0.00000000000E+00  0.42791449937E+03  0.42791449940E+03  0.50400001928E-02 0.  1.
        1   -1    0    0  501    0  0.00000000000E+00  0.00000000000E+00 -0.26539629517E+04  0.26539629517E+04  0.50400001928E-02 0. -1.
    10030    2    1    2    0    0  0.00000000000E+00  0.00000000000E+00 -0.22260484523E+04  0.30818774511E+04  0.21313556511E+04 0.  0.
        2    1    3    3  502    0 -0.63848323594E+03  0.84930417887E+03 -0.12313007001E+04  0.16263701439E+04  0.25500000920E-02 0.  1.
       -2    1    3    3    0  502  0.63848323594E+03 -0.84930417887E+03 -0.99474775223E+03  0.14555073072E+04  0.25500000920E-02 0. -1.
</event>
<event>
 5   0  0.3130517E-05  0.2099849E+04  0.7818609E-02  0.8561310E-01
        2   -1    0    0  501    0  0.00000000000E+00  0.00000000000E+00  0.20721434596E+04  0.20721434596E+04  0.25500000920E-02 0. -1.
       -2   -1    0    0    0  501  0.00000000000E+00  0.00000000000E+00 -0.53198149053E+03  0.53198149053E+03  0.25500000920E-02 0.  1.
    10030    2    1    2    0    0  0.00000000000E+00  0.00000000000E+00  0.15401619691E+04  0.26041249502E+04  0.20998494863E+04 0.  0.
        1    1    3    3  502    0 -0.92176567820E+03 -0.14849494106E+03  0.13656612017E+04  0.16543074778E+04  0.50400001928E-02 0. -1.
       -1    1    3    3    0  502  0.92176567820E+03  0.14849494106E+03  0.17450076736E+03  0.94981747240E+03  0.50400001928E-02 0.  1.
</event>
<event>
 5   0  0.1492552E-05  0.2100950E+04  0.7818609E-02  0.8560825E-01
       -1   -1    0    0    0  501  0.00000000000E+00  0.00000000000E+00  0.10598422964E+04  0.10598422964E+04  0.50400001928E-02 0.  1.
        1   -1    0    0  501    0  0.00000000000E+00  0.00000000000E+00 -0.10411904953E+04  0.10411904953E+04  0.50400001928E-02 0. -1.
    10030    2    1    2    0    0  0.00000000000E+00  0.00000000000E+00  0.18651801165E+02  0.21010327917E+04  0.21009499999E+04 0.  0.
        4    1    3    3  502    0 -0.68921197828E+03  0.79258079651E+03 -0.79560605299E+01  0.10503629762E+04  0.12699999809E+01 0.  1.
       -4    1    3    3    0  502  0.68921197828E+03 -0.79258079651E+03  0.26607861695E+02  0.10506698155E+04  0.12699999809E+01 0. -1.
</event>
<event>
 5   0  0.3130517E-05  0.2092352E+04  0.7818609E-02  0.8564620E-01
       -2   -1    0    0    0  501  0.00000000000E+00  0.00000000000E+00  0.80843158074E+03  0.80843158075E+03  0.25500000920E-02 0.  1.
        2   -1    0    0  501    0  0.00000000000E+00  0.00000000000E+00 -0.13538370867E+04  0.13538370868E+04  0.25500000920E-02 0. -1.
    10030    2    1    2    0    0  0.00000000000E+00  0.00000000000E+00 -0.54540550600E+03  0.21622686675E+04  0.20923524140E+04 0.  0.
        1    1    3    3  502    0 -0.43566146522E+03 -0.66117694495E+03 -0.97931148689E+03  0.12593676402E+04  0.50400001928E-02 0. -1.
       -1    1    3    3    0  502  0.43566146522E+03  0.66117694495E+03  0.43390598089E+03  0.90290102729E+03  0.50400001928E-02 0.  1.
</event>
<event>
 5   0  0.1129987E-05  0.2100174E+04  0.7818609E-02  0.8561167E-01
        3   -1    0    0  501    0  0.00000000000E+00  0.00000000000E+00  0.14011787661E+04  0.14011787698E+04  0.10100000352E+00 0.  1.
       -3   -1    0    0    0  501  0.00000000000E+00  0.00000000000E+00 -0.78696825128E+03  0.78696825776E+03  0.10100000352E+00 0. -1.
    10030    2    1    2    0    0  0.00000000000E+00  0.00000000000E+00  0.61421051483E+03  0.21881470275E+04  0.21001744826E+04 0.  0.
        5    1    3    3  502    0 -0.10204049675E+03 -0.96994414244E+00  0.13959895572E+04  0.13997221644E+04  0.46999998093E+01 0.  1.
       -5    1    3    3    0  502  0.10204049675E+03  0.96994414244E+00 -0.78177904233E+03  0.78842486313E+03  0.46999998093E+01 0. -1.
</event>
<event>
 5   0  0.3279789E-05  0.2103648E+04  0.7818609E-02  0.8559638E-01
        2   -1    0    0  501    0  0.00000000000E+00  0.00000000000E+00  0.14737598659E+04  0.14737598659E+04  0.25500000920E-02 0. -1.
       -2   -1    0    0    0  501  0.00000000000E+00  0.00000000000E+00 -0.75068771089E+03  0.75068771089E+03  0.25500000920E-02 0.  1.
    10030    2    1    2    0    0  0.00000000000E+00  0.00000000000E+00  0.72307215496E+03  0.22244475767E+04  0.21036477082E+04 0.  0.
        2    1    3    3  502    0 -0.21250079945E+03 -0.10660290875E+03  0.14449765742E+04  0.14644036567E+04  0.25500000920E-02 0. -1.
       -2    1    3    3    0  502  0.21250079945E+03  0.10660290875E+03 -0.72190441920E+03  0.76004392003E+03  0.25500000920E-02 0.  1.
</event>
<event>
 5   0  0.1492552E-05  0.2102928E+04  0.7818609E-02  0.8559955E-01
       -1   -1    0    0    0  501  0.00000000000E+00  0.00000000000E+00  0.82672580954E+03  0.82672580955E+03  0.50400001928E-02 0.  1.
        1   -1    0    0  501    0  0.00000000000E+00  0.00000000000E+00 -0.13372956322E+04  0.13372956322E+04  0.50400001928E-02 0. -1.
    10030    2    1    2    0    0  0.00000000000E+00  0.00000000000E+00 -0.51056982267E+03  0.21640214418E+04  0.21029282576E+04 0.  0.
        4    1    3    3  502    0  0.35265802542E+03 -0.99047187000E+03 -0.24175012226E+03  0.10788173815E+04  0.12699999809E+01 0. -1.
       -4    1    3    3    0  502 -0.35265802542E+03  0.99047187000E+03 -0.26881970041E+03  0.10852040603E+04  0.12699999809E+01 0.  1.
</event>
<event>
 5   0  0.3242231E-05  0.2101782E+04  0.7818609E-02  0.8560459E-01
       -2   -1    0    0    0  501  0.00000000000E+00  0.00000000000E+00  0.95988262211E+03  0.95988262211E+03  0.25500000920E-02 0. -1.
        2   -1    0    0  501    0  0.00000000000E+00  0.00000000000E+00 -0.11505275474E+04  0.11505275474E+04  0.25500000920E-02 0.  1.
    10030    2    1    2    0    0  0.00000000000E+00  0.00000000000E+00 -0.19064492530E+03  0.21104101695E+04  0.21017815291E+04 0.  0.
        4    1    3    3  502    0 -0.63392729736E+03  0.76101638839E+03 -0.44799084292E+03  0.10870635538E+04  0.12699999809E+01 0. -1.
       -4    1    3    3    0  502  0.63392729736E+03 -0.76101638839E+03  0.25734591762E+03  0.10233466157E+04  0.12699999809E+01 0.  1.
</event>
<event>
 5   0  0.1466480E-05  0.2099049E+04  0.7818609E-02  0.8561662E-01
       -1   -1    0    0    0  501  0.00000000000E+00  0.00000000000E+00  0.96247448652E+03  0.96247448654E+03  0.50400001928E-02 0.  1.
        1   -1    0    0  501    0  0.00000000000E+00  0.00000000000E+00 -0.11444474537E+04  0.11444474537E+04  0.50400001928E-02 0. -1.
    10030    2    1    2    0    0  0.00000000000E+00  0.00000000000E+00 -0.18197296720E+03  0.21069219403E+04  0.20990488088E+04 0.  0.
        3    1    3    3  502    0 -0.49549670402E+03 -0.45120430989E+03 -0.90172835374E+03  0.11234840217E+04  0.10100000352E+00 0. -1.
       -3    1    3    3    0  502  0.49549670402E+03  0.45120430989E+03  0.71975538654E+03  0.98343791853E+03  0.10100000352E+00 0.  1.
</event>
<event>
 5   0  0.3108326E-05  0.2092153E+04  0.7818609E-02  0.8564708E-01
       -2   -1    0    0    0  501  0.00000000000E+00  0.00000000000E+00  0.42035039129E+03  0.42035039130E+03  0.25500000920E-02 0.  1.
        2   -1    0    0  501    0  0.00000000000E+00  0.00000000000E+00 -0.26032482046E+04  0.26032482046E+04  0.25500000920E-02 0. -1.
    10030    2    1    2    0    0  0.00000000000E+00  0.00000000000E+00 -0.21828978134E+04  0.30235985959E+04  0.20921533419E+04 0.  0.
        5    1    3    3  502    0  0.90880936844E+03 -0.50830263841E+03 -0.94730229845E+03  0.14077321389E+04  0.46999998093E+01 0.  1.
       -5    1    3    3    0  502 -0.90880936844E+03  0.50830263841E+03 -0.12355955149E+04  0.16158664570E+04  0.46999998093E+01 0. -1.
</event>
<event>
 5   0  0.3108326E-05  0.2066617E+04  0.7818609E-02  0.8576093E-01
        2   -1    0    0  501    0  0.00000000000E+00  0.00000000000E+00  0.17116689706E+04  0.17116689706E+04  0.25500000920E-02 0. -1.
       -2   -1    0    0    0  501  0.00000000000E+00  0.00000000000E+00 -0.62379232422E+03  0.62379232423E+03  0.25500000920E-02 0.  1.
    10030    2    1    2    0    0  0.00000000000E+00  0.00000000000E+00  0.10878766464E+04  0.23354612949E+04  0.20666165251E+04 0.  0.
        5    1    3    3  502    0  0.75421878805E+03  0.28973404577E+03 -0.18399368279E+03  0.82865406704E+03  0.46999998093E+01 0.  1.
       -5    1    3    3    0  502 -0.75421878805E+03 -0.28973404577E+03  0.12718703292E+04  0.15068072278E+04  0.46999998093E+01 0. -1.
</event>
<event>
 5   0  0.3130517E-05  0.2156858E+04  0.7818609E-02  0.8536602E-01
       -2   -1    0    0    0  501  0.00000000000E+00  0.00000000000E+00  0.69314975217E+03  0.69314975217E+03  0.25500000920E-02 0. -1.
        2   -1    0    0  501    0  0.00000000000E+00  0.00000000000E+00 -0.16778612923E+04  0.16778612923E+04  0.25500000920E-02 0.  1.
    10030    2    1    2    0    0  0.00000000000E+00  0.00000000000E+00 -0.98471154016E+03  0.23710110445E+04  0.21568580287E+04 0.  0.
        1    1    3    3  502    0 -0.59796344962E+03 -0.23727078832E+03 -0.14438295451E+04  0.15806648820E+04  0.50400001928E-02 0.  1.
       -1    1    3    3    0  502  0.59796344962E+03  0.23727078832E+03  0.45911800491E+03  0.79034616247E+03  0.50400001928E-02 0. -1.
</event>
<event>
 5   0  0.1435410E-05  0.2099869E+04  0.7818609E-02  0.8561301E-01
       -1   -1    0    0    0  501  0.00000000000E+00  0.00000000000E+00  0.67142020558E+03  0.67142020560E+03  0.50400001928E-02 0. -1.
        1   -1    0    0  501    0  0.00000000000E+00  0.00000000000E+00 -0.16418371783E+04  0.16418371783E+04  0.50400001928E-02 0.  1.
    10030    2    1    2    0    0  0.00000000000E+00  0.00000000000E+00 -0.97041697270E+03  0.23132573839E+04  0.20998691919E+04 0.  0.
        2    1    3    3  502    0  0.63389260268E+03  0.59193100945E+03  0.16666796793E+03  0.88316496943E+03  0.25500000920E-02 0. -1.
       -2    1    3    3    0  502 -0.63389260268E+03 -0.59193100945E+03 -0.11370849406E+04  0.14300924145E+04  0.25500000920E-02 0.  1.
</event>
<event>
 5   0  0.1466480E-05  0.2094622E+04  0.7818609E-02  0.8563616E-01
        1   -1    0    0  501    0  0.00000000000E+00  0.00000000000E+00  0.10225212113E+04  0.10225212113E+04  0.50400001928E-02 0.  1.
       -1   -1    0    0    0  501  0.00000000000E+00  0.00000000000E+00 -0.10727018500E+04  0.10727018500E+04  0.50400001928E-02 0. -1.
    10030    2    1    2    0    0  0.00000000000E+00  0.00000000000E+00 -0.50180638698E+02  0.20952230613E+04  0.20946220614E+04 0.  0.
        3    1    3    3  502    0 -0.76593201132E+03  0.30829433123E+02 -0.73891828517E+03  0.10647077262E+04  0.10100000352E+00 0. -1.
       -3    1    3    3    0  502  0.76593201132E+03 -0.30829433123E+02  0.68873764648E+03  0.10305153351E+04  0.10100000352E+00 0.  1.
</event>
<event>
 5   0  0.1466480E-05  0.2082770E+04  0.7818609E-02  0.8568871E-01
        1   -1    0    0  501    0  0.00000000000E+00  0.00000000000E+00  0.13401576332E+04  0.13401576332E+04  0.50400001928E-02 0.  1.
       -1   -1    0    0    0  501  0.00000000000E+00  0.00000000000E+00 -0.80922041383E+03  0.80922041385E+03  0.50400001928E-02 0. -1.
    10030    2    1    2    0    0  0.00000000000E+00  0.00000000000E+00  0.53093721940E+03  0.21493780471E+04  0.20827701886E+04 0.  0.
        3    1    3    3  502    0  0.43258700466E+03 -0.38146867582E+03  0.11602813498E+04  0.12957247733E+04  0.10100000352E+00 0.  1.
       -3    1    3    3    0  502 -0.43258700466E+03  0.38146867582E+03 -0.62934413038E+03  0.85365327381E+03  0.10100000352E+00 0. -1.
</event>
<event>
 5   0  0.3242231E-05  0.2099780E+04  0.7818609E-02  0.8561340E-01
       -2   -1    0    0    0  501  0.00000000000E+00  0.00000000000E+00  0.12364500874E+04  0.12364500875E+04  0.25500000920E-02 0.  1.
        2   -1    0    0  501    0  0.00000000000E+00  0.00000000000E+00 -0.89147851886E+03  0.89147851886E+03  0.25500000920E-02 0. -1.
    10030    2    1    2    0    0  0.00000000000E+00  0.00000000000E+00  0.34497156859E+03  0.21279286063E+04  0.20997796957E+04 0.  0.
        4    1    3    3  502    0  0.63731516808E+03  0.75038810267E+03  0.54208602506E+03  0.11238824670E+04  0.12699999809E+01 0. -1.
       -4    1    3    3    0  502 -0.63731516808E+03 -0.75038810267E+03 -0.19711445647E+03  0.10040461393E+04  0.12699999809E+01 0.  1.
</event>
<event>
 5   0  0.1453430E-05  0.2097544E+04  0.7818609E-02  0.8562326E-01
       -1   -1    0    0    0  501  0.00000000000E+00  0.00000000000E+00  0.14186248681E+04  0.14186248681E+04  0.50400001928E-02 0.  1.
        1   -1    0    0  501    0  0.00000000000E+00  0.00000000000E+00 -0.77534416552E+03  0.77534416554E+03  0.50400001928E-02 0. -1.
    10030    2    1    2    0    0  0.00000000000E+00  0.00000000000E+00  0.64328070255E+03  0.21939690336E+04  0.20975438156E+04 0.  0.
        5    1    3    3  502    0  0.10247340061E+04  0.22298482950E+03  0.31126428821E+03  0.10939422126E+04  0.46999998093E+01 0. -1.
       -5    1    3    3    0  502 -0.10247340061E+04 -0.22298482950E+03  0.33201641434E+03  0.11000268210E+04  0.46999998093E+01 0.  1.
</event>
<event>
 5   0  0.1492552E-05  0.2099398E+04  0.7818609E-02  0.8561508E-01
        1   -1    0    0  501    0  0.00000000000E+00  0.00000000000E+00  0.61424885478E+03  0.61424885480E+03  0.50400001928E-02 0.  1.
       -1   -1    0    0    0  501  0.00000000000E+00  0.00000000000E+00 -0.17938468614E+04  0.17938468614E+04  0.50400001928E-02 0. -1.
    10030    2    1    2    0    0  0.00000000000E+00  0.00000000000E+00 -0.11795980066E+04  0.24080957162E+04  0.20993983712E+04 0.  0.
        4    1    3    3  502    0 -0.40249722755E+03  0.52307740774E+03 -0.15260631753E+04  0.16626738768E+04  0.12699999809E+01 0. -1.
       -4    1    3    3    0  502  0.40249722755E+03 -0.52307740774E+03  0.34646516868E+03  0.74542183941E+03  0.12699999809E+01 0.  1.
</event>
<event>
 5   0  0.1435410E-05  0.2106570E+04  0.7818609E-02  0.8558355E-01
       -1   -1    0    0    0  501  0.00000000000E+00  0.00000000000E+00  0.63658973429E+03  0.63658973431E+03  0.50400001928E-02 0. -1.
        1   -1    0    0  501    0  0.00000000000E+00  0.00000000000E+00 -0.17427383484E+04  0.17427383484E+04  0.50400001928E-02 0.  1.
    10030    2    1    2    0    0  0.00000000000E+00  0.00000000000E+00 -0.11061486141E+04  0.23793280827E+04  0.21065700484E+04 0.  0.
        2    1    3    3  502    0  0.74589927158E+03  0.70537026104E+03 -0.81915348177E+03  0.13133641366E+04  0.25500000920E-02 0.  1.
       -2    1    3    3    0  502 -0.74589927158E+03 -0.70537026104E+03 -0.28699513234E+03  0.10659639461E+04  0.25500000920E-02 0. -1.
</event>
<event>
 5   0  0.3257130E-05  0.2088010E+04  0.7818609E-02  0.8566543E-01
        2   -1    0    0  501    0  0.00000000000E+00  0.00000000000E+00  0.82799849964E+03  0.82799849965E+03  0.25500000920E-02 0.  1.
       -2   -1    0    0    0  501  0.00000000000E+00  0.00000000000E+00 -0.13163631426E+04  0.13163631426E+04  0.25500000920E-02 0. -1.
    10030    2    1    2    0    0  0.00000000000E+00  0.00000000000E+00 -0.48836464292E+03  0.21443616422E+04  0.20880102558E+04 0.  0.
        3    1    3    3  502    0  0.81844785056E+03 -0.68231200037E+02 -0.90611921341E+03  0.12229327127E+04  0.10100000352E+00 0. -1.
       -3    1    3    3    0  502 -0.81844785056E+03  0.68231200037E+02  0.41775457049E+03  0.92142892949E+03  0.10100000352E+00 0.  1.
</event>
<event>
 5   0  0.3242231E-05  0.2077995E+04  0.7818609E-02  0.8570999E-01
        2   -1    0    0  501    0  0.00000000000E+00  0.00000000000E+00  0.15840212329E+04  0.15840212329E+04  0.25500000920E-02 0.  1.
       -2   -1    0    0    0  501  0.00000000000E+00  0.00000000000E+00 -0.68150356377E+03  0.68150356377E+03  0.25500000920E-02 0. -1.
    10030    2    1    2    0    0  0.00000000000E+00  0.00000000000E+00  0.90251766913E+03  0.22655247967E+04  0.20779952987E+04 0.  0.
        4    1    3    3  502    0  0.50551308723E+03  0.31464061787E+02  0.14403109421E+04  0.15267713291E+04  0.12699999809E+01 0.  1.
       -4    1    3    3    0  502 -0.50551308723E+03 -0.31464061787E+02 -0.53779327295E+03  0.73875346759E+03  0.12699999809E+01 0. -1.
</event>
<event>
 5   0  0.3130517E-05  0.2122620E+04  0.7818609E-02  0.8551344E-01
       -2   -1    0    0    0  501  0.00000000000E+00  0.00000000000E+00  0.14923466628E+04  0.14923466628E+04  0.25500000920E-02 0. -1.
        2   -1    0    0  501    0  0.00000000000E+00  0.00000000000E+00 -0.75477038715E+03  0.75477038715E+03  0.25500000920E-02 0.  1.
    10030    2    1    2    0    0  0.00000000000E+00  0.00000000000E+00  0.73757627570E+03  0.22471170500E+04  0.21226201436E+04 0.  0.
        1    1    3    3  502    0 -0.66039736560E+03  0.66231247512E+03 -0.16222562155E+03  0.94926268625E+03  0.50400001928E-02 0.  1.
       -1    1    3    3    0  502  0.66039736560E+03 -0.66231247512E+03  0.89980189725E+03  0.12978543638E+04  0.50400001928E-02 0. -1.
</event>
<event>
 5   0  0.3257130E-05  0.2075494E+04  0.7818609E-02  0.8572116E-01
        2   -1    0    0  501    0  0.00000000000E+00  0.00000000000E+00  0.69965562300E+03  0.69965562300E+03  0.25500000920E-02 0. -1.
       -2   -1    0    0    0  501  0.00000000000E+00  0.00000000000E+00 -0.15392128914E+04  0.15392128914E+04  0.25500000920E-02 0.  1.
    10030    2    1    2    0    0  0.00000000000E+00  0.00000000000E+00 -0.83955726843E+03  0.22388685144E+04  0.20754941142E+04 0.  0.
        3    1    3    3  502    0  0.23316745784E+03 -0.40891290243E+03  0.57786862057E+03  0.74532474668E+03  0.10100000352E+00 0. -1.
       -3    1    3    3    0  502 -0.23316745784E+03  0.40891290243E+03 -0.14174258890E+04  0.14935437678E+04  0.10100000352E+00 0.  1.
</event>
<event>
 5   0  0.1453430E-05  0.2098218E+04  0.7818609E-02  0.8562029E-01
        1   -1    0    0  501    0  0.00000000000E+00  0.00000000000E+00  0.18331451712E+04  0.18331451712E+04  0.50400001928E-02 0.  1.
       -1   -1    0    0    0  501  0.00000000000E+00  0.00000000000E+00 -0.60040513856E+03  0.60040513859E+03  0.50400001928E-02 0. -1.
    10030    2    1    2    0    0  0.00000000000E+00  0.00000000000E+00  0.12327400327E+04  0.24335503098E+04  0.20982180826E+04 0.  0.
        5    1    3    3  502    0  0.39935524271E+03 -0.33091450275E+03 -0.44130396182E+03  0.68099948218E+03  0.46999998093E+01 0.  1.
       -5    1    3    3    0  502 -0.39935524271E+03  0.33091450275E+03  0.16740439945E+04  0.17525508276E+04  0.46999998093E+01 0. -1.
</event>
<event>
 5   0  0.1492552E-05  0.2066886E+04  0.7818609E-02  0.8575972E-01
        1   -1    0    0  501    0  0.00000000000E+00  0.00000000000E+00  0.25289345503E+04  0.25289345503E+04  0.50400001928E-02 0.  1.
       -1   -1    0    0    0  501  0.00000000000E+00  0.00000000000E+00 -0.42231394027E+03  0.42231394030E+03  0.50400001928E-02 0. -1.
    10030    2    1    2    0    0  0.00000000000E+00  0.00000000000E+00  0.21066206101E+04  0.29512484906E+04  0.20668858843E+04 0.  0.
        4    1    3    3  502    0 -0.50229431337E+03  0.51647823370E+03 -0.46198637168E+01  0.72046672315E+03  0.12699999809E+01 0. -1.
       -4    1    3    3    0  502  0.50229431337E+03 -0.51647823370E+03  0.21112404738E+04  0.22307817675E+04  0.12699999809E+01 0.  1.
</event>
<event>
 5   0  0.1453430E-05  0.2188265E+04  0.7818609E-02  0.8523328E-01
       -1   -1    0    0    0  501  0.00000000000E+00  0.00000000000E+00  0.10224118558E+04  0.10224118558E+04  0.50400001928E-02 0.  1.
        1   -1    0    0  501    0  0.00000000000E+00  0.00000000000E+00 -0.11708841914E+04  0.11708841914E+04  0.50400001928E-02 0. -1.
    10030    2    1    2    0    0  0.00000000000E+00  0.00000000000E+00 -0.14847233560E+03  0.21932960472E+04  0.21882649556E+04 0.  0.
        5    1    3    3  502    0 -0.61077312189E+03 -0.83693929901E+03  0.27812948739E+03  0.10727950869E+04  0.46999998093E+01 0.  1.
       -5    1    3    3    0  502  0.61077312189E+03  0.83693929901E+03 -0.42660182298E+03  0.11205009603E+04  0.46999998093E+01 0. -1.
</event>
<event>
 5   0  0.1513292E-05  0.2097167E+04  0.7818609E-02  0.8562492E-01
       -1   -1    0    0    0  501  0.00000000000E+00  0.00000000000E+00  0.80446081502E+03  0.80446081503E+03  0.50400001928E-02 0. -1.
        1   -1    0    0  501    0  0.00000000000E+00  0.00000000000E+00 -0.13667885811E+04  0.13667885811E+04  0.50400001928E-02 0.  1.
    10030    2    1    2    0    0  0.00000000000E+00  0.00000000000E+00 -0.56232776607E+03  0.21712493961E+04  0.20971674763E+04 0.  0.
        1    1    3    3  502    0 -0.31853627013E+02 -0.94962730958E+03 -0.74036417121E+03  0.12045521104E+04  0.50400001928E-02 0.  1.
       -1    1    3    3    0  502  0.31853627013E+02  0.94962730958E+03  0.17803640514E+03  0.96669728572E+03  0.50400001928E-02 0. -1.
</event>
<event>
 5   0  0.3242231E-05  0.2094480E+04  0.7818609E-02  0.8563679E-01
        2   -1    0    0  501    0  0.00000000000E+00  0.00000000000E+00  0.14570243500E+04  0.14570243500E+04  0.25500000920E-02 0. -1.
       -2   -1    0    0    0  501  0.00000000000E+00  0.00000000000E+00 -0.75270648883E+03  0.75270648884E+03  0.25500000920E-02 0.  1.
    10030    2    1    2    0    0  0.00000000000E+00  0.00000000000E+00  0.70431786119E+03  0.22097308389E+04  0.20944800621E+04 0.  0.
        4    1    3    3  502    0  0.34813252035E+02  0.93904290699E+03 -0.13555131285E+03  0.94941524898E+03  0.12699999809E+01 0. -1.
       -4    1    3    3    0  502 -0.34813252035E+02 -0.93904290699E+03  0.83986917404E+03  0.12603155899E+04  0.12699999809E+01 0.  1.
</event>
<event>
 5   0  0.3130517E-05  0.2110074E+04  0.7818609E-02  0.8556819E-01
        2   -1    0    0  501    0  0.00000000000E+00  0.00000000000E+00  0.96158122808E+03  0.96158122808E+03  0.25500000920E-02 0. -1.
       -2   -1    0    0    0  501  0.00000000000E+00  0.00000000000E+00 -0.11575756705E+04  0.11575756705E+04  0.25500000920E-02 0.  1.
    10030    2    1    2    0    0  0.00000000000E+00  0.00000000000E+00 -0.19599444245E+03  0.21191568986E+04  0.21100739654E+04 0.  0.
        1    1    3    3  502    0  0.59321493785E+02 -0.61077200672E+03  0.76391702533E+03  0.97986259518E+03  0.50400001928E-02 0. -1.
       -1    1    3    3    0  502 -0.59321493785E+02  0.61077200672E+03 -0.95991146779E+03  0.11392943034E+04  0.50400001928E-02 0.  1.
</event>
<event>
 5   0  0.3279789E-05  0.2107859E+04  0.7818609E-02  0.8557789E-01
       -2   -1    0    0    0  501  0.00000000000E+00  0.00000000000E+00  0.70910318065E+03  0.70910318065E+03  0.25500000920E-02 0.  1.
        2   -1    0    0  501    0  0.00000000000E+00  0.00000000000E+00 -0.15664390855E+04  0.15664390855E+04  0.25500000920E-02 0. -1.
    10030    2    1    2    0    0  0.00000000000E+00  0.00000000000E+00 -0.85733590487E+03  0.22755422662E+04  0.21078585700E+04 0.  0.
        2    1    3    3  502    0  0.59131059328E+03 -0.80323076658E+03 -0.79625340715E+03  0.12762630491E+04  0.25500000920E-02 0. -1.
       -2    1    3    3    0  502 -0.59131059328E+03  0.80323076658E+03 -0.61082497719E+02  0.99927921706E+03  0.25500000920E-02 0.  1.
</event>
<event>
 5   0  0.1466480E-05  0.2099884E+04  0.7818609E-02  0.8561294E-01
        1   -1    0    0  501    0  0.00000000000E+00  0.00000000000E+00  0.13097757668E+04  0.13097757668E+04  0.50400001928E-02 0.  1.
       -1   -1    0    0    0  501  0.00000000000E+00  0.00000000000E+00 -0.84165448441E+03  0.84165448442E+03  0.50400001928E-02 0. -1.
    10030    2    1    2    0    0  0.00000000000E+00  0.00000000000E+00  0.46812128237E+03  0.21514302512E+04  0.20998844232E+04 0.  0.
        3    1    3    3  502    0  0.35878658423E+03  0.49815115114E+03 -0.63860819352E+03  0.88583453164E+03  0.10100000352E+00 0. -1.
       -3    1    3    3    0  502 -0.35878658423E+03 -0.49815115114E+03  0.11067294759E+04  0.12655957196E+04  0.10100000352E+00 0.  1.
</event>
<event>
 5   0  0.3257130E-05  0.2095789E+04  0.7818609E-02  0.8563100E-01
        2   -1    0    0  501    0  0.00000000000E+00  0.00000000000E+00  0.20171471765E+04  0.20171471765E+04  0.25500000920E-02 0.  1.
       -2   -1    0    0    0  501  0.00000000000E+00  0.00000000000E+00 -0.54437440560E+03  0.54437440560E+03  0.25500000920E-02 0. -1.
    10030    2    1    2    0    0  0.00000000000E+00  0.00000000000E+00  0.14727727709E+04  0.25615215821E+04  0.20957893933E+04 0.  0.
        3    1    3    3  502    0 -0.43976737877E+03  0.55778976087E+03 -0.20524766149E+03  0.73935876103E+03  0.10100000352E+00 0. -1.
       -3    1    3    3    0  502  0.43976737877E+03 -0.55778976087E+03  0.16780204324E+04  0.18221628211E+04  0.10100000352E+00 0.  1.
</event>
<event>
 5   0  0.3108326E-05  0.2101582E+04  0.7818609E-02  0.8560547E-01
       -2   -1    0    0    0  501  0.00000000000E+00  0.00000000000E+00  0.17763142441E+04  0.17763142441E+04  0.25500000920E-02 0.  1.
        2   -1    0    0  501    0  0.00000000000E+00  0.00000000000E+00 -0.62160246866E+03  0.62160246866E+03  0.25500000920E-02 0. -1.
    10030    2    1    2    0    0  0.00000000000E+00  0.00000000000E+00  0.11547117755E+04  0.23979167128E+04  0.21015816132E+04 0.  0.
        5    1    3    3  502    0 -0.72982332321E+03 -0.65405463868E+03  0.14481134276E+03  0.99066743585E+03  0.46999998093E+01 0. -1.
       -5    1    3    3    0  502  0.72982332321E+03  0.65405463868E+03  0.10099004327E+04  0.14072492769E+04  0.46999998093E+01 0.  1.
</event>
<event>
 5   0  0.3130517E-05  0.2096552E+04  0.7818609E-02  0.8562764E-01
        2   -1    0    0  501    0  0.00000000000E+00  0.00000000000E+00  0.10576806973E+04  0.10576806973E+04  0.25500000920E-02 0.  1.
       -2   -1    0    0    0  501  0.00000000000E+00  0.00000000000E+00 -0.10389546032E+04  0.10389546032E+04  0.25500000920E-02 0. -1.
    10030    2    1    2    0    0  0.00000000000E+00  0.00000000000E+00  0.18726094102E+02  0.20966353005E+04  0.20965516728E+04 0.  0.
        1    1    3    3  502    0 -0.12386907354E+02 -0.82338911353E+03 -0.63932233795E+03  0.10425239180E+04  0.50400001928E-02 0. -1.
       -1    1    3    3    0  502  0.12386907354E+02  0.82338911353E+03  0.65804843205E+03  0.10541113825E+04  0.50400001928E-02 0.  1.
</event>
<event>
 5   0  0.1466480E-05  0.2093142E+04  0.7818609E-02  0.8564270E-01
        1   -1    0    0  501    0  0.00000000000E+00  0.00000000000E+00  0.81037877723E+03  0.81037877725E+03  0.50400001928E-02 0.  1.
       -1   -1    0    0    0  501  0.00000000000E+00  0.00000000000E+00 -0.13516038379E+04  0.13516038379E+04  0.50400001928E-02 0. -1.
    10030    2    1    2    0    0  0.00000000000E+00  0.00000000000E+00 -0.54122506065E+03  0.21619826151E+04  0.20931421982E+04 0.  0.
        3    1    3    3  502    0  0.86285755770E+03  0.15132981426E+02 -0.88216532127E+03  0.12340858302E+04  0.10100000352E+00 0. -1.
       -3    1    3    3    0  502 -0.86285755770E+03 -0.15132981426E+02  0.34094026062E+03  0.92789678495E+03  0.10100000352E+00 0.  1.
</event>
<event>
 5   0  0.1492552E-05  0.2097815E+04  0.7818609E-02  0.8562207E-01
        1   -1    0    0  501    0  0.00000000000E+00  0.00000000000E+00  0.13755986928E+04  0.13755986928E+04  0.50400001928E-02 0.  1.
       -1   -1    0    0    0  501  0.00000000000E+00  0.00000000000E+00 -0.79980202568E+03  0.79980202570E+03  0.50400001928E-02 0. -1.
    10030    2    1    2    0    0  0.00000000000E+00  0.00000000000E+00  0.57579666712E+03  0.21754007185E+04  0.20978146925E+04 0.  0.
        4    1    3    3  502    0  0.73218394055E+03 -0.17494216589E+03 -0.46953109517E+03  0.88721989746E+03  0.12699999809E+01 0. -1.
       -4    1    3    3    0  502 -0.73218394055E+03  0.17494216589E+03  0.10453277623E+04  0.12881808211E+04  0.12699999809E+01 0.  1.
</event>
<event>
 5   0  0.1466480E-05  0.2107130E+04  0.7818609E-02  0.8558109E-01
       -1   -1    0    0    0  501  0.00000000000E+00  0.00000000000E+00  0.17006448285E+04  0.17006448285E+04  0.50400001928E-02 0. -1.
        1   -1    0    0  501    0  0.00000000000E+00  0.00000000000E+00 -0.65269324102E+03  0.65269324104E+03  0.50400001928E-02 0.  1.
    10030    2    1    2    0    0  0.00000000000E+00  0.00000000000E+00  0.10479515875E+04  0.23533380696E+04  0.21071301668E+04 0.  0.
        3    1    3    3  502    0  0.96011356744E+03  0.26777103530E+03  0.90514570298E+03  0.13464056386E+04  0.10100000352E+00 0. -1.
       -3    1    3    3    0  502 -0.96011356744E+03 -0.26777103530E+03  0.14280588452E+03  0.10069324310E+04  0.10100000352E+00 0.  1.
</event>
<event>
 5   0  0.3130517E-05  0.2094778E+04  0.7818609E-02  0.8563547E-01
        2   -1    0    0  501    0  0.00000000000E+00  0.00000000000E+00  0.18051347099E+04  0.18051347099E+04  0.25500000920E-02 0.  1.
       -2   -1    0    0    0  501  0.00000000000E+00  0.00000000000E+00 -0.60772377927E+03  0.60772377928E+03  0.25500000920E-02 0. -1.
    10030    2    1    2    0    0  0.00000000000E+00  0.00000000000E+00  0.11974109306E+04  0.24128584892E+04  0.20947775901E+04 0.  0.
        1    1    3    3  502    0 -0.80445781992E+03 -0.62048811306E+03  0.30534573249E+03  0.10608458412E+04  0.50400001928E-02 0. -1.
       -1    1    3    3    0  502  0.80445781992E+03  0.62048811306E+03  0.89206519812E+03  0.13520126479E+04  0.50400001928E-02 0.  1.
</event>
<event>
 5   0  0.3108326E-05  0.2095150E+04  0.7818609E-02  0.8563383E-01
        2   -1    0    0  501    0  0.00000000000E+00  0.00000000000E+00  0.15629772452E+04  0.15629772453E+04  0.25500000920E-02 0.  1.
       -2   -1    0    0    0  501  0.00000000000E+00  0.00000000000E+00 -0.70213010595E+03  0.70213010595E+03  0.25500000920E-02 0. -1.
    10030    2    1    2    0    0  0.00000000000E+00  0.00000000000E+00  0.86084713930E+03  0.22651073512E+04  0.20951499983E+04 0.  0.
        5    1    3    3  502    0 -0.90694608260E+03  0.48938251683E+03  0.63367644821E+03  0.12097993121E+04  0.46999998093E+01 0. -1.
       -5    1    3    3    0  502  0.90694608260E+03 -0.48938251683E+03  0.22717069109E+03  0.10553080391E+04  0.46999998093E+01 0.  1.
</event>
<event>
 5   0  0.3279789E-05  0.2109211E+04  0.7818609E-02  0.8557197E-01
        2   -1    0    0  501    0  0.00000000000E+00  0.00000000000E+00  0.14174722037E+04  0.14174722037E+04  0.25500000920E-02 0. -1.
       -2   -1    0    0    0  501  0.00000000000E+00  0.00000000000E+00 -0.78463096215E+03  0.78463096215E+03  0.25500000920E-02 0.  1.
    10030    2    1    2    0    0  0.00000000000E+00  0.00000000000E+00  0.63284124155E+03  0.22021031659E+04  0.21092108278E+04 0.  0.
        2    1    3    3  502    0 -0.44388915908E+03  0.95638104288E+03  0.33953839840E+03  0.11076951786E+04  0.25500000920E-02 0.  1.
       -2    1    3    3    0  502  0.44388915908E+03 -0.95638104288E+03  0.29330284315E+03  0.10944079872E+04  0.25500000920E-02 0. -1.
</event>
<event>
 5   0  0.3257130E-05  0.2098181E+04  0.7818609E-02  0.8562045E-01
       -2   -1    0    0    0  501  0.00000000000E+00  0.00000000000E+00  0.71095815881E+03  0.71095815882E+03  0.25500000920E-02 0. -1.
        2   -1    0    0  501    0  0.00000000000E+00  0.00000000000E+00 -0.15480392292E+04  0.15480392292E+04  0.25500000920E-02 0.  1.
    10030    2    1    2    0    0  0.00000000000E+00  0.00000000000E+00 -0.83708107036E+03  0.22589973880E+04  0.20981812316E+04 0.  0.
        3    1    3    3  502    0 -0.51918935560E+03 -0.25120712958E+03  0.52494038954E+03  0.77988783277E+03  0.10100000352E+00 0. -1.
       -3    1    3    3    0  502  0.51918935560E+03  0.25120712958E+03 -0.13620214599E+04  0.14791095552E+04  0.10100000352E+00 0.  1.
</event>
<event>
 5   0  0.3279789E-05  0.2101604E+04  0.7818609E-02  0.8560537E-01
       -2   -1    0    0    0  501  0.00000000000E+00  0.00000000000E+00  0.12461788203E+04  0.12461788203E+04  0.25500000920E-02 0. -1.
        2   -1    0    0  501    0  0.00000000000E+00  0.00000000000E+00 -0.88605649286E+03  0.88605649286E+03  0.25500000920E-02 0.  1.
    10030    2    1    2    0    0  0.00000000000E+00  0.00000000000E+00  0.36012232745E+03  0.21322353132E+04  0.21016039922E+04 0.  0.
        2    1    3    3  502    0  0.10210753229E+03  0.98489132271E+03 -0.17684437471E+03  0.10058383561E+04  0.25500000920E-02 0.  1.
       -2    1    3    3    0  502 -0.10210753229E+03 -0.98489132271E+03  0.53696670216E+03  0.11263969571E+04  0.25500000920E-02 0. -1.
</event>
<event>
 5   0  0.3257130E-05  0.2072951E+04  0.7818609E-02  0.8573253E-01
        2   -1    0    0  501    0  0.00000000000E+00  0.00000000000E+00  0.25107503649E+04  0.25107503649E+04  0.25500000920E-02 0. -1.
       -2   -1    0    0    0  501  0.00000000000E+00  0.00000000000E+00 -0.42787277547E+03  0.42787277548E+03  0.25500000920E-02 0.  1.
    10030    2    1    2    0    0  0.00000000000E+00  0.00000000000E+00  0.20828775895E+04  0.29386231404E+04  0.20729512557E+04 0.  0.
        3    1    3    3  502    0  0.63897871830E+03 -0.18916323649E+03  0.21668099773E+04  0.22669675825E+04  0.10100000352E+00 0. -1.
       -3    1    3    3    0  502 -0.63897871830E+03  0.18916323649E+03 -0.83932387821E+02  0.67165555786E+03  0.10100000352E+00 0.  1.
</event>
<event>
 5   0  0.3257130E-05  0.2099527E+04  0.7818609E-02  0.8561452E-01
       -2   -1    0    0    0  501  0.00000000000E+00  0.00000000000E+00  0.70364872641E+03  0.70364872641E+03  0.25500000920E-02 0.  1.
        2   -1    0    0  501    0  0.00000000000E+00  0.00000000000E+00 -0.15661278197E+04  0.15661278197E+04  0.25500000920E-02 0. -1.
    10030    2    1    2    0    0  0.00000000000E+00  0.00000000000E+00 -0.86247909333E+03  0.22697765461E+04  0.20995274190E+04 0.  0.
        3    1    3    3  502    0  0.59665576256E+03  0.85480193543E+03 -0.29743149177E+03  0.10840433341E+04  0.10100000352E+00 0.  1.
       -3    1    3    3    0  502 -0.59665576256E+03 -0.85480193543E+03 -0.56504760156E+03  0.11857332120E+04  0.10100000352E+00 0. -1.
</event>
<event>
 5   0  0.3242231E-05  0.2095452E+04  0.7818609E-02  0.8563249E-01
       -2   -1    0    0    0  501  0.00000000000E+00  0.00000000000E+00  0.12874081388E+04  0.12874081388E+04  0.25500000920E-02 0. -1.
        2   -1    0    0  501    0  0.00000000000E+00  0.00000000000E+00 -0.85266684662E+03  0.85266684662E+03  0.25500000920E-02 0.  1.
    10030    2    1    2    0    0  0.00000000000E+00  0.00000000000E+00  0.43474129216E+03  0.21400749854E+04  0.20954524457E+04 0.  0.
        4    1    3    3  502    0 -0.56824188878E+03  0.44103571982E+03  0.99537840962E+03  0.12280843381E+04  0.12699999809E+01 0. -1.
       -4    1    3    3    0  502  0.56824188878E+03 -0.44103571982E+03 -0.56063711746E+03  0.91199064727E+03  0.12699999809E+01 0.  1.
</event>
<event>
 5   0  0.1453430E-05  0.2098047E+04  0.7818609E-02  0.8562104E-01
       -1   -1    0    0    0  501  0.00000000000E+00  0.00000000000E+00  0.99183861875E+03  0.99183861876E+03  0.50400001928E-02 0. -1.
        1   -1    0    0  501    0  0.00000000000E+00  0.00000000000E+00 -0.11095053306E+04  0.11095053306E+04  0.50400001928E-02 0.  1.
    10030    2    1    2    0    0  0.00000000000E+00  0.00000000000E+00 -0.11766671186E+03  0.21013439494E+04  0.20980469343E+04 0.  0.
        5    1    3    3  502    0  0.31504688194E+02 -0.35357819998E+03  0.92984404193E+03  0.99531006284E+03  0.46999998093E+01 0. -1.
       -5    1    3    3    0  502 -0.31504688194E+02  0.35357819998E+03 -0.10475107538E+04  0.11060338865E+04  0.46999998093E+01 0.  1.
</event>
<event>
 5   0  0.1435410E-05  0.2102285E+04  0.7818609E-02  0.8560238E-01
       -1   -1    0    0    0  501  0.00000000000E+00  0.00000000000E+00  0.14203572758E+04  0.14203572758E+04  0.50400001928E-02 0. -1.
        1   -1    0    0  501    0  0.00000000000E+00  0.00000000000E+00 -0.77790300517E+03  0.77790300519E+03  0.50400001928E-02 0.  1.
    10030    2    1    2    0    0  0.00000000000E+00  0.00000000000E+00  0.64245427063E+03  0.21982602810E+04  0.21022846556E+04 0.  0.
        2    1    3    3  502    0  0.77154881507E+03  0.32059527147E+03  0.98817942377E+03  0.12940508010E+04  0.25500000920E-02 0. -1.
       -2    1    3    3    0  502 -0.77154881507E+03 -0.32059527147E+03 -0.34572515313E+03  0.90420947996E+03  0.25500000920E-02 0.  1.
</event>
<event>
 5   0  0.1435410E-05  0.2139535E+04  0.7818609E-02  0.8544025E-01
        1   -1    0    0  501    0  0.00000000000E+00  0.00000000000E+00  0.98897095085E+03  0.98897095087E+03  0.50400001928E-02 0. -1.
       -1   -1    0    0    0  501  0.00000000000E+00  0.00000000000E+00 -0.11571646926E+04  0.11571646926E+04  0.50400001928E-02 0.  1.
    10030    2    1    2    0    0  0.00000000000E+00  0.00000000000E+00 -0.16819374171E+03  0.21461356434E+04  0.21395347778E+04 0.  0.
        2    1    3    3  502    0  0.30893888759E+03 -0.88004149546E+03 -0.60962735564E+03  0.11142539130E+04  0.25500000920E-02 0.  1.
       -2    1    3    3    0  502 -0.30893888759E+03  0.88004149546E+03  0.44143361394E+03  0.10318817304E+04  0.25500000920E-02 0. -1.
</event>
<event>
 5   0  0.1466480E-05  0.2103775E+04  0.7818609E-02  0.8559582E-01
       -1   -1    0    0    0  501  0.00000000000E+00  0.00000000000E+00  0.76671779360E+03  0.76671779361E+03  0.50400001928E-02 0. -1.
        1   -1    0    0  501    0  0.00000000000E+00  0.00000000000E+00 -0.14431218673E+04  0.14431218673E+04  0.50400001928E-02 0.  1.
    10030    2    1    2    0    0  0.00000000000E+00  0.00000000000E+00 -0.67640407368E+03  0.22098396609E+04  0.21037749062E+04 0.  0.
        3    1    3    3  502    0 -0.49236661983E+02  0.12171236690E+03 -0.14344810544E+04  0.14404770234E+04  0.10100000352E+00 0.  1.
       -3    1    3    3    0  502  0.49236661983E+02 -0.12171236690E+03  0.75807698073E+03  0.76936263755E+03  0.10100000352E+00 0. -1.
</event>
<event>
 5   0  0.3130517E-05  0.2067545E+04  0.7818609E-02  0.8575676E-01
        2   -1    0    0  501    0  0.00000000000E+00  0.00000000000E+00  0.11703203005E+04  0.11703203005E+04  0.25500000920E-02 0. -1.
       -2   -1    0    0    0  501  0.00000000000E+00  0.00000000000E+00 -0.91315666823E+03  0.91315666823E+03  0.25500000920E-02 0.  1.
    10030    2    1    2    0    0  0.00000000000E+00  0.00000000000E+00  0.25716363231E+03  0.20834769688E+04  0.20675451980E+04 0.  0.
        1    1    3    3  502    0 -0.17216053725E+03  0.10131128295E+04  0.24191591450E+03  0.10557273160E+04  0.50400001928E-02 0.  1.
       -1    1    3    3    0  502  0.17216053725E+03 -0.10131128295E+04  0.15247717814E+02  0.10277496528E+04  0.50400001928E-02 0. -1.
</event>
<event>
 5   0  0.1466480E-05  0.2062578E+04  0.7818609E-02  0.8577910E-01
        1   -1    0    0  501    0  0.00000000000E+00  0.00000000000E+00  0.17861261881E+04  0.17861261881E+04  0.50400001928E-02 0. -1.
       -1   -1    0    0    0  501  0.00000000000E+00  0.00000000000E+00 -0.59545451843E+03  0.59545451845E+03  0.50400001928E-02 0.  1.
    10030    2    1    2    0    0  0.00000000000E+00  0.00000000000E+00  0.11906716696E+04  0.23815807065E+04  0.20625779105E+04 0.  0.
        3    1    3    3  502    0 -0.44650189501E+03  0.64277729572E+03  0.13707929813E+04  0.15784802824E+04  0.10100000352E+00 0. -1.
       -3    1    3    3    0  502  0.44650189501E+03 -0.64277729572E+03 -0.18012131166E+03  0.80310042414E+03  0.10100000352E+00 0.  1.
</event>
<event>
 5   0  0.3257130E-05  0.2096291E+04  0.7818609E-02  0.8562879E-01
       -2   -1    0    0    0  501  0.00000000000E+00  0.00000000000E+00  0.10181976361E+04  0.10181976361E+04  0.25500000920E-02 0. -1.
        2   -1    0    0  501    0  0.00000000000E+00  0.00000000000E+00 -0.10789740597E+04  0.10789740598E+04  0.25500000920E-02 0.  1.
    10030    2    1    2    0    0  0.00000000000E+00  0.00000000000E+00 -0.60776423668E+02  0.20971716958E+04  0.20962908548E+04 0.  0.
        3    1    3    3  502    0 -0.73591626094E+03 -0.59893464746E+03 -0.47589922797E+03  0.10614968396E+04  0.10100000352E+00 0.  1.
       -3    1    3    3    0  502  0.73591626094E+03  0.59893464746E+03  0.41512280430E+03  0.10356748563E+04  0.10100000352E+00 0. -1.
</event>
<event>
 5   0  0.1513292E-05  0.2102740E+04  0.7818609E-02  0.8560038E-01
       -1   -1    0    0    0  501  0.00000000000E+00  0.00000000000E+00  0.10860452975E+04  0.10860452975E+04  0.50400001928E-02 0.  1.
        1   -1    0    0  501    0  0.00000000000E+00  0.00000000000E+00 -0.10178014088E+04  0.10178014089E+04  0.50400001928E-02 0. -1.
    10030    2    1    2    0    0  0.00000000000E+00  0.00000000000E+00  0.68243888689E+02  0.21038467064E+04  0.21027395787E+04 0.  0.
        1    1    3    3  502    0  0.41932582137E+01 -0.10386724373E+04 -0.12881470798E+03  0.10466380676E+04  0.50400001928E-02 0. -1.
       -1    1    3    3    0  502 -0.41932582137E+01  0.10386724373E+04  0.19705859667E+03  0.10572086388E+04  0.50400001928E-02 0.  1.
</event>
<event>
 5   0  0.3242231E-05  0.2096651E+04  0.7818609E-02  0.8562720E-01
        2   -1    0    0  501    0  0.00000000000E+00  0.00000000000E+00  0.25165609367E+04  0.25165609367E+04  0.25500000920E-02 0.  1.
       -2   -1    0    0    0  501  0.00000000000E+00  0.00000000000E+00 -0.43670184836E+03  0.43670184837E+03  0.25500000920E-02 0. -1.
    10030    2    1    2    0    0  0.00000000000E+00  0.00000000000E+00  0.20798590883E+04  0.29532627851E+04  0.20966514375E+04 0.  0.
        4    1    3    3  502    0  0.99722785180E+03  0.29278437117E+03  0.84680180595E+03  0.13406196283E+04  0.12699999809E+01 0.  1.
       -4    1    3    3    0  502 -0.99722785180E+03 -0.29278437117E+03  0.12330572824E+04  0.16126431567E+04  0.12699999809E+01 0. -1.
</event>
<event>
 5   0  0.3242231E-05  0.2093495E+04  0.7818609E-02  0.8564114E-01
       -2   -1    0    0    0  501  0.00000000000E+00  0.00000000000E+00  0.77579237195E+03  0.77579237196E+03  0.25500000920E-02 0. -1.
        2   -1    0    0  501    0  0.00000000000E+00  0.00000000000E+00 -0.14123376071E+04  0.14123376071E+04  0.25500000920E-02 0.  1.
    10030    2    1    2    0    0  0.00000000000E+00  0.00000000000E+00 -0.63654523513E+03  0.21881299790E+04  0.20934953950E+04 0.  0.
        4    1    3    3  502    0  0.93711548126E+03 -0.23528317395E+02 -0.80509557102E+03  0.12356858413E+04  0.12699999809E+01 0.  1.
       -4    1    3    3    0  502 -0.93711548126E+03  0.23528317395E+02  0.16855033589E+03  0.95244413777E+03  0.12699999809E+01 0. -1.
</event>
<event>
 5   0  0.1453430E-05  0.2122555E+04  0.7818609E-02  0.8551372E-01
        1   -1    0    0  501    0  0.00000000000E+00  0.00000000000E+00  0.22964251858E+04  0.22964251858E+04  0.50400001928E-02 0.  1.
       -1   -1    0    0    0  501  0.00000000000E+00  0.00000000000E+00 -0.49046249277E+03  0.49046249280E+03  0.50400001928E-02 0. -1.
    10030    2    1    2    0    0  0.00000000000E+00  0.00000000000E+00  0.18059626930E+04  0.27868876786E+04  0.21225554609E+04 0.  0.
        5    1    3    3  502    0 -0.58138934683E+03 -0.16846296420E+03  0.20475377743E+04  0.21351408314E+04  0.46999998093E+01 0.  1.
       -5    1    3    3    0  502  0.58138934683E+03  0.16846296420E+03 -0.24157508126E+03  0.65174684717E+03  0.46999998093E+01 0. -1.
</event>
<event>
 5   0  0.1466480E-05  0.2094162E+04  0.7818609E-02  0.8563819E-01
        1   -1    0    0  501    0  0.00000000000E+00  0.00000000000E+00  0.22225789869E+04  0.22225789869E+04  0.50400001928E-02 0.  1.
       -1   -1    0    0    0  501  0.00000000000E+00  0.00000000000E+00 -0.49329110433E+03  0.49329110435E+03  0.50400001928E-02 0. -1.
    10030    2    1    2    0    0  0.00000000000E+00  0.00000000000E+00  0.17292878825E+04  0.27158700912E+04  0.20941618303E+04 0.  0.
        3    1    3    3  502    0 -0.55357230987E+03 -0.86059686353E+03  0.11526241183E+04  0.15413019276E+04  0.10100000352E+00 0.  1.
       -3    1    3    3    0  502  0.55357230987E+03  0.86059686353E+03  0.57666376423E+03  0.11745681636E+04  0.10100000352E+00 0. -1.
</event>
<event>
 5   0  0.1435410E-05  0.2100656E+04  0.7818609E-02  0.8560955E-01
       -1   -1    0    0    0  501  0.00000000000E+00  0.00000000000E+00  0.78281237847E+03  0.78281237849E+03  0.50400001928E-02 0.  1.
        1   -1    0    0  501    0  0.00000000000E+00  0.00000000000E+00 -0.14092629582E+04  0.14092629582E+04  0.50400001928E-02 0. -1.
    10030    2    1    2    0    0  0.00000000000E+00  0.00000000000E+00 -0.62645057971E+03  0.21920753367E+04  0.21006556007E+04 0.  0.
        2    1    3    3  502    0 -0.73738459286E+03  0.73902261998E+03 -0.19288970562E+03  0.10616482041E+04  0.25500000920E-02 0. -1.
       -2    1    3    3    0  502  0.73738459286E+03 -0.73902261998E+03 -0.43356087409E+03  0.11304271326E+04  0.25500000920E-02 0.  1.
</event>
<event>
 5   0  0.3242231E-05  0.2098936E+04  0.7818609E-02  0.8561712E-01
       -2   -1    0    0    0  501  0.00000000000E+00  0.00000000000E+00  0.25610394548E+04  0.25610394548E+04  0.25500000920E-02 0. -1.
        2   -1    0    0  501    0  0.00000000000E+00  0.00000000000E+00 -0.43005309469E+03  0.43005309470E+03  0.25500000920E-02 0.  1.
    10030    2    1    2    0    0  0.00000000000E+00  0.00000000000E+00  0.21309863601E+04  0.29910925495E+04  0.20989358668E+04 0.  0.
        4    1    3    3  502    0  0.65688019880E+03  0.34269002399E+02 -0.99843281062E+02  0.66530914151E+03  0.12699999809E+01 0.  1.
       -4    1    3    3    0  502 -0.65688019880E+03 -0.34269002399E+02  0.22308296412E+04  0.23257834080E+04  0.12699999809E+01 0. -1.
</event>
<event>
 5   0  0.1466480E-05  0.2047399E+04  0.7818609E-02  0.8584775E-01
        1   -1    0    0  501    0  0.00000000000E+00  0.00000000000E+00  0.47845726473E+03  0.47845726476E+03  0.50400001928E-02 0.  1.
       -1   -1    0    0    0  501  0.00000000000E+00  0.00000000000E+00 -0.21902910288E+04  0.21902910288E+04  0.50400001928E-02 0. -1.
    10030    2    1    2    0    0  0.00000000000E+00  0.00000000000E+00 -0.17118337641E+04  0.26687482936E+04  0.20473989886E+04 0.  0.
        3    1    3    3  502    0  0.22114306554E+02  0.97604810717E+03 -0.45457620403E+03  0.10769394066E+04  0.10100000352E+00 0. -1.
       -3    1    3    3    0  502 -0.22114306554E+02 -0.97604810717E+03 -0.12572575601E+04  0.15918088870E+04  0.10100000352E+00 0.  1.
</event>
<event>
 5   0  0.3279789E-05  0.2096826E+04  0.7818609E-02  0.8562643E-01
        2   -1    0    0  501    0  0.00000000000E+00  0.00000000000E+00  0.15313306648E+04  0.15313306648E+04  0.25500000920E-02 0.  1.
       -2   -1    0    0    0  501  0.00000000000E+00  0.00000000000E+00 -0.71778723108E+03  0.71778723108E+03  0.25500000920E-02 0. -1.
    10030    2    1    2    0    0  0.00000000000E+00  0.00000000000E+00  0.81354343375E+03  0.22491178959E+04  0.20968257894E+04 0.  0.
        2    1    3    3  502    0  0.62126136897E+03  0.53786377402E+03  0.11051406221E+04  0.13771706222E+04  0.25500000920E-02 0.  1.
       -2    1    3    3    0  502 -0.62126136897E+03 -0.53786377402E+03 -0.29159718832E+03  0.87194727376E+03  0.25500000920E-02 0. -1.
</event>
<event>
 5   0  0.3242231E-05  0.2099951E+04  0.7818609E-02  0.8561265E-01
        2   -1    0    0  501    0  0.00000000000E+00  0.00000000000E+00  0.13714282707E+04  0.13714282707E+04  0.25500000920E-02 0.  1.
       -2   -1    0    0    0  501  0.00000000000E+00  0.00000000000E+00 -0.80386875698E+03  0.80386875698E+03  0.25500000920E-02 0. -1.
    10030    2    1    2    0    0  0.00000000000E+00  0.00000000000E+00  0.56755951375E+03  0.21752970277E+04  0.20999507987E+04 0.  0.
        4    1    3    3  502    0 -0.22446331699E+01  0.46945226821E+03 -0.68909646572E+03  0.83381414144E+03  0.12699999809E+01 0. -1.
       -4    1    3    3    0  502  0.22446331699E+01 -0.46945226821E+03  0.12566559795E+04  0.13414828863E+04  0.12699999809E+01 0.  1.
</event>
<event>
 5   0  0.1453430E-05  0.2108536E+04  0.7818609E-02  0.8557492E-01
       -1   -1    0    0    0  501  0.00000000000E+00  0.00000000000E+00  0.65157038225E+03  0.65157038227E+03  0.50400001928E-02 0. -1.
        1   -1    0    0  501    0  0.00000000000E+00  0.00000000000E+00 -0.17058503135E+04  0.17058503136E+04  0.50400001928E-02 0.  1.
    10030    2    1    2    0    0  0.00000000000E+00  0.00000000000E+00 -0.10542799313E+04  0.23574206958E+04  0.21085364980E+04 0.  0.
        5    1    3    3  502    0 -0.83683950069E+03  0.51426305789E+03 -0.95535319885E+03  0.13702148252E+04  0.46999998093E+01 0.  1.
       -5    1    3    3    0  502  0.83683950069E+03 -0.51426305789E+03 -0.98926732449E+02  0.98720587063E+03  0.46999998093E+01 0. -1.
</event>
<event>
 5   0  0.1435410E-05  0.2133069E+04  0.7818609E-02  0.8546815E-01
        1   -1    0    0  501    0  0.00000000000E+00  0.00000000000E+00  0.10432988902E+04  0.10432988902E+04  0.50400001928E-02 0. -1.
       -1   -1    0    0    0  501  0.00000000000E+00  0.00000000000E+00 -0.10902873626E+04  0.10902873627E+04  0.50400001928E-02 0.  1.
    10030    2    1    2    0    0  0.00000000000E+00  0.00000000000E+00 -0.46988472458E+02  0.21335862529E+04  0.21330687710E+04 0.  0.
        2    1    3    3  502    0 -0.70494583186E+03 -0.76495431460E+03  0.21191762739E+03  0.10616085955E+04  0.25500000920E-02 0. -1.
       -2    1    3    3    0  502  0.70494583186E+03  0.76495431460E+03 -0.25890609984E+03  0.10719776573E+04  0.25500000920E-02 0.  1.
</event>
<event>
 5   0  0.3279789E-05  0.2102552E+04  0.7818609E-02  0.8560120E-01
       -2   -1    0    0    0  501  0.00000000000E+00  0.00000000000E+00  0.88417214062E+03  0.88417214062E+03  0.25500000920E-02 0.  1.
        2   -1    0    0  501    0  0.00000000000E+00  0.00000000000E+00 -0.12499613997E+04  0.12499613997E+04  0.25500000920E-02 0. -1.
    10030    2    1    2    0    0  0.00000000000E+00  0.00000000000E+00 -0.36578925906E+03  0.21341335403E+04  0.21025518271E+04 0.  0.
        2    1    3    3  502    0  0.84844701077E+03 -0.54447573245E+02  0.44474130642E+03  0.95949033239E+03  0.25500000920E-02 0.  1.
       -2    1    3    3    0  502 -0.84844701077E+03  0.54447573245E+02 -0.81053056548E+03  0.11746432079E+04  0.25500000920E-02 0. -1.
</event>
<event>
 5   0  0.3257130E-05  0.2094613E+04  0.7818609E-02  0.8563620E-01
        2   -1    0    0  501    0  0.00000000000E+00  0.00000000000E+00  0.25745551120E+04  0.25745551120E+04  0.25500000920E-02 0.  1.
       -2   -1    0    0    0  501  0.00000000000E+00  0.00000000000E+00 -0.42603527082E+03  0.42603527083E+03  0.25500000920E-02 0. -1.
    10030    2    1    2    0    0  0.00000000000E+00  0.00000000000E+00  0.21485198412E+04  0.30005903829E+04  0.20946133623E+04 0.  0.
        3    1    3    3  502    0  0.62603341868E+01  0.12832287393E+03  0.25632237274E+04  0.25664414739E+04  0.10100000352E+00 0.  1.
       -3    1    3    3    0  502 -0.62603341868E+01 -0.12832287393E+03 -0.41470388620E+03  0.43414890901E+03  0.10100000352E+00 0. -1.
</event>
<event>
 5   0  0.3108326E-05  0.2096625E+04  0.7818609E-02  0.8562731E-01
        2   -1    0    0  501    0  0.00000000000E+00  0.00000000000E+00  0.13788147559E+04  0.13788147559E+04  0.25500000920E-02 0. -1.
       -2   -1    0    0    0  501  0.00000000000E+00  0.00000000000E+00 -0.79703183564E+03  0.79703183565E+03  0.25500000920E-02 0.  1.
    10030    2    1    2    0    0  0.00000000000E+00  0.00000000000E+00  0.58178292025E+03  0.21758465915E+04  0.20966251510E+04 0.  0.
        5    1    3    3  502    0  0.94298551883E+02  0.10101398385E+04  0.16982101625E+02  0.10146847747E+04  0.46999998093E+01 0.  1.
       -5    1    3    3    0  502 -0.94298551883E+02 -0.10101398385E+04  0.56480081862E+03  0.11611618169E+04  0.46999998093E+01 0. -1.
</event>
<event>
 5   0  0.1435410E-05  0.2095456E+04  0.7818609E-02  0.8563247E-01
       -1   -1    0    0    0  501  0.00000000000E+00  0.00000000000E+00  0.70058296131E+03  0.70058296132E+03  0.50400001928E-02 0.  1.
        1   -1    0    0  501    0  0.00000000000E+00  0.00000000000E+00 -0.15668871866E+04  0.15668871866E+04  0.50400001928E-02 0. -1.
    10030    2    1    2    0    0  0.00000000000E+00  0.00000000000E+00 -0.86630422530E+03  0.22674701479E+04  0.20954564803E+04 0.  0.
        2    1    3    3  502    0  0.92898280683E+03  0.42657906129E+03 -0.18461131573E+03  0.10387781711E+04  0.25500000920E-02 0.  1.
       -2    1    3    3    0  502 -0.92898280683E+03 -0.42657906129E+03 -0.68169290958E+03  0.12286919768E+04  0.25500000920E-02 0. -1.
</event>
<event>
 5   0  0.3279789E-05  0.1987989E+04  0.7818609E-02  0.8612257E-01
       -2   -1    0    0    0  501  0.00000000000E+00  0.00000000000E+00  0.86742547146E+03  0.86742547146E+03  0.25500000920E-02 0.  1.
        2   -1    0    0  501    0  0.00000000000E+00  0.00000000000E+00 -0.11390314823E+04  0.11390314823E+04  0.25500000920E-02 0. -1.
    10030    2    1    2    0    0  0.00000000000E+00  0.00000000000E+00 -0.27160601089E+03  0.20064569538E+04  0.19879888537E+04 0.  0.
        2    1    3    3  502    0  0.10633669321E+03  0.18302631719E+03 -0.11160197679E+04  0.11359164791E+04  0.25500000920E-02 0. -1.
       -2    1    3    3    0  502 -0.10633669321E+03 -0.18302631719E+03  0.84441375701E+03  0.87054047473E+03  0.25500000920E-02 0.  1.
</event>
<event>
 5   0  0.1435410E-05  0.2106750E+04  0.7818609E-02  0.8558276E-01
        1   -1    0    0  501    0  0.00000000000E+00  0.00000000000E+00  0.18339706036E+04  0.18339706036E+04  0.50400001928E-02 0.  1.
       -1   -1    0    0    0  501  0.00000000000E+00  0.00000000000E+00 -0.60502567842E+03  0.60502567844E+03  0.50400001928E-02 0. -1.
    10030    2    1    2    0    0  0.00000000000E+00  0.00000000000E+00  0.12289449252E+04  0.24389962821E+04  0.21067503969E+04 0.  0.
        2    1    3    3  502    0 -0.15225854875E+03 -0.21563118313E+03 -0.56611450558E+03  0.62463197664E+03  0.25500000920E-02 0. -1.
       -2    1    3    3    0  502  0.15225854875E+03  0.21563118313E+03  0.17950594308E+04  0.18143643054E+04  0.25500000920E-02 0.  1.
</event>
<event>
 5   0  0.3108326E-05  0.1978344E+04  0.7818609E-02  0.8616813E-01
        2   -1    0    0  501    0  0.00000000000E+00  0.00000000000E+00  0.13405836776E+04  0.13405836776E+04  0.25500000920E-02 0. -1.
       -2   -1    0    0    0  501  0.00000000000E+00  0.00000000000E+00 -0.72987696072E+03  0.72987696073E+03  0.25500000920E-02 0.  1.
    10030    2    1    2    0    0  0.00000000000E+00  0.00000000000E+00  0.61070671690E+03  0.20704606384E+04  0.19783438935E+04 0.  0.
        5    1    3    3  502    0 -0.11327861436E+03 -0.94851773041E+03  0.36647284667E+02  0.95597230234E+03  0.46999998093E+01 0.  1.
       -5    1    3    3    0  502  0.11327861436E+03  0.94851773041E+03  0.57405943223E+03  0.11144883360E+04  0.46999998093E+01 0. -1.
</event>
<event>
 5   0  0.1513292E-05  0.2066544E+04  0.7818609E-02  0.8576126E-01
        1   -1    0    0  501    0  0.00000000000E+00  0.00000000000E+00  0.88429164655E+03  0.88429164656E+03  0.50400001928E-02 0. -1.
       -1   -1    0    0    0  501  0.00000000000E+00  0.00000000000E+00 -0.12073520417E+04  0.12073520417E+04  0.50400001928E-02 0.  1.
    10030    2    1    2    0    0  0.00000000000E+00  0.00000000000E+00 -0.32306039513E+03  0.20916436883E+04  0.20665442893E+04 0.  0.
        1    1    3    3  502    0  0.37383144382E+03 -0.46538869131E+03  0.69210810190E+03  0.91397494885E+03  0.50400001928E-02 0. -1.
       -1    1    3    3    0  502 -0.37383144382E+03  0.46538869131E+03 -0.10151684970E+04  0.11776687394E+04  0.50400001928E-02 0.  1.
</event>
<event>
 5   0  0.1435410E-05  0.2103679E+04  0.7818609E-02  0.8559625E-01
        1   -1    0    0  501    0  0.00000000000E+00  0.00000000000E+00  0.14483096579E+04  0.14483096579E+04  0.50400001928E-02 0. -1.
       -1   -1    0    0    0  501  0.00000000000E+00  0.00000000000E+00 -0.76390149196E+03  0.76390149198E+03  0.50400001928E-02 0.  1.
    10030    2    1    2    0    0  0.00000000000E+00  0.00000000000E+00  0.68440816590E+03  0.22122111499E+04  0.21036785957E+04 0.  0.
        2    1    3    3  502    0  0.75445899191E+03  0.19641866467E+03 -0.40032491020E+03  0.87638387482E+03  0.25500000920E-02 0.  1.
       -2    1    3    3    0  502 -0.75445899191E+03 -0.19641866467E+03  0.10847330761E+04  0.13358272750E+04  0.25500000920E-02 0. -1.
</event>
<event>
 5   0  0.1513292E-05  0.2099113E+04  0.7818609E-02  0.8561634E-01
        1   -1    0    0  501    0  0.00000000000E+00  0.00000000000E+00  0.65775874036E+03  0.65775874038E+03  0.50400001928E-02 0.  1.
       -1   -1    0    0    0  501  0.00000000000E+00  0.00000000000E+00 -0.16747314656E+04  0.16747314656E+04  0.50400001928E-02 0. -1.
    10030    2    1    2    0    0  0.00000000000E+00  0.00000000000E+00 -0.10169727253E+04  0.23324902060E+04  0.20991133931E+04 0.  0.
        1    1    3    3  502    0 -0.62880003732E+03 -0.41954996921E+03  0.30058424328E+03  0.81348789231E+03  0.50400001928E-02 0. -1.
       -1    1    3    3    0  502  0.62880003732E+03  0.41954996921E+03 -0.13175569686E+04  0.15190023137E+04  0.50400001928E-02 0.  1.
</event>
<event>
 5   0  0.3108326E-05  0.2122192E+04  0.7818609E-02  0.8551530E-01
        2   -1    0    0  501    0  0.00000000000E+00  0.00000000000E+00  0.15768656363E+04  0.15768656363E+04  0.25500000920E-02 0. -1.
       -2   -1    0    0    0  501  0.00000000000E+00  0.00000000000E+00 -0.71402700571E+03  0.71402700571E+03  0.25500000920E-02 0.  1.
    10030    2    1    2    0    0  0.00000000000E+00  0.00000000000E+00  0.86283863061E+03  0.22908926420E+04  0.21221919317E+04 0.  0.
        5    1    3    3  502    0 -0.12873460678E+03 -0.82321570025E+03  0.11406440501E+04  0.14125677425E+04  0.46999998093E+01 0. -1.
       -5    1    3    3    0  502  0.12873460678E+03  0.82321570025E+03 -0.27780541945E+03  0.87832489956E+03  0.46999998093E+01 0.  1.
</event>
<event>
 5   0  0.1453430E-05  0.2105624E+04  0.7818609E-02  0.8558770E-01
        1   -1    0    0  501    0  0.00000000000E+00  0.00000000000E+00  0.12754865375E+04  0.12754865376E+04  0.50400001928E-02 0. -1.
       -1   -1    0    0    0  501  0.00000000000E+00  0.00000000000E+00 -0.86901223354E+03  0.86901223356E+03  0.50400001928E-02 0.  1.
    10030    2    1    2    0    0  0.00000000000E+00  0.00000000000E+00  0.40647430401E+03  0.21444987711E+04  0.21056242826E+04 0.  0.
        5    1    3    3  502    0 -0.33818989404E+03 -0.96956247164E+03  0.43983520593E+03  0.11170948434E+04  0.46999998093E+01 0. -1.
       -5    1    3    3    0  502  0.33818989404E+03  0.96956247164E+03 -0.33360901925E+02  0.10274039277E+04  0.46999998093E+01 0.  1.
</event>
<event>
 5   0  0.1466480E-05  0.2095695E+04  0.7818609E-02  0.8563142E-01
       -1   -1    0    0    0  501  0.00000000000E+00  0.00000000000E+00  0.77148674020E+03  0.77148674022E+03  0.50400001928E-02 0.  1.
        1   -1    0    0  501    0  0.00000000000E+00  0.00000000000E+00 -0.14232056476E+04  0.14232056477E+04  0.50400001928E-02 0. -1.
    10030    2    1    2    0    0  0.00000000000E+00  0.00000000000E+00 -0.65171890744E+03  0.21946923879E+04  0.20956949070E+04 0.  0.
        3    1    3    3  502    0 -0.94525034350E+03 -0.92351251820E+02  0.13772229978E+03  0.95968453549E+03  0.10100000352E+00 0.  1.
       -3    1    3    3    0  502  0.94525034350E+03  0.92351251820E+02 -0.78944120721E+03  0.12350078524E+04  0.10100000352E+00 0. -1.
</event>
<event>
 5   0  0.3130517E-05  0.2106729E+04  0.7818609E-02  0.8558285E-01
        2   -1    0    0  501    0  0.00000000000E+00  0.00000000000E+00  0.12182065510E+04  0.12182065510E+04  0.25500000920E-02 0.  1.
       -2   -1    0    0    0  501  0.00000000000E+00  0.00000000000E+00 -0.91082814650E+03  0.91082814650E+03  0.25500000920E-02 0. -1.
    10030    2    1    2    0    0  0.00000000000E+00  0.00000000000E+00  0.30737840446E+03  0.21290346975E+04  0.21067290427E+04 0.  0.
        1    1    3    3  502    0  0.38320235780E+03  0.24361939297E+03  0.11142168272E+04  0.12031930825E+04  0.50400001928E-02 0.  1.
       -1    1    3    3    0  502 -0.38320235780E+03 -0.24361939297E+03 -0.80683842273E+03  0.92584161500E+03  0.50400001928E-02 0. -1.
</event>
<event>
 5   0  0.1466480E-05  0.2095212E+04  0.7818609E-02  0.8563356E-01
        1   -1    0    0  501    0  0.00000000000E+00  0.00000000000E+00  0.77273803630E+03  0.77273803631E+03  0.50400001928E-02 0. -1.
       -1   -1    0    0    0  501  0.00000000000E+00  0.00000000000E+00 -0.14202460927E+04  0.14202460928E+04  0.50400001928E-02 0.  1.
    10030    2    1    2    0    0  0.00000000000E+00  0.00000000000E+00 -0.64750805645E+03  0.21929841291E+04  0.20952118526E+04 0.  0.
        3    1    3    3  502    0 -0.85215670452E+03  0.51814021376E+03  0.11893931749E+02  0.99738749039E+03  0.10100000352E+00 0.  1.
       -3    1    3    3    0  502  0.85215670452E+03 -0.51814021376E+03 -0.65940198820E+03  0.11955966387E+04  0.10100000352E+00 0. -1.
</event>
<event>
 5   0  0.3257130E-05  0.2096733E+04  0.7818609E-02  0.8562684E-01
       -2   -1    0    0    0  501  0.00000000000E+00  0.00000000000E+00  0.14892829670E+04  0.14892829670E+04  0.25500000920E-02 0. -1.
        2   -1    0    0  501    0  0.00000000000E+00  0.00000000000E+00 -0.73798752911E+03  0.73798752912E+03  0.25500000920E-02 0.  1.
    10030    2    1    2    0    0  0.00000000000E+00  0.00000000000E+00  0.75129543790E+03  0.22272704961E+04  0.20967329415E+04 0.  0.
        3    1    3    3  502    0  0.10027137510E+03  0.21028368522E+03 -0.71014306545E+03  0.74737993051E+03  0.10100000352E+00 0.  1.
       -3    1    3    3    0  502 -0.10027137510E+03 -0.21028368522E+03  0.14614385033E+04  0.14798905656E+04  0.10100000352E+00 0. -1.
</event>
<event>
 5   0  0.1513292E-05  0.2094619E+04  0.7818609E-02  0.8563618E-01
        1   -1    0    0  501    0  0.00000000000E+00  0.00000000000E+00  0.18461374412E+04  0.18461374412E+04  0.50400001928E-02 0. -1.
       -1   -1    0    0    0  501  0.00000000000E+00  0.00000000000E+00 -0.59413615669E+03  0.59413615671E+03  0.50400001928E-02 0.  1.
    10030    2    1    2    0    0  0.00000000000E+00  0.00000000000E+00  0.12520012845E+04  0.24402735979E+04  0.20946188236E+04 0.  0.
        1    1    3    3  502    0  0.77734412083E+03 -0.31785561688E+03 -0.10300886819E+03  0.84611281891E+03  0.50400001928E-02 0.  1.
       -1    1    3    3    0  502 -0.77734412083E+03  0.31785561688E+03  0.13550101527E+04  0.15941607790E+04  0.50400001928E-02 0. -1.
</event>
<event>
 5   0  0.1513292E-05  0.2101175E+04  0.7818609E-02  0.8560726E-01
        1   -1    0    0  501    0  0.00000000000E+00  0.00000000000E+00  0.97938951213E+03  0.97938951214E+03  0.50400001928E-02 0. -1.
       -1   -1    0    0    0  501  0.00000000000E+00  0.00000000000E+00 -0.11269612584E+04  0.11269612584E+04  0.50400001928E-02 0.  1.
    10030    2    1    2    0    0  0.00000000000E+00  0.00000000000E+00 -0.14757174628E+03  0.21063507706E+04  0.21011749447E+04 0.  0.
        1    1    3    3  502    0 -0.71252768906E+03  0.44473230753E+03  0.55884035697E+03  0.10088533479E+04  0.50400001928E-02 0. -1.
       -1    1    3    3    0  502  0.71252768906E+03 -0.44473230753E+03 -0.70641210324E+03  0.10974974226E+04  0.50400001928E-02 0.  1.
</event>
<event>
 5   0  0.3130517E-05  0.2096934E+04  0.7818609E-02  0.8562595E-01
       -2   -1    0    0    0  501  0.00000000000E+00  0.00000000000E+00  0.82677722179E+03  0.82677722180E+03  0.25500000920E-02 0. -1.
        2   -1    0    0  501    0  0.00000000000E+00  0.00000000000E+00 -0.13295999843E+04  0.13295999844E+04  0.25500000920E-02 0.  1.
    10030    2    1    2    0    0  0.00000000000E+00  0.00000000000E+00 -0.50282276255E+03  0.21563772061E+04  0.20969339343E+04 0.  0.
        1    1    3    3  502    0  0.10347449230E+04 -0.15534883731E+03 -0.32003126162E+03  0.10941893462E+04  0.50400001928E-02 0.  1.
       -1    1    3    3    0  502 -0.10347449230E+04  0.15534883731E+03 -0.18279150093E+03  0.10621878599E+04  0.50400001928E-02 0. -1.
</event>
<event>
 5   0  0.1466480E-05  0.2113911E+04  0.7818609E-02  0.8555140E-01
        1   -1    0    0  501    0  0.00000000000E+00  0.00000000000E+00  0.14092525059E+04  0.14092525059E+04  0.50400001928E-02 0. -1.
       -1   -1    0    0    0  501  0.00000000000E+00  0.00000000000E+00 -0.79272869117E+03  0.79272869119E+03  0.50400001928E-02 0.  1.
    10030    2    1    2    0    0  0.00000000000E+00  0.00000000000E+00  0.61652381475E+03  0.22019811971E+04  0.21139109675E+04 0.  0.
        3    1    3    3  502    0 -0.25065661535E+03 -0.10131112793E+04  0.13417125485E+03  0.10522476605E+04  0.10100000352E+00 0.  1.
       -3    1    3    3    0  502  0.25065661535E+03  0.10131112793E+04  0.48235255990E+03  0.11497335367E+04  0.10100000352E+00 0. -1.
</event>
<event>
 5   0  0.1513292E-05  0.2108118E+04  0.7818609E-02  0.8557676E-01
       -1   -1    0    0    0  501  0.00000000000E+00  0.00000000000E+00  0.68055829051E+03  0.68055829052E+03  0.50400001928E-02 0.  1.
        1   -1    0    0  501    0  0.00000000000E+00  0.00000000000E+00 -0.16325422563E+04  0.16325422564E+04  0.50400001928E-02 0. -1.
    10030    2    1    2    0    0  0.00000000000E+00  0.00000000000E+00 -0.95198396584E+03  0.23131005469E+04  0.21081178024E+04 0.  0.
        1    1    3    3  502    0  0.75269086084E+03  0.21529281709E+03  0.29843023003E+03  0.83782762625E+03  0.50400001928E-02 0.  1.
       -1    1    3    3    0  502 -0.75269086084E+03 -0.21529281709E+03 -0.12504141959E+04  0.14752729206E+04  0.50400001928E-02 0. -1.
</event>
<event>
 5   0  0.3257130E-05  0.2103665E+04  0.7818609E-02  0.8559631E-01
        2   -1    0    0  501    0  0.00000000000E+00  0.00000000000E+00  0.19008372286E+04  0.19008372286E+04  0.25500000920E-02 0.  1.
       -2   -1    0    0    0  501  0.00000000000E+00  0.00000000000E+00 -0.58203390750E+03  0.58203390750E+03  0.25500000920E-02 0. -1.
    10030    2    1    2    0    0  0.00000000000E+00  0.00000000000E+00  0.13188033211E+04  0.24828711361E+04  0.21036651061E+04 0.  0.
        3    1    3    3  502    0 -0.40110573287E+03  0.15322728610E+03  0.17926890226E+04  0.18433931627E+04  0.10100000352E+00 0.  1.
       -3    1    3    3    0  502  0.40110573287E+03 -0.15322728610E+03 -0.47388570154E+03  0.63947797341E+03  0.10100000352E+00 0. -1.
</event>
<event>
 5   0  0.3108326E-05  0.2105419E+04  0.7818609E-02  0.8558860E-01
        2   -1    0    0  501    0  0.00000000000E+00  0.00000000000E+00  0.22452962174E+04  0.22452962174E+04  0.25500000920E-02 0. -1.
       -2   -1    0    0    0  501  0.00000000000E+00  0.00000000000E+00 -0.49356417194E+03  0.49356417194E+03  0.25500000920E-02 0.  1.
    10030    2    1    2    0    0  0.00000000000E+00  0.00000000000E+00  0.17517320455E+04  0.27388603893E+04  0.21054194530E+04 0.  0.
        5    1    3    3  502    0 -0.19776865915E+03  0.55888191592E+03 -0.25574512493E+03  0.64566949549E+03  0.46999998093E+01 0.  1.
       -5    1    3    3    0  502  0.19776865915E+03 -0.55888191592E+03  0.20074771704E+04  0.20931908939E+04  0.46999998093E+01 0. -1.
</event>
<event>
 5   0  0.3279789E-05  0.2050045E+04  0.7818609E-02  0.8583574E-01
        2   -1    0    0  501    0  0.00000000000E+00  0.00000000000E+00  0.10369064247E+04  0.10369064247E+04  0.25500000920E-02 0.  1.
       -2   -1    0    0    0  501  0.00000000000E+00  0.00000000000E+00 -0.10132744670E+04  0.10132744670E+04  0.25500000920E-02 0. -1.
    10030    2    1    2    0    0  0.00000000000E+00  0.00000000000E+00  0.23631957734E+02  0.20501808917E+04  0.20500446872E+04 0.  0.
        2    1    3    3  502    0  0.66911471272E+03  0.31440505487E+03  0.72186721304E+03  0.10332750411E+04  0.25500000920E-02 0.  1.
       -2    1    3    3    0  502 -0.66911471272E+03 -0.31440505487E+03 -0.69823525530E+03  0.10169058506E+04  0.25500000920E-02 0. -1.
</event>
<event>
 5   0  0.3279789E-05  0.2103629E+04  0.7818609E-02  0.8559646E-01
        2   -1    0    0  501    0  0.00000000000E+00  0.00000000000E+00  0.92738734335E+03  0.92738734336E+03  0.25500000920E-02 0.  1.
       -2   -1    0    0    0  501  0.00000000000E+00  0.00000000000E+00 -0.11929361012E+04  0.11929361012E+04  0.25500000920E-02 0. -1.
    10030    2    1    2    0    0  0.00000000000E+00  0.00000000000E+00 -0.26554875783E+03  0.21203234445E+04  0.21036290944E+04 0.  0.
        2    1    3    3  502    0  0.19636749205E+03 -0.31042594020E+02  0.90827760498E+03  0.92978064203E+03  0.25500000920E-02 0.  1.
       -2    1    3    3    0  502 -0.19636749205E+03  0.31042594020E+02 -0.11738263628E+04  0.11905428025E+04  0.25500000920E-02 0. -1.
</event>
<event>
 5   0  0.3257130E-05  0.2099473E+04  0.7818609E-02  0.8561476E-01
       -2   -1    0    0    0  501  0.00000000000E+00  0.00000000000E+00  0.50898169297E+03  0.50898169298E+03  0.25500000920E-02 0.  1.
        2   -1    0    0  501    0  0.00000000000E+00  0.00000000000E+00 -0.21650017610E+04  0.21650017610E+04  0.25500000920E-02 0. -1.
    10030    2    1    2    0    0  0.00000000000E+00  0.00000000000E+00 -0.16560200680E+04  0.26739834540E+04  0.20994725639E+04 0.  0.
        3    1    3    3  502    0  0.83289324208E+03  0.47147837292E+03 -0.27879968520E+03  0.99686121577E+03  0.10100000352E+00 0. -1.
       -3    1    3    3    0  502 -0.83289324208E+03 -0.47147837292E+03 -0.13772203828E+04  0.16771222382E+04  0.10100000352E+00 0.  1.
</event>
<event>
 5   0  0.1435410E-05  0.2093952E+04  0.7818609E-02  0.8563912E-01
       -1   -1    0    0    0  501  0.00000000000E+00  0.00000000000E+00  0.71911739057E+03  0.71911739059E+03  0.50400001928E-02 0. -1.
        1   -1    0    0  501    0  0.00000000000E+00  0.00000000000E+00 -0.15243106999E+04  0.15243106999E+04  0.50400001928E-02 0.  1.
    10030    2    1    2    0    0  0.00000000000E+00  0.00000000000E+00 -0.80519330937E+03  0.22434280905E+04  0.20939516069E+04 0.  0.
        2    1    3    3  502    0 -0.39457345848E+03  0.89028066127E+03  0.93929227401E+01  0.97384603351E+03  0.25500000920E-02 0. -1.
       -2    1    3    3    0  502  0.39457345848E+03 -0.89028066127E+03 -0.81458623211E+03  0.12695820570E+04  0.25500000920E-02 0.  1.
</event>
<event>
 5   0  0.3130517E-05  0.2091025E+04  0.7818609E-02  0.8565207E-01
        2   -1    0    0  501    0  0.00000000000E+00  0.00000000000E+00  0.88285346458E+03  0.88285346458E+03  0.25500000920E-02 0.  1.
       -2   -1    0    0    0  501  0.00000000000E+00  0.00000000000E+00 -0.12381400445E+04  0.12381400446E+04  0.25500000920E-02 0. -1.
    10030    2    1    2    0    0  0.00000000000E+00  0.00000000000E+00 -0.35528657997E+03  0.21209935091E+04  0.20910248473E+04 0.  0.
        1    1    3    3  502    0 -0.15491636391E+03  0.48422441553E+03  0.74902765205E+03  0.90527056064E+03  0.50400001928E-02 0.  1.
       -1    1    3    3    0  502  0.15491636391E+03 -0.48422441553E+03 -0.11043142320E+04  0.12157229485E+04  0.50400001928E-02 0. -1.
</event>
<event>
 5   0  0.1466480E-05  0.2092419E+04  0.7818609E-02  0.8564590E-01
       -1   -1    0    0    0  501  0.00000000000E+00  0.00000000000E+00  0.93009157990E+03  0.93009157991E+03  0.50400001928E-02 0.  1.
        1   -1    0    0  501    0  0.00000000000E+00  0.00000000000E+00 -0.11768246040E+04  0.11768246040E+04  0.50400001928E-02 0. -1.
    10030    2    1    2    0    0  0.00000000000E+00  0.00000000000E+00 -0.24673302406E+03  0.21069161839E+04  0.20924193224E+04 0.  0.
        3    1    3    3  502    0 -0.36848663659E+03  0.64687682589E+01  0.86256508753E+03  0.93799935327E+03  0.10100000352E+00 0.  1.
       -3    1    3    3    0  502  0.36848663659E+03 -0.64687682589E+01 -0.11092981116E+04  0.11689168306E+04  0.10100000352E+00 0. -1.
</event>
<event>
 5   0  0.1466480E-05  0.2098962E+04  0.7818609E-02  0.8561701E-01
        1   -1    0    0  501    0  0.00000000000E+00  0.00000000000E+00  0.94882502745E+03  0.94882502747E+03  0.50400001928E-02 0.  1.
       -1   -1    0    0    0  501  0.00000000000E+00  0.00000000000E+00 -0.11608147565E+04  0.11608147565E+04  0.50400001928E-02 0. -1.
    10030    2    1    2    0    0  0.00000000000E+00  0.00000000000E+00 -0.21198972905E+03  0.21096397840E+04  0.20989617369E+04 0.  0.
        3    1    3    3  502    0 -0.33772530958E+03  0.52490768692E+03 -0.95398340270E+03  0.11400310554E+04  0.10100000352E+00 0. -1.
       -3    1    3    3    0  502  0.33772530958E+03 -0.52490768692E+03  0.74199367366E+03  0.96960872854E+03  0.10100000352E+00 0.  1.
</event>
<event>
 5   0  0.1492552E-05  0.2097940E+04  0.7818609E-02  0.8562151E-01
       -1   -1    0    0    0  501  0.00000000000E+00  0.00000000000E+00  0.12595331657E+04  0.12595331657E+04  0.50400001928E-02 0.  1.
        1   -1    0    0  501    0  0.00000000000E+00  0.00000000000E+00 -0.87360788178E+03  0.87360788179E+03  0.50400001928E-02 0. -1.
    10030    2    1    2    0    0  0.00000000000E+00  0.00000000000E+00  0.38592528395E+03  0.21331410475E+04  0.20979400382E+04 0.  0.
        4    1    3    3  502    0  0.81460081647E+03 -0.20047943750E+03 -0.44734166972E+03  0.95072744644E+03  0.12699999809E+01 0. -1.
       -4    1    3    3    0  502 -0.81460081647E+03  0.20047943750E+03  0.83326695367E+03  0.11824136011E+04  0.12699999809E+01 0.  1.
</event>
<event>
 5   0  0.3242231E-05  0.2095078E+04  0.7818609E-02  0.8563415E-01
       -2   -1    0    0    0  501  0.00000000000E+00  0.00000000000E+00  0.15079343922E+04  0.15079343922E+04  0.25500000920E-02 0.  1.
        2   -1    0    0  501    0  0.00000000000E+00  0.00000000000E+00 -0.72770955895E+03  0.72770955895E+03  0.25500000920E-02 0. -1.
    10030    2    1    2    0    0  0.00000000000E+00  0.00000000000E+00  0.78022483322E+03  0.22356439511E+04  0.20950783006E+04 0.  0.
        4    1    3    3  502    0 -0.91525487920E+03 -0.13635314427E+03  0.91402476754E+03  0.13006638930E+04  0.12699999809E+01 0.  1.
       -4    1    3    3    0  502  0.91525487920E+03  0.13635314427E+03 -0.13379993432E+03  0.93498005817E+03  0.12699999809E+01 0. -1.
</event>
<event>
 5   0  0.1466480E-05  0.2100286E+04  0.7818609E-02  0.8561117E-01
        1   -1    0    0  501    0  0.00000000000E+00  0.00000000000E+00  0.22635610707E+04  0.22635610707E+04  0.50400001928E-02 0.  1.
       -1   -1    0    0    0  501  0.00000000000E+00  0.00000000000E+00 -0.48719707805E+03  0.48719707807E+03  0.50400001928E-02 0. -1.
    10030    2    1    2    0    0  0.00000000000E+00  0.00000000000E+00  0.17763639927E+04  0.27507581488E+04  0.21002860183E+04 0.  0.
        3    1    3    3  502    0 -0.51959350728E+03 -0.39319418596E+03 -0.19041613367E+03  0.67885005328E+03  0.10100000352E+00 0. -1.
       -3    1    3    3    0  502  0.51959350728E+03  0.39319418596E+03  0.19667801264E+04  0.20719080955E+04  0.10100000352E+00 0.  1.
</event>
<event>
 5   0  0.3108326E-05  0.2111080E+04  0.7818609E-02  0.8556378E-01
        2   -1    0    0  501    0  0.00000000000E+00  0.00000000000E+00  0.13003457640E+04  0.13003457640E+04  0.25500000920E-02 0. -1.
       -2   -1    0    0    0  501  0.00000000000E+00  0.00000000000E+00 -0.85682156142E+03  0.85682156142E+03  0.25500000920E-02 0.  1.
    10030    2    1    2    0    0  0.00000000000E+00  0.00000000000E+00  0.44352420254E+03  0.21571673254E+04  0.21110796175E+04 0.  0.
        5    1    3    3  502    0 -0.33689273363E+03 -0.11403203696E+03  0.12372600141E+04  0.12873750238E+04  0.46999998093E+01 0. -1.
       -5    1    3    3    0  502  0.33689273363E+03  0.11403203696E+03 -0.79373581153E+03  0.86979230161E+03  0.46999998093E+01 0.  1.
</event>
<event>
 5   0  0.1466480E-05  0.2093858E+04  0.7818609E-02  0.8563954E-01
        1   -1    0    0  501    0  0.00000000000E+00  0.00000000000E+00  0.19290130809E+04  0.19290130809E+04  0.50400001928E-02 0.  1.
       -1   -1    0    0    0  501  0.00000000000E+00  0.00000000000E+00 -0.56819737929E+03  0.56819737931E+03  0.50400001928E-02 0. -1.
    10030    2    1    2    0    0  0.00000000000E+00  0.00000000000E+00  0.13608157016E+04  0.24972104602E+04  0.20938578531E+04 0.  0.
        3    1    3    3  502    0  0.22057640595E+03  0.10093926945E+04  0.88186313228E+03  0.13583851283E+04  0.10100000352E+00 0. -1.
       -3    1    3    3    0  502 -0.22057640595E+03 -0.10093926945E+04  0.47895256933E+03  0.11388253319E+04  0.10100000352E+00 0.  1.
</event>
<event>
 5   0  0.3130517E-05  0.2098251E+04  0.7818609E-02  0.8562014E-01
       -2   -1    0    0    0  501  0.00000000000E+00  0.00000000000E+00  0.62659140238E+03  0.62659140238E+03  0.25500000920E-02 0.  1.
        2   -1    0    0  501    0  0.00000000000E+00  0.00000000000E+00 -0.17565902627E+04  0.17565902627E+04  0.25500000920E-02 0. -1.
    10030    2    1    2    0    0  0.00000000000E+00  0.00000000000E+00 -0.11299988603E+04  0.23831816651E+04  0.20982510394E+04 0.  0.
        1    1    3    3  502    0  0.30352967761E+02  0.38856098454E+03  0.54131522848E+03  0.66702557520E+03  0.50400001928E-02 0.  1.
       -1    1    3    3    0  502 -0.30352967761E+02 -0.38856098454E+03 -0.16713140888E+04  0.17161560899E+04  0.50400001928E-02 0. -1.
</event>
<event>
 5   0  0.1466480E-05  0.2080263E+04  0.7818609E-02  0.8569988E-01
       -1   -1    0    0    0  501  0.00000000000E+00  0.00000000000E+00  0.17319522194E+04  0.17319522194E+04  0.50400001928E-02 0.  1.
        1   -1    0    0  501    0  0.00000000000E+00  0.00000000000E+00 -0.62465565301E+03  0.62465565303E+03  0.50400001928E-02 0. -1.
    10030    2    1    2    0    0  0.00000000000E+00  0.00000000000E+00  0.11072965664E+04  0.23566078724E+04  0.20802631993E+04 0.  0.
        3    1    3    3  502    0  0.48171508771E+03 -0.58532599319E+03  0.13604490025E+04  0.15573944403E+04  0.10100000352E+00 0.  1.
       -3    1    3    3    0  502 -0.48171508771E+03  0.58532599319E+03 -0.25315243610E+03  0.79921343216E+03  0.10100000352E+00 0. -1.
</event>
<event>
 5   0  0.3108326E-05  0.2098995E+04  0.7818609E-02  0.8561686E-01
        2   -1    0    0  501    0  0.00000000000E+00  0.00000000000E+00  0.29740616999E+04  0.29740616999E+04  0.25500000920E-02 0.  1.
       -2   -1    0    0    0  501  0.00000000000E+00  0.00000000000E+00 -0.37035025675E+03  0.37035025676E+03  0.25500000920E-02 0. -1.
    10030    2    1    2    0    0  0.00000000000E+00  0.00000000000E+00  0.26037114432E+04  0.33444119567E+04  0.20989945347E+04 0.  0.
        5    1    3    3  502    0 -0.40611728534E+03  0.40479196989E+03 -0.98684372323E+02  0.58184919325E+03  0.46999998093E+01 0. -1.
       -5    1    3    3    0  502  0.40611728534E+03 -0.40479196989E+03  0.27023958155E+04  0.27625627634E+04  0.46999998093E+01 0.  1.
</event>
<event>
 5   0  0.3257130E-05  0.2092730E+04  0.7818609E-02  0.8564453E-01
       -2   -1    0    0    0  501  0.00000000000E+00  0.00000000000E+00  0.14685687560E+04  0.14685687560E+04  0.25500000920E-02 0.  1.
        2   -1    0    0  501    0  0.00000000000E+00  0.00000000000E+00 -0.74554191404E+03  0.74554191405E+03  0.25500000920E-02 0. -1.
    10030    2    1    2    0    0  0.00000000000E+00  0.00000000000E+00  0.72302684200E+03  0.22141106701E+04  0.20927298548E+04 0.  0.
        3    1    3    3  502    0 -0.26645163496E+03  0.59207523064E+03 -0.50664730806E+03  0.82355391899E+03  0.10100000352E+00 0. -1.
       -3    1    3    3    0  502  0.26645163496E+03 -0.59207523064E+03  0.12296741501E+04  0.13905567511E+04  0.10100000352E+00 0.  1.
</event>
<event>
 5   0  0.3257130E-05  0.2097852E+04  0.7818609E-02  0.8562190E-01
        2   -1    0    0  501    0  0.00000000000E+00  0.00000000000E+00  0.13882206643E+04  0.13882206643E+04  0.25500000920E-02 0. -1.
       -2   -1    0    0    0  501  0.00000000000E+00  0.00000000000E+00 -0.79255825854E+03  0.79255825854E+03  0.25500000920E-02 0.  1.
    10030    2    1    2    0    0  0.00000000000E+00  0.00000000000E+00  0.59566240571E+03  0.21807789228E+04  0.20978519987E+04 0.  0.
        3    1    3    3  502    0 -0.40845945424E+03 -0.34640185944E+03  0.12353763300E+04  0.13464724509E+04  0.10100000352E+00 0. -1.
       -3    1    3    3    0  502  0.40845945424E+03  0.34640185944E+03 -0.63971392429E+03  0.83430647194E+03  0.10100000352E+00 0.  1.
</event>
<event>
 5   0  0.1513292E-05  0.2062475E+04  0.7818609E-02  0.8577956E-01
        1   -1    0    0  501    0  0.00000000000E+00  0.00000000000E+00  0.14913824307E+04  0.14913824308E+04  0.50400001928E-02 0. -1.
       -1   -1    0    0    0  501  0.00000000000E+00  0.00000000000E+00 -0.71306383972E+03  0.71306383974E+03  0.50400001928E-02 0.  1.
    10030    2    1    2    0    0  0.00000000000E+00  0.00000000000E+00  0.77831859102E+03  0.22044462705E+04  0.20624750981E+04 0.  0.
        1    1    3    3  502    0  0.26551542369E+03 -0.96568015905E+02 -0.67088994332E+03  0.72795407684E+03  0.50400001928E-02 0.  1.
       -1    1    3    3    0  502 -0.26551542369E+03  0.96568015905E+02  0.14492085343E+04  0.14764921937E+04  0.50400001928E-02 0. -1.
</event>
<event>
 5   0  0.1492552E-05  0.2091084E+04  0.7818609E-02  0.8565181E-01
        1   -1    0    0  501    0  0.00000000000E+00  0.00000000000E+00  0.17532699267E+04  0.17532699267E+04  0.50400001928E-02 0. -1.
       -1   -1    0    0    0  501  0.00000000000E+00  0.00000000000E+00 -0.62349679487E+03  0.62349679489E+03  0.50400001928E-02 0.  1.
    10030    2    1    2    0    0  0.00000000000E+00  0.00000000000E+00  0.11297731318E+04  0.23767667216E+04  0.20910841015E+04 0.  0.
        4    1    3    3  502    0  0.17451463092E+02  0.10069177682E+04  0.24548110541E+03  0.10365570565E+04  0.12699999809E+01 0.  1.
       -4    1    3    3    0  502 -0.17451463092E+02 -0.10069177682E+04  0.88429202640E+03  0.13402096650E+04  0.12699999809E+01 0. -1.
</event>
<event>
 5   0  0.1513292E-05  0.2099408E+04  0.7818609E-02  0.8561504E-01
       -1   -1    0    0    0  501  0.00000000000E+00  0.00000000000E+00  0.78851678207E+03  0.78851678208E+03  0.50400001928E-02 0. -1.
        1   -1    0    0  501    0  0.00000000000E+00  0.00000000000E+00 -0.13974059127E+04  0.13974059127E+04  0.50400001928E-02 0.  1.
    10030    2    1    2    0    0  0.00000000000E+00  0.00000000000E+00 -0.60888913065E+03  0.21859226948E+04  0.20994075484E+04 0.  0.
        1    1    3    3  502    0 -0.65648022555E+03  0.80144030940E+03 -0.48054491414E+03  0.11420141289E+04  0.50400001928E-02 0. -1.
       -1    1    3    3    0  502  0.65648022555E+03 -0.80144030940E+03 -0.12834421651E+03  0.10439085659E+04  0.50400001928E-02 0.  1.
</event>
<event>
 5   0  0.1129987E-05  0.2089032E+04  0.7818609E-02  0.8566090E-01
        3   -1    0    0  501    0  0.00000000000E+00  0.00000000000E+00  0.96884903771E+03  0.96884904297E+03  0.10100000352E+00 0. -1.
       -3   -1    0    0    0  501  0.00000000000E+00  0.00000000000E+00 -0.11260922276E+04  0.11260922321E+04  0.10100000352E+00 0.  1.
    10030    2    1    2    0    0  0.00000000000E+00  0.00000000000E+00 -0.15724318992E+03  0.20949412751E+04  0.20890317196E+04 0.  0.
        2    1    3    3  502    0  0.42515111370E+03 -0.94528536749E+03 -0.20819812641E+03  0.10571964601E+04  0.25500000920E-02 0.  1.
       -2    1    3    3    0  502 -0.42515111370E+03  0.94528536749E+03  0.50954936496E+02  0.10377448150E+04  0.25500000920E-02 0. -1.
</event>
<event>
 5   0  0.1466480E-05  0.2103996E+04  0.7818609E-02  0.8559485E-01
       -1   -1    0    0    0  501  0.00000000000E+00  0.00000000000E+00  0.16008768317E+04  0.16008768317E+04  0.50400001928E-02 0. -1.
        1   -1    0    0  501    0  0.00000000000E+00  0.00000000000E+00 -0.69130855172E+03  0.69130855173E+03  0.50400001928E-02 0.  1.
    10030    2    1    2    0    0  0.00000000000E+00  0.00000000000E+00  0.90956828001E+03  0.22921853835E+04  0.21039960495E+04 0.  0.
        3    1    3    3  502    0  0.62708327401E+03  0.15514152259E+03 -0.44978063937E+03  0.78714989572E+03  0.10100000352E+00 0.  1.
       -3    1    3    3    0  502 -0.62708327401E+03 -0.15514152259E+03  0.13593489194E+04  0.15050354877E+04  0.10100000352E+00 0. -1.
</event>
<event>
 5   0  0.1492552E-05  0.2088457E+04  0.7818609E-02  0.8566345E-01
        1   -1    0    0  501    0  0.00000000000E+00  0.00000000000E+00  0.92653827184E+03  0.92653827185E+03  0.50400001928E-02 0. -1.
       -1   -1    0    0    0  501  0.00000000000E+00  0.00000000000E+00 -0.11768674818E+04  0.11768674818E+04  0.50400001928E-02 0.  1.
    10030    2    1    2    0    0  0.00000000000E+00  0.00000000000E+00 -0.25032920995E+03  0.21034057536E+04  0.20884566194E+04 0.  0.
        4    1    3    3  502    0  0.32171856090E+03 -0.92247627753E+03  0.24618293556E+03  0.10075082956E+04  0.12699999809E+01 0.  1.
       -4    1    3    3    0  502 -0.32171856090E+03  0.92247627753E+03 -0.49651214551E+03  0.10958974581E+04  0.12699999809E+01 0. -1.
</event>
<event>
 5   0  0.1435410E-05  0.2088856E+04  0.7818609E-02  0.8566168E-01
       -1   -1    0    0    0  501  0.00000000000E+00  0.00000000000E+00  0.69876959460E+03  0.69876959462E+03  0.50400001928E-02 0.  1.
        1   -1    0    0  501    0  0.00000000000E+00  0.00000000000E+00 -0.15610717742E+04  0.15610717742E+04  0.50400001928E-02 0. -1.
    10030    2    1    2    0    0  0.00000000000E+00  0.00000000000E+00 -0.86230217960E+03  0.22598413688E+04  0.20888556588E+04 0.  0.
        2    1    3    3  502    0  0.82815855670E+03  0.32724892456E+03  0.15931946022E+03  0.90461104574E+03  0.25500000920E-02 0.  1.
       -2    1    3    3    0  502 -0.82815855670E+03 -0.32724892456E+03 -0.10216216398E+04  0.13552303231E+04  0.25500000920E-02 0. -1.
</event>
<event>
 5   0  0.3279789E-05  0.2101607E+04  0.7818609E-02  0.8560536E-01
        2   -1    0    0  501    0  0.00000000000E+00  0.00000000000E+00  0.86997009935E+03  0.86997009935E+03  0.25500000920E-02 0.  1.
       -2   -1    0    0    0  501  0.00000000000E+00  0.00000000000E+00 -0.12692247900E+04  0.12692247900E+04  0.25500000920E-02 0. -1.
    10030    2    1    2    0    0  0.00000000000E+00  0.00000000000E+00 -0.39925469068E+03  0.21391948894E+04  0.21016066394E+04 0.  0.
        2    1    3    3  502    0 -0.53716218439E+03  0.29350994654E+03 -0.10690090006E+04  0.12318569497E+04  0.25500000920E-02 0. -1.
       -2    1    3    3    0  502  0.53716218439E+03 -0.29350994654E+03  0.66975430996E+03  0.90733793968E+03  0.25500000920E-02 0.  1.
</event>
<event>
 5   0  0.1453430E-05  0.2091197E+04  0.7818609E-02  0.8565131E-01
        1   -1    0    0  501    0  0.00000000000E+00  0.00000000000E+00  0.11629524509E+04  0.11629524510E+04  0.50400001928E-02 0. -1.
       -1   -1    0    0    0  501  0.00000000000E+00  0.00000000000E+00 -0.94008705053E+03  0.94008705055E+03  0.50400001928E-02 0.  1.
    10030    2    1    2    0    0  0.00000000000E+00  0.00000000000E+00  0.22286540041E+03  0.21030395015E+04  0.20911973025E+04 0.  0.
        5    1    3    3  502    0  0.54117634444E+02  0.64483619414E+03  0.93737035235E+03  0.11390468397E+04  0.46999998093E+01 0. -1.
       -5    1    3    3    0  502 -0.54117634444E+02 -0.64483619414E+03 -0.71450495193E+03  0.96399266178E+03  0.46999998093E+01 0.  1.
</event>
<event>
 5   0  0.1466480E-05  0.2092447E+04  0.7818609E-02  0.8564578E-01
        1   -1    0    0  501    0  0.00000000000E+00  0.00000000000E+00  0.15455700462E+04  0.15455700462E+04  0.50400001928E-02 0. -1.
       -1   -1    0    0    0  501  0.00000000000E+00  0.00000000000E+00 -0.70820707797E+03  0.70820707798E+03  0.50400001928E-02 0.  1.
    10030    2    1    2    0    0  0.00000000000E+00  0.00000000000E+00  0.83736296825E+03  0.22537771242E+04  0.20924470328E+04 0.  0.
        3    1    3    3  502    0  0.16873937856E+03  0.43549617777E+03 -0.58969101267E+03  0.75224025374E+03  0.10100000352E+00 0.  1.
       -3    1    3    3    0  502 -0.16873937856E+03 -0.43549617777E+03  0.14270539809E+04  0.15015368705E+04  0.10100000352E+00 0. -1.
</event>
<event>
 5   0  0.3279789E-05  0.2102159E+04  0.7818609E-02  0.8560293E-01
       -2   -1    0    0    0  501  0.00000000000E+00  0.00000000000E+00  0.76979432528E+03  0.76979432528E+03  0.25500000920E-02 0.  1.
        2   -1    0    0  501    0  0.00000000000E+00  0.00000000000E+00 -0.14351472903E+04  0.14351472903E+04  0.25500000920E-02 0. -1.
    10030    2    1    2    0    0  0.00000000000E+00  0.00000000000E+00 -0.66535296501E+03  0.22049416156E+04  0.21021591186E+04 0.  0.
        2    1    3    3  502    0 -0.20438508104E+03  0.42861641997E+03  0.65087213581E+03  0.80567973413E+03  0.25500000920E-02 0.  1.
       -2    1    3    3    0  502  0.20438508104E+03 -0.42861641997E+03 -0.13162251008E+04  0.13992618814E+04  0.25500000920E-02 0. -1.
</event>
<event>
 5   0  0.1435410E-05  0.2098298E+04  0.7818609E-02  0.8561993E-01
       -1   -1    0    0    0  501  0.00000000000E+00  0.00000000000E+00  0.47342839631E+03  0.47342839634E+03  0.50400001928E-02 0.  1.
        1   -1    0    0  501    0  0.00000000000E+00  0.00000000000E+00 -0.23249848514E+04  0.23249848514E+04  0.50400001928E-02 0. -1.
    10030    2    1    2    0    0  0.00000000000E+00  0.00000000000E+00 -0.18515564551E+04  0.27984132478E+04  0.20982982149E+04 0.  0.
        2    1    3    3  502    0  0.62772295716E+03 -0.43862997343E+03 -0.18821903709E+04  0.20320120465E+04  0.25500000920E-02 0. -1.
       -2    1    3    3    0  502 -0.62772295716E+03  0.43862997343E+03  0.30633915827E+02  0.76640120129E+03  0.25500000920E-02 0.  1.
</event>
<event>
 5   0  0.1453430E-05  0.2102282E+04  0.7818609E-02  0.8560239E-01
       -1   -1    0    0    0  501  0.00000000000E+00  0.00000000000E+00  0.55970318216E+03  0.55970318219E+03  0.50400001928E-02 0. -1.
        1   -1    0    0  501    0  0.00000000000E+00  0.00000000000E+00 -0.19740769436E+04  0.19740769436E+04  0.50400001928E-02 0.  1.
    10030    2    1    2    0    0  0.00000000000E+00  0.00000000000E+00 -0.14143737615E+04  0.25337801258E+04  0.21022817577E+04 0.  0.
        5    1    3    3  502    0 -0.93913095729E+03 -0.42906286869E+03 -0.94463431871E+03  0.13994348811E+04  0.46999998093E+01 0.  1.
       -5    1    3    3    0  502  0.93913095729E+03  0.42906286869E+03 -0.46973944276E+03  0.11343452448E+04  0.46999998093E+01 0. -1.
</event>
<event>
 5   0  0.3130517E-05  0.2122472E+04  0.7818609E-02  0.8551408E-01
        2   -1    0    0  501    0  0.00000000000E+00  0.00000000000E+00  0.18381345389E+04  0.18381345390E+04  0.25500000920E-02 0.  1.
       -2   -1    0    0    0  501  0.00000000000E+00  0.00000000000E+00 -0.61269818457E+03  0.61269818458E+03  0.25500000920E-02 0. -1.
    10030    2    1    2    0    0  0.00000000000E+00  0.00000000000E+00  0.12254363544E+04  0.24508327235E+04  0.21224718561E+04 0.  0.
        1    1    3    3  502    0 -0.12756790671E+03  0.10223507400E+04  0.90653851412E+03  0.13723289271E+04  0.50400001928E-02 0.  1.
       -1    1    3    3    0  502  0.12756790671E+03 -0.10223507400E+04  0.31889784025E+03  0.10785037965E+04  0.50400001928E-02 0. -1.
</event>
<event>
 5   0  0.3279789E-05  0.2102451E+04  0.7818609E-02  0.8560164E-01
       -2   -1    0    0    0  501  0.00000000000E+00  0.00000000000E+00  0.43933211585E+03  0.43933211586E+03  0.25500000920E-02 0. -1.
        2   -1    0    0  501    0  0.00000000000E+00  0.00000000000E+00 -0.25153533374E+04  0.25153533374E+04  0.25500000920E-02 0.  1.
    10030    2    1    2    0    0  0.00000000000E+00  0.00000000000E+00 -0.20760212216E+04  0.29546854533E+04  0.21024514300E+04 0.  0.
        2    1    3    3  502    0  0.55389903437E+03 -0.68233647302E+03 -0.18486058468E+04  0.20468831866E+04  0.25500000920E-02 0.  1.
       -2    1    3    3    0  502 -0.55389903437E+03  0.68233647302E+03 -0.22741537473E+03  0.90780226666E+03  0.25500000920E-02 0. -1.
</event>
<event>
 5   0  0.3242231E-05  0.2100860E+04  0.7818609E-02  0.8560864E-01
        2   -1    0    0  501    0  0.00000000000E+00  0.00000000000E+00  0.19983958183E+04  0.19983958183E+04  0.25500000920E-02 0. -1.
       -2   -1    0    0    0  501  0.00000000000E+00  0.00000000000E+00 -0.55214467176E+03  0.55214467176E+03  0.25500000920E-02 0.  1.
    10030    2    1    2    0    0  0.00000000000E+00  0.00000000000E+00  0.14462511465E+04  0.25505404900E+04  0.21008603982E+04 0.  0.
        4    1    3    3  502    0 -0.74378595929E+02  0.70485322810E+03  0.16643451632E+04  0.18089766953E+04  0.12699999809E+01 0. -1.
       -4    1    3    3    0  502  0.74378595929E+02 -0.70485322810E+03 -0.21809401672E+03  0.74156379478E+03  0.12699999809E+01 0.  1.
</event>
<event>
 5   0  0.3108326E-05  0.2135583E+04  0.7818609E-02  0.8545729E-01
       -2   -1    0    0    0  501  0.00000000000E+00  0.00000000000E+00  0.11169411860E+04  0.11169411860E+04  0.25500000920E-02 0.  1.
        2   -1    0    0  501    0  0.00000000000E+00  0.00000000000E+00 -0.10208047513E+04  0.10208047513E+04  0.25500000920E-02 0. -1.
    10030    2    1    2    0    0  0.00000000000E+00  0.00000000000E+00  0.96136434709E+02  0.21377459372E+04  0.21355831705E+04 0.  0.
        5    1    3    3  502    0 -0.59116326570E+03  0.37794996617E+03  0.85376631588E+03  0.11051059659E+04  0.46999998093E+01 0.  1.
       -5    1    3    3    0  502  0.59116326570E+03 -0.37794996617E+03 -0.75762988117E+03  0.10326399714E+04  0.46999998093E+01 0. -1.
</event>
<event>
 5   0  0.3242231E-05  0.2108264E+04  0.7818609E-02  0.8557612E-01
       -2   -1    0    0    0  501  0.00000000000E+00  0.00000000000E+00  0.66432640140E+03  0.66432640140E+03  0.25500000920E-02 0.  1.
        2   -1    0    0  501    0  0.00000000000E+00  0.00000000000E+00 -0.16726635795E+04  0.16726635795E+04  0.25500000920E-02 0. -1.
    10030    2    1    2    0    0  0.00000000000E+00  0.00000000000E+00 -0.10083371781E+04  0.23369899809E+04  0.21082642875E+04 0.  0.
        4    1    3    3  502    0  0.32693546169E+03 -0.34509018769E+03 -0.15471033544E+04  0.16184883181E+04  0.12699999809E+01 0. -1.
       -4    1    3    3    0  502 -0.32693546169E+03  0.34509018769E+03  0.53876617633E+03  0.71850166277E+03  0.12699999809E+01 0.  1.
</event>
<event>
 5   0  0.3130517E-05  0.2103753E+04  0.7818609E-02  0.8559592E-01
        2   -1    0    0  501    0  0.00000000000E+00  0.00000000000E+00  0.17836178662E+04  0.17836178662E+04  0.25500000920E-02 0. -1.
       -2   -1    0    0    0  501  0.00000000000E+00  0.00000000000E+00 -0.62033712852E+03  0.62033712852E+03  0.25500000920E-02 0.  1.
    10030    2    1    2    0    0  0.00000000000E+00  0.00000000000E+00  0.11632807377E+04  0.24039549947E+04  0.21037532037E+04 0.  0.
        1    1    3    3  502    0 -0.22043727216E+03  0.17639870593E+03  0.17395129970E+04  0.17622753931E+04  0.50400001928E-02 0.  1.
       -1    1    3    3    0  502  0.22043727216E+03 -0.17639870593E+03 -0.57623225932E+03  0.64167960161E+03  0.50400001928E-02 0. -1.
</event>
<event>
 5   0  0.1435410E-05  0.2101919E+04  0.7818609E-02  0.8560398E-01
        1   -1    0    0  501    0  0.00000000000E+00  0.00000000000E+00  0.26254862490E+04  0.26254862490E+04  0.50400001928E-02 0. -1.
       -1   -1    0    0    0  501  0.00000000000E+00  0.00000000000E+00 -0.42069007323E+03  0.42069007326E+03  0.50400001928E-02 0.  1.
    10030    2    1    2    0    0  0.00000000000E+00  0.00000000000E+00  0.22047961758E+04  0.30461763223E+04  0.21019191254E+04 0.  0.
        2    1    3    3  502    0 -0.14936582495E+03  0.14871999211E+03 -0.38974351687E+03  0.44308892411E+03  0.25500000920E-02 0.  1.
       -2    1    3    3    0  502  0.14936582495E+03 -0.14871999211E+03  0.25945396926E+04  0.26030873982E+04  0.25500000920E-02 0. -1.
</event>
<event>
 5   0  0.3279789E-05  0.2105717E+04  0.7818609E-02  0.8558729E-01
       -2   -1    0    0    0  501  0.00000000000E+00  0.00000000000E+00  0.80466476398E+03  0.80466476399E+03  0.25500000920E-02 0. -1.
        2   -1    0    0  501    0  0.00000000000E+00  0.00000000000E+00 -0.13776056438E+04  0.13776056438E+04  0.25500000920E-02 0.  1.
    10030    2    1    2    0    0  0.00000000000E+00  0.00000000000E+00 -0.57294087979E+03  0.21822704078E+04  0.21057167143E+04 0.  0.
        2    1    3    3  502    0  0.92416915256E+03  0.42881314929E+03 -0.11218367845E+02  0.10188695654E+04  0.25500000920E-02 0. -1.
       -2    1    3    3    0  502 -0.92416915256E+03 -0.42881314929E+03 -0.56172251195E+03  0.11634008423E+04  0.25500000920E-02 0.  1.
</event>
<event>
 5   0  0.3257130E-05  0.2098371E+04  0.7818609E-02  0.8561961E-01
       -2   -1    0    0    0  501  0.00000000000E+00  0.00000000000E+00  0.87986096573E+03  0.87986096573E+03  0.25500000920E-02 0. -1.
        2   -1    0    0  501    0  0.00000000000E+00  0.00000000000E+00 -0.12510952337E+04  0.12510952337E+04  0.25500000920E-02 0.  1.
    10030    2    1    2    0    0  0.00000000000E+00  0.00000000000E+00 -0.37123426798E+03  0.21309561994E+04  0.20983706637E+04 0.  0.
        3    1    3    3  502    0  0.88471768233E+03 -0.11515143442E+03  0.37504740669E+03  0.96780462788E+03  0.10100000352E+00 0. -1.
       -3    1    3    3    0  502 -0.88471768233E+03  0.11515143442E+03 -0.74628167468E+03  0.11631515716E+04  0.10100000352E+00 0.  1.
</event>
<event>
 5   0  0.1129987E-05  0.2101390E+04  0.7818609E-02  0.8560631E-01
        4   -1    0    0  501    0  0.00000000000E+00  0.00000000000E+00  0.93992779974E+03  0.93992865773E+03  0.12699999809E+01 0. -1.
       -4   -1    0    0    0  501  0.00000000000E+00  0.00000000000E+00 -0.11745143105E+04  0.11745149972E+04  0.12699999809E+01 0.  1.
    10030    2    1    2    0    0  0.00000000000E+00  0.00000000000E+00 -0.23458651081E+03  0.21144436549E+04  0.21013902871E+04 0.  0.
        2    1    3    3  502    0  0.53802016303E+03 -0.63932548248E+03 -0.75824108739E+03  0.11283316511E+04  0.25500000920E-02 0.  1.
       -2    1    3    3    0  502 -0.53802016303E+03  0.63932548248E+03  0.52365457658E+03  0.98611200375E+03  0.25500000920E-02 0. -1.
</event>
<event>
 5   0  0.3130517E-05  0.2089276E+04  0.7818609E-02  0.8565982E-01
       -2   -1    0    0    0  501  0.00000000000E+00  0.00000000000E+00  0.47743534019E+03  0.47743534020E+03  0.25500000920E-02 0.  1.
        2   -1    0    0  501    0  0.00000000000E+00  0.00000000000E+00 -0.22856876956E+04  0.22856876956E+04  0.25500000920E-02 0. -1.
    10030    2    1    2    0    0  0.00000000000E+00  0.00000000000E+00 -0.18082523554E+04  0.27631230358E+04  0.20892755515E+04 0.  0.
        1    1    3    3  502    0 -0.14797765869E+03 -0.68764441968E+03  0.11732001535E+03  0.71310323335E+03  0.50400001928E-02 0.  1.
       -1    1    3    3    0  502  0.14797765869E+03  0.68764441968E+03 -0.19255723708E+04  0.20500198025E+04  0.50400001928E-02 0. -1.
</event>
<event>
 5   0  0.1513292E-05  0.2097173E+04  0.7818609E-02  0.8562490E-01
       -1   -1    0    0    0  501  0.00000000000E+00  0.00000000000E+00  0.51896808870E+03  0.51896808872E+03  0.50400001928E-02 0. -1.
        1   -1    0    0  501    0  0.00000000000E+00  0.00000000000E+00 -0.21186922519E+04  0.21186922519E+04  0.50400001928E-02 0.  1.
    10030    2    1    2    0    0  0.00000000000E+00  0.00000000000E+00 -0.15997241632E+04  0.26376603406E+04  0.20971730196E+04 0.  0.
        1    1    3    3  502    0 -0.44108074736E+03  0.82468926838E+03 -0.20344585120E+03  0.95710753287E+03  0.50400001928E-02 0. -1.
       -1    1    3    3    0  502  0.44108074736E+03 -0.82468926838E+03 -0.13962783120E+04  0.16805528078E+04  0.50400001928E-02 0.  1.
</event>
<event>
 5   0  0.3279789E-05  0.2086705E+04  0.7818609E-02  0.8567123E-01
        2   -1    0    0  501    0  0.00000000000E+00  0.00000000000E+00  0.12808377511E+04  0.12808377511E+04  0.25500000920E-02 0.  1.
       -2   -1    0    0    0  501  0.00000000000E+00  0.00000000000E+00 -0.84990047126E+03  0.84990047126E+03  0.25500000920E-02 0. -1.
    10030    2    1    2    0    0  0.00000000000E+00  0.00000000000E+00  0.43093727981E+03  0.21307382223E+04  0.20867051620E+04 0.  0.
        2    1    3    3  502    0 -0.96928099676E+03  0.34396746148E+03  0.39457041359E+03  0.11015920645E+04  0.25500000920E-02 0.  1.
       -2    1    3    3    0  502  0.96928099676E+03 -0.34396746148E+03  0.36366866215E+02  0.10291461578E+04  0.25500000920E-02 0. -1.
</event>
<event>
 5   0  0.1453430E-05  0.2098486E+04  0.7818609E-02  0.8561910E-01
        1   -1    0    0  501    0  0.00000000000E+00  0.00000000000E+00  0.12740799984E+04  0.12740799985E+04  0.50400001928E-02 0. -1.
       -1   -1    0    0    0  501  0.00000000000E+00  0.00000000000E+00 -0.86408329902E+03  0.86408329903E+03  0.50400001928E-02 0.  1.
    10030    2    1    2    0    0  0.00000000000E+00  0.00000000000E+00  0.40999669942E+03  0.21381632975E+04  0.20984863576E+04 0.  0.
        5    1    3    3  502    0 -0.99120294415E+03  0.33912787252E+03  0.26439434111E+03  0.10804709381E+04  0.46999998093E+01 0.  1.
       -5    1    3    3    0  502  0.99120294415E+03 -0.33912787252E+03  0.14560235831E+03  0.10576923594E+04  0.46999998093E+01 0. -1.
</event>
<event>
 5   0  0.3108326E-05  0.2095399E+04  0.7818609E-02  0.8563273E-01
        2   -1    0    0  501    0  0.00000000000E+00  0.00000000000E+00  0.24062023201E+04  0.24062023201E+04  0.25500000920E-02 0. -1.
       -2   -1    0    0    0  501  0.00000000000E+00  0.00000000000E+00 -0.45618552965E+03  0.45618552966E+03  0.25500000920E-02 0.  1.
    10030    2    1    2    0    0  0.00000000000E+00  0.00000000000E+00  0.19500167905E+04  0.28623878498E+04  0.20953994177E+04 0.  0.
        5    1    3    3  502    0  0.48764524416E+03 -0.44085878585E+03 -0.13937623963E+03  0.67201352619E+03  0.46999998093E+01 0.  1.
       -5    1    3    3    0  502 -0.48764524416E+03  0.44085878585E+03  0.20893930301E+04  0.21903743236E+04  0.46999998093E+01 0. -1.
</event>
<event>
 5   0  0.1492552E-05  0.2094804E+04  0.7818609E-02  0.8563536E-01
        1   -1    0    0  501    0  0.00000000000E+00  0.00000000000E+00  0.19965130338E+04  0.19965130338E+04  0.50400001928E-02 0.  1.
       -1   -1    0    0    0  501  0.00000000000E+00  0.00000000000E+00 -0.54948354345E+03  0.54948354347E+03  0.50400001928E-02 0. -1.
    10030    2    1    2    0    0  0.00000000000E+00  0.00000000000E+00  0.14470294904E+04  0.25459965773E+04  0.20948041020E+04 0.  0.
        4    1    3    3  502    0  0.94044118719E+03 -0.46010833691E+03  0.68664753818E+03  0.12520446329E+04  0.12699999809E+01 0. -1.
       -4    1    3    3    0  502 -0.94044118719E+03  0.46010833691E+03  0.76038195220E+03  0.12939519444E+04  0.12699999809E+01 0.  1.
</event>
<event>
 5   0  0.3242231E-05  0.2086339E+04  0.7818609E-02  0.8567285E-01
       -2   -1    0    0    0  501  0.00000000000E+00  0.00000000000E+00  0.10380230804E+04  0.10380230804E+04  0.25500000920E-02 0.  1.
        2   -1    0    0  501    0  0.00000000000E+00  0.00000000000E+00 -0.10483415363E+04  0.10483415363E+04  0.25500000920E-02 0. -1.
    10030    2    1    2    0    0  0.00000000000E+00  0.00000000000E+00 -0.10318455971E+02  0.20863646167E+04  0.20863391008E+04 0.  0.
        4    1    3    3  502    0  0.49442511101E+02 -0.10346099344E+04 -0.12901073150E+03  0.10437948361E+04  0.12699999809E+01 0. -1.
       -4    1    3    3    0  502 -0.49442511101E+02  0.10346099344E+04  0.11869227553E+03  0.10425697806E+04  0.12699999809E+01 0.  1.
</event>
<event>
 5   0  0.1513292E-05  0.2089194E+04  0.7818609E-02  0.8566019E-01
       -1   -1    0    0    0  501  0.00000000000E+00  0.00000000000E+00  0.10383481229E+04  0.10383481229E+04  0.50400001928E-02 0.  1.
        1   -1    0    0  501    0  0.00000000000E+00  0.00000000000E+00 -0.10508830010E+04  0.10508830010E+04  0.50400001928E-02 0. -1.
    10030    2    1    2    0    0  0.00000000000E+00  0.00000000000E+00 -0.12534878085E+02  0.20892311239E+04  0.20891935205E+04 0.  0.
        1    1    3    3  502    0 -0.79952787727E+03 -0.66784042007E+03 -0.83254136753E+02  0.10450774634E+04  0.50400001928E-02 0. -1.
       -1    1    3    3    0  502  0.79952787727E+03  0.66784042007E+03  0.70719258668E+02  0.10441536605E+04  0.50400001928E-02 0.  1.
</event>
<event>
 5   0  0.3130517E-05  0.2100470E+04  0.7818609E-02  0.8561036E-01
        2   -1    0    0  501    0  0.00000000000E+00  0.00000000000E+00  0.20738627749E+04  0.20738627749E+04  0.25500000920E-02 0.  1.
       -2   -1    0    0    0  501  0.00000000000E+00  0.00000000000E+00 -0.53185485643E+03  0.53185485644E+03  0.25500000920E-02 0. -1.
    10030    2    1    2    0    0  0.00000000000E+00  0.00000000000E+00  0.15420079184E+04  0.26057176313E+04  0.21004704125E+04 0.  0.
        1    1    3    3  502    0 -0.57773938425E+03  0.19830300907E+03 -0.28883194930E+03  0.67567061094E+03  0.50400001928E-02 0. -1.
       -1    1    3    3    0  502  0.57773938425E+03 -0.19830300907E+03  0.18308398677E+04  0.19300470204E+04  0.50400001928E-02 0.  1.
</event>
<event>
 5   0  0.1492552E-05  0.2091603E+04  0.7818609E-02  0.8564952E-01
        1   -1    0    0  501    0  0.00000000000E+00  0.00000000000E+00  0.66339928964E+03  0.66339928966E+03  0.50400001928E-02 0.  1.
       -1   -1    0    0    0  501  0.00000000000E+00  0.00000000000E+00 -0.16486304284E+04  0.16486304284E+04  0.50400001928E-02 0. -1.
    10030    2    1    2    0    0  0.00000000000E+00  0.00000000000E+00 -0.98523113873E+03  0.23120297180E+04  0.20916025006E+04 0.  0.
        4    1    3    3  502    0 -0.69454703735E+03 -0.10602044869E+03 -0.13488892251E+04  0.15209009426E+04  0.12699999809E+01 0. -1.
       -4    1    3    3    0  502  0.69454703735E+03  0.10602044869E+03  0.36365808639E+03  0.79112877544E+03  0.12699999809E+01 0.  1.
</event>
<event>
 5   0  0.3257130E-05  0.2095635E+04  0.7818609E-02  0.8563169E-01
        2   -1    0    0  501    0  0.00000000000E+00  0.00000000000E+00  0.11180960794E+04  0.11180960794E+04  0.25500000920E-02 0. -1.
       -2   -1    0    0    0  501  0.00000000000E+00  0.00000000000E+00 -0.98195629728E+03  0.98195629729E+03  0.25500000920E-02 0.  1.
    10030    2    1    2    0    0  0.00000000000E+00  0.00000000000E+00  0.13613978211E+03  0.21000523767E+04  0.20956349741E+04 0.  0.
        3    1    3    3  502    0 -0.28004896741E+03 -0.95023256157E+03  0.41018684559E+03  0.10722045531E+04  0.10100000352E+00 0.  1.
       -3    1    3    3    0  502  0.28004896741E+03  0.95023256157E+03 -0.27404706349E+03  0.10278478236E+04  0.10100000352E+00 0. -1.
</event>
<event>
 5   0  0.1466480E-05  0.2005666E+04  0.7818609E-02  0.8603976E-01
       -1   -1    0    0    0  501  0.00000000000E+00  0.00000000000E+00  0.61186362072E+03  0.61186362074E+03  0.50400001928E-02 0.  1.
        1   -1    0    0  501    0  0.00000000000E+00  0.00000000000E+00 -0.16436238117E+04  0.16436238117E+04  0.50400001928E-02 0. -1.
    10030    2    1    2    0    0  0.00000000000E+00  0.00000000000E+00 -0.10317601910E+04  0.22554874324E+04  0.20056655918E+04 0.  0.
        3    1    3    3  502    0  0.36653152950E+03  0.26981811936E+03  0.48902843809E+03  0.66805389237E+03  0.10100000352E+00 0.  1.
       -3    1    3    3    0  502 -0.36653152950E+03 -0.26981811936E+03 -0.15207886291E+04  0.15874335401E+04  0.10100000352E+00 0. -1.
</event>
<event>
 5   0  0.3130517E-05  0.2105138E+04  0.7818609E-02  0.8558983E-01
       -2   -1    0    0    0  501  0.00000000000E+00  0.00000000000E+00  0.10988843462E+04  0.10988843462E+04  0.25500000920E-02 0. -1.
        2   -1    0    0  501    0  0.00000000000E+00  0.00000000000E+00 -0.10082061298E+04  0.10082061298E+04  0.25500000920E-02 0.  1.
    10030    2    1    2    0    0  0.00000000000E+00  0.00000000000E+00  0.90678216456E+02  0.21070904760E+04  0.21051384124E+04 0.  0.
        1    1    3    3  502    0  0.31789006445E+03 -0.81385298266E+03 -0.54213884255E+03  0.10282632421E+04  0.50400001928E-02 0.  1.
       -1    1    3    3    0  502 -0.31789006445E+03  0.81385298266E+03  0.63281705900E+03  0.10788272339E+04  0.50400001928E-02 0. -1.
</event>
<event>
 5   0  0.1492552E-05  0.2090642E+04  0.7818609E-02  0.8565377E-01
       -1   -1    0    0    0  501  0.00000000000E+00  0.00000000000E+00  0.10951330593E+04  0.10951330593E+04  0.50400001928E-02 0. -1.
        1   -1    0    0  501    0  0.00000000000E+00  0.00000000000E+00 -0.99777463051E+03  0.99777463052E+03  0.50400001928E-02 0.  1.
    10030    2    1    2    0    0  0.00000000000E+00  0.00000000000E+00  0.97358428796E+02  0.20929076898E+04  0.20906419910E+04 0.  0.
        4    1    3    3  502    0 -0.27399387220E+03 -0.85581210439E+03 -0.48594764918E+03  0.10215839323E+04  0.12699999809E+01 0.  1.
       -4    1    3    3    0  502  0.27399387220E+03  0.85581210439E+03  0.58330607798E+03  0.10713237576E+04  0.12699999809E+01 0. -1.
</event>
<event>
 5   0  0.3257130E-05  0.2084946E+04  0.7818609E-02  0.8567904E-01
        2   -1    0    0  501    0  0.00000000000E+00  0.00000000000E+00  0.17841329386E+04  0.17841329386E+04  0.25500000920E-02 0. -1.
       -2   -1    0    0    0  501  0.00000000000E+00  0.00000000000E+00 -0.60911930839E+03  0.60911930840E+03  0.25500000920E-02 0.  1.
    10030    2    1    2    0    0  0.00000000000E+00  0.00000000000E+00  0.11750136302E+04  0.23932522470E+04  0.20849458714E+04 0.  0.
        3    1    3    3  502    0 -0.15681244867E+03  0.14056472182E+02 -0.59539363275E+03  0.61585819519E+03  0.10100000352E+00 0.  1.
       -3    1    3    3    0  502  0.15681244867E+03 -0.14056472182E+02  0.17704072629E+04  0.17773940518E+04  0.10100000352E+00 0. -1.
</event>
<event>
 5   0  0.1492552E-05  0.2099343E+04  0.7818609E-02  0.8561533E-01
        1   -1    0    0  501    0  0.00000000000E+00  0.00000000000E+00  0.13199628515E+04  0.13199628515E+04  0.50400001928E-02 0.  1.
       -1   -1    0    0    0  501  0.00000000000E+00  0.00000000000E+00 -0.83472810820E+03  0.83472810821E+03  0.50400001928E-02 0. -1.
    10030    2    1    2    0    0  0.00000000000E+00  0.00000000000E+00  0.48523474326E+03  0.21546909597E+04  0.20993428438E+04 0.  0.
        4    1    3    3  502    0  0.47919707658E+03 -0.48479799928E+03  0.10618784228E+04  0.12618424371E+04  0.12699999809E+01 0.  1.
       -4    1    3    3    0  502 -0.47919707658E+03  0.48479799928E+03 -0.57664367952E+03  0.89284852261E+03  0.12699999809E+01 0. -1.
</event>
<event>
 5   0  0.1129987E-05  0.2078242E+04  0.7818609E-02  0.8570889E-01
        3   -1    0    0  501    0  0.00000000000E+00  0.00000000000E+00  0.43176399416E+03  0.43176400597E+03  0.10100000352E+00 0. -1.
       -3   -1    0    0    0  501  0.00000000000E+00  0.00000000000E+00 -0.25008390542E+04  0.25008390562E+04  0.10100000352E+00 0.  1.
    10030    2    1    2    0    0  0.00000000000E+00  0.00000000000E+00 -0.20690750600E+04  0.29326030622E+04  0.20782418330E+04 0.  0.
        2    1    3    3  502    0 -0.22540452888E+03  0.41321007921E+03  0.27270795742E+03  0.54398474358E+03  0.25500000920E-02 0. -1.
       -2    1    3    3    0  502  0.22540452888E+03 -0.41321007921E+03 -0.23417830175E+04  0.23886183186E+04  0.25500000920E-02 0.  1.
</event>
<event>
 5   0  0.1492552E-05  0.2082883E+04  0.7818609E-02  0.8568821E-01
        1   -1    0    0  501    0  0.00000000000E+00  0.00000000000E+00  0.28139505921E+04  0.28139505921E+04  0.50400001928E-02 0.  1.
       -1   -1    0    0    0  501  0.00000000000E+00  0.00000000000E+00 -0.38543677665E+03  0.38543677668E+03  0.50400001928E-02 0. -1.
    10030    2    1    2    0    0  0.00000000000E+00  0.00000000000E+00  0.24285138154E+04  0.31993873688E+04  0.20828826620E+04 0.  0.
        4    1    3    3  502    0  0.99351131405E+03 -0.19514134223E+03  0.83972316749E+03  0.13154016442E+04  0.12699999809E+01 0. -1.
       -4    1    3    3    0  502 -0.99351131405E+03  0.19514134223E+03  0.15887906480E+04  0.18839857246E+04  0.12699999809E+01 0.  1.
</event>
<event>
 5   0  0.1453430E-05  0.2099656E+04  0.7818609E-02  0.8561395E-01
        1   -1    0    0  501    0  0.00000000000E+00  0.00000000000E+00  0.14826424324E+04  0.14826424324E+04  0.50400001928E-02 0. -1.
       -1   -1    0    0    0  501  0.00000000000E+00  0.00000000000E+00 -0.74336108300E+03  0.74336108301E+03  0.50400001928E-02 0.  1.
    10030    2    1    2    0    0  0.00000000000E+00  0.00000000000E+00  0.73928134940E+03  0.22260035154E+04  0.20996558616E+04 0.  0.
        5    1    3    3  502    0 -0.72187899938E+03 -0.75802032910E+03  0.45453739543E+03  0.11411969343E+04  0.46999998093E+01 0. -1.
       -5    1    3    3    0  502  0.72187899938E+03  0.75802032910E+03  0.28474395397E+03  0.10848065811E+04  0.46999998093E+01 0.  1.
</event>
<event>
 5   0  0.3279789E-05  0.2083051E+04  0.7818609E-02  0.8568747E-01
       -2   -1    0    0    0  501  0.00000000000E+00  0.00000000000E+00  0.54016021923E+03  0.54016021924E+03  0.25500000920E-02 0.  1.
        2   -1    0    0  501    0  0.00000000000E+00  0.00000000000E+00 -0.20082469772E+04  0.20082469772E+04  0.25500000920E-02 0. -1.
    10030    2    1    2    0    0  0.00000000000E+00  0.00000000000E+00 -0.14680867580E+04  0.25484071965E+04  0.20830507699E+04 0.  0.
        2    1    3    3  502    0  0.17531248370E+03  0.27126180051E+02 -0.19896280525E+04  0.19975209846E+04  0.25500000920E-02 0. -1.
       -2    1    3    3    0  502 -0.17531248370E+03 -0.27126180051E+02  0.52154129449E+03  0.55088621189E+03  0.25500000920E-02 0.  1.
</event>
<event>
 5   0  0.3242231E-05  0.2111599E+04  0.7818609E-02  0.8556151E-01
        2   -1    0    0  501    0  0.00000000000E+00  0.00000000000E+00  0.14705674210E+04  0.14705674210E+04  0.25500000920E-02 0.  1.
       -2   -1    0    0    0  501  0.00000000000E+00  0.00000000000E+00 -0.75801560760E+03  0.75801560760E+03  0.25500000920E-02 0. -1.
    10030    2    1    2    0    0  0.00000000000E+00  0.00000000000E+00  0.71255181340E+03  0.22285830286E+04  0.21115994480E+04 0.  0.
        4    1    3    3  502    0  0.39981223037E+03 -0.97695997949E+03  0.37766757908E+03  0.11211311405E+04  0.12699999809E+01 0. -1.
       -4    1    3    3    0  502 -0.39981223037E+03  0.97695997949E+03  0.33488423432E+03  0.11074518881E+04  0.12699999809E+01 0.  1.
</event>
<event>
 5   0  0.3108326E-05  0.2090930E+04  0.7818609E-02  0.8565249E-01
       -2   -1    0    0    0  501  0.00000000000E+00  0.00000000000E+00  0.75631414058E+03  0.75631414059E+03  0.25500000920E-02 0. -1.
        2   -1    0    0  501    0  0.00000000000E+00  0.00000000000E+00 -0.14451633076E+04  0.14451633076E+04  0.25500000920E-02 0.  1.
    10030    2    1    2    0    0  0.00000000000E+00  0.00000000000E+00 -0.68884916702E+03  0.22014774482E+04  0.20909303623E+04 0.  0.
        5    1    3    3  502    0  0.22439814669E+03 -0.37975829436E+03  0.65352964489E+03  0.78847573020E+03  0.46999998093E+01 0. -1.
       -5    1    3    3    0  502 -0.22439814669E+03  0.37975829436E+03 -0.13423788119E+04  0.14130017180E+04  0.46999998093E+01 0.  1.
</event>
<event>
 5   0  0.3108326E-05  0.2099632E+04  0.7818609E-02  0.8561406E-01
       -2   -1    0    0    0  501  0.00000000000E+00  0.00000000000E+00  0.12662297629E+04  0.12662297629E+04  0.25500000920E-02 0. -1.
        2   -1    0    0  501    0  0.00000000000E+00  0.00000000000E+00 -0.87038960371E+03  0.87038960371E+03  0.25500000920E-02 0.  1.
    10030    2    1    2    0    0  0.00000000000E+00  0.00000000000E+00  0.39584015923E+03  0.21366193667E+04  0.20996316073E+04 0.  0.
        5    1    3    3  502    0  0.93958058152E+03 -0.35829668166E+03 -0.10889241941E+03  0.10114681558E+04  0.46999998093E+01 0.  1.
       -5    1    3    3    0  502 -0.93958058152E+03  0.35829668166E+03  0.50473257865E+03  0.11251512108E+04  0.46999998093E+01 0. -1.
</event>
<event>
 5   0  0.1492552E-05  0.2099042E+04  0.7818609E-02  0.8561665E-01
       -1   -1    0    0    0  501  0.00000000000E+00  0.00000000000E+00  0.12292185649E+04  0.12292185649E+04  0.50400001928E-02 0. -1.
        1   -1    0    0  501    0  0.00000000000E+00  0.00000000000E+00 -0.89609334144E+03  0.89609334146E+03  0.50400001928E-02 0.  1.
    10030    2    1    2    0    0  0.00000000000E+00  0.00000000000E+00  0.33312522348E+03  0.21253119064E+04  0.20990422304E+04 0.  0.
        4    1    3    3  502    0 -0.57267532550E+03  0.74174378823E+03 -0.31195343055E+03  0.98765248521E+03  0.12699999809E+01 0.  1.
       -4    1    3    3    0  502  0.57267532550E+03 -0.74174378823E+03  0.64507865402E+03  0.11376594212E+04  0.12699999809E+01 0. -1.
</event>
<event>
 5   0  0.1513292E-05  0.2213868E+04  0.7818609E-02  0.8512678E-01
       -1   -1    0    0    0  501  0.00000000000E+00  0.00000000000E+00  0.10851307529E+04  0.10851307529E+04  0.50400001928E-02 0. -1.
        1   -1    0    0  501    0  0.00000000000E+00  0.00000000000E+00 -0.11291755328E+04  0.11291755328E+04  0.50400001928E-02 0.  1.
    10030    2    1    2    0    0  0.00000000000E+00  0.00000000000E+00 -0.44044779841E+02  0.22143062857E+04  0.22138681949E+04 0.  0.
        1    1    3    3  502    0  0.30691761654E+03  0.91199244685E+03  0.52523709574E+03  0.10962676011E+04  0.50400001928E-02 0. -1.
       -1    1    3    3    0  502 -0.30691761654E+03 -0.91199244685E+03 -0.56928187558E+03  0.11180386846E+04  0.50400001928E-02 0.  1.
</event>
<event>
 5   0  0.3257130E-05  0.2070249E+04  0.7818609E-02  0.8574463E-01
       -2   -1    0    0    0  501  0.00000000000E+00  0.00000000000E+00  0.14052908971E+04  0.14052908971E+04  0.25500000920E-02 0. -1.
        2   -1    0    0  501    0  0.00000000000E+00  0.00000000000E+00 -0.76246337782E+03  0.76246337783E+03  0.25500000920E-02 0.  1.
    10030    2    1    2    0    0  0.00000000000E+00  0.00000000000E+00  0.64282751930E+03  0.21677542750E+04  0.20702491099E+04 0.  0.
        3    1    3    3  502    0 -0.44120187277E+03 -0.43173945000E+01 -0.65906678108E+03  0.79312468412E+03  0.10100000352E+00 0.  1.
       -3    1    3    3    0  502  0.44120187277E+03  0.43173945000E+01  0.13018943004E+04  0.13746295908E+04  0.10100000352E+00 0. -1.
</event>
<event>
 5   0  0.3130517E-05  0.2104622E+04  0.7818609E-02  0.8559210E-01
        2   -1    0    0  501    0  0.00000000000E+00  0.00000000000E+00  0.17511442868E+04  0.17511442868E+04  0.25500000920E-02 0. -1.
       -2   -1    0    0    0  501  0.00000000000E+00  0.00000000000E+00 -0.63236289730E+03  0.63236289730E+03  0.25500000920E-02 0.  1.
    10030    2    1    2    0    0  0.00000000000E+00  0.00000000000E+00  0.11187813895E+04  0.23835071841E+04  0.21046222224E+04 0.  0.
        1    1    3    3  502    0  0.47625244224E+03  0.27106232146E+03  0.15768036046E+04  0.16693114684E+04  0.50400001928E-02 0. -1.
       -1    1    3    3    0  502 -0.47625244224E+03 -0.27106232146E+03 -0.45802221510E+03  0.71419571576E+03  0.50400001928E-02 0.  1.
</event>
<event>
 5   0  0.3108326E-05  0.2090955E+04  0.7818609E-02  0.8565238E-01
       -2   -1    0    0    0  501  0.00000000000E+00  0.00000000000E+00  0.52434757840E+03  0.52434757840E+03  0.25500000920E-02 0. -1.
        2   -1    0    0  501    0  0.00000000000E+00  0.00000000000E+00 -0.20845398783E+04  0.20845398783E+04  0.25500000920E-02 0.  1.
    10030    2    1    2    0    0  0.00000000000E+00  0.00000000000E+00 -0.15601922999E+04  0.26088874567E+04  0.20909552241E+04 0.  0.
        5    1    3    3  502    0 -0.11378801075E+03  0.73956377148E+03 -0.16910881680E+04  0.18492440524E+04  0.46999998093E+01 0.  1.
       -5    1    3    3    0  502  0.11378801075E+03 -0.73956377148E+03  0.13089586804E+03  0.75964340434E+03  0.46999998093E+01 0. -1.
</event>
<event>
 5   0  0.1466480E-05  0.2095266E+04  0.7818609E-02  0.8563332E-01
        1   -1    0    0  501    0  0.00000000000E+00  0.00000000000E+00  0.64017003763E+03  0.64017003765E+03  0.50400001928E-02 0. -1.
       -1   -1    0    0    0  501  0.00000000000E+00  0.00000000000E+00 -0.17144421676E+04  0.17144421676E+04  0.50400001928E-02 0.  1.
    10030    2    1    2    0    0  0.00000000000E+00  0.00000000000E+00 -0.10742721300E+04  0.23546122053E+04  0.20952656223E+04 0.  0.
        3    1    3    3  502    0  0.33320530664E+02 -0.36729640225E+03  0.56480640284E+03  0.67455406586E+03  0.10100000352E+00 0. -1.
       -3    1    3    3    0  502 -0.33320530664E+02  0.36729640225E+03 -0.16390785328E+04  0.16800581394E+04  0.10100000352E+00 0.  1.
</event>
<event>
 5   0  0.3279789E-05  0.2075780E+04  0.7818609E-02  0.8571988E-01
       -2   -1    0    0    0  501  0.00000000000E+00  0.00000000000E+00  0.11691496776E+04  0.11691496776E+04  0.25500000920E-02 0.  1.
        2   -1    0    0  501    0  0.00000000000E+00  0.00000000000E+00 -0.92136695632E+03  0.92136695632E+03  0.25500000920E-02 0. -1.
    10030    2    1    2    0    0  0.00000000000E+00  0.00000000000E+00  0.24778272124E+03  0.20905166339E+04  0.20757802195E+04 0.  0.
        2    1    3    3  502    0  0.13898229690E+03  0.36255061395E+03  0.10932508308E+04  0.11601536129E+04  0.25500000920E-02 0.  1.
       -2    1    3    3    0  502 -0.13898229690E+03 -0.36255061395E+03 -0.84546810955E+03  0.93036302097E+03  0.25500000920E-02 0. -1.
</event>
<event>
 5   0  0.1513292E-05  0.2104115E+04  0.7818609E-02  0.8559433E-01
       -1   -1    0    0    0  501  0.00000000000E+00  0.00000000000E+00  0.17521989745E+04  0.17521989745E+04  0.50400001928E-02 0. -1.
        1   -1    0    0  501    0  0.00000000000E+00  0.00000000000E+00 -0.63167740154E+03  0.63167740156E+03  0.50400001928E-02 0.  1.
    10030    2    1    2    0    0  0.00000000000E+00  0.00000000000E+00  0.11205215730E+04  0.23838763761E+04  0.21041145361E+04 0.  0.
        1    1    3    3  502    0  0.74901136971E+02  0.72042539434E+03 -0.30421142589E+03  0.78560010234E+03  0.50400001928E-02 0.  1.
       -1    1    3    3    0  502 -0.74901136971E+02 -0.72042539434E+03  0.14247329989E+04  0.15982762737E+04  0.50400001928E-02 0. -1.
</event>
<event>
 5   0  0.3257130E-05  0.2106332E+04  0.7818609E-02  0.8558459E-01
       -2   -1    0    0    0  501  0.00000000000E+00  0.00000000000E+00  0.64077130648E+03  0.64077130649E+03  0.25500000920E-02 0. -1.
        2   -1    0    0  501    0  0.00000000000E+00  0.00000000000E+00 -0.17309740320E+04  0.17309740320E+04  0.25500000920E-02 0.  1.
    10030    2    1    2    0    0  0.00000000000E+00  0.00000000000E+00 -0.10902027256E+04  0.23717453385E+04  0.21063318751E+04 0.  0.
        3    1    3    3  502    0 -0.21375191709E+03  0.12995414694E+03 -0.16970353154E+04  0.17153736719E+04  0.10100000352E+00 0.  1.
       -3    1    3    3    0  502  0.21375191709E+03 -0.12995414694E+03  0.60683258988E+03  0.65637166659E+03  0.10100000352E+00 0. -1.
</event>
<event>
 5   0  0.3279789E-05  0.2072079E+04  0.7818609E-02  0.8573643E-01
       -2   -1    0    0    0  501  0.00000000000E+00  0.00000000000E+00  0.73433503265E+03  0.73433503265E+03  0.25500000920E-02 0.  1.
        2   -1    0    0  501    0  0.00000000000E+00  0.00000000000E+00 -0.14617006546E+04  0.14617006546E+04  0.25500000920E-02 0. -1.
    10030    2    1    2    0    0  0.00000000000E+00  0.00000000000E+00 -0.72736562190E+03  0.21960356872E+04  0.20720791470E+04 0.  0.
        2    1    3    3  502    0 -0.11232743245E+03 -0.84264985309E+03 -0.99131040993E+03  0.13058991369E+04  0.25500000920E-02 0. -1.
       -2    1    3    3    0  502  0.11232743245E+03  0.84264985309E+03  0.26394478803E+03  0.89013655027E+03  0.25500000920E-02 0.  1.
</event>
<event>
 5   0  0.1513292E-05  0.2099487E+04  0.7818609E-02  0.8561469E-01
        1   -1    0    0  501    0  0.00000000000E+00  0.00000000000E+00  0.24148944404E+04  0.24148944404E+04  0.50400001928E-02 0. -1.
       -1   -1    0    0    0  501  0.00000000000E+00  0.00000000000E+00 -0.45631877437E+03  0.45631877440E+03  0.50400001928E-02 0.  1.
    10030    2    1    2    0    0  0.00000000000E+00  0.00000000000E+00  0.19585756660E+04  0.28712132148E+04  0.20994872434E+04 0.  0.
        1    1    3    3  502    0  0.91073046592E+03  0.48075618676E+03  0.12575662572E+04  0.16254320607E+04  0.50400001928E-02 0. -1.
       -1    1    3    3    0  502 -0.91073046592E+03 -0.48075618676E+03  0.70100940885E+03  0.12457811541E+04  0.50400001928E-02 0.  1.
</event>
<event>
 5   0  0.3108326E-05  0.2105583E+04  0.7818609E-02  0.8558788E-01
       -2   -1    0    0    0  501  0.00000000000E+00  0.00000000000E+00  0.14158721722E+04  0.14158721722E+04  0.25500000920E-02 0. -1.
        2   -1    0    0  501    0  0.00000000000E+00  0.00000000000E+00 -0.78281805059E+03  0.78281805060E+03  0.25500000920E-02 0.  1.
    10030    2    1    2    0    0  0.00000000000E+00  0.00000000000E+00  0.63305412162E+03  0.21986902228E+04  0.21055833337E+04 0.  0.
        5    1    3    3  502    0 -0.93621780644E+03 -0.43560792590E+03  0.10229627220E+03  0.10376630780E+04  0.46999998093E+01 0. -1.
       -5    1    3    3    0  502  0.93621780644E+03  0.43560792590E+03  0.53075784941E+03  0.11610271448E+04  0.46999998093E+01 0.  1.
</event>
<event>
 5   0  0.3279789E-05  0.2149334E+04  0.7818609E-02  0.8539818E-01
       -2   -1    0    0    0  501  0.00000000000E+00  0.00000000000E+00  0.79714593049E+03  0.79714593049E+03  0.25500000920E-02 0. -1.
        2   -1    0    0  501    0  0.00000000000E+00  0.00000000000E+00 -0.14488047234E+04  0.14488047234E+04  0.25500000920E-02 0.  1.
    10030    2    1    2    0    0  0.00000000000E+00  0.00000000000E+00 -0.65165879287E+03  0.22459506538E+04  0.21493336542E+04 0.  0.
        2    1    3    3  502    0  0.81092822988E+03 -0.48115513408E+03 -0.86455659511E+03  0.12792861147E+04  0.25500000920E-02 0.  1.
       -2    1    3    3    0  502 -0.81092822988E+03  0.48115513408E+03  0.21289780224E+03  0.96666453916E+03  0.25500000920E-02 0. -1.
</event>
<event>
 5   0  0.3108326E-05  0.2104482E+04  0.7818609E-02  0.8559271E-01
        2   -1    0    0  501    0  0.00000000000E+00  0.00000000000E+00  0.27206988117E+04  0.27206988117E+04  0.25500000920E-02 0. -1.
       -2   -1    0    0    0  501  0.00000000000E+00  0.00000000000E+00 -0.40695854584E+03  0.40695854585E+03  0.25500000920E-02 0.  1.
    10030    2    1    2    0    0  0.00000000000E+00  0.00000000000E+00  0.23137402659E+04  0.31276573575E+04  0.21044824847E+04 0.  0.
        5    1    3    3  502    0  0.35966563315E+03 -0.87858276830E+03  0.48245742071E+03  0.10649198567E+04  0.46999998093E+01 0.  1.
       -5    1    3    3    0  502 -0.35966563315E+03  0.87858276830E+03  0.18312828451E+04  0.20627375008E+04  0.46999998093E+01 0. -1.
</event>
<event>
 5   0  0.1513292E-05  0.2105264E+04  0.7818609E-02  0.8558928E-01
        1   -1    0    0  501    0  0.00000000000E+00  0.00000000000E+00  0.13136540041E+04  0.13136540041E+04  0.50400001928E-02 0.  1.
       -1   -1    0    0    0  501  0.00000000000E+00  0.00000000000E+00 -0.84347520524E+03  0.84347520525E+03  0.50400001928E-02 0. -1.
    10030    2    1    2    0    0  0.00000000000E+00  0.00000000000E+00  0.47017879881E+03  0.21571292093E+04  0.21052644306E+04 0.  0.
        1    1    3    3  502    0  0.10065907560E+03 -0.55109464296E+03 -0.67804275245E+03  0.87953369985E+03  0.50400001928E-02 0. -1.
       -1    1    3    3    0  502 -0.10065907560E+03  0.55109464296E+03  0.11482215513E+04  0.12775955095E+04  0.50400001928E-02 0.  1.
</event>
<event>
 5   0  0.3242231E-05  0.2099242E+04  0.7818609E-02  0.8561577E-01
       -2   -1    0    0    0  501  0.00000000000E+00  0.00000000000E+00  0.89880015806E+03  0.89880015806E+03  0.25500000920E-02 0.  1.
        2   -1    0    0  501    0  0.00000000000E+00  0.00000000000E+00 -0.12257504730E+04  0.12257504730E+04  0.25500000920E-02 0. -1.
    10030    2    1    2    0    0  0.00000000000E+00  0.00000000000E+00 -0.32695031497E+03  0.21245506311E+04  0.20992424528E+04 0.  0.
        4    1    3    3  502    0 -0.15239659844E+03 -0.42518528826E+03 -0.11223658309E+04  0.12098404538E+04  0.12699999809E+01 0. -1.
       -4    1    3    3    0  502  0.15239659844E+03  0.42518528826E+03  0.79541551589E+03  0.91471017726E+03  0.12699999809E+01 0.  1.
</event>
<event>
 5   0  0.3257130E-05  0.2092256E+04  0.7818609E-02  0.8564662E-01
       -2   -1    0    0    0  501  0.00000000000E+00  0.00000000000E+00  0.82801114564E+03  0.82801114565E+03  0.25500000920E-02 0.  1.
        2   -1    0    0  501    0  0.00000000000E+00  0.00000000000E+00 -0.13217023556E+04  0.13217023557E+04  0.25500000920E-02 0. -1.
    10030    2    1    2    0    0  0.00000000000E+00  0.00000000000E+00 -0.49369121001E+03  0.21497135013E+04  0.20922564677E+04 0.  0.
        3    1    3    3  502    0 -0.61353161540E+02 -0.65039827443E+03  0.59266179163E+03  0.88206016534E+03  0.10100000352E+00 0.  1.
       -3    1    3    3    0  502  0.61353161540E+02  0.65039827443E+03 -0.10863530016E+04  0.12676533360E+04  0.10100000352E+00 0. -1.
</event>
<event>
 5   0  0.3108326E-05  0.2096998E+04  0.7818609E-02  0.8562567E-01
        2   -1    0    0  501    0  0.00000000000E+00  0.00000000000E+00  0.14064211615E+04  0.14064211615E+04  0.25500000920E-02 0. -1.
       -2   -1    0    0    0  501  0.00000000000E+00  0.00000000000E+00 -0.78166524540E+03  0.78166524540E+03  0.25500000920E-02 0.  1.
    10030    2    1    2    0    0  0.00000000000E+00  0.00000000000E+00  0.62475591614E+03  0.21880864069E+04  0.20969983714E+04 0.  0.
        5    1    3    3  502    0 -0.10330908873E+04 -0.17784527770E+03  0.29092451835E+03  0.10879176851E+04  0.46999998093E+01 0. -1.
       -5    1    3    3    0  502  0.10330908873E+04  0.17784527770E+03  0.33383139779E+03  0.11001687218E+04  0.46999998093E+01 0.  1.
</event>
<event>
 5   0  0.3257130E-05  0.2110365E+04  0.7818609E-02  0.8556691E-01
        2   -1    0    0  501    0  0.00000000000E+00  0.00000000000E+00  0.11624692054E+04  0.11624692054E+04  0.25500000920E-02 0. -1.
       -2   -1    0    0    0  501  0.00000000000E+00  0.00000000000E+00 -0.95779738666E+03  0.95779738666E+03  0.25500000920E-02 0.  1.
    10030    2    1    2    0    0  0.00000000000E+00  0.00000000000E+00  0.20467181875E+03  0.21202665921E+04  0.21103648661E+04 0.  0.
        3    1    3    3  502    0 -0.18456530269E+03  0.74524889389E+03 -0.62490402196E+03  0.98993197325E+03  0.10100000352E+00 0.  1.
       -3    1    3    3    0  502  0.18456530269E+03 -0.74524889389E+03  0.82957584071E+03  0.11303346188E+04  0.10100000352E+00 0. -1.
</event>
<event>
 5   0  0.1466480E-05  0.2127721E+04  0.7818609E-02  0.8549129E-01
       -1   -1    0    0    0  501  0.00000000000E+00  0.00000000000E+00  0.15632513381E+04  0.15632513381E+04  0.50400001928E-02 0. -1.
        1   -1    0    0  501    0  0.00000000000E+00  0.00000000000E+00 -0.72400323636E+03  0.72400323638E+03  0.50400001928E-02 0.  1.
    10030    2    1    2    0    0  0.00000000000E+00  0.00000000000E+00  0.83924810174E+03  0.22872545745E+04  0.21277208727E+04 0.  0.
        3    1    3    3  502    0 -0.48332810799E+03  0.86046487645E+03 -0.73917345072E+01  0.98694503976E+03  0.10100000352E+00 0.  1.
       -3    1    3    3    0  502  0.48332810799E+03 -0.86046487645E+03  0.84663983625E+03  0.13003095347E+04  0.10100000352E+00 0. -1.
</event>
<event>
 5   0  0.1466480E-05  0.2103455E+04  0.7818609E-02  0.8559723E-01
       -1   -1    0    0    0  501  0.00000000000E+00  0.00000000000E+00  0.21419901161E+04  0.21419901161E+04  0.50400001928E-02 0.  1.
        1   -1    0    0  501    0  0.00000000000E+00  0.00000000000E+00 -0.51640332455E+03  0.51640332458E+03  0.50400001928E-02 0. -1.
    10030    2    1    2    0    0  0.00000000000E+00  0.00000000000E+00  0.16255867916E+04  0.26583934407E+04  0.21034550788E+04 0.  0.
        3    1    3    3  502    0 -0.45277255753E+03 -0.74806928474E+03  0.74219098824E+02  0.87756431585E+03  0.10100000352E+00 0. -1.
       -3    1    3    3    0  502  0.45277255753E+03  0.74806928474E+03  0.15513676927E+04  0.17808291248E+04  0.10100000352E+00 0.  1.
</event>
<event>
 5   0  0.3242231E-05  0.2098806E+04  0.7818609E-02  0.8561770E-01
        2   -1    0    0  501    0  0.00000000000E+00  0.00000000000E+00  0.10578042941E+04  0.10578042941E+04  0.25500000920E-02 0.  1.
       -2   -1    0    0    0  501  0.00000000000E+00  0.00000000000E+00 -0.10410679705E+04  0.10410679705E+04  0.25500000920E-02 0. -1.
    10030    2    1    2    0    0  0.00000000000E+00  0.00000000000E+00  0.16736323558E+02  0.20988722647E+04  0.20988055362E+04 0.  0.
        4    1    3    3  502    0 -0.34521249967E+02  0.10464305849E+04 -0.62597966028E+02  0.10488702513E+04  0.12699999809E+01 0. -1.
       -4    1    3    3    0  502  0.34521249967E+02 -0.10464305849E+04  0.79334289586E+02  0.10500020134E+04  0.12699999809E+01 0.  1.
</event>
<event>
 5   0  0.1453430E-05  0.2103812E+04  0.7818609E-02  0.8559566E-01
        1   -1    0    0  501    0  0.00000000000E+00  0.00000000000E+00  0.18666456897E+04  0.18666456897E+04  0.50400001928E-02 0. -1.
       -1   -1    0    0    0  501  0.00000000000E+00  0.00000000000E+00 -0.59277786362E+03  0.59277786364E+03  0.50400001928E-02 0.  1.
    10030    2    1    2    0    0  0.00000000000E+00  0.00000000000E+00  0.12738678261E+04  0.24594235533E+04  0.21038120107E+04 0.  0.
        5    1    3    3  502    0  0.54771901914E+03 -0.85338175056E+03  0.96390281646E+03  0.13990665694E+04  0.46999998093E+01 0.  1.
       -5    1    3    3    0  502 -0.54771901914E+03  0.85338175056E+03  0.30996500960E+03  0.10603569839E+04  0.46999998093E+01 0. -1.
</event>
<event>
 5   0  0.1129987E-05  0.2107973E+04  0.7818609E-02  0.8557739E-01
       -3   -1    0    0    0  501  0.00000000000E+00  0.00000000000E+00  0.16435306403E+04  0.16435306434E+04  0.10100000352E+00 0.  1.
        3   -1    0    0  501    0  0.00000000000E+00  0.00000000000E+00 -0.67591534245E+03  0.67591534999E+03  0.10100000352E+00 0. -1.
    10030    2    1    2    0    0  0.00000000000E+00  0.00000000000E+00  0.96761529782E+03  0.23194459934E+04  0.21079730434E+04 0.  0.
        5    1    3    3  502    0 -0.73630086979E+03  0.72657804403E+03  0.26152418584E+03  0.10669918532E+04  0.46999998093E+01 0.  1.
       -5    1    3    3    0  502  0.73630086979E+03 -0.72657804403E+03  0.70609111197E+03  0.12524541402E+04  0.46999998093E+01 0. -1.
</event>
<event>
 5   0  0.1466480E-05  0.2100694E+04  0.7818609E-02  0.8560938E-01
       -1   -1    0    0    0  501  0.00000000000E+00  0.00000000000E+00  0.10981043745E+04  0.10981043745E+04  0.50400001928E-02 0.  1.
        1   -1    0    0  501    0  0.00000000000E+00  0.00000000000E+00 -0.10046669575E+04  0.10046669575E+04  0.50400001928E-02 0. -1.
    10030    2    1    2    0    0  0.00000000000E+00  0.00000000000E+00  0.93437416998E+02  0.21027713321E+04  0.21006943433E+04 0.  0.
        3    1    3    3  502    0  0.85749743162E+03  0.60544919237E+03  0.98230594373E+01  0.10497461943E+04  0.10100000352E+00 0.  1.
       -3    1    3    3    0  502 -0.85749743162E+03 -0.60544919237E+03  0.83614357561E+02  0.10530251378E+04  0.10100000352E+00 0. -1.
</event>
<event>
 5   0  0.1129987E-05  0.2098239E+04  0.7818609E-02  0.8562020E-01
        3   -1    0    0  501    0  0.00000000000E+00  0.00000000000E+00  0.35777909858E+03  0.35777911284E+03  0.10100000352E+00 0.  1.
       -3   -1    0    0    0  501  0.00000000000E+00  0.00000000000E+00 -0.30763437140E+04  0.30763437156E+04  0.10100000352E+00 0. -1.
    10030    2    1    2    0    0  0.00000000000E+00  0.00000000000E+00 -0.27185646154E+04  0.34341228285E+04  0.20982387931E+04 0.  0.
        4    1    3    3  502    0  0.18427215597E+03 -0.42754582569E+03 -0.28980109773E+04  0.29351696541E+04  0.12699999809E+01 0. -1.
       -4    1    3    3    0  502 -0.18427215597E+03  0.42754582569E+03  0.17944636194E+03  0.49895317440E+03  0.12699999809E+01 0.  1.
</event>
<event>
 5   0  0.1466480E-05  0.2098150E+04  0.7818609E-02  0.8562059E-01
        1   -1    0    0  501    0  0.00000000000E+00  0.00000000000E+00  0.13329662202E+04  0.13329662202E+04  0.50400001928E-02 0. -1.
       -1   -1    0    0    0  501  0.00000000000E+00  0.00000000000E+00 -0.82564623658E+03  0.82564623660E+03  0.50400001928E-02 0.  1.
    10030    2    1    2    0    0  0.00000000000E+00  0.00000000000E+00  0.50731998357E+03  0.21586124568E+04  0.20981501788E+04 0.  0.
        3    1    3    3  502    0  0.23498782905E+01  0.69119480639E+03 -0.55826025139E+03  0.88848764808E+03  0.10100000352E+00 0.  1.
       -3    1    3    3    0  502 -0.23498782905E+01 -0.69119480639E+03  0.10655802350E+04  0.12701248087E+04  0.10100000352E+00 0. -1.
</event>
<event>
 5   0  0.3130517E-05  0.2098073E+04  0.7818609E-02  0.8562093E-01
       -2   -1    0    0    0  501  0.00000000000E+00  0.00000000000E+00  0.11617309203E+04  0.11617309203E+04  0.25500000920E-02 0. -1.
        2   -1    0    0  501    0  0.00000000000E+00  0.00000000000E+00 -0.94727398133E+03  0.94727398133E+03  0.25500000920E-02 0.  1.
    10030    2    1    2    0    0  0.00000000000E+00  0.00000000000E+00  0.21445693893E+03  0.21090049016E+04  0.20980729006E+04 0.  0.
        1    1    3    3  502    0  0.44254840795E+03  0.95086346208E+03  0.12941283306E+03  0.10567582970E+04  0.50400001928E-02 0. -1.
       -1    1    3    3    0  502 -0.44254840795E+03 -0.95086346208E+03  0.85044105875E+02  0.10522466046E+04  0.50400001928E-02 0.  1.
</event>
<event>
 5   0  0.1435410E-05  0.2105789E+04  0.7818609E-02  0.8558698E-01
        1   -1    0    0  501    0  0.00000000000E+00  0.00000000000E+00  0.31541234307E+04  0.31541234307E+04  0.50400001928E-02 0.  1.
       -1   -1    0    0    0  501  0.00000000000E+00  0.00000000000E+00 -0.35147219693E+03  0.35147219696E+03  0.50400001928E-02 0. -1.
    10030    2    1    2    0    0  0.00000000000E+00  0.00000000000E+00  0.28026512338E+04  0.35055956277E+04  0.21057888704E+04 0.  0.
        2    1    3    3  502    0  0.17371928696E+03  0.10210436783E+04  0.10859981810E+04  0.15007000476E+04  0.25500000920E-02 0. -1.
       -2    1    3    3    0  502 -0.17371928696E+03 -0.10210436783E+04  0.17166530528E+04  0.20048955801E+04  0.25500000920E-02 0.  1.
</event>
<event>
 5   0  0.1466480E-05  0.2119691E+04  0.7818609E-02  0.8552619E-01
       -1   -1    0    0    0  501  0.00000000000E+00  0.00000000000E+00  0.71472984555E+03  0.71472984557E+03  0.50400001928E-02 0.  1.
        1   -1    0    0  501    0  0.00000000000E+00  0.00000000000E+00 -0.15716042269E+04  0.15716042269E+04  0.50400001928E-02 0. -1.
    10030    2    1    2    0    0  0.00000000000E+00  0.00000000000E+00 -0.85687438139E+03  0.22863340725E+04  0.21196909647E+04 0.  0.
        3    1    3    3  502    0 -0.92551050188E+03 -0.51567995561E+03 -0.39837239703E+03  0.11318993253E+04  0.10100000352E+00 0.  1.
       -3    1    3    3    0  502  0.92551050188E+03  0.51567995561E+03 -0.45850198435E+03  0.11544347472E+04  0.10100000352E+00 0. -1.
</event>
<event>
 5   0  0.1435410E-05  0.2097034E+04  0.7818609E-02  0.8562551E-01
       -1   -1    0    0    0  501  0.00000000000E+00  0.00000000000E+00  0.10618054378E+04  0.10618054378E+04  0.50400001928E-02 0.  1.
        1   -1    0    0  501    0  0.00000000000E+00  0.00000000000E+00 -0.10353947522E+04  0.10353947523E+04  0.50400001928E-02 0. -1.
    10030    2    1    2    0    0  0.00000000000E+00  0.00000000000E+00  0.26410685583E+02  0.20972001901E+04  0.20970338846E+04 0.  0.
        2    1    3    3  502    0  0.39181693615E+03 -0.33735898049E+03  0.92544882068E+03  0.10600882571E+04  0.25500000920E-02 0.  1.
       -2    1    3    3    0  502 -0.39181693615E+03  0.33735898049E+03 -0.89903813510E+03  0.10371119330E+04  0.25500000920E-02 0. -1.
</event>
<event>
 5   0  0.1466480E-05  0.2103069E+04  0.7818609E-02  0.8559892E-01
       -1   -1    0    0    0  501  0.00000000000E+00  0.00000000000E+00  0.68614365282E+03  0.68614365284E+03  0.50400001928E-02 0. -1.
        1   -1    0    0  501    0  0.00000000000E+00  0.00000000000E+00 -0.16115069962E+04  0.16115069962E+04  0.50400001928E-02 0.  1.
    10030    2    1    2    0    0  0.00000000000E+00  0.00000000000E+00 -0.92536334338E+03  0.22976506490E+04  0.21030694681E+04 0.  0.
        3    1    3    3  502    0 -0.98823706149E+03  0.14910657647E+03 -0.81985469749E+03  0.12926743581E+04  0.10100000352E+00 0.  1.
       -3    1    3    3    0  502  0.98823706149E+03 -0.14910657647E+03 -0.10550864589E+03  0.10049762910E+04  0.10100000352E+00 0. -1.
</event>
<event>
 5   0  0.3108326E-05  0.2099506E+04  0.7818609E-02  0.8561461E-01
       -2   -1    0    0    0  501  0.00000000000E+00  0.00000000000E+00  0.99653798924E+03  0.99653798924E+03  0.25500000920E-02 0.  1.
        2   -1    0    0  501    0  0.00000000000E+00  0.00000000000E+00 -0.11058093101E+04  0.11058093101E+04  0.25500000920E-02 0. -1.
    10030    2    1    2    0    0  0.00000000000E+00  0.00000000000E+00 -0.10927132083E+03  0.21023472993E+04  0.20995056431E+04 0.  0.
        5    1    3    3  502    0  0.76983070419E+03 -0.34391140593E+03  0.57154625630E+03  0.10186273025E+04  0.46999998093E+01 0.  1.
       -5    1    3    3    0  502 -0.76983070419E+03  0.34391140593E+03 -0.68081757713E+03  0.10837199968E+04  0.46999998093E+01 0. -1.
</event>
<event>
 5   0  0.3130517E-05  0.2101833E+04  0.7818609E-02  0.8560436E-01
       -2   -1    0    0    0  501  0.00000000000E+00  0.00000000000E+00  0.77100066688E+03  0.77100066689E+03  0.25500000920E-02 0. -1.
        2   -1    0    0  501    0  0.00000000000E+00  0.00000000000E+00 -0.14324570912E+04  0.14324570912E+04  0.25500000920E-02 0.  1.
    10030    2    1    2    0    0  0.00000000000E+00  0.00000000000E+00 -0.66145642429E+03  0.22034577581E+04  0.21018328883E+04 0.  0.
        1    1    3    3  502    0  0.94653290518E+02  0.10366450655E+04 -0.17941255691E+03  0.10563054023E+04  0.50400001928E-02 0. -1.
       -1    1    3    3    0  502 -0.94653290518E+02 -0.10366450655E+04 -0.48204386738E+03  0.11471523558E+04  0.50400001928E-02 0.  1.
</event>
<event>
 5   0  0.1513292E-05  0.2100213E+04  0.7818609E-02  0.8561149E-01
       -1   -1    0    0    0  501  0.00000000000E+00  0.00000000000E+00  0.66623300356E+03  0.66623300358E+03  0.50400001928E-02 0. -1.
        1   -1    0    0  501    0  0.00000000000E+00  0.00000000000E+00 -0.16551629143E+04  0.16551629143E+04  0.50400001928E-02 0.  1.
    10030    2    1    2    0    0  0.00000000000E+00  0.00000000000E+00 -0.98892991076E+03  0.23213959179E+04  0.21002134747E+04 0.  0.
        1    1    3    3  502    0  0.12922797992E+03  0.75222249800E+03  0.30273073047E+03  0.82108735984E+03  0.50400001928E-02 0. -1.
       -1    1    3    3    0  502 -0.12922797992E+03 -0.75222249800E+03 -0.12916606412E+04  0.15003085581E+04  0.50400001928E-02 0.  1.
</event>
<event>
 5   0  0.3279789E-05  0.2096471E+04  0.7818609E-02  0.8562799E-01
       -2   -1    0    0    0  501  0.00000000000E+00  0.00000000000E+00  0.90714588333E+03  0.90714588333E+03  0.25500000920E-02 0.  1.
        2   -1    0    0  501    0  0.00000000000E+00  0.00000000000E+00 -0.12112691902E+04  0.12112691902E+04  0.25500000920E-02 0. -1.
    10030    2    1    2    0    0  0.00000000000E+00  0.00000000000E+00 -0.30412330687E+03  0.21184150735E+04  0.20964711870E+04 0.  0.
        2    1    3    3  502    0  0.41228948893E+03 -0.49907029915E+03  0.68103401186E+03  0.93960689200E+03  0.25500000920E-02 0.  1.
       -2    1    3    3    0  502 -0.41228948893E+03  0.49907029915E+03 -0.98515731873E+03  0.11788081815E+04  0.25500000920E-02 0. -1.
</event>
<event>
 5   0  0.3108326E-05  0.2118254E+04  0.7818609E-02  0.8553245E-01
       -2   -1    0    0    0  501  0.00000000000E+00  0.00000000000E+00  0.52678729320E+03  0.52678729321E+03  0.25500000920E-02 0.  1.
        2   -1    0    0  501    0  0.00000000000E+00  0.00000000000E+00 -0.21294182697E+04  0.21294182697E+04  0.25500000920E-02 0. -1.
    10030    2    1    2    0    0  0.00000000000E+00  0.00000000000E+00 -0.16026309765E+04  0.26562055629E+04  0.21182544573E+04 0.  0.
        5    1    3    3  502    0  0.54172003262E+02 -0.10281262044E+04 -0.11129195304E+04  0.15161101771E+04  0.46999998093E+01 0. -1.
       -5    1    3    3    0  502 -0.54172003262E+02  0.10281262044E+04 -0.48971144617E+03  0.11400953858E+04  0.46999998093E+01 0.  1.
</event>
<event>
 5   0  0.1435410E-05  0.2102968E+04  0.7818609E-02  0.8559937E-01
       -1   -1    0    0    0  501  0.00000000000E+00  0.00000000000E+00  0.83628364156E+03  0.83628364157E+03  0.50400001928E-02 0.  1.
        1   -1    0    0  501    0  0.00000000000E+00  0.00000000000E+00 -0.13220611794E+04  0.13220611794E+04  0.50400001928E-02 0. -1.
    10030    2    1    2    0    0  0.00000000000E+00  0.00000000000E+00 -0.48577753787E+03  0.21583448210E+04  0.21029675580E+04 0.  0.
        2    1    3    3  502    0  0.20708827967E+03  0.10202047906E+04 -0.39482336880E+03  0.11133682513E+04  0.25500000920E-02 0.  1.
       -2    1    3    3    0  502 -0.20708827967E+03 -0.10202047906E+04 -0.90954169075E+02  0.10449765697E+04  0.25500000920E-02 0. -1.
</event>
<event>
 5   0  0.3279789E-05  0.2088962E+04  0.7818609E-02  0.8566121E-01
       -2   -1    0    0    0  501  0.00000000000E+00  0.00000000000E+00  0.63285575856E+03  0.63285575857E+03  0.25500000920E-02 0.  1.
        2   -1    0    0  501    0  0.00000000000E+00  0.00000000000E+00 -0.17238380081E+04  0.17238380081E+04  0.25500000920E-02 0. -1.
    10030    2    1    2    0    0  0.00000000000E+00  0.00000000000E+00 -0.10909822496E+04  0.23566937667E+04  0.20889622402E+04 0.  0.
        2    1    3    3  502    0  0.56907396370E+03  0.85422536673E+03 -0.76365223753E+03  0.12793400225E+04  0.25500000920E-02 0. -1.
       -2    1    3    3    0  502 -0.56907396370E+03 -0.85422536673E+03 -0.32733001205E+03  0.10773537442E+04  0.25500000920E-02 0.  1.
</event>
<event>
 5   0  0.3257130E-05  0.2113848E+04  0.7818609E-02  0.8555168E-01
        2   -1    0    0  501    0  0.00000000000E+00  0.00000000000E+00  0.15818347627E+04  0.15818347627E+04  0.25500000920E-02 0.  1.
       -2   -1    0    0    0  501  0.00000000000E+00  0.00000000000E+00 -0.70619784884E+03  0.70619784884E+03  0.25500000920E-02 0. -1.
    10030    2    1    2    0    0  0.00000000000E+00  0.00000000000E+00  0.87563691383E+03  0.22880326115E+04  0.21138479667E+04 0.  0.
        3    1    3    3  502    0  0.11970027463E+03 -0.10341436959E+04  0.24027805239E+03  0.10684170030E+04  0.10100000352E+00 0. -1.
       -3    1    3    3    0  502 -0.11970027463E+03  0.10341436959E+04  0.63535886143E+03  0.12196156085E+04  0.10100000352E+00 0.  1.
</event>
<event>
 5   0  0.1129987E-05  0.2096891E+04  0.7818609E-02  0.8562614E-01
       -3   -1    0    0    0  501  0.00000000000E+00  0.00000000000E+00  0.64878251977E+03  0.64878252763E+03  0.10100000352E+00 0. -1.
        3   -1    0    0  501    0  0.00000000000E+00  0.00000000000E+00 -0.16943085472E+04  0.16943085502E+04  0.10100000352E+00 0.  1.
    10030    2    1    2    0    0  0.00000000000E+00  0.00000000000E+00 -0.10455260274E+04  0.23430910778E+04  0.20968908233E+04 0.  0.
        2    1    3    3  502    0 -0.47668243407E+02 -0.58470814463E+03  0.44821720592E+03  0.73827809091E+03  0.25500000920E-02 0. -1.
       -2    1    3    3    0  502  0.47668243407E+02  0.58470814463E+03 -0.14937432333E+04  0.16048129869E+04  0.25500000920E-02 0.  1.
</event>
<event>
 5   0  0.1453430E-05  0.2107181E+04  0.7818609E-02  0.8558086E-01
        1   -1    0    0  501    0  0.00000000000E+00  0.00000000000E+00  0.10642860496E+04  0.10642860496E+04  0.50400001928E-02 0. -1.
       -1   -1    0    0    0  501  0.00000000000E+00  0.00000000000E+00 -0.10430029085E+04  0.10430029085E+04  0.50400001928E-02 0.  1.
    10030    2    1    2    0    0  0.00000000000E+00  0.00000000000E+00  0.21283141150E+02  0.21072889581E+04  0.21071814779E+04 0.  0.
        5    1    3    3  502    0 -0.58668254847E+01  0.99570350440E+03 -0.33371807150E+03  0.10501665247E+04  0.46999998093E+01 0.  1.
       -5    1    3    3    0  502  0.58668254847E+01 -0.99570350440E+03  0.35500121265E+03  0.10571224334E+04  0.46999998093E+01 0. -1.
</event>
<event>
 5   0  0.3130517E-05  0.2099876E+04  0.7818609E-02  0.8561298E-01
       -2   -1    0    0    0  501  0.00000000000E+00  0.00000000000E+00  0.80516043796E+03  0.80516043796E+03  0.25500000920E-02 0. -1.
        2   -1    0    0  501    0  0.00000000000E+00  0.00000000000E+00 -0.13691308585E+04  0.13691308585E+04  0.25500000920E-02 0.  1.
    10030    2    1    2    0    0  0.00000000000E+00  0.00000000000E+00 -0.56397042057E+03  0.21742912965E+04  0.20998761884E+04 0.  0.
        1    1    3    3  502    0 -0.58043761872E+03 -0.51037797796E+03 -0.10177849317E+04  0.12779983086E+04  0.50400001928E-02 0.  1.
       -1    1    3    3    0  502  0.58043761872E+03  0.51037797796E+03  0.45381451111E+03  0.89629298789E+03  0.50400001928E-02 0. -1.
</event>
<event>
 5   0  0.1492552E-05  0.2102093E+04  0.7818609E-02  0.8560322E-01
       -1   -1    0    0    0  501  0.00000000000E+00  0.00000000000E+00  0.77407501346E+03  0.77407501347E+03  0.50400001928E-02 0.  1.
        1   -1    0    0  501    0  0.00000000000E+00  0.00000000000E+00 -0.14271211358E+04  0.14271211358E+04  0.50400001928E-02 0. -1.
    10030    2    1    2    0    0  0.00000000000E+00  0.00000000000E+00 -0.65304612230E+03  0.22011961492E+04  0.21020930640E+04 0.  0.
        4    1    3    3  502    0 -0.36393493427E+03 -0.38829091142E+03 -0.12756077496E+04  0.13821704714E+04  0.12699999809E+01 0. -1.
       -4    1    3    3    0  502  0.36393493427E+03  0.38829091142E+03  0.62256162730E+03  0.81902567784E+03  0.12699999809E+01 0.  1.
</event>
<event>
 5   0  0.1435410E-05  0.2107754E+04  0.7818609E-02  0.8557835E-01
        1   -1    0    0  501    0  0.00000000000E+00  0.00000000000E+00  0.69119995644E+03  0.69119995646E+03  0.50400001928E-02 0.  1.
       -1   -1    0    0    0  501  0.00000000000E+00  0.00000000000E+00 -0.16068533225E+04  0.16068533225E+04  0.50400001928E-02 0. -1.
    10030    2    1    2    0    0  0.00000000000E+00  0.00000000000E+00 -0.91565336602E+03  0.22980532789E+04  0.21077542044E+04 0.  0.
        2    1    3    3  502    0  0.87968181686E+03 -0.41231954548E+03 -0.90312437201E+03  0.13264543482E+04  0.25500000920E-02 0.  1.
       -2    1    3    3    0  502 -0.87968181686E+03  0.41231954548E+03 -0.12528994006E+02  0.97159893073E+03  0.25500000920E-02 0. -1.
</event>
<event>
 5   0  0.3242231E-05  0.2105223E+04  0.7818609E-02  0.8558946E-01
        2   -1    0    0  501    0  0.00000000000E+00  0.00000000000E+00  0.14682662101E+04  0.14682662101E+04  0.25500000920E-02 0.  1.
       -2   -1    0    0    0  501  0.00000000000E+00  0.00000000000E+00 -0.75462512317E+03  0.75462512317E+03  0.25500000920E-02 0. -1.
    10030    2    1    2    0    0  0.00000000000E+00  0.00000000000E+00  0.71364108689E+03  0.22228913332E+04  0.21052226197E+04 0.  0.
        4    1    3    3  502    0  0.19542047163E+03  0.99495072221E+03  0.58406118340E+02  0.10156421554E+04  0.12699999809E+01 0. -1.
       -4    1    3    3    0  502 -0.19542047163E+03 -0.99495072221E+03  0.65523496855E+03  0.12072491778E+04  0.12699999809E+01 0.  1.
</event>
<event>
 5   0  0.3279789E-05  0.2099608E+04  0.7818609E-02  0.8561416E-01
       -2   -1    0    0    0  501  0.00000000000E+00  0.00000000000E+00  0.50861318432E+03  0.50861318433E+03  0.25500000920E-02 0. -1.
        2   -1    0    0  501    0  0.00000000000E+00  0.00000000000E+00 -0.21668495244E+04  0.21668495244E+04  0.25500000920E-02 0.  1.
    10030    2    1    2    0    0  0.00000000000E+00  0.00000000000E+00 -0.16582363401E+04  0.26754627087E+04  0.20996078077E+04 0.  0.
        2    1    3    3  502    0  0.20547815407E+03  0.30777623554E+03  0.42274265794E+03  0.56183524080E+03  0.25500000920E-02 0. -1.
       -2    1    3    3    0  502 -0.20547815407E+03 -0.30777623554E+03 -0.20809789980E+04  0.21136274679E+04  0.25500000920E-02 0.  1.
</event>
<event>
 5   0  0.3108326E-05  0.2073786E+04  0.7818609E-02  0.8572879E-01
       -2   -1    0    0    0  501  0.00000000000E+00  0.00000000000E+00  0.11498776303E+04  0.11498776304E+04  0.25500000920E-02 0.  1.
        2   -1    0    0  501    0  0.00000000000E+00  0.00000000000E+00 -0.93501023320E+03  0.93501023320E+03  0.25500000920E-02 0. -1.
    10030    2    1    2    0    0  0.00000000000E+00  0.00000000000E+00  0.21486739715E+03  0.20848878636E+04  0.20737862487E+04 0.  0.
        5    1    3    3  502    0  0.38039775605E+03  0.14917469850E+03  0.10655146800E+04  0.11411832311E+04  0.46999998093E+01 0.  1.
       -5    1    3    3    0  502 -0.38039775605E+03 -0.14917469850E+03 -0.85064728290E+03  0.94370463249E+03  0.46999998093E+01 0. -1.
</event>
<event>
 5   0  0.1435410E-05  0.2133007E+04  0.7818609E-02  0.8546841E-01
       -1   -1    0    0    0  501  0.00000000000E+00  0.00000000000E+00  0.82593340815E+03  0.82593340816E+03  0.50400001928E-02 0. -1.
        1   -1    0    0  501    0  0.00000000000E+00  0.00000000000E+00 -0.13771447725E+04  0.13771447725E+04  0.50400001928E-02 0.  1.
    10030    2    1    2    0    0  0.00000000000E+00  0.00000000000E+00 -0.55121136433E+03  0.22030781806E+04  0.21330071500E+04 0.  0.
        2    1    3    3  502    0 -0.61890899316E+03  0.80657569657E+03 -0.60839717095E+03  0.11848037026E+04  0.25500000920E-02 0.  1.
       -2    1    3    3    0  502  0.61890899316E+03 -0.80657569657E+03  0.57185806624E+02  0.10182744780E+04  0.25500000920E-02 0. -1.
</event>
<event>
 5   0  0.3242231E-05  0.2082681E+04  0.7818609E-02  0.8568911E-01
       -2   -1    0    0    0  501  0.00000000000E+00  0.00000000000E+00  0.12946672361E+04  0.12946672361E+04  0.25500000920E-02 0. -1.
        2   -1    0    0  501    0  0.00000000000E+00  0.00000000000E+00 -0.83758240551E+03  0.83758240551E+03  0.25500000920E-02 0.  1.
    10030    2    1    2    0    0  0.00000000000E+00  0.00000000000E+00  0.45708483054E+03  0.21322496416E+04  0.20826814427E+04 0.  0.
        4    1    3    3  502    0 -0.10158657933E+04 -0.17856803940E+03  0.81888514545E+02  0.10346870041E+04  0.12699999809E+01 0. -1.
       -4    1    3    3    0  502  0.10158657933E+04  0.17856803940E+03  0.37519631600E+03  0.10975626375E+04  0.12699999809E+01 0.  1.
</event>
<event>
 5   0  0.3257130E-05  0.2113388E+04  0.7818609E-02  0.8555369E-01
        2   -1    0    0  501    0  0.00000000000E+00  0.00000000000E+00  0.12381948827E+04  0.12381948827E+04  0.25500000920E-02 0.  1.
       -2   -1    0    0    0  501  0.00000000000E+00  0.00000000000E+00 -0.90179846309E+03  0.90179846309E+03  0.25500000920E-02 0. -1.
    10030    2    1    2    0    0  0.00000000000E+00  0.00000000000E+00  0.33639641963E+03  0.21399933458E+04  0.21133880309E+04 0.  0.
        3    1    3    3  502    0 -0.28015625849E+03 -0.54433821742E+03  0.10403251441E+04  0.12070907338E+04  0.10100000352E+00 0.  1.
       -3    1    3    3    0  502  0.28015625849E+03  0.54433821742E+03 -0.70392872445E+03  0.93290261197E+03  0.10100000352E+00 0. -1.
</event>
<event>
 5   0  0.1466480E-05  0.2109507E+04  0.7818609E-02  0.8557067E-01
       -1   -1    0    0    0  501  0.00000000000E+00  0.00000000000E+00  0.10449041729E+04  0.10449041729E+04  0.50400001928E-02 0. -1.
        1   -1    0    0  501    0  0.00000000000E+00  0.00000000000E+00 -0.10646955683E+04  0.10646955683E+04  0.50400001928E-02 0.  1.
    10030    2    1    2    0    0  0.00000000000E+00  0.00000000000E+00 -0.19791395428E+02  0.21095997412E+04  0.21095069018E+04 0.  0.
        3    1    3    3  502    0 -0.39750081071E+03  0.40581373341E+03 -0.89864913492E+03  0.10631377891E+04  0.10100000352E+00 0.  1.
       -3    1    3    3    0  502  0.39750081071E+03 -0.40581373341E+03  0.87885773949E+03  0.10464619521E+04  0.10100000352E+00 0. -1.
</event>
<event>
 5   0  0.3257130E-05  0.2098316E+04  0.7818609E-02  0.8561985E-01
        2   -1    0    0  501    0  0.00000000000E+00  0.00000000000E+00  0.16875774764E+04  0.16875774764E+04  0.25500000920E-02 0.  1.
       -2   -1    0    0    0  501  0.00000000000E+00  0.00000000000E+00 -0.65225606405E+03  0.65225606406E+03  0.25500000920E-02 0. -1.
    10030    2    1    2    0    0  0.00000000000E+00  0.00000000000E+00  0.10353214124E+04  0.23398335405E+04  0.20983161273E+04 0.  0.
        3    1    3    3  502    0 -0.39668968877E+03 -0.68900048856E+03 -0.24571360889E+03  0.83214155659E+03  0.10100000352E+00 0. -1.
       -3    1    3    3    0  502  0.39668968877E+03  0.68900048856E+03  0.12810350213E+04  0.15076919839E+04  0.10100000352E+00 0.  1.
</event>
<event>
 5   0  0.1435410E-05  0.2171320E+04  0.7818609E-02  0.8530461E-01
        1   -1    0    0  501    0  0.00000000000E+00  0.00000000000E+00  0.10022586929E+04  0.10022586930E+04  0.50400001928E-02 0.  1.
       -1   -1    0    0    0  501  0.00000000000E+00  0.00000000000E+00 -0.11760011150E+04  0.11760011150E+04  0.50400001928E-02 0. -1.
    10030    2    1    2    0    0  0.00000000000E+00  0.00000000000E+00 -0.17374242201E+03  0.21782598079E+04  0.21713197281E+04 0.  0.
        2    1    3    3  502    0 -0.88797944514E+03 -0.19050751939E+03 -0.68363110773E+03  0.11367286842E+04  0.25500000920E-02 0. -1.
       -2    1    3    3    0  502  0.88797944514E+03  0.19050751939E+03  0.50988868572E+03  0.10415311238E+04  0.25500000920E-02 0.  1.
</event>
<event>
 5   0  0.1513292E-05  0.2102484E+04  0.7818609E-02  0.8560150E-01
        1   -1    0    0  501    0  0.00000000000E+00  0.00000000000E+00  0.14826204938E+04  0.14826204938E+04  0.50400001928E-02 0.  1.
       -1   -1    0    0    0  501  0.00000000000E+00  0.00000000000E+00 -0.74537584770E+03  0.74537584771E+03  0.50400001928E-02 0. -1.
    10030    2    1    2    0    0  0.00000000000E+00  0.00000000000E+00  0.73724464608E+03  0.22279963415E+04  0.21024837763E+04 0.  0.
        1    1    3    3  502    0  0.15855600375E+03 -0.66683873086E+03  0.12132586316E+04  0.13934885742E+04  0.50400001928E-02 0.  1.
       -1    1    3    3    0  502 -0.15855600375E+03  0.66683873086E+03 -0.47601398548E+03  0.83450776731E+03  0.50400001928E-02 0. -1.
</event>
<event>
 5   0  0.3242231E-05  0.2047595E+04  0.7818609E-02  0.8584686E-01
        2   -1    0    0  501    0  0.00000000000E+00  0.00000000000E+00  0.11926982904E+04  0.11926982904E+04  0.25500000920E-02 0.  1.
       -2   -1    0    0    0  501  0.00000000000E+00  0.00000000000E+00 -0.87881552067E+03  0.87881552067E+03  0.25500000920E-02 0. -1.
    10030    2    1    2    0    0  0.00000000000E+00  0.00000000000E+00  0.31388276973E+03  0.20715138111E+04  0.20475954377E+04 0.  0.
        4    1    3    3  502    0 -0.46700430542E+03  0.42546196192E+03 -0.65810534154E+03  0.91225827252E+03  0.12699999809E+01 0. -1.
       -4    1    3    3    0  502  0.46700430542E+03 -0.42546196192E+03  0.97198811127E+03  0.11592555386E+04  0.12699999809E+01 0.  1.
</event>
<event>
 5   0  0.3242231E-05  0.2098093E+04  0.7818609E-02  0.8562084E-01
        2   -1    0    0  501    0  0.00000000000E+00  0.00000000000E+00  0.11917428336E+04  0.11917428336E+04  0.25500000920E-02 0. -1.
       -2   -1    0    0    0  501  0.00000000000E+00  0.00000000000E+00 -0.92343609755E+03  0.92343609756E+03  0.25500000920E-02 0.  1.
    10030    2    1    2    0    0  0.00000000000E+00  0.00000000000E+00  0.26830673608E+03  0.21151789312E+04  0.20980928021E+04 0.  0.
        4    1    3    3  502    0 -0.98445151757E+03  0.17150623091E+03 -0.18772332977E+03  0.10167599713E+04  0.12699999809E+01 0.  1.
       -4    1    3    3    0  502  0.98445151757E+03 -0.17150623091E+03  0.45603006585E+03  0.10984189599E+04  0.12699999809E+01 0. -1.
</event>
<event>
 5   0  0.3242231E-05  0.2093735E+04  0.7818609E-02  0.8564008E-01
        2   -1    0    0  501    0  0.00000000000E+00  0.00000000000E+00  0.26858546789E+04  0.26858546789E+04  0.25500000920E-02 0. -1.
       -2   -1    0    0    0  501  0.00000000000E+00  0.00000000000E+00 -0.40803821509E+03  0.40803821510E+03  0.25500000920E-02 0.  1.
    10030    2    1    2    0    0  0.00000000000E+00  0.00000000000E+00  0.22778164638E+04  0.30938928940E+04  0.20937347962E+04 0.  0.
        4    1    3    3  502    0 -0.10082502753E+03  0.51635120855E+03  0.24763168694E+04  0.25315866779E+04  0.12699999809E+01 0. -1.
       -4    1    3    3    0  502  0.10082502753E+03 -0.51635120855E+03 -0.19850040566E+03  0.56230621612E+03  0.12699999809E+01 0.  1.
</event>
<event>
 5   0  0.1513292E-05  0.2101649E+04  0.7818609E-02  0.8560518E-01
       -1   -1    0    0    0  501  0.00000000000E+00  0.00000000000E+00  0.70436904282E+03  0.70436904284E+03  0.50400001928E-02 0. -1.
        1   -1    0    0  501    0  0.00000000000E+00  0.00000000000E+00 -0.15676891148E+04  0.15676891148E+04  0.50400001928E-02 0.  1.
    10030    2    1    2    0    0  0.00000000000E+00  0.00000000000E+00 -0.86332007201E+03  0.22720581577E+04  0.21016485732E+04 0.  0.
        1    1    3    3  502    0  0.98022350193E+03  0.18296191206E+03 -0.79008211569E+03  0.12722196841E+04  0.50400001928E-02 0.  1.
       -1    1    3    3    0  502 -0.98022350193E+03 -0.18296191206E+03 -0.73237956320E+02  0.99983847359E+03  0.50400001928E-02 0. -1.
</event>
<event>
 5   0  0.3257130E-05  0.2101811E+04  0.7818609E-02  0.8560446E-01
        2   -1    0    0  501    0  0.00000000000E+00  0.00000000000E+00  0.94026331038E+03  0.94026331038E+03  0.25500000920E-02 0. -1.
       -2   -1    0    0    0  501  0.00000000000E+00  0.00000000000E+00 -0.11745674213E+04  0.11745674213E+04  0.25500000920E-02 0.  1.
    10030    2    1    2    0    0  0.00000000000E+00  0.00000000000E+00 -0.23430411094E+03  0.21148307317E+04  0.21018112682E+04 0.  0.
        3    1    3    3  502    0  0.14760612865E+03 -0.16235777973E+03 -0.11512609902E+04  0.11719852796E+04  0.10100000352E+00 0.  1.
       -3    1    3    3    0  502 -0.14760612865E+03  0.16235777973E+03  0.91695687928E+03  0.94284545208E+03  0.10100000352E+00 0. -1.
</event>
<event>
 5   0  0.3130517E-05  0.2102331E+04  0.7818609E-02  0.8560217E-01
       -2   -1    0    0    0  501  0.00000000000E+00  0.00000000000E+00  0.14245042100E+04  0.14245042100E+04  0.25500000920E-02 0.  1.
        2   -1    0    0  501    0  0.00000000000E+00  0.00000000000E+00 -0.77567250780E+03  0.77567250781E+03  0.25500000920E-02 0. -1.
    10030    2    1    2    0    0  0.00000000000E+00  0.00000000000E+00  0.64883170215E+03  0.22001767178E+04  0.21023308521E+04 0.  0.
        1    1    3    3  502    0 -0.62134656711E+03 -0.64816398229E+02 -0.56031487318E+03  0.83918143394E+03  0.50400001928E-02 0. -1.
       -1    1    3    3    0  502  0.62134656711E+03  0.64816398229E+02  0.12091465753E+04  0.13609952838E+04  0.50400001928E-02 0.  1.
</event>
<event>
 5   0  0.1435410E-05  0.2095143E+04  0.7818609E-02  0.8563386E-01
       -1   -1    0    0    0  501  0.00000000000E+00  0.00000000000E+00  0.11228309739E+04  0.11228309739E+04  0.50400001928E-02 0. -1.
        1   -1    0    0  501    0  0.00000000000E+00  0.00000000000E+00 -0.97735647345E+03  0.97735647346E+03  0.50400001928E-02 0.  1.
    10030    2    1    2    0    0  0.00000000000E+00  0.00000000000E+00  0.14547450042E+03  0.21001874473E+04  0.20951430700E+04 0.  0.
        2    1    3    3  502    0  0.97347614326E+03 -0.31251228655E+03  0.30151116487E+03  0.10659402954E+04  0.25500000920E-02 0. -1.
       -2    1    3    3    0  502 -0.97347614326E+03  0.31251228655E+03 -0.15603666444E+03  0.10342471520E+04  0.25500000920E-02 0.  1.
</event>
<event>
 5   0  0.1513292E-05  0.2108142E+04  0.7818609E-02  0.8557665E-01
        1   -1    0    0  501    0  0.00000000000E+00  0.00000000000E+00  0.75862262184E+03  0.75862262186E+03  0.50400001928E-02 0. -1.
       -1   -1    0    0    0  501  0.00000000000E+00  0.00000000000E+00 -0.14645826486E+04  0.14645826486E+04  0.50400001928E-02 0.  1.
    10030    2    1    2    0    0  0.00000000000E+00  0.00000000000E+00 -0.70596002680E+03  0.22232052705E+04  0.21081418632E+04 0.  0.
        1    1    3    3  502    0  0.99477871183E+03  0.12024513670E+03 -0.69797768306E+03  0.12211537268E+04  0.50400001928E-02 0.  1.
       -1    1    3    3    0  502 -0.99477871183E+03 -0.12024513670E+03 -0.79823437405E+01  0.10020515437E+04  0.50400001928E-02 0. -1.
</event>
<event>
 5   0  0.1435410E-05  0.2091724E+04  0.7818609E-02  0.8564898E-01
        1   -1    0    0  501    0  0.00000000000E+00  0.00000000000E+00  0.90762957605E+03  0.90762957606E+03  0.50400001928E-02 0. -1.
       -1   -1    0    0    0  501  0.00000000000E+00  0.00000000000E+00 -0.12051474546E+04  0.12051474546E+04  0.50400001928E-02 0.  1.
    10030    2    1    2    0    0  0.00000000000E+00  0.00000000000E+00 -0.29751787853E+03  0.21127770306E+04  0.20917241437E+04 0.  0.
        2    1    3    3  502    0  0.50408909766E+03 -0.84116939964E+03  0.21843220675E+03  0.10046812461E+04  0.25500000920E-02 0. -1.
       -2    1    3    3    0  502 -0.50408909766E+03  0.84116939964E+03 -0.51595008528E+03  0.11080957846E+04  0.25500000920E-02 0.  1.
</event>
<event>
 5   0  0.3257130E-05  0.2107931E+04  0.7818609E-02  0.8557758E-01
        2   -1    0    0  501    0  0.00000000000E+00  0.00000000000E+00  0.13192879141E+04  0.13192879141E+04  0.25500000920E-02 0. -1.
       -2   -1    0    0    0  501  0.00000000000E+00  0.00000000000E+00 -0.84200200064E+03  0.84200200065E+03  0.25500000920E-02 0.  1.
    10030    2    1    2    0    0  0.00000000000E+00  0.00000000000E+00  0.47728591345E+03  0.21612899147E+04  0.21079307988E+04 0.  0.
        3    1    3    3  502    0  0.81304465281E+03 -0.23887718961E+03 -0.40390976352E+03  0.93874758399E+03  0.10100000352E+00 0.  1.
       -3    1    3    3    0  502 -0.81304465281E+03  0.23887718961E+03  0.88119567697E+03  0.12225423308E+04  0.10100000352E+00 0. -1.
</event>
<event>
 5   0  0.1435410E-05  0.2098944E+04  0.7818609E-02  0.8561709E-01
       -1   -1    0    0    0  501  0.00000000000E+00  0.00000000000E+00  0.72991890024E+03  0.72991890025E+03  0.50400001928E-02 0. -1.
        1   -1    0    0  501    0  0.00000000000E+00  0.00000000000E+00 -0.15089223677E+04  0.15089223678E+04  0.50400001928E-02 0.  1.
    10030    2    1    2    0    0  0.00000000000E+00  0.00000000000E+00 -0.77900346751E+03  0.22388412680E+04  0.20989435011E+04 0.  0.
        2    1    3    3  502    0  0.40919228328E+03  0.18629614969E+03  0.62198898699E+03  0.76747304841E+03  0.25500000920E-02 0. -1.
       -2    1    3    3    0  502 -0.40919228328E+03 -0.18629614969E+03 -0.14009924545E+04  0.14713682196E+04  0.25500000920E-02 0.  1.
</event>
<event>
 5   0  0.3242231E-05  0.2069277E+04  0.7818609E-02  0.8574899E-01
       -2   -1    0    0    0  501  0.00000000000E+00  0.00000000000E+00  0.11413621035E+04  0.11413621035E+04  0.25500000920E-02 0. -1.
        2   -1    0    0  501    0  0.00000000000E+00  0.00000000000E+00 -0.93789393410E+03  0.93789393410E+03  0.25500000920E-02 0.  1.
    10030    2    1    2    0    0  0.00000000000E+00  0.00000000000E+00  0.20346816940E+03  0.20792560376E+04  0.20692767756E+04 0.  0.
        4    1    3    3  502    0 -0.33167558276E+03  0.33091489304E+03  0.10286586133E+04  0.11303333642E+04  0.12699999809E+01 0. -1.
       -4    1    3    3    0  502  0.33167558276E+03 -0.33091489304E+03 -0.82519044385E+03  0.94892267343E+03  0.12699999809E+01 0.  1.
</event>
<event>
 5   0  0.1466480E-05  0.2090928E+04  0.7818609E-02  0.8565250E-01
       -1   -1    0    0    0  501  0.00000000000E+00  0.00000000000E+00  0.67998314173E+03  0.67998314175E+03  0.50400001928E-02 0. -1.
        1   -1    0    0  501    0  0.00000000000E+00  0.00000000000E+00 -0.16073855529E+04  0.16073855529E+04  0.50400001928E-02 0.  1.
    10030    2    1    2    0    0  0.00000000000E+00  0.00000000000E+00 -0.92740241118E+03  0.22873686947E+04  0.20909280985E+04 0.  0.
        3    1    3    3  502    0  0.73946262666E+03 -0.42632977083E+03  0.19669707393E+03  0.87592910604E+03  0.10100000352E+00 0. -1.
       -3    1    3    3    0  502 -0.73946262666E+03  0.42632977083E+03 -0.11240994851E+04  0.14114395886E+04  0.10100000352E+00 0.  1.
</event>
<event>
 5   0  0.1513292E-05  0.2106043E+04  0.7818609E-02  0.8558586E-01
       -1   -1    0    0    0  501  0.00000000000E+00  0.00000000000E+00  0.83123385361E+03  0.83123385363E+03  0.50400001928E-02 0.  1.
        1   -1    0    0  501    0  0.00000000000E+00  0.00000000000E+00 -0.13339865764E+04  0.13339865765E+04  0.50400001928E-02 0. -1.
    10030    2    1    2    0    0  0.00000000000E+00  0.00000000000E+00 -0.50275272283E+03  0.21652204301E+04  0.21060434968E+04 0.  0.
        1    1    3    3  502    0  0.27883988692E+03 -0.89626045825E+02 -0.12912666360E+04  0.13240672324E+04  0.50400001928E-02 0. -1.
       -1    1    3    3    0  502 -0.27883988692E+03  0.89626045825E+02  0.78851391319E+03  0.84115319767E+03  0.50400001928E-02 0.  1.
</event>
<event>
 5   0  0.3242231E-05  0.2101377E+04  0.7818609E-02  0.8560637E-01
        2   -1    0    0  501    0  0.00000000000E+00  0.00000000000E+00  0.15570194558E+04  0.15570194558E+04  0.25500000920E-02 0.  1.
       -2   -1    0    0    0  501  0.00000000000E+00  0.00000000000E+00 -0.70901275803E+03  0.70901275803E+03  0.25500000920E-02 0. -1.
    10030    2    1    2    0    0  0.00000000000E+00  0.00000000000E+00  0.84800669776E+03  0.22660322138E+04  0.21013773185E+04 0.  0.
        4    1    3    3  502    0  0.31977075188E+03 -0.80336021971E+03 -0.21968023074E+03  0.89213339420E+03  0.12699999809E+01 0. -1.
       -4    1    3    3    0  502 -0.31977075188E+03  0.80336021971E+03  0.10676869285E+04  0.13738988196E+04  0.12699999809E+01 0.  1.
</event>
<event>
 5   0  0.3108326E-05  0.2098823E+04  0.7818609E-02  0.8561762E-01
        2   -1    0    0  501    0  0.00000000000E+00  0.00000000000E+00  0.17063967199E+04  0.17063967199E+04  0.25500000920E-02 0.  1.
       -2   -1    0    0    0  501  0.00000000000E+00  0.00000000000E+00 -0.64537443392E+03  0.64537443392E+03  0.25500000920E-02 0. -1.
    10030    2    1    2    0    0  0.00000000000E+00  0.00000000000E+00  0.10610222860E+04  0.23517711538E+04  0.20988233057E+04 0.  0.
        5    1    3    3  502    0 -0.42865113170E+03 -0.83953028204E+03  0.13746783503E+02  0.94274278105E+03  0.46999998093E+01 0.  1.
       -5    1    3    3    0  502  0.42865113170E+03  0.83953028204E+03  0.10472755025E+04  0.14090283728E+04  0.46999998093E+01 0. -1.
</event>
<event>
 5   0  0.1435410E-05  0.2097387E+04  0.7818609E-02  0.8562395E-01
       -1   -1    0    0    0  501  0.00000000000E+00  0.00000000000E+00  0.78647900632E+03  0.78647900633E+03  0.50400001928E-02 0.  1.
        1   -1    0    0  501    0  0.00000000000E+00  0.00000000000E+00 -0.13983311517E+04  0.13983311517E+04  0.50400001928E-02 0. -1.
    10030    2    1    2    0    0  0.00000000000E+00  0.00000000000E+00 -0.61185214534E+03  0.21848101580E+04  0.20973870360E+04 0.  0.
        2    1    3    3  502    0 -0.10272350843E+04  0.90723076150E+02 -0.10741664429E+03  0.10368128715E+04  0.25500000920E-02 0.  1.
       -2    1    3    3    0  502  0.10272350843E+04 -0.90723076150E+02 -0.50443550105E+03  0.11479972865E+04  0.25500000920E-02 0. -1.
</event>
<event>
 5   0  0.1435410E-05  0.2087246E+04  0.7818609E-02  0.8566882E-01
       -1   -1    0    0    0  501  0.00000000000E+00  0.00000000000E+00  0.50922201563E+03  0.50922201566E+03  0.50400001928E-02 0. -1.
        1   -1    0    0  501    0  0.00000000000E+00  0.00000000000E+00 -0.21388493597E+04  0.21388493597E+04  0.50400001928E-02 0.  1.
    10030    2    1    2    0    0  0.00000000000E+00  0.00000000000E+00 -0.16296273441E+04  0.26480713754E+04  0.20872462070E+04 0.  0.
        2    1    3    3  502    0 -0.36574672124E+03  0.93806474837E+03 -0.46641278879E+03  0.11096292290E+04  0.25500000920E-02 0.  1.
       -2    1    3    3    0  502  0.36574672124E+03 -0.93806474837E+03 -0.11632145553E+04  0.15384421464E+04  0.25500000920E-02 0. -1.
</event>
<event>
 5   0  0.1513292E-05  0.2098984E+04  0.7818609E-02  0.8561691E-01
        1   -1    0    0  501    0  0.00000000000E+00  0.00000000000E+00  0.13524151055E+04  0.13524151055E+04  0.50400001928E-02 0. -1.
       -1   -1    0    0    0  501  0.00000000000E+00  0.00000000000E+00 -0.81441930276E+03  0.81441930277E+03  0.50400001928E-02 0.  1.
    10030    2    1    2    0    0  0.00000000000E+00  0.00000000000E+00  0.53799580274E+03  0.21668344083E+04  0.20989835324E+04 0.  0.
        1    1    3    3  502    0 -0.34319082764E+02  0.54633668780E+03  0.11933596595E+04  0.13129237803E+04  0.50400001928E-02 0. -1.
       -1    1    3    3    0  502  0.34319082764E+02 -0.54633668780E+03 -0.65536385675E+03  0.85391062801E+03  0.50400001928E-02 0.  1.
</event>
<event>
 5   0  0.1453430E-05  0.2089384E+04  0.7818609E-02  0.8565934E-01
       -1   -1    0    0    0  501  0.00000000000E+00  0.00000000000E+00  0.10561977615E+04  0.10561977615E+04  0.50400001928E-02 0. -1.
        1   -1    0    0  501    0  0.00000000000E+00  0.00000000000E+00 -0.10333112941E+04  0.10333112941E+04  0.50400001928E-02 0.  1.
    10030    2    1    2    0    0  0.00000000000E+00  0.00000000000E+00  0.22886467343E+02  0.20895090556E+04  0.20893837137E+04 0.  0.
        5    1    3    3  502    0 -0.71600695176E+02 -0.10403709559E+04 -0.50694222496E+02  0.10440739340E+04  0.46999998093E+01 0.  1.
       -5    1    3    3    0  502  0.71600695176E+02  0.10403709559E+04  0.73580689839E+02  0.10454351216E+04  0.46999998093E+01 0. -1.
</event>
<event>
 5   0  0.1466480E-05  0.2094988E+04  0.7818609E-02  0.8563454E-01
        1   -1    0    0  501    0  0.00000000000E+00  0.00000000000E+00  0.17132622107E+04  0.17132622107E+04  0.50400001928E-02 0.  1.
       -1   -1    0    0    0  501  0.00000000000E+00  0.00000000000E+00 -0.64044129760E+03  0.64044129762E+03  0.50400001928E-02 0. -1.
    10030    2    1    2    0    0  0.00000000000E+00  0.00000000000E+00  0.10728209131E+04  0.23537035083E+04  0.20949881846E+04 0.  0.
        3    1    3    3  502    0  0.29965218155E+03 -0.30323732917E+03 -0.53856672498E+03  0.68687585135E+03  0.10100000352E+00 0. -1.
       -3    1    3    3    0  502 -0.29965218155E+03  0.30323732917E+03  0.16113876381E+04  0.16668276570E+04  0.10100000352E+00 0.  1.
</event>
<event>
 5   0  0.3130517E-05  0.2098157E+04  0.7818609E-02  0.8562056E-01
       -2   -1    0    0    0  501  0.00000000000E+00  0.00000000000E+00  0.14387870173E+04  0.14387870173E+04  0.25500000920E-02 0. -1.
        2   -1    0    0  501    0  0.00000000000E+00  0.00000000000E+00 -0.76492630782E+03  0.76492630782E+03  0.25500000920E-02 0.  1.
    10030    2    1    2    0    0  0.00000000000E+00  0.00000000000E+00  0.67386070951E+03  0.22037133251E+04  0.20981573258E+04 0.  0.
        1    1    3    3  502    0  0.40789036073E+03 -0.35498419980E+03 -0.60728374798E+03  0.81313091139E+03  0.50400001928E-02 0.  1.
       -1    1    3    3    0  502 -0.40789036073E+03  0.35498419980E+03  0.12811444575E+04  0.13905824138E+04  0.50400001928E-02 0. -1.
</event>
<event>
 5   0  0.1453430E-05  0.2105031E+04  0.7818609E-02  0.8559030E-01
       -1   -1    0    0    0  501  0.00000000000E+00  0.00000000000E+00  0.63060205439E+03  0.63060205441E+03  0.50400001928E-02 0.  1.
        1   -1    0    0  501    0  0.00000000000E+00  0.00000000000E+00 -0.17567160906E+04  0.17567160906E+04  0.50400001928E-02 0. -1.
    10030    2    1    2    0    0  0.00000000000E+00  0.00000000000E+00 -0.11261140362E+04  0.23873181450E+04  0.21050309031E+04 0.  0.
        5    1    3    3  502    0 -0.27583169924E+03  0.82420929077E+03 -0.12362610815E+04  0.15112139600E+04  0.46999998093E+01 0. -1.
       -5    1    3    3    0  502  0.27583169924E+03 -0.82420929077E+03  0.11014704535E+03  0.87610418495E+03  0.46999998093E+01 0.  1.
</event>
<event>
 5   0  0.1513292E-05  0.2101839E+04  0.7818609E-02  0.8560434E-01
        1   -1    0    0  501    0  0.00000000000E+00  0.00000000000E+00  0.13596459302E+04  0.13596459302E+04  0.50400001928E-02 0. -1.
       -1   -1    0    0    0  501  0.00000000000E+00  0.00000000000E+00 -0.81229390898E+03  0.81229390900E+03  0.50400001928E-02 0.  1.
    10030    2    1    2    0    0  0.00000000000E+00  0.00000000000E+00  0.54735202118E+03  0.21719398392E+04  0.21018392969E+04 0.  0.
        1    1    3    3  502    0 -0.20447478418E+03  0.37525403571E+03  0.12658051050E+04  0.13359970406E+04  0.50400001928E-02 0. -1.
       -1    1    3    3    0  502  0.20447478418E+03 -0.37525403571E+03 -0.71845308385E+03  0.83594279852E+03  0.50400001928E-02 0.  1.
</event>
<event>
 5   0  0.1513292E-05  0.2096952E+04  0.7818609E-02  0.8562587E-01
        1   -1    0    0  501    0  0.00000000000E+00  0.00000000000E+00  0.21223632325E+04  0.21223632325E+04  0.50400001928E-02 0.  1.
       -1   -1    0    0    0  501  0.00000000000E+00  0.00000000000E+00 -0.51796121102E+03  0.51796121104E+03  0.50400001928E-02 0. -1.
    10030    2    1    2    0    0  0.00000000000E+00  0.00000000000E+00  0.16044020215E+04  0.26403244436E+04  0.20969519119E+04 0.  0.
        1    1    3    3  502    0  0.62037361661E+03  0.30581056434E+03 -0.18996891033E+03  0.71726683484E+03  0.50400001928E-02 0. -1.
       -1    1    3    3    0  502 -0.62037361661E+03 -0.30581056434E+03  0.17943709319E+04  0.19230576087E+04  0.50400001928E-02 0.  1.
</event>
<event>
 5   0  0.1492552E-05  0.2025639E+04  0.7818609E-02  0.8594726E-01
        1   -1    0    0  501    0  0.00000000000E+00  0.00000000000E+00  0.76459920775E+03  0.76459920777E+03  0.50400001928E-02 0.  1.
       -1   -1    0    0    0  501  0.00000000000E+00  0.00000000000E+00 -0.13416229198E+04  0.13416229198E+04  0.50400001928E-02 0. -1.
    10030    2    1    2    0    0  0.00000000000E+00  0.00000000000E+00 -0.57702371202E+03  0.21062221275E+04  0.20256394759E+04 0.  0.
        4    1    3    3  502    0 -0.74173135872E+03 -0.68630675027E+03 -0.35918521090E+03  0.10724728400E+04  0.12699999809E+01 0. -1.
       -4    1    3    3    0  502  0.74173135872E+03  0.68630675027E+03 -0.21783850112E+03  0.10337492875E+04  0.12699999809E+01 0.  1.
</event>
<event>
 5   0  0.1466480E-05  0.2103348E+04  0.7818609E-02  0.8559770E-01
        1   -1    0    0  501    0  0.00000000000E+00  0.00000000000E+00  0.99077191582E+03  0.99077191583E+03  0.50400001928E-02 0.  1.
       -1   -1    0    0    0  501  0.00000000000E+00  0.00000000000E+00 -0.11163200308E+04  0.11163200308E+04  0.50400001928E-02 0. -1.
    10030    2    1    2    0    0  0.00000000000E+00  0.00000000000E+00 -0.12554811499E+03  0.21070919467E+04  0.21033483170E+04 0.  0.
        3    1    3    3  502    0 -0.55780404913E+03  0.86327010692E+03  0.16041810913E+03  0.10402473815E+04  0.10100000352E+00 0.  1.
       -3    1    3    3    0  502  0.55780404913E+03 -0.86327010692E+03 -0.28596622413E+03  0.10668445652E+04  0.10100000352E+00 0. -1.
</event>
<event>
 5   0  0.3130517E-05  0.2106754E+04  0.7818609E-02  0.8558274E-01
       -2   -1    0    0    0  501  0.00000000000E+00  0.00000000000E+00  0.14478919509E+04  0.14478919509E+04  0.25500000920E-02 0. -1.
        2   -1    0    0  501    0  0.00000000000E+00  0.00000000000E+00 -0.76635776693E+03  0.76635776694E+03  0.25500000920E-02 0.  1.
    10030    2    1    2    0    0  0.00000000000E+00  0.00000000000E+00  0.68153418400E+03  0.22142497179E+04  0.21067541312E+04 0.  0.
        1    1    3    3  502    0  0.54322286636E+03 -0.41849055424E+03 -0.49964351603E+03  0.84845098248E+03  0.50400001928E-02 0.  1.
       -1    1    3    3    0  502 -0.54322286636E+03  0.41849055424E+03  0.11811777000E+04  0.13657987354E+04  0.50400001928E-02 0. -1.
</event>
<event>
 5   0  0.3257130E-05  0.2158444E+04  0.7818609E-02  0.8535926E-01
        2   -1    0    0  501    0  0.00000000000E+00  0.00000000000E+00  0.16943407250E+04  0.16943407250E+04  0.25500000920E-02 0.  1.
       -2   -1    0    0    0  501  0.00000000000E+00  0.00000000000E+00 -0.68741816214E+03  0.68741816214E+03  0.25500000920E-02 0. -1.
    10030    2    1    2    0    0  0.00000000000E+00  0.00000000000E+00  0.10069225629E+04  0.23817588871E+04  0.21584444280E+04 0.  0.
        3    1    3    3  502    0 -0.10446050687E+04  0.75436257047E+02  0.21607338939E+03  0.10693821105E+04  0.10100000352E+00 0. -1.
       -3    1    3    3    0  502  0.10446050687E+04 -0.75436257047E+02  0.79084917347E+03  0.13123767766E+04  0.10100000352E+00 0.  1.
</event>
<event>
 5   0  0.1466480E-05  0.2112783E+04  0.7818609E-02  0.8555633E-01
       -1   -1    0    0    0  501  0.00000000000E+00  0.00000000000E+00  0.67152164221E+03  0.67152164223E+03  0.50400001928E-02 0. -1.
        1   -1    0    0  501    0  0.00000000000E+00  0.00000000000E+00 -0.16618417131E+04  0.16618417131E+04  0.50400001928E-02 0.  1.
    10030    2    1    2    0    0  0.00000000000E+00  0.00000000000E+00 -0.99032007092E+03  0.23333633554E+04  0.21127826924E+04 0.  0.
        3    1    3    3  502    0  0.85881812864E+03 -0.15395665104E+02 -0.11743068217E+04  0.14549234091E+04  0.10100000352E+00 0.  1.
       -3    1    3    3    0  502 -0.85881812864E+03  0.15395665104E+02  0.18398675078E+03  0.87843994629E+03  0.10100000352E+00 0. -1.
</event>
<event>
 5   0  0.1129987E-05  0.2094760E+04  0.7818609E-02  0.8563555E-01
        4   -1    0    0  501    0  0.00000000000E+00  0.00000000000E+00  0.10468906645E+04  0.10468914348E+04  0.12699999809E+01 0.  1.
       -4   -1    0    0    0  501  0.00000000000E+00  0.00000000000E+00 -0.10478677307E+04  0.10478685004E+04  0.12699999809E+01 0. -1.
    10030    2    1    2    0    0  0.00000000000E+00  0.00000000000E+00 -0.97706627438E+00  0.20947599352E+04  0.20947597073E+04 0.  0.
        4    1    3    3  502    0 -0.13865076050E+03 -0.38475704989E+03 -0.96471938017E+03  0.10478297172E+04  0.12699999809E+01 0. -1.
       -4    1    3    3    0  502  0.13865076050E+03  0.38475704989E+03  0.96374231390E+03  0.10469302180E+04  0.12699999809E+01 0.  1.
</event>
<event>
 5   0  0.1492552E-05  0.2100131E+04  0.7818609E-02  0.8561186E-01
        1   -1    0    0  501    0  0.00000000000E+00  0.00000000000E+00  0.12039909783E+04  0.12039909783E+04  0.50400001928E-02 0. -1.
       -1   -1    0    0    0  501  0.00000000000E+00  0.00000000000E+00 -0.91581851302E+03  0.91581851304E+03  0.50400001928E-02 0.  1.
    10030    2    1    2    0    0  0.00000000000E+00  0.00000000000E+00  0.28817246529E+03  0.21198094914E+04  0.21001306888E+04 0.  0.
        4    1    3    3  502    0  0.50397939588E+03  0.69875258463E+03  0.75003232623E+03  0.11422786478E+04  0.12699999809E+01 0. -1.
       -4    1    3    3    0  502 -0.50397939588E+03 -0.69875258463E+03 -0.46185986094E+03  0.97753084353E+03  0.12699999809E+01 0.  1.
</event>
<event>
 5   0  0.1435410E-05  0.2090756E+04  0.7818609E-02  0.8565326E-01
       -1   -1    0    0    0  501  0.00000000000E+00  0.00000000000E+00  0.11178768925E+04  0.11178768925E+04  0.50400001928E-02 0. -1.
        1   -1    0    0  501    0  0.00000000000E+00  0.00000000000E+00 -0.97758111281E+03  0.97758111282E+03  0.50400001928E-02 0.  1.
    10030    2    1    2    0    0  0.00000000000E+00  0.00000000000E+00  0.14029577971E+03  0.20954580054E+04  0.20907561662E+04 0.  0.
        2    1    3    3  502    0 -0.10218367129E+04 -0.12169643971E+03  0.25455908186E+03  0.10600757602E+04  0.25500000920E-02 0. -1.
       -2    1    3    3    0  502  0.10218367129E+04  0.12169643971E+03 -0.11426330215E+03  0.10353822451E+04  0.25500000920E-02 0.  1.
</event>
<event>
 5   0  0.1513292E-05  0.2068395E+04  0.7818609E-02  0.8575295E-01
        1   -1    0    0  501    0  0.00000000000E+00  0.00000000000E+00  0.10144109783E+04  0.10144109783E+04  0.50400001928E-02 0.  1.
       -1   -1    0    0    0  501  0.00000000000E+00  0.00000000000E+00 -0.10543704381E+04  0.10543704382E+04  0.50400001928E-02 0. -1.
    10030    2    1    2    0    0  0.00000000000E+00  0.00000000000E+00 -0.39959459861E+02  0.20687814164E+04  0.20683954628E+04 0.  0.
        1    1    3    3  502    0 -0.35956488691E+03  0.66519762233E+03  0.68569438131E+03  0.10207602898E+04  0.50400001928E-02 0.  1.
       -1    1    3    3    0  502  0.35956488691E+03 -0.66519762233E+03 -0.72565384117E+03  0.10480211266E+04  0.50400001928E-02 0. -1.
</event>
<event>
 5   0  0.1453430E-05  0.2102087E+04  0.7818609E-02  0.8560325E-01
       -1   -1    0    0    0  501  0.00000000000E+00  0.00000000000E+00  0.10710524960E+04  0.10710524960E+04  0.50400001928E-02 0. -1.
        1   -1    0    0  501    0  0.00000000000E+00  0.00000000000E+00 -0.10314084342E+04  0.10314084343E+04  0.50400001928E-02 0.  1.
    10030    2    1    2    0    0  0.00000000000E+00  0.00000000000E+00  0.39644061730E+02  0.21024609302E+04  0.21020871323E+04 0.  0.
        5    1    3    3  502    0 -0.69572729205E+03  0.19418822448E+03 -0.74380895922E+03  0.10368314180E+04  0.46999998093E+01 0.  1.
       -5    1    3    3    0  502  0.69572729205E+03 -0.19418822448E+03  0.78345302095E+03  0.10656295123E+04  0.46999998093E+01 0. -1.
</event>
<event>
 5   0  0.3108326E-05  0.2087833E+04  0.7818609E-02  0.8566622E-01
       -2   -1    0    0    0  501  0.00000000000E+00  0.00000000000E+00  0.82852274479E+03  0.82852274480E+03  0.25500000920E-02 0.  1.
        2   -1    0    0  501    0  0.00000000000E+00  0.00000000000E+00 -0.13153072176E+04  0.13153072176E+04  0.25500000920E-02 0. -1.
    10030    2    1    2    0    0  0.00000000000E+00  0.00000000000E+00 -0.48678447283E+03  0.21438299624E+04  0.20878332751E+04 0.  0.
        5    1    3    3  502    0  0.37573545206E+03 -0.40852355005E+03 -0.11512265353E+04  0.12780505649E+04  0.46999998093E+01 0. -1.
       -5    1    3    3    0  502 -0.37573545206E+03  0.40852355005E+03  0.66444206244E+03  0.86577939755E+03  0.46999998093E+01 0.  1.
</event>
<event>
 5   0  0.3242231E-05  0.2081968E+04  0.7818609E-02  0.8569229E-01
        2   -1    0    0  501    0  0.00000000000E+00  0.00000000000E+00  0.96854202693E+03  0.96854202693E+03  0.25500000920E-02 0.  1.
       -2   -1    0    0    0  501  0.00000000000E+00  0.00000000000E+00 -0.11188440406E+04  0.11188440406E+04  0.25500000920E-02 0. -1.
    10030    2    1    2    0    0  0.00000000000E+00  0.00000000000E+00 -0.15030201364E+03  0.20873860675E+04  0.20819677950E+04 0.  0.
        4    1    3    3  502    0  0.10225917258E+04 -0.15884610365E+03 -0.18822723135E+03  0.10518350754E+04  0.12699999809E+01 0.  1.
       -4    1    3    3    0  502 -0.10225917258E+04  0.15884610365E+03  0.37925217706E+02  0.10355509921E+04  0.12699999809E+01 0. -1.
</event>
<event>
 5   0  0.1453430E-05  0.2107985E+04  0.7818609E-02  0.8557734E-01
       -1   -1    0    0    0  501  0.00000000000E+00  0.00000000000E+00  0.81453863311E+03  0.81453863312E+03  0.50400001928E-02 0. -1.
        1   -1    0    0  501    0  0.00000000000E+00  0.00000000000E+00 -0.13638403368E+04  0.13638403368E+04  0.50400001928E-02 0.  1.
    10030    2    1    2    0    0  0.00000000000E+00  0.00000000000E+00 -0.54930170368E+03  0.21783789699E+04  0.21079854304E+04 0.  0.
        5    1    3    3  502    0  0.10319939654E+04  0.16068373039E+03 -0.12833255813E+03  0.10522937523E+04  0.46999998093E+01 0. -1.
       -5    1    3    3    0  502 -0.10319939654E+04 -0.16068373039E+03 -0.42096914555E+03  0.11260852176E+04  0.46999998093E+01 0.  1.
</event>
<event>
 5   0  0.1129987E-05  0.2089669E+04  0.7818609E-02  0.8565808E-01
       -3   -1    0    0    0  501  0.00000000000E+00  0.00000000000E+00  0.11277940617E+04  0.11277940662E+04  0.10100000352E+00 0.  1.
        3   -1    0    0  501    0  0.00000000000E+00  0.00000000000E+00 -0.96797710723E+03  0.96797711250E+03  0.10100000352E+00 0. -1.
    10030    2    1    2    0    0  0.00000000000E+00  0.00000000000E+00  0.15981695444E+03  0.20957711787E+04  0.20896687236E+04 0.  0.
        4    1    3    3  502    0  0.51529175640E+03 -0.63142381583E+03  0.73561865867E+03  0.10978879967E+04  0.12699999809E+01 0.  1.
       -4    1    3    3    0  502 -0.51529175640E+03  0.63142381583E+03 -0.57580170423E+03  0.99788318199E+03  0.12699999809E+01 0. -1.
</event>
<event>
 5   0  0.3130517E-05  0.2121567E+04  0.7818609E-02  0.8551802E-01
        2   -1    0    0  501    0  0.00000000000E+00  0.00000000000E+00  0.21428919652E+04  0.21428919652E+04  0.25500000920E-02 0. -1.
       -2   -1    0    0    0  501  0.00000000000E+00  0.00000000000E+00 -0.52511356081E+03  0.52511356081E+03  0.25500000920E-02 0.  1.
    10030    2    1    2    0    0  0.00000000000E+00  0.00000000000E+00  0.16177784044E+04  0.26680055260E+04  0.21215669966E+04 0.  0.
        1    1    3    3  502    0  0.66013776432E+03 -0.61787165324E+03  0.11129337888E+03  0.91100684079E+03  0.50400001928E-02 0.  1.
       -1    1    3    3    0  502 -0.66013776432E+03  0.61787165324E+03  0.15064850255E+04  0.17569986852E+04  0.50400001928E-02 0. -1.
</event>
<event>
 5   0  0.3242231E-05  0.2091208E+04  0.7818609E-02  0.8565126E-01
       -2   -1    0    0    0  501  0.00000000000E+00  0.00000000000E+00  0.96128625381E+03  0.96128625381E+03  0.25500000920E-02 0. -1.
        2   -1    0    0  501    0  0.00000000000E+00  0.00000000000E+00 -0.11373172933E+04  0.11373172933E+04  0.25500000920E-02 0.  1.
    10030    2    1    2    0    0  0.00000000000E+00  0.00000000000E+00 -0.17603103954E+03  0.20986035472E+04  0.20912077662E+04 0.  0.
        4    1    3    3  502    0  0.61468898723E+03 -0.83935009420E+03 -0.19295462715E+03  0.10581040746E+04  0.12699999809E+01 0.  1.
       -4    1    3    3    0  502 -0.61468898723E+03  0.83935009420E+03  0.16923587613E+02  0.10404994726E+04  0.12699999809E+01 0. -1.
</event>
<event>
 5   0  0.3242231E-05  0.2096603E+04  0.7818609E-02  0.8562741E-01
       -2   -1    0    0    0  501  0.00000000000E+00  0.00000000000E+00  0.61151372373E+03  0.61151372374E+03  0.25500000920E-02 0.  1.
        2   -1    0    0  501    0  0.00000000000E+00  0.00000000000E+00 -0.17970751952E+04  0.17970751952E+04  0.25500000920E-02 0. -1.
    10030    2    1    2    0    0  0.00000000000E+00  0.00000000000E+00 -0.11855614715E+04  0.24085889190E+04  0.20966031045E+04 0.  0.
        4    1    3    3  502    0  0.14228390258E+03 -0.30090466375E+03  0.54919549148E+03  0.64218815496E+03  0.12699999809E+01 0.  1.
       -4    1    3    3    0  502 -0.14228390258E+03  0.30090466375E+03 -0.17347569630E+04  0.17664007640E+04  0.12699999809E+01 0. -1.
</event>
<event>
 5   0  0.1492552E-05  0.2148627E+04  0.7818609E-02  0.8540120E-01
        1   -1    0    0  501    0  0.00000000000E+00  0.00000000000E+00  0.17520562365E+04  0.17520562365E+04  0.50400001928E-02 0. -1.
       -1   -1    0    0    0  501  0.00000000000E+00  0.00000000000E+00 -0.65874027587E+03  0.65874027589E+03  0.50400001928E-02 0.  1.
    10030    2    1    2    0    0  0.00000000000E+00  0.00000000000E+00  0.10933159606E+04  0.24107965124E+04  0.21486274769E+04 0.  0.
        4    1    3    3  502    0  0.40008488189E+03  0.81930258769E+03  0.11841608883E+04  0.14945110455E+04  0.12699999809E+01 0. -1.
       -4    1    3    3    0  502 -0.40008488189E+03 -0.81930258769E+03 -0.90844927742E+02  0.91628546682E+03  0.12699999809E+01 0.  1.
</event>
<event>
 5   0  0.1466480E-05  0.2094690E+04  0.7818609E-02  0.8563586E-01
       -1   -1    0    0    0  501  0.00000000000E+00  0.00000000000E+00  0.77286714863E+03  0.77286714864E+03  0.50400001928E-02 0. -1.
        1   -1    0    0  501    0  0.00000000000E+00  0.00000000000E+00 -0.14193016438E+04  0.14193016438E+04  0.50400001928E-02 0.  1.
    10030    2    1    2    0    0  0.00000000000E+00  0.00000000000E+00 -0.64643449518E+03  0.21921687925E+04  0.20946900625E+04 0.  0.
        3    1    3    3  502    0  0.32830909381E+03 -0.37042341452E+03  0.64273685148E+03  0.81124043141E+03  0.10100000352E+00 0. -1.
       -3    1    3    3    0  502 -0.32830909381E+03  0.37042341452E+03 -0.12891713467E+04  0.13809283610E+04  0.10100000352E+00 0.  1.
</event>
<event>
 5   0  0.1466480E-05  0.2095765E+04  0.7818609E-02  0.8563111E-01
       -1   -1    0    0    0  501  0.00000000000E+00  0.00000000000E+00  0.81786010673E+03  0.81786010675E+03  0.50400001928E-02 0. -1.
        1   -1    0    0  501    0  0.00000000000E+00  0.00000000000E+00 -0.13425991137E+04  0.13425991137E+04  0.50400001928E-02 0.  1.
    10030    2    1    2    0    0  0.00000000000E+00  0.00000000000E+00 -0.52473900698E+03  0.21604592205E+04  0.20957654969E+04 0.  0.
        3    1    3    3  502    0  0.54340229873E+02 -0.10377987054E+04 -0.40097911985E+03  0.11138955419E+04  0.10100000352E+00 0.  1.
       -3    1    3    3    0  502 -0.54340229873E+02  0.10377987054E+04 -0.12375988713E+03  0.10465636786E+04  0.10100000352E+00 0. -1.
</event>
<event>
 5   0  0.3130517E-05  0.2099413E+04  0.7818609E-02  0.8561502E-01
        2   -1    0    0  501    0  0.00000000000E+00  0.00000000000E+00  0.22290539699E+04  0.22290539699E+04  0.25500000920E-02 0. -1.
       -2   -1    0    0    0  501  0.00000000000E+00  0.00000000000E+00 -0.49432794018E+03  0.49432794018E+03  0.25500000920E-02 0.  1.
    10030    2    1    2    0    0  0.00000000000E+00  0.00000000000E+00  0.17347260297E+04  0.27233819100E+04  0.20994129251E+04 0.  0.
        1    1    3    3  502    0  0.81810470172E+03  0.63926922912E+03  0.10680043376E+04  0.14894944496E+04  0.50400001928E-02 0. -1.
       -1    1    3    3    0  502 -0.81810470172E+03 -0.63926922912E+03  0.66672169211E+03  0.12338874604E+04  0.50400001928E-02 0.  1.
</event>
<event>
 5   0  0.1492552E-05  0.2104409E+04  0.7818609E-02  0.8559303E-01
        1   -1    0    0  501    0  0.00000000000E+00  0.00000000000E+00  0.16859561211E+04  0.16859561211E+04  0.50400001928E-02 0. -1.
       -1   -1    0    0    0  501  0.00000000000E+00  0.00000000000E+00 -0.65668065974E+03  0.65668065976E+03  0.50400001928E-02 0.  1.
    10030    2    1    2    0    0  0.00000000000E+00  0.00000000000E+00  0.10292754613E+04  0.23426367809E+04  0.21044094449E+04 0.  0.
        4    1    3    3  502    0 -0.89122696173E+03 -0.34385687039E+03  0.10057235867E+04  0.13870849255E+04  0.12699999809E+01 0. -1.
       -4    1    3    3    0  502  0.89122696173E+03  0.34385687039E+03  0.23551874606E+02  0.95555185539E+03  0.12699999809E+01 0.  1.
</event>
<event>
 5   0  0.3130517E-05  0.2094352E+04  0.7818609E-02  0.8563735E-01
        2   -1    0    0  501    0  0.00000000000E+00  0.00000000000E+00  0.80032387936E+03  0.80032387937E+03  0.25500000920E-02 0.  1.
       -2   -1    0    0    0  501  0.00000000000E+00  0.00000000000E+00 -0.13701676620E+04  0.13701676620E+04  0.25500000920E-02 0. -1.
    10030    2    1    2    0    0  0.00000000000E+00  0.00000000000E+00 -0.56984378266E+03  0.21704915414E+04  0.20943523091E+04 0.  0.
        1    1    3    3  502    0 -0.50975871576E+03 -0.23472719311E+03  0.63131581535E+03  0.84469548491E+03  0.50400001928E-02 0.  1.
       -1    1    3    3    0  502  0.50975871576E+03  0.23472719311E+03 -0.12011595980E+04  0.13257960565E+04  0.50400001928E-02 0. -1.
</event>
<event>
 5   0  0.1453430E-05  0.1997164E+04  0.7818609E-02  0.8607948E-01
       -1   -1    0    0    0  501  0.00000000000E+00  0.00000000000E+00  0.62082165356E+03  0.62082165358E+03  0.50400001928E-02 0.  1.
        1   -1    0    0  501    0  0.00000000000E+00  0.00000000000E+00 -0.16062038991E+04  0.16062038991E+04  0.50400001928E-02 0. -1.
    10030    2    1    2    0    0  0.00000000000E+00  0.00000000000E+00 -0.98538224550E+03  0.22270255526E+04  0.19971641501E+04 0.  0.
        5    1    3    3  502    0  0.65483090066E+03  0.45821407561E+03  0.17485853460E+03  0.81814500222E+03  0.46999998093E+01 0.  1.
       -5    1    3    3    0  502 -0.65483090066E+03 -0.45821407561E+03 -0.11602407801E+04  0.14088805504E+04  0.46999998093E+01 0. -1.
</event>
<event>
 5   0  0.3257130E-05  0.2102865E+04  0.7818609E-02  0.8559982E-01
       -2   -1    0    0    0  501  0.00000000000E+00  0.00000000000E+00  0.91237774897E+03  0.91237774898E+03  0.25500000920E-02 0.  1.
        2   -1    0    0  501    0  0.00000000000E+00  0.00000000000E+00 -0.12116809660E+04  0.12116809660E+04  0.25500000920E-02 0. -1.
    10030    2    1    2    0    0  0.00000000000E+00  0.00000000000E+00 -0.29930321698E+03  0.21240587149E+04  0.21028654281E+04 0.  0.
        3    1    3    3  502    0  0.86876810592E+03 -0.22673435981E+03 -0.70228929385E+03  0.11399020810E+04  0.10100000352E+00 0. -1.
       -3    1    3    3    0  502 -0.86876810592E+03  0.22673435981E+03  0.40298607687E+03  0.98415663394E+03  0.10100000352E+00 0.  1.
</event>
<event>
 5   0  0.3130517E-05  0.2138236E+04  0.7818609E-02  0.8544584E-01
       -2   -1    0    0    0  501  0.00000000000E+00  0.00000000000E+00  0.12588810415E+04  0.12588810415E+04  0.25500000920E-02 0. -1.
        2   -1    0    0  501    0  0.00000000000E+00  0.00000000000E+00 -0.90796009090E+03  0.90796009090E+03  0.25500000920E-02 0.  1.
    10030    2    1    2    0    0  0.00000000000E+00  0.00000000000E+00  0.35092095057E+03  0.21668411324E+04  0.21382364180E+04 0.  0.
        1    1    3    3  502    0  0.80436433380E+03 -0.68574024020E+03  0.12775990057E+02  0.10570737365E+04  0.50400001928E-02 0. -1.
       -1    1    3    3    0  502 -0.80436433380E+03  0.68574024020E+03  0.33814496052E+03  0.11097673958E+04  0.50400001928E-02 0.  1.
</event>
<event>
 5   0  0.1453430E-05  0.2098484E+04  0.7818609E-02  0.8561912E-01
       -1   -1    0    0    0  501  0.00000000000E+00  0.00000000000E+00  0.69636122502E+03  0.69636122504E+03  0.50400001928E-02 0. -1.
        1   -1    0    0  501    0  0.00000000000E+00  0.00000000000E+00 -0.15809446323E+04  0.15809446323E+04  0.50400001928E-02 0.  1.
    10030    2    1    2    0    0  0.00000000000E+00  0.00000000000E+00 -0.88458340726E+03  0.22773058573E+04  0.20984837773E+04 0.  0.
        5    1    3    3  502    0  0.60864839353E+03  0.74425219596E+03 -0.89823987429E+03  0.13157587772E+04  0.46999998093E+01 0. -1.
       -5    1    3    3    0  502 -0.60864839353E+03 -0.74425219596E+03  0.13656467027E+02  0.96154708009E+03  0.46999998093E+01 0.  1.
</event>
<event>
 5   0  0.1435410E-05  0.2101778E+04  0.7818609E-02  0.8560461E-01
       -1   -1    0    0    0  501  0.00000000000E+00  0.00000000000E+00  0.65690558831E+03  0.65690558833E+03  0.50400001928E-02 0.  1.
        1   -1    0    0  501    0  0.00000000000E+00  0.00000000000E+00 -0.16811665613E+04  0.16811665613E+04  0.50400001928E-02 0. -1.
    10030    2    1    2    0    0  0.00000000000E+00  0.00000000000E+00 -0.10242609729E+04  0.23380721496E+04  0.21017780178E+04 0.  0.
        2    1    3    3  502    0  0.90934303874E+03 -0.41649160504E+03 -0.15338792125E+03  0.10118783887E+04  0.25500000920E-02 0.  1.
       -2    1    3    3    0  502 -0.90934303874E+03  0.41649160504E+03 -0.87087305169E+03  0.13261937609E+04  0.25500000920E-02 0. -1.
</event>
<event>
 5   0  0.3279789E-05  0.2094468E+04  0.7818609E-02  0.8563684E-01
        2   -1    0    0  501    0  0.00000000000E+00  0.00000000000E+00  0.16871812919E+04  0.16871812919E+04  0.25500000920E-02 0. -1.
       -2   -1    0    0    0  501  0.00000000000E+00  0.00000000000E+00 -0.65001824359E+03  0.65001824359E+03  0.25500000920E-02 0.  1.
    10030    2    1    2    0    0  0.00000000000E+00  0.00000000000E+00  0.10371630483E+04  0.23371995355E+04  0.20944675887E+04 0.  0.
        2    1    3    3  502    0 -0.33543936711E+03 -0.72103898321E+03  0.12789305496E+04  0.15060146530E+04  0.25500000920E-02 0.  1.
       -2    1    3    3    0  502  0.33543936711E+03  0.72103898321E+03 -0.24176750124E+03  0.83118488255E+03  0.25500000920E-02 0. -1.
</event>
<event>
 5   0  0.3279789E-05  0.2099329E+04  0.7818609E-02  0.8561539E-01
        2   -1    0    0  501    0  0.00000000000E+00  0.00000000000E+00  0.69204656765E+03  0.69204656766E+03  0.25500000920E-02 0.  1.
       -2   -1    0    0    0  501  0.00000000000E+00  0.00000000000E+00 -0.15920829723E+04  0.15920829723E+04  0.25500000920E-02 0. -1.
    10030    2    1    2    0    0  0.00000000000E+00  0.00000000000E+00 -0.90003640461E+03  0.22841295399E+04  0.20993289941E+04 0.  0.
        2    1    3    3  502    0  0.90641345883E+03  0.30284685565E+03 -0.92239544722E+03  0.13281998861E+04  0.25500000920E-02 0. -1.
       -2    1    3    3    0  502 -0.90641345883E+03 -0.30284685565E+03  0.22359042610E+02  0.95592965385E+03  0.25500000920E-02 0.  1.
</event>
<event>
 5   0  0.1466480E-05  0.2097567E+04  0.7818609E-02  0.8562316E-01
       -1   -1    0    0    0  501  0.00000000000E+00  0.00000000000E+00  0.11729915677E+04  0.11729915677E+04  0.50400001928E-02 0. -1.
        1   -1    0    0  501    0  0.00000000000E+00  0.00000000000E+00 -0.93772768735E+03  0.93772768736E+03  0.50400001928E-02 0.  1.
    10030    2    1    2    0    0  0.00000000000E+00  0.00000000000E+00  0.23526388038E+03  0.21107192551E+04  0.20975668477E+04 0.  0.
        3    1    3    3  502    0 -0.42749143830E+03 -0.63328960645E+03 -0.60530308089E+03  0.97478022415E+03  0.10100000352E+00 0.  1.
       -3    1    3    3    0  502  0.42749143830E+03  0.63328960645E+03  0.84056696127E+03  0.11359390309E+04  0.10100000352E+00 0. -1.
</event>
<event>
 5   0  0.1435410E-05  0.2097128E+04  0.7818609E-02  0.8562509E-01
        1   -1    0    0  501    0  0.00000000000E+00  0.00000000000E+00  0.12925808545E+04  0.12925808545E+04  0.50400001928E-02 0. -1.
       -1   -1    0    0    0  501  0.00000000000E+00  0.00000000000E+00 -0.85061361057E+03  0.85061361059E+03  0.50400001928E-02 0.  1.
    10030    2    1    2    0    0  0.00000000000E+00  0.00000000000E+00  0.44196724395E+03  0.21431944651E+04  0.20971283868E+04 0.  0.
        2    1    3    3  502    0  0.59650595731E+02 -0.81342520193E+03  0.89444939972E+03  0.12104786167E+04  0.25500000920E-02 0. -1.
       -2    1    3    3    0  502 -0.59650595731E+02  0.81342520193E+03 -0.45248215577E+03  0.93271584848E+03  0.25500000920E-02 0.  1.
</event>
<event>
 5   0  0.3130517E-05  0.2103337E+04  0.7818609E-02  0.8559775E-01
       -2   -1    0    0    0  501  0.00000000000E+00  0.00000000000E+00  0.46621587388E+03  0.46621587389E+03  0.25500000920E-02 0. -1.
        2   -1    0    0  501    0  0.00000000000E+00  0.00000000000E+00 -0.23723049038E+04  0.23723049038E+04  0.25500000920E-02 0.  1.
    10030    2    1    2    0    0  0.00000000000E+00  0.00000000000E+00 -0.19060890299E+04  0.28385207777E+04  0.21033365911E+04 0.  0.
        1    1    3    3  502    0 -0.47532135022E+03  0.51767362956E+03 -0.20088669417E+04  0.21282534534E+04  0.50400001928E-02 0.  1.
       -1    1    3    3    0  502  0.47532135022E+03 -0.51767362956E+03  0.10277791176E+03  0.71026732424E+03  0.50400001928E-02 0. -1.
</event>
<event>
 5   0  0.1492552E-05  0.2104415E+04  0.7818609E-02  0.8559301E-01
       -1   -1    0    0    0  501  0.00000000000E+00  0.00000000000E+00  0.12910750663E+04  0.12910750664E+04  0.50400001928E-02 0.  1.
        1   -1    0    0  501    0  0.00000000000E+00  0.00000000000E+00 -0.85753360042E+03  0.85753360043E+03  0.50400001928E-02 0. -1.
    10030    2    1    2    0    0  0.00000000000E+00  0.00000000000E+00  0.43354146593E+03  0.21486086668E+04  0.21044146455E+04 0.  0.
        4    1    3    3  502    0 -0.12750791578E+03 -0.35735494962E+03  0.12187973123E+04  0.12764910223E+04  0.12699999809E+01 0.  1.
       -4    1    3    3    0  502  0.12750791578E+03  0.35735494962E+03 -0.78525584640E+03  0.87211764448E+03  0.12699999809E+01 0. -1.
</event>
<event>
 5   0  0.3130517E-05  0.2098530E+04  0.7818609E-02  0.8561891E-01
       -2   -1    0    0    0  501  0.00000000000E+00  0.00000000000E+00  0.11967650668E+04  0.11967650668E+04  0.25500000920E-02 0. -1.
        2   -1    0    0  501    0  0.00000000000E+00  0.00000000000E+00 -0.91994390611E+03  0.91994390611E+03  0.25500000920E-02 0.  1.
    10030    2    1    2    0    0  0.00000000000E+00  0.00000000000E+00  0.27682116073E+03  0.21167089729E+04  0.20985297046E+04 0.  0.
        1    1    3    3  502    0 -0.51795190052E+03 -0.40563323171E+03  0.96289251521E+03  0.11661794398E+04  0.50400001928E-02 0. -1.
       -1    1    3    3    0  502  0.51795190052E+03  0.40563323171E+03 -0.68607135449E+03  0.95052953315E+03  0.50400001928E-02 0.  1.
</event>
<event>
 5   0  0.1513292E-05  0.2111460E+04  0.7818609E-02  0.8556212E-01
        1   -1    0    0  501    0  0.00000000000E+00  0.00000000000E+00  0.10258811749E+04  0.10258811749E+04  0.50400001928E-02 0.  1.
       -1   -1    0    0    0  501  0.00000000000E+00  0.00000000000E+00 -0.10864468354E+04  0.10864468354E+04  0.50400001928E-02 0. -1.
    10030    2    1    2    0    0  0.00000000000E+00  0.00000000000E+00 -0.60565660503E+02  0.21123280103E+04  0.21114595482E+04 0.  0.
        1    1    3    3  502    0 -0.11638018665E+03  0.87397388386E+03 -0.61120287164E+03  0.10728204173E+04  0.50400001928E-02 0. -1.
       -1    1    3    3    0  502  0.11638018665E+03 -0.87397388386E+03  0.55063721114E+03  0.10395075930E+04  0.50400001928E-02 0.  1.
</event>
<event>
 5   0  0.3242231E-05  0.2111121E+04  0.7818609E-02  0.8556360E-01
       -2   -1    0    0    0  501  0.00000000000E+00  0.00000000000E+00  0.10843333729E+04  0.10843333729E+04  0.25500000920E-02 0.  1.
        2   -1    0    0  501    0  0.00000000000E+00  0.00000000000E+00 -0.10275513761E+04  0.10275513761E+04  0.25500000920E-02 0. -1.
    10030    2    1    2    0    0  0.00000000000E+00  0.00000000000E+00  0.56781996793E+02  0.21118847490E+04  0.21111212656E+04 0.  0.
        4    1    3    3  502    0  0.25937282158E+03 -0.17372429341E+03 -0.98031500055E+03  0.10288214150E+04  0.12699999809E+01 0. -1.
       -4    1    3    3    0  502 -0.25937282158E+03  0.17372429341E+03  0.10370969973E+04  0.10830633340E+04  0.12699999809E+01 0.  1.
</event>
<event>
 5   0  0.1129987E-05  0.2111381E+04  0.7818609E-02  0.8556246E-01
        3   -1    0    0  501    0  0.00000000000E+00  0.00000000000E+00  0.10960490976E+04  0.10960491022E+04  0.10100000352E+00 0.  1.
       -3   -1    0    0    0  501  0.00000000000E+00  0.00000000000E+00 -0.10168181315E+04  0.10168181365E+04  0.10100000352E+00 0. -1.
    10030    2    1    2    0    0  0.00000000000E+00  0.00000000000E+00  0.79230966106E+02  0.21128672387E+04  0.21113811646E+04 0.  0.
        4    1    3    3  502    0 -0.95839681241E+03 -0.37555923253E+03  0.27411309697E+03  0.10652271072E+04  0.12699999809E+01 0.  1.
       -4    1    3    3    0  502  0.95839681241E+03  0.37555923253E+03 -0.19488213086E+03  0.10476401314E+04  0.12699999809E+01 0. -1.
</event>
<event>
 5   0  0.3257130E-05  0.2097792E+04  0.7818609E-02  0.8562217E-01
       -2   -1    0    0    0  501  0.00000000000E+00  0.00000000000E+00  0.10301115458E+04  0.10301115458E+04  0.25500000920E-02 0.  1.
        2   -1    0    0  501    0  0.00000000000E+00  0.00000000000E+00 -0.10680228297E+04  0.10680228297E+04  0.25500000920E-02 0. -1.
    10030    2    1    2    0    0  0.00000000000E+00  0.00000000000E+00 -0.37911283936E+02  0.20981343755E+04  0.20977918372E+04 0.  0.
        3    1    3    3  502    0 -0.28512725479E+03  0.28032947460E+02 -0.10281294370E+04  0.10673019942E+04  0.10100000352E+00 0. -1.
       -3    1    3    3    0  502  0.28512725479E+03 -0.28032947460E+02  0.99021815302E+03  0.10308323813E+04  0.10100000352E+00 0.  1.
</event>
<event>
 5   0  0.3279789E-05  0.2103239E+04  0.7818609E-02  0.8559818E-01
       -2   -1    0    0    0  501  0.00000000000E+00  0.00000000000E+00  0.10909827147E+04  0.10909827147E+04  0.25500000920E-02 0.  1.
        2   -1    0    0  501    0  0.00000000000E+00  0.00000000000E+00 -0.10136765454E+04  0.10136765454E+04  0.25500000920E-02 0. -1.
    10030    2    1    2    0    0  0.00000000000E+00  0.00000000000E+00  0.77306169250E+02  0.21046592601E+04  0.21032390157E+04 0.  0.
        2    1    3    3  502    0  0.78509277452E+03  0.18782981914E+03 -0.63578488384E+03  0.10275568715E+04  0.25500000920E-02 0. -1.
       -2    1    3    3    0  502 -0.78509277452E+03 -0.18782981914E+03  0.71309105309E+03  0.10771023886E+04  0.25500000920E-02 0.  1.
</event>
<event>
 5   0  0.3130517E-05  0.2104031E+04  0.7818609E-02  0.8559470E-01
       -2   -1    0    0    0  501  0.00000000000E+00  0.00000000000E+00  0.87335696173E+03  0.87335696173E+03  0.25500000920E-02 0. -1.
        2   -1    0    0  501    0  0.00000000000E+00  0.00000000000E+00 -0.12672213272E+04  0.12672213272E+04  0.25500000920E-02 0.  1.
    10030    2    1    2    0    0  0.00000000000E+00  0.00000000000E+00 -0.39386436544E+03  0.21405782889E+04  0.21040309581E+04 0.  0.
        1    1    3    3  502    0  0.80834189362E+03  0.11371279859E+03  0.47821334445E+03  0.94606301079E+03  0.50400001928E-02 0. -1.
       -1    1    3    3    0  502 -0.80834189362E+03 -0.11371279859E+03 -0.87207770989E+03  0.11945152781E+04  0.50400001928E-02 0.  1.
</event>
<event>
 5   0  0.1435410E-05  0.2110989E+04  0.7818609E-02  0.8556418E-01
        1   -1    0    0  501    0  0.00000000000E+00  0.00000000000E+00  0.88961298918E+03  0.88961298920E+03  0.50400001928E-02 0.  1.
       -1   -1    0    0    0  501  0.00000000000E+00  0.00000000000E+00 -0.12523065837E+04  0.12523065837E+04  0.50400001928E-02 0. -1.
    10030    2    1    2    0    0  0.00000000000E+00  0.00000000000E+00 -0.36269359448E+03  0.21419195729E+04  0.21109885867E+04 0.  0.
        2    1    3    3  502    0  0.30945345300E+03 -0.57567270858E+03  0.65959601979E+03  0.92856201533E+03  0.25500000920E-02 0.  1.
       -2    1    3    3    0  502 -0.30945345300E+03  0.57567270858E+03 -0.10222896143E+04  0.12133575575E+04  0.25500000920E-02 0. -1.
</event>
<event>
 5   0  0.3279789E-05  0.2074888E+04  0.7818609E-02  0.8572387E-01
       -2   -1    0    0    0  501  0.00000000000E+00  0.00000000000E+00  0.77880981183E+03  0.77880981183E+03  0.25500000920E-02 0.  1.
        2   -1    0    0  501    0  0.00000000000E+00  0.00000000000E+00 -0.13819681117E+04  0.13819681117E+04  0.25500000920E-02 0. -1.
    10030    2    1    2    0    0  0.00000000000E+00  0.00000000000E+00 -0.60315829986E+03  0.21607779235E+04  0.20748882621E+04 0.  0.
        2    1    3    3  502    0 -0.70767268191E+02 -0.68302950533E+03  0.50827057839E+03  0.85432797698E+03  0.25500000920E-02 0.  1.
       -2    1    3    3    0  502  0.70767268191E+02  0.68302950533E+03 -0.11114288782E+04  0.13064499465E+04  0.25500000920E-02 0. -1.
</event>
<event>
 5   0  0.1466480E-05  0.2083173E+04  0.7818609E-02  0.8568692E-01
       -1   -1    0    0    0  501  0.00000000000E+00  0.00000000000E+00  0.79388634936E+03  0.79388634937E+03  0.50400001928E-02 0. -1.
        1   -1    0    0  501    0  0.00000000000E+00  0.00000000000E+00 -0.13665721262E+04  0.13665721262E+04  0.50400001928E-02 0.  1.
    10030    2    1    2    0    0  0.00000000000E+00  0.00000000000E+00 -0.57268577686E+03  0.21604584756E+04  0.20831734987E+04 0.  0.
        3    1    3    3  502    0  0.76584198360E+03 -0.62842078993E+03  0.47268566941E+02  0.99179683438E+03  0.10100000352E+00 0.  1.
       -3    1    3    3    0  502 -0.76584198360E+03  0.62842078993E+03 -0.61995434380E+03  0.11686616412E+04  0.10100000352E+00 0. -1.
</event>
<event>
 5   0  0.1492552E-05  0.2099430E+04  0.7818609E-02  0.8561494E-01
        1   -1    0    0  501    0  0.00000000000E+00  0.00000000000E+00  0.11415161982E+04  0.11415161983E+04  0.50400001928E-02 0. -1.
       -1   -1    0    0    0  501  0.00000000000E+00  0.00000000000E+00 -0.96529680446E+03  0.96529680448E+03  0.50400001928E-02 0.  1.
    10030    2    1    2    0    0  0.00000000000E+00  0.00000000000E+00  0.17621939379E+03  0.21068130027E+04  0.20994303403E+04 0.  0.
        4    1    3    3  502    0 -0.62083193554E+03 -0.35820365425E+03  0.85772127017E+03  0.11177788423E+04  0.12699999809E+01 0. -1.
       -4    1    3    3    0  502  0.62083193554E+03  0.35820365425E+03 -0.68150187638E+03  0.98903416044E+03  0.12699999809E+01 0.  1.
</event>
<event>
 5   0  0.1435410E-05  0.2098799E+04  0.7818609E-02  0.8561773E-01
       -1   -1    0    0    0  501  0.00000000000E+00  0.00000000000E+00  0.10836986873E+04  0.10836986873E+04  0.50400001928E-02 0. -1.
        1   -1    0    0  501    0  0.00000000000E+00  0.00000000000E+00 -0.10161859155E+04  0.10161859155E+04  0.50400001928E-02 0.  1.
    10030    2    1    2    0    0  0.00000000000E+00  0.00000000000E+00  0.67512771795E+02  0.20998846029E+04  0.20987990306E+04 0.  0.
        2    1    3    3  502    0  0.73030335014E+03 -0.65456017009E+03 -0.33986325311E+03  0.10379301664E+04  0.25500000920E-02 0.  1.
       -2    1    3    3    0  502 -0.73030335014E+03  0.65456017009E+03  0.40737602490E+03  0.10619544365E+04  0.25500000920E-02 0. -1.
</event>
<event>
 5   0  0.1453430E-05  0.2124795E+04  0.7818609E-02  0.8550399E-01
        1   -1    0    0  501    0  0.00000000000E+00  0.00000000000E+00  0.65532365835E+03  0.65532365837E+03  0.50400001928E-02 0. -1.
       -1   -1    0    0    0  501  0.00000000000E+00  0.00000000000E+00 -0.17223374882E+04  0.17223374882E+04  0.50400001928E-02 0.  1.
    10030    2    1    2    0    0  0.00000000000E+00  0.00000000000E+00 -0.10670138298E+04  0.23776611465E+04  0.21247950524E+04 0.  0.
        5    1    3    3  502    0  0.64277406213E+03  0.84291913240E+03 -0.61259512478E+03  0.12243226844E+04  0.46999998093E+01 0. -1.
       -5    1    3    3    0  502 -0.64277406213E+03 -0.84291913240E+03 -0.45441870503E+03  0.11533384621E+04  0.46999998093E+01 0.  1.
</event>
<event>
 5   0  0.3257130E-05  0.2097453E+04  0.7818609E-02  0.8562366E-01
       -2   -1    0    0    0  501  0.00000000000E+00  0.00000000000E+00  0.51939240321E+03  0.51939240321E+03  0.25500000920E-02 0.  1.
        2   -1    0    0  501    0  0.00000000000E+00  0.00000000000E+00 -0.21175276513E+04  0.21175276513E+04  0.25500000920E-02 0. -1.
    10030    2    1    2    0    0  0.00000000000E+00  0.00000000000E+00 -0.15981352481E+04  0.26369200545E+04  0.20974534804E+04 0.  0.
        3    1    3    3  502    0  0.54662128779E+03  0.11130742007E+03  0.31739712436E+03  0.64181392847E+03  0.10100000352E+00 0.  1.
       -3    1    3    3    0  502 -0.54662128779E+03 -0.11130742007E+03 -0.19155323724E+04  0.19951061260E+04  0.10100000352E+00 0. -1.
</event>
<event>
 5   0  0.3242231E-05  0.2100503E+04  0.7818609E-02  0.8561022E-01
       -2   -1    0    0    0  501  0.00000000000E+00  0.00000000000E+00  0.80331074535E+03  0.80331074535E+03  0.25500000920E-02 0. -1.
        2   -1    0    0  501    0  0.00000000000E+00  0.00000000000E+00 -0.13731024396E+04  0.13731024396E+04  0.25500000920E-02 0.  1.
    10030    2    1    2    0    0  0.00000000000E+00  0.00000000000E+00 -0.56979169426E+03  0.21764131850E+04  0.21005027438E+04 0.  0.
        4    1    3    3  502    0 -0.69353177349E+03  0.60086184097E+03 -0.81424540820E+03  0.12267919426E+04  0.12699999809E+01 0.  1.
       -4    1    3    3    0  502  0.69353177349E+03 -0.60086184097E+03  0.24445371394E+03  0.94962124235E+03  0.12699999809E+01 0. -1.
</event>
<event>
 5   0  0.3108326E-05  0.2099644E+04  0.7818609E-02  0.8561400E-01
       -2   -1    0    0    0  501  0.00000000000E+00  0.00000000000E+00  0.10559303670E+04  0.10559303670E+04  0.25500000920E-02 0. -1.
        2   -1    0    0  501    0  0.00000000000E+00  0.00000000000E+00 -0.10437485777E+04  0.10437485777E+04  0.25500000920E-02 0.  1.
    10030    2    1    2    0    0  0.00000000000E+00  0.00000000000E+00  0.12181789320E+02  0.20996789448E+04  0.20996436067E+04 0.  0.
        5    1    3    3  502    0 -0.78086324775E+03  0.18753801054E+03  0.68225744305E+03  0.10537624142E+04  0.46999998093E+01 0. -1.
       -5    1    3    3    0  502  0.78086324775E+03 -0.18753801054E+03 -0.67007565373E+03  0.10459165305E+04  0.46999998093E+01 0.  1.
</event>
<event>
 5   0  0.1435410E-05  0.2097179E+04  0.7818609E-02  0.8562487E-01
       -1   -1    0    0    0  501  0.00000000000E+00  0.00000000000E+00  0.12494959292E+04  0.12494959292E+04  0.50400001928E-02 0.  1.
        1   -1    0    0  501    0  0.00000000000E+00  0.00000000000E+00 -0.87998686277E+03  0.87998686279E+03  0.50400001928E-02 0. -1.
    10030    2    1    2    0    0  0.00000000000E+00  0.00000000000E+00  0.36950906646E+03  0.21294827920E+04  0.20971790604E+04 0.  0.
        2    1    3    3  502    0 -0.23992907687E+03 -0.82677774735E+03 -0.42314282360E+03  0.95925870056E+03  0.25500000920E-02 0. -1.
       -2    1    3    3    0  502  0.23992907687E+03  0.82677774735E+03  0.79265189006E+03  0.11702240915E+04  0.25500000920E-02 0.  1.
</event>
<event>
 5   0  0.1435410E-05  0.2103409E+04  0.7818609E-02  0.8559743E-01
        1   -1    0    0  501    0  0.00000000000E+00  0.00000000000E+00  0.92201696045E+03  0.92201696047E+03  0.50400001928E-02 0. -1.
       -1   -1    0    0    0  501  0.00000000000E+00  0.00000000000E+00 -0.11996331122E+04  0.11996331122E+04  0.50400001928E-02 0.  1.
    10030    2    1    2    0    0  0.00000000000E+00  0.00000000000E+00 -0.27761615177E+03  0.21216500727E+04  0.21034087342E+04 0.  0.
        2    1    3    3  502    0  0.10425384109E+04 -0.13265101947E+03 -0.98468187695E+02  0.10555465955E+04  0.25500000920E-02 0. -1.
       -2    1    3    3    0  502 -0.10425384109E+04  0.13265101947E+03 -0.17914796408E+03  0.10661034773E+04  0.25500000920E-02 0.  1.
</event>
<event>
 5   0  0.1129987E-05  0.2102487E+04  0.7818609E-02  0.8560148E-01
        3   -1    0    0  501    0  0.00000000000E+00  0.00000000000E+00  0.74393072683E+03  0.74393073368E+03  0.10100000352E+00 0.  1.
       -3   -1    0    0    0  501  0.00000000000E+00  0.00000000000E+00 -0.14855056948E+04  0.14855056983E+04  0.10100000352E+00 0. -1.
    10030    2    1    2    0    0  0.00000000000E+00  0.00000000000E+00 -0.74157496800E+03  0.22294364319E+04  0.21024874247E+04 0.  0.
        3    1    3    3  502    0 -0.45220441702E+03  0.84329431077E+03  0.90787710932E+02  0.96118497075E+03  0.10100000352E+00 0.  1.
       -3    1    3    3    0  502  0.45220441702E+03 -0.84329431077E+03 -0.83236267893E+03  0.12682514612E+04  0.10100000352E+00 0. -1.
</event>
<event>
 5   0  0.1129987E-05  0.2087870E+04  0.7818609E-02  0.8566606E-01
       -3   -1    0    0    0  501  0.00000000000E+00  0.00000000000E+00  0.11873199611E+04  0.11873199654E+04  0.10100000352E+00 0. -1.
        3   -1    0    0  501    0  0.00000000000E+00  0.00000000000E+00 -0.91786550410E+03  0.91786550966E+03  0.10100000352E+00 0.  1.
    10030    2    1    2    0    0  0.00000000000E+00  0.00000000000E+00  0.26945445701E+03  0.21051854751E+04  0.20878697709E+04 0.  0.
        4    1    3    3  502    0  0.81440379544E+03 -0.64184028576E+03  0.25650110601E+03  0.10681792568E+04  0.12699999809E+01 0.  1.
       -4    1    3    3    0  502 -0.81440379544E+03  0.64184028576E+03  0.12953351005E+02  0.10370062182E+04  0.12699999809E+01 0. -1.
</event>
<event>
 5   0  0.1492552E-05  0.2092057E+04  0.7818609E-02  0.8564750E-01
        1   -1    0    0  501    0  0.00000000000E+00  0.00000000000E+00  0.12821037914E+04  0.12821037914E+04  0.50400001928E-02 0. -1.
       -1   -1    0    0    0  501  0.00000000000E+00  0.00000000000E+00 -0.85342223571E+03  0.85342223572E+03  0.50400001928E-02 0.  1.
    10030    2    1    2    0    0  0.00000000000E+00  0.00000000000E+00  0.42868155564E+03  0.21355260271E+04  0.20920572497E+04 0.  0.
        4    1    3    3  502    0  0.65364602776E+03 -0.14084934733E+03  0.10354693530E+04  0.12325948491E+04  0.12699999809E+01 0. -1.
       -4    1    3    3    0  502 -0.65364602776E+03  0.14084934733E+03 -0.60678779733E+03  0.90293117796E+03  0.12699999809E+01 0.  1.
</event>
<event>
 5   0  0.1513292E-05  0.2097100E+04  0.7818609E-02  0.8562522E-01
        1   -1    0    0  501    0  0.00000000000E+00  0.00000000000E+00  0.17934463403E+04  0.17934463403E+04  0.50400001928E-02 0.  1.
       -1   -1    0    0    0  501  0.00000000000E+00  0.00000000000E+00 -0.61304159340E+03  0.61304159342E+03  0.50400001928E-02 0. -1.
    10030    2    1    2    0    0  0.00000000000E+00  0.00000000000E+00  0.11804047469E+04  0.24064879337E+04  0.20971000950E+04 0.  0.
        1    1    3    3  502    0 -0.42624652324E+03 -0.79275482628E+03 -0.27027472958E+02  0.90048697797E+03  0.50400001928E-02 0. -1.
       -1    1    3    3    0  502  0.42624652324E+03  0.79275482628E+03  0.12074322198E+04  0.15060009557E+04  0.50400001928E-02 0.  1.
</event>
<event>
 5   0  0.3242231E-05  0.2101333E+04  0.7818609E-02  0.8560656E-01
        2   -1    0    0  501    0  0.00000000000E+00  0.00000000000E+00  0.84422945278E+03  0.84422945279E+03  0.25500000920E-02 0. -1.
       -2   -1    0    0    0  501  0.00000000000E+00  0.00000000000E+00 -0.13075828935E+04  0.13075828935E+04  0.25500000920E-02 0.  1.
    10030    2    1    2    0    0  0.00000000000E+00  0.00000000000E+00 -0.46335344067E+03  0.21518123462E+04  0.21013329014E+04 0.  0.
        4    1    3    3  502    0  0.48256686988E+03  0.51369930661E+03 -0.10295872164E+04  0.12477216078E+04  0.12699999809E+01 0.  1.
       -4    1    3    3    0  502 -0.48256686988E+03 -0.51369930661E+03  0.56623377577E+03  0.90409073839E+03  0.12699999809E+01 0. -1.
</event>
<event>
 5   0  0.3108326E-05  0.2089388E+04  0.7818609E-02  0.8565932E-01
        2   -1    0    0  501    0  0.00000000000E+00  0.00000000000E+00  0.11478121012E+04  0.11478121012E+04  0.25500000920E-02 0. -1.
       -2   -1    0    0    0  501  0.00000000000E+00  0.00000000000E+00 -0.95084014950E+03  0.95084014951E+03  0.25500000920E-02 0.  1.
    10030    2    1    2    0    0  0.00000000000E+00  0.00000000000E+00  0.19697195173E+03  0.20986522507E+04  0.20893882645E+04 0.  0.
        5    1    3    3  502    0  0.59716029136E+03  0.70804480934E+03 -0.38680825655E+03  0.10037781542E+04  0.46999998093E+01 0. -1.
       -5    1    3    3    0  502 -0.59716029136E+03 -0.70804480934E+03  0.58378020827E+03  0.10948740965E+04  0.46999998093E+01 0.  1.
</event>
<event>
 5   0  0.1453430E-05  0.2106039E+04  0.7818609E-02  0.8558588E-01
        1   -1    0    0  501    0  0.00000000000E+00  0.00000000000E+00  0.12058315151E+04  0.12058315151E+04  0.50400001928E-02 0. -1.
       -1   -1    0    0    0  501  0.00000000000E+00  0.00000000000E+00 -0.91957317082E+03  0.91957317083E+03  0.50400001928E-02 0.  1.
    10030    2    1    2    0    0  0.00000000000E+00  0.00000000000E+00  0.28625834429E+03  0.21254046860E+04  0.21060392303E+04 0.  0.
        5    1    3    3  502    0 -0.28381731262E+03 -0.44457499027E+03 -0.77663974729E+03  0.93882403888E+03  0.46999998093E+01 0.  1.
       -5    1    3    3    0  502  0.28381731262E+03  0.44457499027E+03  0.10628980916E+04  0.11865806471E+04  0.46999998093E+01 0. -1.
</event>
<event>
 5   0  0.3130517E-05  0.2098143E+04  0.7818609E-02  0.8562062E-01
        2   -1    0    0  501    0  0.00000000000E+00  0.00000000000E+00  0.15480196377E+04  0.15480196377E+04  0.25500000920E-02 0. -1.
       -2   -1    0    0    0  501  0.00000000000E+00  0.00000000000E+00 -0.71094139136E+03  0.71094139136E+03  0.25500000920E-02 0.  1.
    10030    2    1    2    0    0  0.00000000000E+00  0.00000000000E+00  0.83707824635E+03  0.22589610291E+04  0.20981432125E+04 0.  0.
        1    1    3    3  502    0 -0.61043889937E+03 -0.37115291716E+03 -0.40856254968E+03  0.82299058002E+03  0.50400001928E-02 0.  1.
       -1    1    3    3    0  502  0.61043889937E+03  0.37115291716E+03  0.12456407960E+04  0.14359704491E+04  0.50400001928E-02 0. -1.
</event>
<event>
 5   0  0.3279789E-05  0.2093148E+04  0.7818609E-02  0.8564268E-01
       -2   -1    0    0    0  501  0.00000000000E+00  0.00000000000E+00  0.60537428724E+03  0.60537428724E+03  0.25500000920E-02 0. -1.
        2   -1    0    0  501    0  0.00000000000E+00  0.00000000000E+00 -0.18093224546E+04  0.18093224546E+04  0.25500000920E-02 0.  1.
    10030    2    1    2    0    0  0.00000000000E+00  0.00000000000E+00 -0.12039481674E+04  0.24146967419E+04  0.20931481470E+04 0.  0.
        2    1    3    3  502    0  0.24210194033E+03 -0.65957805937E+03 -0.14967998069E+04  0.16535012028E+04  0.25500000920E-02 0.  1.
       -2    1    3    3    0  502 -0.24210194033E+03  0.65957805937E+03  0.29285163948E+03  0.76119553905E+03  0.25500000920E-02 0. -1.
</event>
<event>
 5   0  0.3279789E-05  0.2098136E+04  0.7818609E-02  0.8562065E-01
        2   -1    0    0  501    0  0.00000000000E+00  0.00000000000E+00  0.13546446309E+04  0.13546446309E+04  0.25500000920E-02 0.  1.
       -2   -1    0    0    0  501  0.00000000000E+00  0.00000000000E+00 -0.81242225379E+03  0.81242225379E+03  0.25500000920E-02 0. -1.
    10030    2    1    2    0    0  0.00000000000E+00  0.00000000000E+00  0.54222237709E+03  0.21670668847E+04  0.20981357860E+04 0.  0.
        2    1    3    3  502    0  0.33559178980E+03 -0.64692595491E+03  0.10504937075E+04  0.12785429481E+04  0.25500000920E-02 0.  1.
       -2    1    3    3    0  502 -0.33559178980E+03  0.64692595491E+03 -0.50827133045E+03  0.88852393658E+03  0.25500000920E-02 0. -1.
</event>
<event>
 5   0  0.1492552E-05  0.2090250E+04  0.7818609E-02  0.8565551E-01
        1   -1    0    0  501    0  0.00000000000E+00  0.00000000000E+00  0.16538410570E+04  0.16538410570E+04  0.50400001928E-02 0.  1.
       -1   -1    0    0    0  501  0.00000000000E+00  0.00000000000E+00 -0.66045402935E+03  0.66045402937E+03  0.50400001928E-02 0. -1.
    10030    2    1    2    0    0  0.00000000000E+00  0.00000000000E+00  0.99338702760E+03  0.23142950863E+04  0.20902497363E+04 0.  0.
        4    1    3    3  502    0 -0.68139950641E+03  0.35809164388E+02  0.13731882096E+04  0.15333737495E+04  0.12699999809E+01 0.  1.
       -4    1    3    3    0  502  0.68139950641E+03 -0.35809164388E+02 -0.37980118203E+03  0.78092133686E+03  0.12699999809E+01 0. -1.
</event>
<event>
 5   0  0.1513292E-05  0.2095589E+04  0.7818609E-02  0.8563189E-01
       -1   -1    0    0    0  501  0.00000000000E+00  0.00000000000E+00  0.10324775093E+04  0.10324775093E+04  0.50400001928E-02 0.  1.
        1   -1    0    0  501    0  0.00000000000E+00  0.00000000000E+00 -0.10633389974E+04  0.10633389974E+04  0.50400001928E-02 0. -1.
    10030    2    1    2    0    0  0.00000000000E+00  0.00000000000E+00 -0.30861488107E+02  0.20958165067E+04  0.20955892723E+04 0.  0.
        1    1    3    3  502    0  0.51254642857E+03 -0.36919424102E+02 -0.92865993270E+03  0.10613558102E+04  0.50400001928E-02 0. -1.
       -1    1    3    3    0  502 -0.51254642857E+03  0.36919424102E+02  0.89779844459E+03  0.10344606964E+04  0.50400001928E-02 0.  1.
</event>
<event>
 5   0  0.3108326E-05  0.2088867E+04  0.7818609E-02  0.8566163E-01
       -2   -1    0    0    0  501  0.00000000000E+00  0.00000000000E+00  0.52779327936E+03  0.52779327936E+03  0.25500000920E-02 0.  1.
        2   -1    0    0  501    0  0.00000000000E+00  0.00000000000E+00 -0.20667972767E+04  0.20667972767E+04  0.25500000920E-02 0. -1.
    10030    2    1    2    0    0  0.00000000000E+00  0.00000000000E+00 -0.15390039973E+04  0.25945905561E+04  0.20888673605E+04 0.  0.
        5    1    3    3  502    0  0.28605270216E+03 -0.68921984025E+03 -0.16771473525E+04  0.18356730288E+04  0.46999998093E+01 0. -1.
       -5    1    3    3    0  502 -0.28605270216E+03  0.68921984025E+03  0.13814335518E+03  0.75891752726E+03  0.46999998093E+01 0.  1.
</event>
<event>
 5   0  0.1453430E-05  0.2080325E+04  0.7818609E-02  0.8569960E-01
        1   -1    0    0  501    0  0.00000000000E+00  0.00000000000E+00  0.14687023269E+04  0.14687023269E+04  0.50400001928E-02 0. -1.
       -1   -1    0    0    0  501  0.00000000000E+00  0.00000000000E+00 -0.73666235602E+03  0.73666235604E+03  0.50400001928E-02 0.  1.
    10030    2    1    2    0    0  0.00000000000E+00  0.00000000000E+00  0.73203997088E+03  0.22053646829E+04  0.20803247020E+04 0.  0.
        5    1    3    3  502    0  0.15907323211E+03 -0.48780640725E+03 -0.59315993433E+03  0.78429597845E+03  0.46999998093E+01 0.  1.
       -5    1    3    3    0  502 -0.15907323211E+03  0.48780640725E+03  0.13251999052E+04  0.14210687045E+04  0.46999998093E+01 0. -1.
</event>
<event>
 5   0  0.3279789E-05  0.2091905E+04  0.7818609E-02  0.8564818E-01
       -2   -1    0    0    0  501  0.00000000000E+00  0.00000000000E+00  0.74657030509E+03  0.74657030510E+03  0.25500000920E-02 0. -1.
        2   -1    0    0  501    0  0.00000000000E+00  0.00000000000E+00 -0.14653898388E+04  0.14653898388E+04  0.25500000920E-02 0.  1.
    10030    2    1    2    0    0  0.00000000000E+00  0.00000000000E+00 -0.71881953374E+03  0.22119601439E+04  0.20919049109E+04 0.  0.
        2    1    3    3  502    0 -0.83381515791E+02 -0.56617965035E+03  0.56633818358E+03  0.80514024358E+03  0.25500000920E-02 0. -1.
       -2    1    3    3    0  502  0.83381515791E+02  0.56617965035E+03 -0.12851577173E+04  0.14068199004E+04  0.25500000920E-02 0.  1.
</event>
<event>
 5   0  0.3242231E-05  0.2102956E+04  0.7818609E-02  0.8559942E-01
        2   -1    0    0  501    0  0.00000000000E+00  0.00000000000E+00  0.11470715367E+04  0.11470715367E+04  0.25500000920E-02 0. -1.
       -2   -1    0    0    0  501  0.00000000000E+00  0.00000000000E+00 -0.96385131316E+03  0.96385131316E+03  0.25500000920E-02 0.  1.
    10030    2    1    2    0    0  0.00000000000E+00  0.00000000000E+00  0.18322022355E+03  0.21109228499E+04  0.21029564018E+04 0.  0.
        4    1    3    3  502    0  0.64842400607E+03 -0.65572997733E+03  0.59866655113E+03  0.10994720311E+04  0.12699999809E+01 0. -1.
       -4    1    3    3    0  502 -0.64842400607E+03  0.65572997733E+03 -0.41544632758E+03  0.10114508188E+04  0.12699999809E+01 0.  1.
</event>
<event>
 5   0  0.1492552E-05  0.2094990E+04  0.7818609E-02  0.8563453E-01
       -1   -1    0    0    0  501  0.00000000000E+00  0.00000000000E+00  0.14613618750E+04  0.14613618750E+04  0.50400001928E-02 0.  1.
        1   -1    0    0  501    0  0.00000000000E+00  0.00000000000E+00 -0.75083789350E+03  0.75083789352E+03  0.50400001928E-02 0. -1.
    10030    2    1    2    0    0  0.00000000000E+00  0.00000000000E+00  0.71052398151E+03  0.22121997685E+04  0.20949900925E+04 0.  0.
        4    1    3    3  502    0  0.53303183383E+02  0.13933767770E+02 -0.74930608355E+03  0.75132988693E+03  0.12699999809E+01 0. -1.
       -4    1    3    3    0  502 -0.53303183383E+02 -0.13933767770E+02  0.14598300651E+04  0.14608698816E+04  0.12699999809E+01 0.  1.
</event>
<event>
 5   0  0.3108326E-05  0.2097661E+04  0.7818609E-02  0.8562274E-01
        2   -1    0    0  501    0  0.00000000000E+00  0.00000000000E+00  0.10906234410E+04  0.10906234410E+04  0.25500000920E-02 0. -1.
       -2   -1    0    0    0  501  0.00000000000E+00  0.00000000000E+00 -0.10086394577E+04  0.10086394577E+04  0.25500000920E-02 0.  1.
    10030    2    1    2    0    0  0.00000000000E+00  0.00000000000E+00  0.81983983298E+02  0.20992628987E+04  0.20976613988E+04 0.  0.
        5    1    3    3  502    0  0.39763940025E+03  0.67748330182E+03  0.73644918253E+03  0.10767916258E+04  0.46999998093E+01 0. -1.
       -5    1    3    3    0  502 -0.39763940025E+03 -0.67748330182E+03 -0.65446519923E+03  0.10224712729E+04  0.46999998093E+01 0.  1.
</event>
<event>
 5   0  0.3257130E-05  0.2049587E+04  0.7818609E-02  0.8583782E-01
        2   -1    0    0  501    0  0.00000000000E+00  0.00000000000E+00  0.20332155066E+04  0.20332155066E+04  0.25500000920E-02 0. -1.
       -2   -1    0    0    0  501  0.00000000000E+00  0.00000000000E+00 -0.51652251552E+03  0.51652251552E+03  0.25500000920E-02 0.  1.
    10030    2    1    2    0    0  0.00000000000E+00  0.00000000000E+00  0.15166929911E+04  0.25497380221E+04  0.20495868736E+04 0.  0.
        3    1    3    3  502    0 -0.30311955221E+03 -0.63418692295E+03 -0.16937206119E+03  0.72302242115E+03  0.10100000352E+00 0.  1.
       -3    1    3    3    0  502  0.30311955221E+03  0.63418692295E+03  0.16860650523E+04  0.18267156010E+04  0.10100000352E+00 0. -1.
</event>
<event>
 5   0  0.3242231E-05  0.2091985E+04  0.7818609E-02  0.8564782E-01
       -2   -1    0    0    0  501  0.00000000000E+00  0.00000000000E+00  0.11115122736E+04  0.11115122736E+04  0.25500000920E-02 0. -1.
        2   -1    0    0  501    0  0.00000000000E+00  0.00000000000E+00 -0.98433447182E+03  0.98433447182E+03  0.25500000920E-02 0.  1.
    10030    2    1    2    0    0  0.00000000000E+00  0.00000000000E+00  0.12717780176E+03  0.20958467454E+04  0.20919845571E+04 0.  0.
        4    1    3    3  502    0 -0.34357799613E+03 -0.33008790937E+03  0.99648704824E+03  0.11045324430E+04  0.12699999809E+01 0. -1.
       -4    1    3    3    0  502  0.34357799613E+03  0.33008790937E+03 -0.86930924647E+03  0.99131430245E+03  0.12699999809E+01 0.  1.
</event>
<event>
 5   0  0.1435410E-05  0.2101805E+04  0.7818609E-02  0.8560449E-01
        1   -1    0    0  501    0  0.00000000000E+00  0.00000000000E+00  0.16048071165E+04  0.16048071165E+04  0.50400001928E-02 0.  1.
       -1   -1    0    0    0  501  0.00000000000E+00  0.00000000000E+00 -0.68817995277E+03  0.68817995279E+03  0.50400001928E-02 0. -1.
    10030    2    1    2    0    0  0.00000000000E+00  0.00000000000E+00  0.91662716368E+03  0.22929870693E+04  0.21018050201E+04 0.  0.
        2    1    3    3  502    0 -0.35262796746E+03  0.87067548949E+01 -0.62166815620E+03  0.71476820541E+03  0.25500000920E-02 0. -1.
       -2    1    3    3    0  502  0.35262796746E+03 -0.87067548949E+01  0.15382953199E+04  0.15782188638E+04  0.25500000920E-02 0.  1.
</event>
<event>
 5   0  0.3108326E-05  0.2153290E+04  0.7818609E-02  0.8538125E-01
        2   -1    0    0  501    0  0.00000000000E+00  0.00000000000E+00  0.96822949308E+03  0.96822949308E+03  0.25500000920E-02 0.  1.
       -2   -1    0    0    0  501  0.00000000000E+00  0.00000000000E+00 -0.11972004549E+04  0.11972004549E+04  0.25500000920E-02 0. -1.
    10030    2    1    2    0    0  0.00000000000E+00  0.00000000000E+00 -0.22897096185E+03  0.21654299480E+04  0.21532903098E+04 0.  0.
        5    1    3    3  502    0 -0.17180071230E+03 -0.19253337807E+03 -0.11656333785E+04  0.11938625756E+04  0.46999998093E+01 0. -1.
       -5    1    3    3    0  502  0.17180071230E+03  0.19253337807E+03  0.93666241662E+03  0.97156737241E+03  0.46999998093E+01 0.  1.
</event>
<event>
 5   0  0.1453430E-05  0.2121756E+04  0.7818609E-02  0.8551720E-01
        1   -1    0    0  501    0  0.00000000000E+00  0.00000000000E+00  0.10831618078E+04  0.10831618078E+04  0.50400001928E-02 0. -1.
       -1   -1    0    0    0  501  0.00000000000E+00  0.00000000000E+00 -0.10390523588E+04  0.10390523588E+04  0.50400001928E-02 0.  1.
    10030    2    1    2    0    0  0.00000000000E+00  0.00000000000E+00  0.44109449014E+02  0.21222141666E+04  0.21217557177E+04 0.  0.
        5    1    3    3  502    0 -0.94342412587E+03 -0.19193651442E+03  0.46774166156E+03  0.10703705241E+04  0.46999998093E+01 0. -1.
       -5    1    3    3    0  502  0.94342412587E+03  0.19193651442E+03 -0.42363221255E+03  0.10518436425E+04  0.46999998093E+01 0.  1.
</event>
<event>
 5   0  0.3242231E-05  0.2027291E+04  0.7818609E-02  0.8593967E-01
        2   -1    0    0  501    0  0.00000000000E+00  0.00000000000E+00  0.25043086384E+04  0.25043086384E+04  0.25500000920E-02 0. -1.
       -2   -1    0    0    0  501  0.00000000000E+00  0.00000000000E+00 -0.41028359035E+03  0.41028359036E+03  0.25500000920E-02 0.  1.
    10030    2    1    2    0    0  0.00000000000E+00  0.00000000000E+00  0.20940250481E+04  0.29145922288E+04  0.20272905461E+04 0.  0.
        4    1    3    3  502    0  0.75232918545E+03  0.58512077256E+02  0.73998000599E+02  0.75822172447E+03  0.12699999809E+01 0.  1.
       -4    1    3    3    0  502 -0.75232918545E+03 -0.58512077256E+02  0.20200270475E+04  0.21563705043E+04  0.12699999809E+01 0. -1.
</event>
<event>
 5   0  0.1513292E-05  0.2090088E+04  0.7818609E-02  0.8565622E-01
        1   -1    0    0  501    0  0.00000000000E+00  0.00000000000E+00  0.18059559828E+04  0.18059559828E+04  0.50400001928E-02 0.  1.
       -1   -1    0    0    0  501  0.00000000000E+00  0.00000000000E+00 -0.60473056763E+03  0.60473056765E+03  0.50400001928E-02 0. -1.
    10030    2    1    2    0    0  0.00000000000E+00  0.00000000000E+00  0.12012254151E+04  0.24106865504E+04  0.20900878322E+04 0.  0.
        1    1    3    3  502    0 -0.11880630095E+02 -0.96128340803E+03  0.12799031931E+03  0.96983940000E+03  0.50400001928E-02 0. -1.
       -1    1    3    3    0  502  0.11880630095E+02  0.96128340803E+03  0.10732350958E+04  0.14408471504E+04  0.50400001928E-02 0.  1.
</event>
<event>
 5   0  0.3108326E-05  0.2095569E+04  0.7818609E-02  0.8563198E-01
        2   -1    0    0  501    0  0.00000000000E+00  0.00000000000E+00  0.13468877872E+04  0.13468877872E+04  0.25500000920E-02 0.  1.
       -2   -1    0    0    0  501  0.00000000000E+00  0.00000000000E+00 -0.81510280039E+03  0.81510280040E+03  0.25500000920E-02 0. -1.
    10030    2    1    2    0    0  0.00000000000E+00  0.00000000000E+00  0.53178498683E+03  0.21619905876E+04  0.20955686648E+04 0.  0.
        5    1    3    3  502    0 -0.94364419230E+03  0.68997738049E+02 -0.19849107107E+03  0.96677083366E+03  0.46999998093E+01 0. -1.
       -5    1    3    3    0  502  0.94364419230E+03 -0.68997738049E+02  0.73027605790E+03  0.11952197540E+04  0.46999998093E+01 0.  1.
</event>
<event>
 5   0  0.1453430E-05  0.2096770E+04  0.7818609E-02  0.8562668E-01
        1   -1    0    0  501    0  0.00000000000E+00  0.00000000000E+00  0.11550040703E+04  0.11550040703E+04  0.50400001928E-02 0. -1.
       -1   -1    0    0    0  501  0.00000000000E+00  0.00000000000E+00 -0.95160796487E+03  0.95160796489E+03  0.50400001928E-02 0.  1.
    10030    2    1    2    0    0  0.00000000000E+00  0.00000000000E+00  0.20339610542E+03  0.21066120352E+04  0.20967699662E+04 0.  0.
        5    1    3    3  502    0 -0.20556904166E+03  0.18213539806E+03  0.11182065524E+04  0.11514512226E+04  0.46999998093E+01 0. -1.
       -5    1    3    3    0  502  0.20556904166E+03 -0.18213539806E+03 -0.91481044697E+03  0.95516081264E+03  0.46999998093E+01 0.  1.
</event>
<event>
 5   0  0.1453430E-05  0.2099372E+04  0.7818609E-02  0.8561520E-01
       -1   -1    0    0    0  501  0.00000000000E+00  0.00000000000E+00  0.76976340115E+03  0.76976340117E+03  0.50400001928E-02 0.  1.
        1   -1    0    0  501    0  0.00000000000E+00  0.00000000000E+00 -0.14314012749E+04  0.14314012749E+04  0.50400001928E-02 0. -1.
    10030    2    1    2    0    0  0.00000000000E+00  0.00000000000E+00 -0.66163787373E+03  0.22011646761E+04  0.20993716334E+04 0.  0.
        5    1    3    3  502    0  0.82660814472E+03  0.47775510458E+03  0.12655147414E+03  0.96310348898E+03  0.46999998093E+01 0.  1.
       -5    1    3    3    0  502 -0.82660814472E+03 -0.47775510458E+03 -0.78818934787E+03  0.12380611871E+04  0.46999998093E+01 0. -1.
</event>
<event>
 5   0  0.3108326E-05  0.2098102E+04  0.7818609E-02  0.8562080E-01
        2   -1    0    0  501    0  0.00000000000E+00  0.00000000000E+00  0.82501090588E+03  0.82501090588E+03  0.25500000920E-02 0.  1.
       -2   -1    0    0    0  501  0.00000000000E+00  0.00000000000E+00 -0.13339312793E+04  0.13339312793E+04  0.25500000920E-02 0. -1.
    10030    2    1    2    0    0  0.00000000000E+00  0.00000000000E+00 -0.50892037338E+03  0.21589421851E+04  0.20981018594E+04 0.  0.
        5    1    3    3  502    0 -0.10357282535E+04 -0.16575294249E+03 -0.23728146570E+03  0.10754216089E+04  0.46999998093E+01 0. -1.
       -5    1    3    3    0  502  0.10357282535E+04  0.16575294249E+03 -0.27163890768E+03  0.10835205762E+04  0.46999998093E+01 0.  1.
</event>
<event>
 5   0  0.1492552E-05  0.2095473E+04  0.7818609E-02  0.8563240E-01
       -1   -1    0    0    0  501  0.00000000000E+00  0.00000000000E+00  0.15315283623E+04  0.15315283623E+04  0.50400001928E-02 0.  1.
        1   -1    0    0  501    0  0.00000000000E+00  0.00000000000E+00 -0.71676849230E+03  0.71676849232E+03  0.50400001928E-02 0. -1.
    10030    2    1    2    0    0  0.00000000000E+00  0.00000000000E+00  0.81475987004E+03  0.22482968547E+04  0.20954725245E+04 0.  0.
        4    1    3    3  502    0 -0.27730910611E+02  0.16988182078E+03 -0.70149322992E+03  0.72230409175E+03  0.12699999809E+01 0. -1.
       -4    1    3    3    0  502  0.27730910611E+02 -0.16988182078E+03  0.15162531000E+04  0.15259927629E+04  0.12699999809E+01 0.  1.
</event>
<event>
 5   0  0.1492552E-05  0.2097608E+04  0.7818609E-02  0.8562298E-01
       -1   -1    0    0    0  501  0.00000000000E+00  0.00000000000E+00  0.89658028549E+03  0.89658028551E+03  0.50400001928E-02 0. -1.
        1   -1    0    0  501    0  0.00000000000E+00  0.00000000000E+00 -0.12268732257E+04  0.12268732257E+04  0.50400001928E-02 0.  1.
    10030    2    1    2    0    0  0.00000000000E+00  0.00000000000E+00 -0.33029294023E+03  0.21234535112E+04  0.20976084926E+04 0.  0.
        4    1    3    3  502    0  0.45786178536E+02  0.40692317745E+03 -0.11426031934E+04  0.12137654291E+04  0.12699999809E+01 0.  1.
       -4    1    3    3    0  502 -0.45786178536E+02 -0.40692317745E+03  0.81231025315E+03  0.90968808213E+03  0.12699999809E+01 0. -1.
</event>
<event>
 5   0  0.1453430E-05  0.2105814E+04  0.7818609E-02  0.8558687E-01
       -1   -1    0    0    0  501  0.00000000000E+00  0.00000000000E+00  0.61843500131E+03  0.61843500133E+03  0.50400001928E-02 0.  1.
        1   -1    0    0  501    0  0.00000000000E+00  0.00000000000E+00 -0.17926102456E+04  0.17926102456E+04  0.50400001928E-02 0. -1.
    10030    2    1    2    0    0  0.00000000000E+00  0.00000000000E+00 -0.11741752443E+04  0.24110452470E+04  0.21058137806E+04 0.  0.
        5    1    3    3  502    0  0.81561447502E+03  0.64327119362E+03 -0.78395869055E+03  0.13013985242E+04  0.46999998093E+01 0.  1.
       -5    1    3    3    0  502 -0.81561447502E+03 -0.64327119362E+03 -0.39021655375E+03  0.11096467227E+04  0.46999998093E+01 0. -1.
</event>
<event>
 5   0  0.1492552E-05  0.2093092E+04  0.7818609E-02  0.8564292E-01
        1   -1    0    0  501    0  0.00000000000E+00  0.00000000000E+00  0.16718277510E+04  0.16718277510E+04  0.50400001928E-02 0. -1.
       -1   -1    0    0    0  501  0.00000000000E+00  0.00000000000E+00 -0.65512673176E+03  0.65512673178E+03  0.50400001928E-02 0.  1.
    10030    2    1    2    0    0  0.00000000000E+00  0.00000000000E+00  0.10167010193E+04  0.23269544828E+04  0.20930924974E+04 0.  0.
        4    1    3    3  502    0  0.65817874326E+03  0.19593363840E+03  0.13863136104E+04  0.15470799229E+04  0.12699999809E+01 0. -1.
       -4    1    3    3    0  502 -0.65817874326E+03 -0.19593363840E+03 -0.36961259111E+03  0.77987455988E+03  0.12699999809E+01 0.  1.
</event>
<event>
 5   0  0.1492552E-05  0.2101454E+04  0.7818609E-02  0.8560603E-01
       -1   -1    0    0    0  501  0.00000000000E+00  0.00000000000E+00  0.83496991630E+03  0.83496991632E+03  0.50400001928E-02 0. -1.
        1   -1    0    0  501    0  0.00000000000E+00  0.00000000000E+00 -0.13222356030E+04  0.13222356030E+04  0.50400001928E-02 0.  1.
    10030    2    1    2    0    0  0.00000000000E+00  0.00000000000E+00 -0.48726568667E+03  0.21572055193E+04  0.21014537357E+04 0.  0.
        4    1    3    3  502    0 -0.97183271876E+03 -0.27175994532E+03 -0.54416789438E+03  0.11464870742E+04  0.12699999809E+01 0. -1.
       -4    1    3    3    0  502  0.97183271876E+03  0.27175994532E+03  0.56902207716E+02  0.10107184451E+04  0.12699999809E+01 0.  1.
</event>
<event>
 5   0  0.1492552E-05  0.2112697E+04  0.7818609E-02  0.8555671E-01
       -1   -1    0    0    0  501  0.00000000000E+00  0.00000000000E+00  0.10451628004E+04  0.10451628004E+04  0.50400001928E-02 0.  1.
        1   -1    0    0  501    0  0.00000000000E+00  0.00000000000E+00 -0.10676536650E+04  0.10676536650E+04  0.50400001928E-02 0. -1.
    10030    2    1    2    0    0  0.00000000000E+00  0.00000000000E+00 -0.22490864604E+02  0.21128164655E+04  0.21126967548E+04 0.  0.
        4    1    3    3  502    0 -0.90903226883E+03 -0.43918264932E+03 -0.32214761850E+03  0.10597177767E+04  0.12699999809E+01 0. -1.
       -4    1    3    3    0  502  0.90903226883E+03  0.43918264932E+03  0.29965675390E+03  0.10530986888E+04  0.12699999809E+01 0.  1.
</event>
<event>
 5   0  0.1513292E-05  0.2096895E+04  0.7818609E-02  0.8562612E-01
        1   -1    0    0  501    0  0.00000000000E+00  0.00000000000E+00  0.38970032804E+03  0.38970032807E+03  0.50400001928E-02 0.  1.
       -1   -1    0    0    0  501  0.00000000000E+00  0.00000000000E+00 -0.28207365641E+04  0.28207365641E+04  0.50400001928E-02 0. -1.
    10030    2    1    2    0    0  0.00000000000E+00  0.00000000000E+00 -0.24310362361E+04  0.32104368922E+04  0.20968948132E+04 0.  0.
        1    1    3    3  502    0 -0.99639139404E+03 -0.31734647219E+03 -0.10995485731E+04  0.15174029321E+04  0.50400001928E-02 0. -1.
       -1    1    3    3    0  502  0.99639139404E+03  0.31734647219E+03 -0.13314876629E+04  0.16930339601E+04  0.50400001928E-02 0.  1.
</event>
<event>
 5   0  0.3279789E-05  0.2129955E+04  0.7818609E-02  0.8548161E-01
       -2   -1    0    0    0  501  0.00000000000E+00  0.00000000000E+00  0.83464299433E+03  0.83464299433E+03  0.25500000920E-02 0. -1.
        2   -1    0    0  501    0  0.00000000000E+00  0.00000000000E+00 -0.13588772735E+04  0.13588772735E+04  0.25500000920E-02 0.  1.
    10030    2    1    2    0    0  0.00000000000E+00  0.00000000000E+00 -0.52423427915E+03  0.21935202678E+04  0.21299553014E+04 0.  0.
        2    1    3    3  502    0 -0.88344156515E+03 -0.46058478426E+03  0.12536961422E+03  0.10041538143E+04  0.25500000920E-02 0. -1.
       -2    1    3    3    0  502  0.88344156515E+03  0.46058478426E+03 -0.64960389337E+03  0.11893664535E+04  0.25500000920E-02 0.  1.
</event>
<event>
 5   0  0.1513292E-05  0.2109342E+04  0.7818609E-02  0.8557139E-01
       -1   -1    0    0    0  501  0.00000000000E+00  0.00000000000E+00  0.95154690841E+03  0.95154690842E+03  0.50400001928E-02 0. -1.
        1   -1    0    0  501    0  0.00000000000E+00  0.00000000000E+00 -0.11689709155E+04  0.11689709155E+04  0.50400001928E-02 0.  1.
    10030    2    1    2    0    0  0.00000000000E+00  0.00000000000E+00 -0.21742400708E+03  0.21205178239E+04  0.21093417558E+04 0.  0.
        1    1    3    3  502    0 -0.80362521183E+03 -0.41323347404E+03  0.43800329578E+03  0.10042023065E+04  0.50400001928E-02 0. -1.
       -1    1    3    3    0  502  0.80362521183E+03  0.41323347404E+03 -0.65542730286E+03  0.11163155175E+04  0.50400001928E-02 0.  1.
</event>
<event>
 5   0  0.1513292E-05  0.2099656E+04  0.7818609E-02  0.8561395E-01
        1   -1    0    0  501    0  0.00000000000E+00  0.00000000000E+00  0.14563853563E+04  0.14563853563E+04  0.50400001928E-02 0. -1.
       -1   -1    0    0    0  501  0.00000000000E+00  0.00000000000E+00 -0.75676344043E+03  0.75676344044E+03  0.50400001928E-02 0.  1.
    10030    2    1    2    0    0  0.00000000000E+00  0.00000000000E+00  0.69962191584E+03  0.22131487967E+04  0.20996563460E+04 0.  0.
        1    1    3    3  502    0 -0.50565070056E+03 -0.76504737191E+03  0.88847124774E+03  0.12768560100E+04  0.50400001928E-02 0. -1.
       -1    1    3    3    0  502  0.50565070056E+03  0.76504737191E+03 -0.18884933190E+03  0.93629278670E+03  0.50400001928E-02 0.  1.
</event>
<event>
 5   0  0.3108326E-05  0.2107751E+04  0.7818609E-02  0.8557837E-01
        2   -1    0    0  501    0  0.00000000000E+00  0.00000000000E+00  0.12941806692E+04  0.12941806692E+04  0.25500000920E-02 0. -1.
       -2   -1    0    0    0  501  0.00000000000E+00  0.00000000000E+00 -0.85819055360E+03  0.85819055361E+03  0.25500000920E-02 0.  1.
    10030    2    1    2    0    0  0.00000000000E+00  0.00000000000E+00  0.43599011563E+03  0.21523712228E+04  0.21077510527E+04 0.  0.
        5    1    3    3  502    0  0.74870687100E+03  0.55798795483E+02  0.97321609252E+03  0.12291652196E+04  0.46999998093E+01 0. -1.
       -5    1    3    3    0  502 -0.74870687100E+03 -0.55798795483E+02 -0.53722597688E+03  0.92320600328E+03  0.46999998093E+01 0.  1.
</event>
<event>
 5   0  0.1129987E-05  0.2101129E+04  0.7818609E-02  0.8560746E-01
       -4   -1    0    0    0  501  0.00000000000E+00  0.00000000000E+00  0.11447017521E+04  0.11447024566E+04  0.12699999809E+01 0. -1.
        4   -1    0    0  501    0  0.00000000000E+00  0.00000000000E+00 -0.96416777363E+03  0.96416861005E+03  0.12699999809E+01 0.  1.
    10030    2    1    2    0    0  0.00000000000E+00  0.00000000000E+00  0.18053397842E+03  0.21088710666E+04  0.21011293768E+04 0.  0.
        1    1    3    3  502    0 -0.59264131845E+03  0.85932436431E+03  0.20912658660E+03  0.10646107386E+04  0.50400001928E-02 0. -1.
       -1    1    3    3    0  502  0.59264131845E+03 -0.85932436431E+03 -0.28592608182E+02  0.10442603280E+04  0.50400001928E-02 0.  1.
</event>
<event>
 5   0  0.1466480E-05  0.2089378E+04  0.7818609E-02  0.8565937E-01
       -1   -1    0    0    0  501  0.00000000000E+00  0.00000000000E+00  0.11600299757E+04  0.11600299757E+04  0.50400001928E-02 0. -1.
        1   -1    0    0  501    0  0.00000000000E+00  0.00000000000E+00 -0.94081588850E+03  0.94081588851E+03  0.50400001928E-02 0.  1.
    10030    2    1    2    0    0  0.00000000000E+00  0.00000000000E+00  0.21921408718E+03  0.21008458642E+04  0.20893775459E+04 0.  0.
        3    1    3    3  502    0  0.91155224914E+03 -0.33560610243E+03  0.49618536420E+03  0.10907606909E+04  0.10100000352E+00 0. -1.
       -3    1    3    3    0  502 -0.91155224914E+03  0.33560610243E+03 -0.27697127702E+03  0.10100851733E+04  0.10100000352E+00 0.  1.
</event>
<event>
 5   0  0.1492552E-05  0.2095614E+04  0.7818609E-02  0.8563178E-01
       -1   -1    0    0    0  501  0.00000000000E+00  0.00000000000E+00  0.55785876156E+03  0.55785876158E+03  0.50400001928E-02 0.  1.
        1   -1    0    0  501    0  0.00000000000E+00  0.00000000000E+00 -0.19680603221E+04  0.19680603221E+04  0.50400001928E-02 0. -1.
    10030    2    1    2    0    0  0.00000000000E+00  0.00000000000E+00 -0.14102015605E+04  0.25259190837E+04  0.20956141763E+04 0.  0.
        4    1    3    3  502    0  0.72217635281E+03  0.71730126224E+03 -0.10048353688E+04  0.14302991004E+04  0.12699999809E+01 0. -1.
       -4    1    3    3    0  502 -0.72217635281E+03 -0.71730126224E+03 -0.40536619168E+03  0.10956199832E+04  0.12699999809E+01 0.  1.
</event>
<event>
 5   0  0.1492552E-05  0.2100996E+04  0.7818609E-02  0.8560805E-01
        1   -1    0    0  501    0  0.00000000000E+00  0.00000000000E+00  0.14247559740E+04  0.14247559740E+04  0.50400001928E-02 0. -1.
       -1   -1    0    0    0  501  0.00000000000E+00  0.00000000000E+00 -0.77455074667E+03  0.77455074669E+03  0.50400001928E-02 0.  1.
    10030    2    1    2    0    0  0.00000000000E+00  0.00000000000E+00  0.65020522729E+03  0.21993067207E+04  0.21009957672E+04 0.  0.
        4    1    3    3  502    0 -0.43736942950E+03 -0.56119926358E+03 -0.48391807812E+03  0.86047367800E+03  0.12699999809E+01 0.  1.
       -4    1    3    3    0  502  0.43736942950E+03  0.56119926358E+03  0.11341233054E+04  0.13388330426E+04  0.12699999809E+01 0. -1.
</event>
<event>
 5   0  0.3242231E-05  0.2091273E+04  0.7818609E-02  0.8565097E-01
       -2   -1    0    0    0  501  0.00000000000E+00  0.00000000000E+00  0.13852104016E+04  0.13852104016E+04  0.25500000920E-02 0. -1.
        2   -1    0    0  501    0  0.00000000000E+00  0.00000000000E+00 -0.78930672987E+03  0.78930672988E+03  0.25500000920E-02 0.  1.
    10030    2    1    2    0    0  0.00000000000E+00  0.00000000000E+00  0.59590367175E+03  0.21745171315E+04  0.20912731933E+04 0.  0.
        4    1    3    3  502    0 -0.88520857704E+03 -0.55221635227E+03  0.37012028369E+03  0.11070355739E+04  0.12699999809E+01 0. -1.
       -4    1    3    3    0  502  0.88520857704E+03  0.55221635227E+03  0.22578338806E+03  0.10674815576E+04  0.12699999809E+01 0.  1.
</event>
<event>
 5   0  0.1129987E-05  0.2101461E+04  0.7818609E-02  0.8560600E-01
       -3   -1    0    0    0  501  0.00000000000E+00  0.00000000000E+00  0.29062358601E+04  0.29062358619E+04  0.10100000352E+00 0.  1.
        3   -1    0    0  501    0  0.00000000000E+00  0.00000000000E+00 -0.37988457270E+03  0.37988458613E+03  0.10100000352E+00 0. -1.
    10030    2    1    2    0    0  0.00000000000E+00  0.00000000000E+00  0.25263512874E+04  0.32861204480E+04  0.21014606281E+04 0.  0.
        1    1    3    3  502    0  0.33312473313E+02  0.10480481478E+04  0.11580496995E+04  0.15622399775E+04  0.50400001928E-02 0. -1.
       -1    1    3    3    0  502 -0.33312473313E+02 -0.10480481478E+04  0.13683015879E+04  0.17238804704E+04  0.50400001928E-02 0.  1.
</event>
<event>
 5   0  0.1466480E-05  0.2071525E+04  0.7818609E-02  0.8573892E-01
       -1   -1    0    0    0  501  0.00000000000E+00  0.00000000000E+00  0.17482964158E+04  0.17482964158E+04  0.50400001928E-02 0. -1.
        1   -1    0    0  501    0  0.00000000000E+00  0.00000000000E+00 -0.61362806457E+03  0.61362806459E+03  0.50400001928E-02 0.  1.
    10030    2    1    2    0    0  0.00000000000E+00  0.00000000000E+00  0.11346683512E+04  0.23619244804E+04  0.20715247968E+04 0.  0.
        3    1    3    3  502    0 -0.63458531012E+03 -0.17497936298E+03 -0.34444964508E+03  0.74294135804E+03  0.10100000352E+00 0.  1.
       -3    1    3    3    0  502  0.63458531012E+03  0.17497936298E+03  0.14791179963E+04  0.16189831224E+04  0.10100000352E+00 0. -1.
</event>
<event>
 5   0  0.3279789E-05  0.2088289E+04  0.7818609E-02  0.8566420E-01
       -2   -1    0    0    0  501  0.00000000000E+00  0.00000000000E+00  0.90172800134E+03  0.90172800134E+03  0.25500000920E-02 0.  1.
        2   -1    0    0  501    0  0.00000000000E+00  0.00000000000E+00 -0.12090543255E+04  0.12090543255E+04  0.25500000920E-02 0. -1.
    10030    2    1    2    0    0  0.00000000000E+00  0.00000000000E+00 -0.30732632417E+03  0.21107823269E+04  0.20882893865E+04 0.  0.
        2    1    3    3  502    0  0.21145509715E+03  0.34647239791E+03 -0.11260446896E+04  0.11969682634E+04  0.25500000920E-02 0. -1.
       -2    1    3    3    0  502 -0.21145509715E+03 -0.34647239791E+03  0.81871836544E+03  0.91381406344E+03  0.25500000920E-02 0.  1.
</event>
<event>
 5   0  0.3108326E-05  0.2094567E+04  0.7818609E-02  0.8563641E-01
        2   -1    0    0  501    0  0.00000000000E+00  0.00000000000E+00  0.13350519533E+04  0.13350519533E+04  0.25500000920E-02 0.  1.
       -2   -1    0    0    0  501  0.00000000000E+00  0.00000000000E+00 -0.82154281240E+03  0.82154281240E+03  0.25500000920E-02 0. -1.
    10030    2    1    2    0    0  0.00000000000E+00  0.00000000000E+00  0.51350914090E+03  0.21565947657E+04  0.20945666248E+04 0.  0.
        5    1    3    3  502    0 -0.22162480263E+03  0.58139861882E+03  0.11241016153E+04  0.12848223373E+04  0.46999998093E+01 0.  1.
       -5    1    3    3    0  502  0.22162480263E+03 -0.58139861882E+03 -0.61059247436E+03  0.87177242836E+03  0.46999998093E+01 0. -1.
</event>
<event>
 5   0  0.3257130E-05  0.2105142E+04  0.7818609E-02  0.8558982E-01
        2   -1    0    0  501    0  0.00000000000E+00  0.00000000000E+00  0.17842956807E+04  0.17842956807E+04  0.25500000920E-02 0.  1.
       -2   -1    0    0    0  501  0.00000000000E+00  0.00000000000E+00 -0.62092025942E+03  0.62092025942E+03  0.25500000920E-02 0. -1.
    10030    2    1    2    0    0  0.00000000000E+00  0.00000000000E+00  0.11633754213E+04  0.24052159401E+04  0.21051416455E+04 0.  0.
        3    1    3    3  502    0 -0.96667759886E+02 -0.84274661924E+03  0.12936846822E+04  0.15469927560E+04  0.10100000352E+00 0.  1.
       -3    1    3    3    0  502  0.96667759886E+02  0.84274661924E+03 -0.13030926092E+03  0.85822318410E+03  0.10100000352E+00 0. -1.
</event>
<event>
 5   0  0.1435410E-05  0.2103257E+04  0.7818609E-02  0.8559810E-01
        1   -1    0    0  501    0  0.00000000000E+00  0.00000000000E+00  0.23297449848E+04  0.23297449849E+04  0.50400001928E-02 0.  1.
       -1   -1    0    0    0  501  0.00000000000E+00  0.00000000000E+00 -0.47469661214E+03  0.47469661217E+03  0.50400001928E-02 0. -1.
    10030    2    1    2    0    0  0.00000000000E+00  0.00000000000E+00  0.18550483727E+04  0.28044415970E+04  0.21032565716E+04 0.  0.
        2    1    3    3  502    0 -0.16298390026E+03 -0.53969623524E+03 -0.25617412278E+03  0.61924224603E+03  0.25500000920E-02 0. -1.
       -2    1    3    3    0  502  0.16298390026E+03  0.53969623524E+03  0.21112224955E+04  0.21851993510E+04  0.25500000920E-02 0.  1.
</event>
<event>
 5   0  0.3257130E-05  0.2100823E+04  0.7818609E-02  0.8560881E-01
        2   -1    0    0  501    0  0.00000000000E+00  0.00000000000E+00  0.17054516461E+04  0.17054516461E+04  0.25500000920E-02 0.  1.
       -2   -1    0    0    0  501  0.00000000000E+00  0.00000000000E+00 -0.64696312683E+03  0.64696312683E+03  0.25500000920E-02 0. -1.
    10030    2    1    2    0    0  0.00000000000E+00  0.00000000000E+00  0.10584885193E+04  0.23524147730E+04  0.21008230098E+04 0.  0.
        3    1    3    3  502    0 -0.76355440128E+03  0.70748004407E+03  0.68689173742E+03  0.12471421754E+04  0.10100000352E+00 0.  1.
       -3    1    3    3    0  502  0.76355440128E+03 -0.70748004407E+03  0.37159678188E+03  0.11052725976E+04  0.10100000352E+00 0. -1.
</event>
<event>
 5   0  0.1453430E-05  0.2097516E+04  0.7818609E-02  0.8562339E-01
       -1   -1    0    0    0  501  0.00000000000E+00  0.00000000000E+00  0.86916210158E+03  0.86916210160E+03  0.50400001928E-02 0. -1.
        1   -1    0    0  501    0  0.00000000000E+00  0.00000000000E+00 -0.12654633924E+04  0.12654633924E+04  0.50400001928E-02 0.  1.
    10030    2    1    2    0    0  0.00000000000E+00  0.00000000000E+00 -0.39630129085E+03  0.21346254940E+04  0.20975155033E+04 0.  0.
        5    1    3    3  502    0  0.70521210750E+03  0.75028131105E+03 -0.40073168260E+03  0.11049226822E+04  0.46999998093E+01 0.  1.
       -5    1    3    3    0  502 -0.70521210750E+03 -0.75028131105E+03  0.44303917480E+01  0.10297028118E+04  0.46999998093E+01 0. -1.
</event>
<event>
 5   0  0.1466480E-05  0.2101075E+04  0.7818609E-02  0.8560770E-01
       -1   -1    0    0    0  501  0.00000000000E+00  0.00000000000E+00  0.13221647691E+04  0.13221647692E+04  0.50400001928E-02 0. -1.
        1   -1    0    0  501    0  0.00000000000E+00  0.00000000000E+00 -0.83471387771E+03  0.83471387772E+03  0.50400001928E-02 0.  1.
    10030    2    1    2    0    0  0.00000000000E+00  0.00000000000E+00  0.48745089144E+03  0.21568786469E+04  0.21010752309E+04 0.  0.
        3    1    3    3  502    0 -0.66866356199E+03 -0.70117747498E+03  0.66054962096E+03  0.11726408753E+04  0.10100000352E+00 0. -1.
       -3    1    3    3    0  502  0.66866356199E+03  0.70117747498E+03 -0.17309872952E+03  0.98423777154E+03  0.10100000352E+00 0.  1.
</event>
<event>
 5   0  0.1492552E-05  0.2103041E+04  0.7818609E-02  0.8559905E-01
       -1   -1    0    0    0  501  0.00000000000E+00  0.00000000000E+00  0.12621932550E+04  0.12621932550E+04  0.50400001928E-02 0. -1.
        1   -1    0    0  501    0  0.00000000000E+00  0.00000000000E+00 -0.87601073910E+03  0.87601073912E+03  0.50400001928E-02 0.  1.
    10030    2    1    2    0    0  0.00000000000E+00  0.00000000000E+00  0.38618251591E+03  0.21382039941E+04  0.21030405096E+04 0.  0.
        4    1    3    3  502    0 -0.18223453213E+03 -0.93867446879E+03  0.63786897604E+03  0.11494336112E+04  0.12699999809E+01 0. -1.
       -4    1    3    3    0  502  0.18223453213E+03  0.93867446879E+03 -0.25168646013E+03  0.98877038294E+03  0.12699999809E+01 0.  1.
</event>
<event>
 5   0  0.3242231E-05  0.2102224E+04  0.7818609E-02  0.8560264E-01
        2   -1    0    0  501    0  0.00000000000E+00  0.00000000000E+00  0.21297875326E+04  0.21297875326E+04  0.25500000920E-02 0.  1.
       -2   -1    0    0    0  501  0.00000000000E+00  0.00000000000E+00 -0.51875416513E+03  0.51875416514E+03  0.25500000920E-02 0. -1.
    10030    2    1    2    0    0  0.00000000000E+00  0.00000000000E+00  0.16110333674E+04  0.26485416977E+04  0.21022237306E+04 0.  0.
        4    1    3    3  502    0 -0.70392586118E+02 -0.72796772803E+03  0.17566543227E+04  0.19028211034E+04  0.12699999809E+01 0.  1.
       -4    1    3    3    0  502  0.70392586118E+02  0.72796772803E+03 -0.14562095528E+03  0.74572059429E+03  0.12699999809E+01 0. -1.
</event>
<event>
 5   0  0.1492552E-05  0.2101136E+04  0.7818609E-02  0.8560743E-01
       -1   -1    0    0    0  501  0.00000000000E+00  0.00000000000E+00  0.93386484404E+03  0.93386484406E+03  0.50400001928E-02 0.  1.
        1   -1    0    0  501    0  0.00000000000E+00  0.00000000000E+00 -0.11818553650E+04  0.11818553650E+04  0.50400001928E-02 0. -1.
    10030    2    1    2    0    0  0.00000000000E+00  0.00000000000E+00 -0.24799052093E+03  0.21157202090E+04  0.21011360509E+04 0.  0.
        4    1    3    3  502    0 -0.16984642068E+03 -0.10117705975E+04 -0.35175993487E+03  0.10845571508E+04  0.12699999809E+01 0.  1.
       -4    1    3    3    0  502  0.16984642068E+03  0.10117705975E+04  0.10376941395E+03  0.10311630583E+04  0.12699999809E+01 0. -1.
</event>
<event>
 5   0  0.3108326E-05  0.2090732E+04  0.7818609E-02  0.8565337E-01
        2   -1    0    0  501    0  0.00000000000E+00  0.00000000000E+00  0.10617324724E+04  0.10617324724E+04  0.25500000920E-02 0.  1.
       -2   -1    0    0    0  501  0.00000000000E+00  0.00000000000E+00 -0.10292517752E+04  0.10292517752E+04  0.25500000920E-02 0. -1.
    10030    2    1    2    0    0  0.00000000000E+00  0.00000000000E+00  0.32480697190E+02  0.20909842476E+04  0.20907319599E+04 0.  0.
        5    1    3    3  502    0  0.76717381225E+02  0.75318735251E+03  0.73715407625E+03  0.10566905728E+04  0.46999998093E+01 0.  1.
       -5    1    3    3    0  502 -0.76717381225E+02 -0.75318735251E+03 -0.70467337906E+03  0.10342936748E+04  0.46999998093E+01 0. -1.
</event>
<event>
 5   0  0.1466480E-05  0.2097663E+04  0.7818609E-02  0.8562273E-01
        1   -1    0    0  501    0  0.00000000000E+00  0.00000000000E+00  0.14652802653E+04  0.14652802653E+04  0.50400001928E-02 0.  1.
       -1   -1    0    0    0  501  0.00000000000E+00  0.00000000000E+00 -0.75074215410E+03  0.75074215412E+03  0.50400001928E-02 0. -1.
    10030    2    1    2    0    0  0.00000000000E+00  0.00000000000E+00  0.71453811117E+03  0.22160224194E+04  0.20976631405E+04 0.  0.
        3    1    3    3  502    0  0.32586972488E+03  0.80493208866E+03  0.97862343415E+03  0.13083617929E+04  0.10100000352E+00 0. -1.
       -3    1    3    3    0  502 -0.32586972488E+03 -0.80493208866E+03 -0.26408532298E+03  0.90766062654E+03  0.10100000352E+00 0.  1.
</event>
<event>
 5   0  0.3279789E-05  0.2095597E+04  0.7818609E-02  0.8563186E-01
       -2   -1    0    0    0  501  0.00000000000E+00  0.00000000000E+00  0.70346065493E+03  0.70346065494E+03  0.25500000920E-02 0.  1.
        2   -1    0    0  501    0  0.00000000000E+00  0.00000000000E+00 -0.15606863223E+04  0.15606863223E+04  0.25500000920E-02 0. -1.
    10030    2    1    2    0    0  0.00000000000E+00  0.00000000000E+00 -0.85722566740E+03  0.22641469773E+04  0.20955967384E+04 0.  0.
        2    1    3    3  502    0  0.10230896711E+04 -0.17208145267E+03 -0.26998102833E+03  0.10720141124E+04  0.25500000920E-02 0.  1.
       -2    1    3    3    0  502 -0.10230896711E+04  0.17208145267E+03 -0.58724463907E+03  0.11921328649E+04  0.25500000920E-02 0. -1.
</event>
<event>
 5   0  0.3242231E-05  0.2104120E+04  0.7818609E-02  0.8559431E-01
        2   -1    0    0  501    0  0.00000000000E+00  0.00000000000E+00  0.16934956193E+04  0.16934956193E+04  0.25500000920E-02 0. -1.
       -2   -1    0    0    0  501  0.00000000000E+00  0.00000000000E+00 -0.65357712272E+03  0.65357712272E+03  0.25500000920E-02 0.  1.
    10030    2    1    2    0    0  0.00000000000E+00  0.00000000000E+00  0.10399184965E+04  0.23470727420E+04  0.21041197629E+04 0.  0.
        4    1    3    3  502    0  0.55560135339E+03 -0.18220607014E+02  0.15162912278E+04  0.16149815958E+04  0.12699999809E+01 0. -1.
       -4    1    3    3    0  502 -0.55560135339E+03  0.18220607014E+02 -0.47637273122E+03  0.73209114621E+03  0.12699999809E+01 0.  1.
</event>
<event>
 5   0  0.3279789E-05  0.2101085E+04  0.7818609E-02  0.8560766E-01
        2   -1    0    0  501    0  0.00000000000E+00  0.00000000000E+00  0.13664629692E+04  0.13664629692E+04  0.25500000920E-02 0. -1.
       -2   -1    0    0    0  501  0.00000000000E+00  0.00000000000E+00 -0.80766148939E+03  0.80766148939E+03  0.25500000920E-02 0.  1.
    10030    2    1    2    0    0  0.00000000000E+00  0.00000000000E+00  0.55880147985E+03  0.21741244586E+04  0.21010849739E+04 0.  0.
        2    1    3    3  502    0 -0.69870570051E+03 -0.59301760371E+02  0.10888558696E+04  0.12951113695E+04  0.25500000920E-02 0. -1.
       -2    1    3    3    0  502  0.69870570051E+03  0.59301760371E+02 -0.53005438975E+03  0.87901308910E+03  0.25500000920E-02 0.  1.
</event>
<event>
 5   0  0.1492552E-05  0.2101906E+04  0.7818609E-02  0.8560404E-01
       -1   -1    0    0    0  501  0.00000000000E+00  0.00000000000E+00  0.14522297104E+04  0.14522297104E+04  0.50400001928E-02 0.  1.
        1   -1    0    0  501    0  0.00000000000E+00  0.00000000000E+00 -0.76055609229E+03  0.76055609231E+03  0.50400001928E-02 0. -1.
    10030    2    1    2    0    0  0.00000000000E+00  0.00000000000E+00  0.69167361814E+03  0.22127858028E+04  0.21019059481E+04 0.  0.
        4    1    3    3  502    0  0.32971608272E+03  0.62892587998E+03 -0.46978455675E+03  0.85144559449E+03  0.12699999809E+01 0. -1.
       -4    1    3    3    0  502 -0.32971608272E+03 -0.62892587998E+03  0.11614581749E+04  0.13613402083E+04  0.12699999809E+01 0.  1.
</event>
<event>
 5   0  0.3108326E-05  0.2108786E+04  0.7818609E-02  0.8557383E-01
        2   -1    0    0  501    0  0.00000000000E+00  0.00000000000E+00  0.11746740094E+04  0.11746740094E+04  0.25500000920E-02 0.  1.
       -2   -1    0    0    0  501  0.00000000000E+00  0.00000000000E+00 -0.94642776516E+03  0.94642776516E+03  0.25500000920E-02 0. -1.
    10030    2    1    2    0    0  0.00000000000E+00  0.00000000000E+00  0.22824624426E+03  0.21211017746E+04  0.21087855249E+04 0.  0.
        5    1    3    3  502    0  0.19962884019E+03 -0.53152780635E+03 -0.77951872236E+03  0.96438841307E+03  0.46999998093E+01 0. -1.
       -5    1    3    3    0  502 -0.19962884019E+03  0.53152780635E+03  0.10077649666E+04  0.11567133615E+04  0.46999998093E+01 0.  1.
</event>
<event>
 5   0  0.1435410E-05  0.2085215E+04  0.7818609E-02  0.8567785E-01
        1   -1    0    0  501    0  0.00000000000E+00  0.00000000000E+00  0.22649155900E+04  0.22649155900E+04  0.50400001928E-02 0. -1.
       -1   -1    0    0    0  501  0.00000000000E+00  0.00000000000E+00 -0.47994281961E+03  0.47994281963E+03  0.50400001928E-02 0.  1.
    10030    2    1    2    0    0  0.00000000000E+00  0.00000000000E+00  0.17849727704E+04  0.27448584096E+04  0.20852145928E+04 0.  0.
        2    1    3    3  502    0 -0.18877763255E+03 -0.83593999530E+03  0.11084294951E+03  0.86412894278E+03  0.25500000920E-02 0.  1.
       -2    1    3    3    0  502  0.18877763255E+03  0.83593999530E+03  0.16741298209E+04  0.18807294668E+04  0.25500000920E-02 0. -1.
</event>
<event>
 5   0  0.1513292E-05  0.2089560E+04  0.7818609E-02  0.8565856E-01
        1   -1    0    0  501    0  0.00000000000E+00  0.00000000000E+00  0.12766069829E+04  0.12766069829E+04  0.50400001928E-02 0.  1.
       -1   -1    0    0    0  501  0.00000000000E+00  0.00000000000E+00 -0.85505204673E+03  0.85505204675E+03  0.50400001928E-02 0. -1.
    10030    2    1    2    0    0  0.00000000000E+00  0.00000000000E+00  0.42155493616E+03  0.21316590296E+04  0.20895601581E+04 0.  0.
        1    1    3    3  502    0 -0.49681848085E+03  0.21529826528E+02  0.11481330736E+04  0.12512001003E+04  0.50400001928E-02 0.  1.
       -1    1    3    3    0  502  0.49681848085E+03 -0.21529826528E+02 -0.72657813745E+03  0.88045892930E+03  0.50400001928E-02 0. -1.
</event>
<event>
 5   0  0.1453430E-05  0.2097621E+04  0.7818609E-02  0.8562292E-01
       -1   -1    0    0    0  501  0.00000000000E+00  0.00000000000E+00  0.43123617088E+03  0.43123617091E+03  0.50400001928E-02 0. -1.
        1   -1    0    0  501    0  0.00000000000E+00  0.00000000000E+00 -0.25508142877E+04  0.25508142877E+04  0.50400001928E-02 0.  1.
    10030    2    1    2    0    0  0.00000000000E+00  0.00000000000E+00 -0.21195781168E+04  0.29820504586E+04  0.20976209249E+04 0.  0.
        5    1    3    3  502    0  0.10458242983E+04 -0.78804677140E+02 -0.10530223011E+04  0.14862155620E+04  0.46999998093E+01 0.  1.
       -5    1    3    3    0  502 -0.10458242983E+04  0.78804677140E+02 -0.10665558157E+04  0.14958348967E+04  0.46999998093E+01 0. -1.
</event>
<event>
 5   0  0.1492552E-05  0.2100946E+04  0.7818609E-02  0.8560827E-01
        1   -1    0    0  501    0  0.00000000000E+00  0.00000000000E+00  0.11892084159E+04  0.11892084159E+04  0.50400001928E-02 0.  1.
       -1   -1    0    0    0  501  0.00000000000E+00  0.00000000000E+00 -0.92792236586E+03  0.92792236588E+03  0.50400001928E-02 0. -1.
    10030    2    1    2    0    0  0.00000000000E+00  0.00000000000E+00  0.26128605005E+03  0.21171307818E+04  0.21009455841E+04 0.  0.
        4    1    3    3  502    0  0.83119383031E+03  0.84467472023E+02 -0.51103052816E+03  0.97937314185E+03  0.12699999809E+01 0. -1.
       -4    1    3    3    0  502 -0.83119383031E+03 -0.84467472023E+02  0.77231657820E+03  0.11377576399E+04  0.12699999809E+01 0.  1.
</event>
<event>
 5   0  0.3130517E-05  0.2099718E+04  0.7818609E-02  0.8561367E-01
        2   -1    0    0  501    0  0.00000000000E+00  0.00000000000E+00  0.86194010092E+03  0.86194010092E+03  0.25500000920E-02 0. -1.
       -2   -1    0    0    0  501  0.00000000000E+00  0.00000000000E+00 -0.12787483057E+04  0.12787483057E+04  0.25500000920E-02 0.  1.
    10030    2    1    2    0    0  0.00000000000E+00  0.00000000000E+00 -0.41680820474E+03  0.21406884066E+04  0.20997184989E+04 0.  0.
        1    1    3    3  502    0 -0.32426951628E+03  0.98203264903E+03 -0.39266691956E+03  0.11062215658E+04  0.50400001928E-02 0.  1.
       -1    1    3    3    0  502  0.32426951628E+03 -0.98203264903E+03 -0.24141285188E+02  0.10344668408E+04  0.50400001928E-02 0. -1.
</event>
<event>
 5   0  0.1513292E-05  0.2106742E+04  0.7818609E-02  0.8558279E-01
        1   -1    0    0  501    0  0.00000000000E+00  0.00000000000E+00  0.18124970617E+04  0.18124970617E+04  0.50400001928E-02 0. -1.
       -1   -1    0    0    0  501  0.00000000000E+00  0.00000000000E+00 -0.61218893611E+03  0.61218893614E+03  0.50400001928E-02 0.  1.
    10030    2    1    2    0    0  0.00000000000E+00  0.00000000000E+00  0.12003081256E+04  0.24246859979E+04  0.21067421750E+04 0.  0.
        1    1    3    3  502    0 -0.66636407830E+03 -0.81383293524E+03  0.66551883563E+03  0.12447009488E+04  0.50400001928E-02 0.  1.
       -1    1    3    3    0  502  0.66636407830E+03  0.81383293524E+03  0.53478928998E+03  0.11799850491E+04  0.50400001928E-02 0. -1.
</event>
<event>
 5   0  0.3257130E-05  0.2099394E+04  0.7818609E-02  0.8561510E-01
       -2   -1    0    0    0  501  0.00000000000E+00  0.00000000000E+00  0.67396353825E+03  0.67396353825E+03  0.25500000920E-02 0. -1.
        2   -1    0    0  501    0  0.00000000000E+00  0.00000000000E+00 -0.16349018946E+04  0.16349018946E+04  0.25500000920E-02 0.  1.
    10030    2    1    2    0    0  0.00000000000E+00  0.00000000000E+00 -0.96093835632E+03  0.23088654328E+04  0.20993944513E+04 0.  0.
        3    1    3    3  502    0 -0.95333306470E+03 -0.39272659245E+03 -0.26387693731E+03  0.10642880986E+04  0.10100000352E+00 0.  1.
       -3    1    3    3    0  502  0.95333306470E+03  0.39272659245E+03 -0.69706141901E+03  0.12445773342E+04  0.10100000352E+00 0. -1.
</event>
<event>
 5   0  0.3130517E-05  0.2064953E+04  0.7818609E-02  0.8576841E-01
       -2   -1    0    0    0  501  0.00000000000E+00  0.00000000000E+00  0.12242105537E+04  0.12242105537E+04  0.25500000920E-02 0.  1.
        2   -1    0    0  501    0  0.00000000000E+00  0.00000000000E+00 -0.87077189557E+03  0.87077189558E+03  0.25500000920E-02 0. -1.
    10030    2    1    2    0    0  0.00000000000E+00  0.00000000000E+00  0.35343865808E+03  0.20949824492E+04  0.20649534081E+04 0.  0.
        1    1    3    3  502    0 -0.84039883218E+03  0.31512376598E+03  0.69446892962E+03  0.11348393187E+04  0.50400001928E-02 0.  1.
       -1    1    3    3    0  502  0.84039883218E+03 -0.31512376598E+03 -0.34103027153E+03  0.96014313055E+03  0.50400001928E-02 0. -1.
</event>
<event>
 5   0  0.3130517E-05  0.2109141E+04  0.7818609E-02  0.8557227E-01
       -2   -1    0    0    0  501  0.00000000000E+00  0.00000000000E+00  0.62646100508E+03  0.62646100508E+03  0.25500000920E-02 0. -1.
        2   -1    0    0  501    0  0.00000000000E+00  0.00000000000E+00 -0.17752411478E+04  0.17752411478E+04  0.25500000920E-02 0.  1.
    10030    2    1    2    0    0  0.00000000000E+00  0.00000000000E+00 -0.11487801427E+04  0.24017021528E+04  0.21091413928E+04 0.  0.
        1    1    3    3  502    0 -0.67806866591E+02  0.47689759586E+03  0.49387016022E+03  0.68988174586E+03  0.50400001928E-02 0. -1.
       -1    1    3    3    0  502  0.67806866591E+02 -0.47689759586E+03 -0.16426503029E+04  0.17118204070E+04  0.50400001928E-02 0.  1.
</event>
<event>
 5   0  0.3108326E-05  0.2100663E+04  0.7818609E-02  0.8560951E-01
       -2   -1    0    0    0  501  0.00000000000E+00  0.00000000000E+00  0.72708625180E+03  0.72708625181E+03  0.25500000920E-02 0. -1.
        2   -1    0    0  501    0  0.00000000000E+00  0.00000000000E+00 -0.15172836942E+04  0.15172836942E+04  0.25500000920E-02 0.  1.
    10030    2    1    2    0    0  0.00000000000E+00  0.00000000000E+00 -0.79019744237E+03  0.22443699460E+04  0.21006628612E+04 0.  0.
        5    1    3    3  502    0 -0.48626533479E+03 -0.60052902877E+03 -0.11551620711E+04  0.13897879661E+04  0.46999998093E+01 0.  1.
       -5    1    3    3    0  502  0.48626533479E+03  0.60052902877E+03  0.36496462868E+03  0.85458197992E+03  0.46999998093E+01 0. -1.
</event>
<event>
 5   0  0.1453430E-05  0.2137248E+04  0.7818609E-02  0.8545010E-01
        1   -1    0    0  501    0  0.00000000000E+00  0.00000000000E+00  0.21048397865E+04  0.21048397865E+04  0.50400001928E-02 0. -1.
       -1   -1    0    0    0  501  0.00000000000E+00  0.00000000000E+00 -0.54253900135E+03  0.54253900138E+03  0.50400001928E-02 0.  1.
    10030    2    1    2    0    0  0.00000000000E+00  0.00000000000E+00  0.15623007851E+04  0.26473787879E+04  0.21372483953E+04 0.  0.
        5    1    3    3  502    0 -0.20665315812E+03 -0.29321858072E+03  0.20280170669E+04  0.20595043039E+04  0.46999998093E+01 0. -1.
       -5    1    3    3    0  502  0.20665315812E+03  0.29321858072E+03 -0.46571628179E+03  0.58787448402E+03  0.46999998093E+01 0.  1.
</event>
<event>
 5   0  0.3257130E-05  0.2089420E+04  0.7818609E-02  0.8565918E-01
        2   -1    0    0  501    0  0.00000000000E+00  0.00000000000E+00  0.95826978193E+03  0.95826978194E+03  0.25500000920E-02 0.  1.
       -2   -1    0    0    0  501  0.00000000000E+00  0.00000000000E+00 -0.11389473537E+04  0.11389473537E+04  0.25500000920E-02 0. -1.
    10030    2    1    2    0    0  0.00000000000E+00  0.00000000000E+00 -0.18067757172E+03  0.20972171356E+04  0.20894198546E+04 0.  0.
        3    1    3    3  502    0  0.45195080337E+03 -0.89469967520E+03  0.20516057753E+03  0.10231509714E+04  0.10100000352E+00 0.  1.
       -3    1    3    3    0  502 -0.45195080337E+03  0.89469967520E+03 -0.38583814925E+03  0.10740661642E+04  0.10100000352E+00 0. -1.
</event>
<event>
 5   0  0.1435410E-05  0.2104517E+04  0.7818609E-02  0.8559256E-01
       -1   -1    0    0    0  501  0.00000000000E+00  0.00000000000E+00  0.22298826950E+04  0.22298826950E+04  0.50400001928E-02 0. -1.
        1   -1    0    0  501    0  0.00000000000E+00  0.00000000000E+00 -0.49654977091E+03  0.49654977094E+03  0.50400001928E-02 0.  1.
    10030    2    1    2    0    0  0.00000000000E+00  0.00000000000E+00  0.17333329241E+04  0.27264324660E+04  0.21045168010E+04 0.  0.
        2    1    3    3  502    0 -0.71562618033E+03  0.40502713169E+02  0.18647060043E+04  0.19977211473E+04  0.25500000920E-02 0. -1.
       -2    1    3    3    0  502  0.71562618033E+03 -0.40502713169E+02 -0.13137308021E+03  0.72871131867E+03  0.25500000920E-02 0.  1.
</event>
<event>
 5   0  0.1513292E-05  0.2008657E+04  0.7818609E-02  0.8602584E-01
       -1   -1    0    0    0  501  0.00000000000E+00  0.00000000000E+00  0.68535026246E+03  0.68535026247E+03  0.50400001928E-02 0. -1.
        1   -1    0    0  501    0  0.00000000000E+00  0.00000000000E+00 -0.14717664948E+04  0.14717664949E+04  0.50400001928E-02 0.  1.
    10030    2    1    2    0    0  0.00000000000E+00  0.00000000000E+00 -0.78641623239E+03  0.21571167573E+04  0.20086568184E+04 0.  0.
        1    1    3    3  502    0  0.46158674051E+03  0.88909906722E+03 -0.47002146637E+03  0.11065620856E+04  0.50400001928E-02 0. -1.
       -1    1    3    3    0  502 -0.46158674051E+03 -0.88909906722E+03 -0.31639476601E+03  0.10505546718E+04  0.50400001928E-02 0.  1.
</event>
<event>
 5   0  0.1466480E-05  0.2142032E+04  0.7818609E-02  0.8542951E-01
       -1   -1    0    0    0  501  0.00000000000E+00  0.00000000000E+00  0.73588320688E+03  0.73588320689E+03  0.50400001928E-02 0. -1.
        1   -1    0    0  501    0  0.00000000000E+00  0.00000000000E+00 -0.15587731465E+04  0.15587731465E+04  0.50400001928E-02 0.  1.
    10030    2    1    2    0    0  0.00000000000E+00  0.00000000000E+00 -0.82288993959E+03  0.22946563534E+04  0.21420317288E+04 0.  0.
        3    1    3    3  502    0 -0.70154499669E+03 -0.66672886087E+03 -0.90280097412E+03  0.13235340439E+04  0.10100000352E+00 0.  1.
       -3    1    3    3    0  502  0.70154499669E+03  0.66672886087E+03  0.79911034532E+02  0.97112230946E+03  0.10100000352E+00 0. -1.
</event>
<event>
 5   0  0.1466480E-05  0.2025138E+04  0.7818609E-02  0.8594957E-01
        1   -1    0    0  501    0  0.00000000000E+00  0.00000000000E+00  0.12315998938E+04  0.12315998938E+04  0.50400001928E-02 0. -1.
       -1   -1    0    0    0  501  0.00000000000E+00  0.00000000000E+00 -0.83249072990E+03  0.83249072992E+03  0.50400001928E-02 0.  1.
    10030    2    1    2    0    0  0.00000000000E+00  0.00000000000E+00  0.39910916388E+03  0.20640906237E+04  0.20251375208E+04 0.  0.
        3    1    3    3  502    0  0.38101561777E+03 -0.73098727378E+03 -0.39978684088E+03  0.91615764133E+03  0.10100000352E+00 0.  1.
       -3    1    3    3    0  502 -0.38101561777E+03  0.73098727378E+03  0.79889600476E+03  0.11479329824E+04  0.10100000352E+00 0. -1.
</event>
<event>
 5   0  0.3279789E-05  0.2105309E+04  0.7818609E-02  0.8558908E-01
       -2   -1    0    0    0  501  0.00000000000E+00  0.00000000000E+00  0.62606268113E+03  0.62606268114E+03  0.25500000920E-02 0.  1.
        2   -1    0    0  501    0  0.00000000000E+00  0.00000000000E+00 -0.17699207888E+04  0.17699207888E+04  0.25500000920E-02 0. -1.
    10030    2    1    2    0    0  0.00000000000E+00  0.00000000000E+00 -0.11438581076E+04  0.23959834699E+04  0.21053088651E+04 0.  0.
        2    1    3    3  502    0  0.26904504676E+03  0.10175152759E+04 -0.59348576377E+03  0.12082830486E+04  0.25500000920E-02 0.  1.
       -2    1    3    3    0  502 -0.26904504676E+03 -0.10175152759E+04 -0.55037234385E+03  0.11877004213E+04  0.25500000920E-02 0. -1.
</event>
<event>
 5   0  0.1453430E-05  0.2112420E+04  0.7818609E-02  0.8555792E-01
        1   -1    0    0  501    0  0.00000000000E+00  0.00000000000E+00  0.85716384084E+03  0.85716384086E+03  0.50400001928E-02 0. -1.
       -1   -1    0    0    0  501  0.00000000000E+00  0.00000000000E+00 -0.13014777218E+04  0.13014777218E+04  0.50400001928E-02 0.  1.
    10030    2    1    2    0    0  0.00000000000E+00  0.00000000000E+00 -0.44431388095E+03  0.21586415627E+04  0.21124200745E+04 0.  0.
        5    1    3    3  502    0 -0.77599480311E+01  0.10456254132E+04 -0.70020775631E+02  0.10480065460E+04  0.46999998093E+01 0. -1.
       -5    1    3    3    0  502  0.77599480311E+01 -0.10456254132E+04 -0.37429310532E+03  0.11106350166E+04  0.46999998093E+01 0.  1.
</event>
<event>
 5   0  0.3108326E-05  0.2094727E+04  0.7818609E-02  0.8563570E-01
       -2   -1    0    0    0  501  0.00000000000E+00  0.00000000000E+00  0.11419510428E+04  0.11419510428E+04  0.25500000920E-02 0. -1.
        2   -1    0    0  501    0  0.00000000000E+00  0.00000000000E+00 -0.96061064350E+03  0.96061064350E+03  0.25500000920E-02 0.  1.
    10030    2    1    2    0    0  0.00000000000E+00  0.00000000000E+00  0.18134039935E+03  0.21025616864E+04  0.20947270239E+04 0.  0.
        5    1    3    3  502    0  0.32304608861E+03  0.73082127592E+03  0.77032143980E+03  0.11098989699E+04  0.46999998093E+01 0. -1.
       -5    1    3    3    0  502 -0.32304608861E+03 -0.73082127592E+03 -0.58898104045E+03  0.99266271649E+03  0.46999998093E+01 0.  1.
</event>
<event>
 5   0  0.1435410E-05  0.2098898E+04  0.7818609E-02  0.8561729E-01
       -1   -1    0    0    0  501  0.00000000000E+00  0.00000000000E+00  0.11824216409E+04  0.11824216409E+04  0.50400001928E-02 0. -1.
        1   -1    0    0  501    0  0.00000000000E+00  0.00000000000E+00 -0.93142979673E+03  0.93142979674E+03  0.50400001928E-02 0.  1.
    10030    2    1    2    0    0  0.00000000000E+00  0.00000000000E+00  0.25099184416E+03  0.21138514376E+04  0.20988975665E+04 0.  0.
        2    1    3    3  502    0  0.44566466602E+02  0.10694073454E+03  0.11759613154E+04  0.11816545629E+04  0.25500000920E-02 0. -1.
       -2    1    3    3    0  502 -0.44566466602E+02 -0.10694073454E+03 -0.92496947122E+03  0.93219687478E+03  0.25500000920E-02 0.  1.
</event>
<event>
 5   0  0.1129987E-05  0.2105164E+04  0.7818609E-02  0.8558972E-01
        4   -1    0    0  501    0  0.00000000000E+00  0.00000000000E+00  0.19242177810E+04  0.19242182001E+04  0.12699999809E+01 0. -1.
       -4   -1    0    0    0  501  0.00000000000E+00  0.00000000000E+00 -0.57578045861E+03  0.57578185923E+03  0.12699999809E+01 0.  1.
    10030    2    1    2    0    0  0.00000000000E+00  0.00000000000E+00  0.13484373224E+04  0.25000000593E+04  0.21051643841E+04 0.  0.
        5    1    3    3  502    0  0.68516946421E+03 -0.57795056787E+03  0.13294472328E+04  0.16034138855E+04  0.46999998093E+01 0.  1.
       -5    1    3    3    0  502 -0.68516946421E+03  0.57795056787E+03  0.18990089633E+02  0.89658617382E+03  0.46999998093E+01 0. -1.
</event>
<event>
 5   0  0.1513292E-05  0.2094440E+04  0.7818609E-02  0.8563697E-01
       -1   -1    0    0    0  501  0.00000000000E+00  0.00000000000E+00  0.11042149102E+04  0.11042149102E+04  0.50400001928E-02 0. -1.
        1   -1    0    0  501    0  0.00000000000E+00  0.00000000000E+00 -0.99316669605E+03  0.99316669606E+03  0.50400001928E-02 0.  1.
    10030    2    1    2    0    0  0.00000000000E+00  0.00000000000E+00  0.11104821419E+03  0.20973816063E+04  0.20944397572E+04 0.  0.
        1    1    3    3  502    0  0.51748941112E+03  0.69417286950E+03 -0.53436883437E+03  0.10174582618E+04  0.50400001928E-02 0.  1.
       -1    1    3    3    0  502 -0.51748941112E+03 -0.69417286950E+03  0.64541704856E+03  0.10799233445E+04  0.50400001928E-02 0. -1.
</event>
<event>
 5   0  0.1435410E-05  0.2098892E+04  0.7818609E-02  0.8561732E-01
        1   -1    0    0  501    0  0.00000000000E+00  0.00000000000E+00  0.12627858027E+04  0.12627858027E+04  0.50400001928E-02 0.  1.
       -1   -1    0    0    0  501  0.00000000000E+00  0.00000000000E+00 -0.87214860443E+03  0.87214860444E+03  0.50400001928E-02 0. -1.
    10030    2    1    2    0    0  0.00000000000E+00  0.00000000000E+00  0.39063719831E+03  0.21349344072E+04  0.20988919701E+04 0.  0.
        2    1    3    3  502    0 -0.79907166428E+03 -0.67983665697E+03  0.16951627331E+03  0.10627460523E+04  0.25500000920E-02 0. -1.
       -2    1    3    3    0  502  0.79907166428E+03  0.67983665697E+03  0.22112092500E+03  0.10721883549E+04  0.25500000920E-02 0.  1.
</event>
<event>
 5   0  0.3130517E-05  0.2106554E+04  0.7818609E-02  0.8558362E-01
        2   -1    0    0  501    0  0.00000000000E+00  0.00000000000E+00  0.12965175991E+04  0.12965175991E+04  0.25500000920E-02 0.  1.
       -2   -1    0    0    0  501  0.00000000000E+00  0.00000000000E+00 -0.85567080622E+03  0.85567080622E+03  0.25500000920E-02 0. -1.
    10030    2    1    2    0    0  0.00000000000E+00  0.00000000000E+00  0.44084679286E+03  0.21521884053E+04  0.21065538296E+04 0.  0.
        1    1    3    3  502    0 -0.47476001751E+03  0.94701201468E+00 -0.74015420469E+03  0.87933282539E+03  0.50400001928E-02 0. -1.
       -1    1    3    3    0  502  0.47476001751E+03 -0.94701201468E+00  0.11810009976E+04  0.12728555799E+04  0.50400001928E-02 0.  1.
</event>
<event>
 5   0  0.3130517E-05  0.2095580E+04  0.7818609E-02  0.8563193E-01
       -2   -1    0    0    0  501  0.00000000000E+00  0.00000000000E+00  0.98489149210E+03  0.98489149210E+03  0.25500000920E-02 0.  1.
        2   -1    0    0  501    0  0.00000000000E+00  0.00000000000E+00 -0.11147049090E+04  0.11147049090E+04  0.25500000920E-02 0. -1.
    10030    2    1    2    0    0  0.00000000000E+00  0.00000000000E+00 -0.12981341686E+03  0.20995964011E+04  0.20955795199E+04 0.  0.
        1    1    3    3  502    0  0.89808967390E+03 -0.53971785822E+03 -0.63185228948E+02  0.10496917652E+04  0.50400001928E-02 0.  1.
       -1    1    3    3    0  502 -0.89808967390E+03  0.53971785822E+03 -0.66628187910E+02  0.10499046358E+04  0.50400001928E-02 0. -1.
</event>
<event>
 5   0  0.1129987E-05  0.2101570E+04  0.7818609E-02  0.8560552E-01
       -3   -1    0    0    0  501  0.00000000000E+00  0.00000000000E+00  0.11357124993E+04  0.11357125038E+04  0.10100000352E+00 0. -1.
        3   -1    0    0  501    0  0.00000000000E+00  0.00000000000E+00 -0.97220789514E+03  0.97220790038E+03  0.10100000352E+00 0.  1.
    10030    2    1    2    0    0  0.00000000000E+00  0.00000000000E+00  0.16350460414E+03  0.21079204042E+04  0.21015695741E+04 0.  0.
        3    1    3    3  502    0  0.59942598011E+03  0.59040627387E+03 -0.54963992267E+03  0.10049851385E+04  0.10100000352E+00 0.  1.
       -3    1    3    3    0  502 -0.59942598011E+03 -0.59040627387E+03  0.71314452681E+03  0.11029352656E+04  0.10100000352E+00 0. -1.
</event>
<event>
 5   0  0.1492552E-05  0.2097896E+04  0.7818609E-02  0.8562171E-01
       -1   -1    0    0    0  501  0.00000000000E+00  0.00000000000E+00  0.92188276083E+03  0.92188276085E+03  0.50400001928E-02 0. -1.
        1   -1    0    0  501    0  0.00000000000E+00  0.00000000000E+00 -0.11935269589E+04  0.11935269590E+04  0.50400001928E-02 0.  1.
    10030    2    1    2    0    0  0.00000000000E+00  0.00000000000E+00 -0.27164419812E+03  0.21154097198E+04  0.20978960204E+04 0.  0.
        4    1    3    3  502    0 -0.46287972585E+03  0.63183123870E+03 -0.83937315115E+03  0.11480493258E+04  0.12699999809E+01 0.  1.
       -4    1    3    3    0  502  0.46287972585E+03 -0.63183123870E+03  0.56772895303E+03  0.96736039396E+03  0.12699999809E+01 0. -1.
</event>
<event>
 5   0  0.3108326E-05  0.2095096E+04  0.7818609E-02  0.8563407E-01
        2   -1    0    0  501    0  0.00000000000E+00  0.00000000000E+00  0.10047643316E+04  0.10047643316E+04  0.25500000920E-02 0. -1.
       -2   -1    0    0    0  501  0.00000000000E+00  0.00000000000E+00 -0.10921531196E+04  0.10921531196E+04  0.25500000920E-02 0.  1.
    10030    2    1    2    0    0  0.00000000000E+00  0.00000000000E+00 -0.87388787938E+02  0.20969174512E+04  0.20950957012E+04 0.  0.
        5    1    3    3  502    0  0.43150383946E+03 -0.94502424774E+03 -0.17822859788E+03  0.10540654227E+04  0.46999998093E+01 0.  1.
       -5    1    3    3    0  502 -0.43150383946E+03  0.94502424774E+03  0.90839809939E+02  0.10428520285E+04  0.46999998093E+01 0. -1.
</event>
<event>
 5   0  0.1453430E-05  0.2101691E+04  0.7818609E-02  0.8560499E-01
       -1   -1    0    0    0  501  0.00000000000E+00  0.00000000000E+00  0.72171794714E+03  0.72171794716E+03  0.50400001928E-02 0.  1.
        1   -1    0    0  501    0  0.00000000000E+00  0.00000000000E+00 -0.15300669639E+04  0.15300669639E+04  0.50400001928E-02 0. -1.
    10030    2    1    2    0    0  0.00000000000E+00  0.00000000000E+00 -0.80834901676E+03  0.22517849111E+04  0.21016914980E+04 0.  0.
        5    1    3    3  502    0 -0.51950761281E+03  0.70723732731E+03 -0.10235434162E+04  0.13482344053E+04  0.46999998093E+01 0. -1.
       -5    1    3    3    0  502  0.51950761281E+03 -0.70723732731E+03  0.21519439941E+03  0.90355050575E+03  0.46999998093E+01 0.  1.
</event>
<event>
 5   0  0.1435410E-05  0.2094576E+04  0.7818609E-02  0.8563636E-01
        1   -1    0    0  501    0  0.00000000000E+00  0.00000000000E+00  0.17871398238E+04  0.17871398238E+04  0.50400001928E-02 0.  1.
       -1   -1    0    0    0  501  0.00000000000E+00  0.00000000000E+00 -0.61372505228E+03  0.61372505230E+03  0.50400001928E-02 0. -1.
    10030    2    1    2    0    0  0.00000000000E+00  0.00000000000E+00  0.11734147715E+04  0.24008648761E+04  0.20945763121E+04 0.  0.
        2    1    3    3  502    0 -0.15527565168E+02 -0.10450569989E+04  0.66297467988E+03  0.12377078259E+04  0.25500000920E-02 0.  1.
       -2    1    3    3    0  502  0.15527565168E+02  0.10450569989E+04  0.51044009159E+03  0.11631570501E+04  0.25500000920E-02 0. -1.
</event>
<event>
 5   0  0.3108326E-05  0.2103268E+04  0.7818609E-02  0.8559805E-01
        2   -1    0    0  501    0  0.00000000000E+00  0.00000000000E+00  0.10581187737E+04  0.10581187737E+04  0.25500000920E-02 0.  1.
       -2   -1    0    0    0  501  0.00000000000E+00  0.00000000000E+00 -0.10451892176E+04  0.10451892176E+04  0.25500000920E-02 0. -1.
    10030    2    1    2    0    0  0.00000000000E+00  0.00000000000E+00  0.12929556132E+02  0.21033079913E+04  0.21032682503E+04 0.  0.
        5    1    3    3  502    0 -0.10539216119E+03  0.33067543582E+03 -0.98625659890E+03  0.10455514910E+04  0.46999998093E+01 0. -1.
       -5    1    3    3    0  502  0.10539216119E+03 -0.33067543582E+03  0.99918615503E+03  0.10577565003E+04  0.46999998093E+01 0.  1.
</event>
<event>
 5   0  0.3130517E-05  0.2086633E+04  0.7818609E-02  0.8567155E-01
       -2   -1    0    0    0  501  0.00000000000E+00  0.00000000000E+00  0.69290382608E+03  0.69290382609E+03  0.25500000920E-02 0.  1.
        2   -1    0    0  501    0  0.00000000000E+00  0.00000000000E+00 -0.15709381192E+04  0.15709381192E+04  0.25500000920E-02 0. -1.
    10030    2    1    2    0    0  0.00000000000E+00  0.00000000000E+00 -0.87803429316E+03  0.22638419453E+04  0.20866327261E+04 0.  0.
        1    1    3    3  502    0  0.28189189477E+03  0.95930624149E+03 -0.76227688122E+03  0.12572977169E+04  0.50400001928E-02 0. -1.
       -1    1    3    3    0  502 -0.28189189477E+03 -0.95930624149E+03 -0.11575741194E+03  0.10065442284E+04  0.50400001928E-02 0.  1.
</event>
<event>
 5   0  0.1435410E-05  0.2038113E+04  0.7818609E-02  0.8589006E-01
       -1   -1    0    0    0  501  0.00000000000E+00  0.00000000000E+00  0.12559906345E+04  0.12559906345E+04  0.50400001928E-02 0. -1.
        1   -1    0    0  501    0  0.00000000000E+00  0.00000000000E+00 -0.82681874403E+03  0.82681874405E+03  0.50400001928E-02 0.  1.
    10030    2    1    2    0    0  0.00000000000E+00  0.00000000000E+00  0.42917189044E+03  0.20828093785E+04  0.20381134404E+04 0.  0.
        2    1    3    3  502    0  0.51541347662E+03 -0.54001933546E+03 -0.49431586572E+03  0.89533240177E+03  0.25500000920E-02 0.  1.
       -2    1    3    3    0  502 -0.51541347662E+03  0.54001933546E+03  0.92348775616E+03  0.11874769768E+04  0.25500000920E-02 0. -1.
</event>
<event>
 5   0  0.1453430E-05  0.2090063E+04  0.7818609E-02  0.8565634E-01
        1   -1    0    0  501    0  0.00000000000E+00  0.00000000000E+00  0.15188725316E+04  0.15188725317E+04  0.50400001928E-02 0.  1.
       -1   -1    0    0    0  501  0.00000000000E+00  0.00000000000E+00 -0.71901392126E+03  0.71901392128E+03  0.50400001928E-02 0. -1.
    10030    2    1    2    0    0  0.00000000000E+00  0.00000000000E+00  0.79985861039E+03  0.22378864529E+04  0.20900626736E+04 0.  0.
        5    1    3    3  502    0 -0.39530806990E+03 -0.63418136364E+03  0.11820833910E+04  0.13984983752E+04  0.46999998093E+01 0.  1.
       -5    1    3    3    0  502  0.39530806990E+03  0.63418136364E+03 -0.38222478062E+03  0.83938807773E+03  0.46999998093E+01 0. -1.
</event>
<event>
 5   0  0.1466480E-05  0.2101857E+04  0.7818609E-02  0.8560426E-01
        1   -1    0    0  501    0  0.00000000000E+00  0.00000000000E+00  0.83736103966E+03  0.83736103968E+03  0.50400001928E-02 0. -1.
       -1   -1    0    0    0  501  0.00000000000E+00  0.00000000000E+00 -0.13189654311E+04  0.13189654311E+04  0.50400001928E-02 0.  1.
    10030    2    1    2    0    0  0.00000000000E+00  0.00000000000E+00 -0.48160439143E+03  0.21563264708E+04  0.21018565743E+04 0.  0.
        3    1    3    3  502    0 -0.25338637242E+02 -0.62162486573E+03  0.62813686137E+03  0.88409018038E+03  0.10100000352E+00 0. -1.
       -3    1    3    3    0  502  0.25338637242E+02  0.62162486573E+03 -0.11097412528E+04  0.12722362904E+04  0.10100000352E+00 0.  1.
</event>
<event>
 5   0  0.1466480E-05  0.1965083E+04  0.7818609E-02  0.8623122E-01
        1   -1    0    0  501    0  0.00000000000E+00  0.00000000000E+00  0.10144687670E+04  0.10144687670E+04  0.50400001928E-02 0. -1.
       -1   -1    0    0    0  501  0.00000000000E+00  0.00000000000E+00 -0.95161922245E+03  0.95161922247E+03  0.50400001928E-02 0.  1.
    10030    2    1    2    0    0  0.00000000000E+00  0.00000000000E+00  0.62849544519E+02  0.19660879895E+04  0.19650831832E+04 0.  0.
        3    1    3    3  502    0  0.40995483449E+03 -0.69128294555E+03 -0.53406587065E+03  0.96496706759E+03  0.10100000352E+00 0.  1.
       -3    1    3    3    0  502 -0.40995483449E+03  0.69128294555E+03  0.59691541517E+03  0.10011209219E+04  0.10100000352E+00 0. -1.
</event>
<event>
 5   0  0.1453430E-05  0.2100357E+04  0.7818609E-02  0.8561086E-01
        1   -1    0    0  501    0  0.00000000000E+00  0.00000000000E+00  0.15203792989E+04  0.15203792989E+04  0.50400001928E-02 0.  1.
       -1   -1    0    0    0  501  0.00000000000E+00  0.00000000000E+00 -0.72539459156E+03  0.72539459158E+03  0.50400001928E-02 0. -1.
    10030    2    1    2    0    0  0.00000000000E+00  0.00000000000E+00  0.79498470734E+03  0.22457738905E+04  0.21003570369E+04 0.  0.
        5    1    3    3  502    0 -0.68392681461E+03  0.52482129642E+03 -0.24374483340E+03  0.89589447745E+03  0.46999998093E+01 0. -1.
       -5    1    3    3    0  502  0.68392681461E+03 -0.52482129642E+03  0.10387295407E+04  0.13498794130E+04  0.46999998093E+01 0.  1.
</event>
<event>
 5   0  0.1492552E-05  0.2095827E+04  0.7818609E-02  0.8563084E-01
       -1   -1    0    0    0  501  0.00000000000E+00  0.00000000000E+00  0.79036860070E+03  0.79036860071E+03  0.50400001928E-02 0. -1.
        1   -1    0    0  501    0  0.00000000000E+00  0.00000000000E+00 -0.13893806789E+04  0.13893806789E+04  0.50400001928E-02 0.  1.
    10030    2    1    2    0    0  0.00000000000E+00  0.00000000000E+00 -0.59901207824E+03  0.21797492797E+04  0.20958271523E+04 0.  0.
        4    1    3    3  502    0 -0.58873998347E+03  0.68951947182E+03  0.24695625406E+03  0.93970254574E+03  0.12699999809E+01 0. -1.
       -4    1    3    3    0  502  0.58873998347E+03 -0.68951947182E+03 -0.84596833230E+03  0.12400467339E+04  0.12699999809E+01 0.  1.
</event>
<event>
 5   0  0.1453430E-05  0.2116882E+04  0.7818609E-02  0.8553843E-01
       -1   -1    0    0    0  501  0.00000000000E+00  0.00000000000E+00  0.58055723495E+03  0.58055723498E+03  0.50400001928E-02 0. -1.
        1   -1    0    0  501    0  0.00000000000E+00  0.00000000000E+00 -0.19296932928E+04  0.19296932928E+04  0.50400001928E-02 0.  1.
    10030    2    1    2    0    0  0.00000000000E+00  0.00000000000E+00 -0.13491360579E+04  0.25102505278E+04  0.21168820491E+04 0.  0.
        5    1    3    3  502    0 -0.32522626214E+02 -0.52809353520E+03  0.41247462071E+03  0.67089336400E+03  0.46999998093E+01 0. -1.
       -5    1    3    3    0  502  0.32522626214E+02  0.52809353520E+03 -0.17616106786E+04  0.18393571638E+04  0.46999998093E+01 0.  1.
</event>
<event>
 5   0  0.3242231E-05  0.2095460E+04  0.7818609E-02  0.8563246E-01
       -2   -1    0    0    0  501  0.00000000000E+00  0.00000000000E+00  0.14928382567E+04  0.14928382567E+04  0.25500000920E-02 0.  1.
        2   -1    0    0  501    0  0.00000000000E+00  0.00000000000E+00 -0.73533601759E+03  0.73533601760E+03  0.25500000920E-02 0. -1.
    10030    2    1    2    0    0  0.00000000000E+00  0.00000000000E+00  0.75750223908E+03  0.22281742743E+04  0.20954596046E+04 0.  0.
        4    1    3    3  502    0 -0.31319731437E+03 -0.93072827632E+03  0.76710617697E+03  0.12461144336E+04  0.12699999809E+01 0. -1.
       -4    1    3    3    0  502  0.31319731437E+03  0.93072827632E+03 -0.96039378893E+01  0.98205984064E+03  0.12699999809E+01 0.  1.
</event>
<event>
 5   0  0.1453430E-05  0.2069776E+04  0.7818609E-02  0.8574675E-01
        1   -1    0    0  501    0  0.00000000000E+00  0.00000000000E+00  0.10436529851E+04  0.10436529851E+04  0.50400001928E-02 0.  1.
       -1   -1    0    0    0  501  0.00000000000E+00  0.00000000000E+00 -0.10261970406E+04  0.10261970406E+04  0.50400001928E-02 0. -1.
    10030    2    1    2    0    0  0.00000000000E+00  0.00000000000E+00  0.17455944445E+02  0.20698500257E+04  0.20697764176E+04 0.  0.
        5    1    3    3  502    0 -0.80759310541E+03 -0.63497949420E+03 -0.11603997209E+03  0.10338727906E+04  0.46999998093E+01 0.  1.
       -5    1    3    3    0  502  0.80759310541E+03  0.63497949420E+03  0.13349591653E+03  0.10359772351E+04  0.46999998093E+01 0. -1.
</event>
<event>
 5   0  0.3257130E-05  0.2094571E+04  0.7818609E-02  0.8563639E-01
        2   -1    0    0  501    0  0.00000000000E+00  0.00000000000E+00  0.78029663423E+03  0.78029663423E+03  0.25500000920E-02 0. -1.
       -2   -1    0    0    0  501  0.00000000000E+00  0.00000000000E+00 -0.14056277686E+04  0.14056277686E+04  0.25500000920E-02 0.  1.
    10030    2    1    2    0    0  0.00000000000E+00  0.00000000000E+00 -0.62533113442E+03  0.21859244029E+04  0.20945707120E+04 0.  0.
        3    1    3    3  502    0 -0.64436621522E+03 -0.46616425244E+03 -0.10237720301E+04  0.12963896441E+04  0.10100000352E+00 0.  1.
       -3    1    3    3    0  502  0.64436621522E+03  0.46616425244E+03  0.39844089564E+03  0.88953475879E+03  0.10100000352E+00 0. -1.
</event>
<event>
 5   0  0.3257130E-05  0.2084632E+04  0.7818609E-02  0.8568043E-01
       -2   -1    0    0    0  501  0.00000000000E+00  0.00000000000E+00  0.65668460723E+03  0.65668460723E+03  0.25500000920E-02 0.  1.
        2   -1    0    0  501    0  0.00000000000E+00  0.00000000000E+00 -0.16544060313E+04  0.16544060313E+04  0.25500000920E-02 0. -1.
    10030    2    1    2    0    0  0.00000000000E+00  0.00000000000E+00 -0.99772142406E+03  0.23110906385E+04  0.20846323176E+04 0.  0.
        3    1    3    3  502    0 -0.36904933664E+03 -0.63386914010E+03 -0.13198741729E+04  0.15099852126E+04  0.10100000352E+00 0. -1.
       -3    1    3    3    0  502  0.36904933664E+03  0.63386914010E+03  0.32215274889E+03  0.80110542593E+03  0.10100000352E+00 0.  1.
</event>
<event>
 5   0  0.1435410E-05  0.2099575E+04  0.7818609E-02  0.8561431E-01
       -1   -1    0    0    0  501  0.00000000000E+00  0.00000000000E+00  0.14745637148E+04  0.14745637148E+04  0.50400001928E-02 0. -1.
        1   -1    0    0  501    0  0.00000000000E+00  0.00000000000E+00 -0.74737628440E+03  0.74737628442E+03  0.50400001928E-02 0.  1.
    10030    2    1    2    0    0  0.00000000000E+00  0.00000000000E+00  0.72718743042E+03  0.22219399992E+04  0.20995751478E+04 0.  0.
        2    1    3    3  502    0  0.70585793165E+03  0.26367350762E+03 -0.40996161378E+03  0.85780397707E+03  0.25500000920E-02 0.  1.
       -2    1    3    3    0  502 -0.70585793165E+03 -0.26367350762E+03  0.11371490442E+04  0.13641360222E+04  0.25500000920E-02 0. -1.
</event>
<event>
 5   0  0.3108326E-05  0.2102629E+04  0.7818609E-02  0.8560086E-01
       -2   -1    0    0    0  501  0.00000000000E+00  0.00000000000E+00  0.60410359000E+03  0.60410359001E+03  0.25500000920E-02 0. -1.
        2   -1    0    0  501    0  0.00000000000E+00  0.00000000000E+00 -0.18295904420E+04  0.18295904420E+04  0.25500000920E-02 0.  1.
    10030    2    1    2    0    0  0.00000000000E+00  0.00000000000E+00 -0.12254868520E+04  0.24336940320E+04  0.21026289775E+04 0.  0.
        5    1    3    3  502    0 -0.87644056161E+03 -0.86313526992E+02  0.51801872183E+02  0.88221517043E+03  0.46999998093E+01 0. -1.
       -5    1    3    3    0  502  0.87644056161E+03  0.86313526992E+02 -0.12772887242E+04  0.15514788615E+04  0.46999998093E+01 0.  1.
</event>
<event>
 5   0  0.1453430E-05  0.2122923E+04  0.7818609E-02  0.8551212E-01
        1   -1    0    0  501    0  0.00000000000E+00  0.00000000000E+00  0.10330648985E+04  0.10330648985E+04  0.50400001928E-02 0.  1.
       -1   -1    0    0    0  501  0.00000000000E+00  0.00000000000E+00 -0.10906385338E+04  0.10906385338E+04  0.50400001928E-02 0. -1.
    10030    2    1    2    0    0  0.00000000000E+00  0.00000000000E+00 -0.57573635274E+02  0.21237034323E+04  0.21229228778E+04 0.  0.
        5    1    3    3  502    0 -0.79797087026E+03 -0.69992283277E+03 -0.23416916095E+02  0.10617061381E+04  0.46999998093E+01 0.  1.
       -5    1    3    3    0  502  0.79797087026E+03  0.69992283277E+03 -0.34156719179E+02  0.10619972943E+04  0.46999998093E+01 0. -1.
</event>
<event>
 5   0  0.1435410E-05  0.2104429E+04  0.7818609E-02  0.8559295E-01
       -1   -1    0    0    0  501  0.00000000000E+00  0.00000000000E+00  0.75489834476E+03  0.75489834477E+03  0.50400001928E-02 0.  1.
        1   -1    0    0  501    0  0.00000000000E+00  0.00000000000E+00 -0.14666278716E+04  0.14666278716E+04  0.50400001928E-02 0. -1.
    10030    2    1    2    0    0  0.00000000000E+00  0.00000000000E+00 -0.71172952681E+03  0.22215262164E+04  0.21044286186E+04 0.  0.
        2    1    3    3  502    0  0.31214981545E+03  0.13294628318E+03  0.69557024512E+03  0.77390580008E+03  0.25500000920E-02 0.  1.
       -2    1    3    3    0  502 -0.31214981545E+03 -0.13294628318E+03 -0.14072997719E+04  0.14476204163E+04  0.25500000920E-02 0. -1.
</event>
<event>
 5   0  0.3108326E-05  0.2088685E+04  0.7818609E-02  0.8566244E-01
        2   -1    0    0  501    0  0.00000000000E+00  0.00000000000E+00  0.21015018651E+04  0.21015018651E+04  0.25500000920E-02 0. -1.
       -2   -1    0    0    0  501  0.00000000000E+00  0.00000000000E+00 -0.51898675920E+03  0.51898675920E+03  0.25500000920E-02 0.  1.
    10030    2    1    2    0    0  0.00000000000E+00  0.00000000000E+00  0.15825151059E+04  0.26204886243E+04  0.20886853688E+04 0.  0.
        5    1    3    3  502    0 -0.83653437104E+03 -0.56424433653E+03  0.45351733976E+03  0.11062827363E+04  0.46999998093E+01 0. -1.
       -5    1    3    3    0  502  0.83653437104E+03  0.56424433653E+03  0.11289977662E+04  0.15142058880E+04  0.46999998093E+01 0.  1.
</event>
<event>
 5   0  0.3130517E-05  0.2109532E+04  0.7818609E-02  0.8557056E-01
        2   -1    0    0  501    0  0.00000000000E+00  0.00000000000E+00  0.16615820201E+04  0.16615820201E+04  0.25500000920E-02 0. -1.
       -2   -1    0    0    0  501  0.00000000000E+00  0.00000000000E+00 -0.66956133406E+03  0.66956133407E+03  0.25500000920E-02 0.  1.
    10030    2    1    2    0    0  0.00000000000E+00  0.00000000000E+00  0.99202068607E+03  0.23311433542E+04  0.21095317718E+04 0.  0.
        1    1    3    3  502    0 -0.40705345927E+03  0.62448616528E+03 -0.32861029620E+03  0.81465343314E+03  0.50400001928E-02 0.  1.
       -1    1    3    3    0  502  0.40705345927E+03 -0.62448616528E+03  0.13206309823E+04  0.15164899211E+04  0.50400001928E-02 0. -1.
</event>
<event>
 5   0  0.1435410E-05  0.2088556E+04  0.7818609E-02  0.8566301E-01
        1   -1    0    0  501    0  0.00000000000E+00  0.00000000000E+00  0.62257809257E+03  0.62257809259E+03  0.50400001928E-02 0. -1.
       -1   -1    0    0    0  501  0.00000000000E+00  0.00000000000E+00 -0.17516148632E+04  0.17516148632E+04  0.50400001928E-02 0.  1.
    10030    2    1    2    0    0  0.00000000000E+00  0.00000000000E+00 -0.11290367706E+04  0.23741929558E+04  0.20885564780E+04 0.  0.
        2    1    3    3  502    0  0.78012763752E+03 -0.50073474862E+03 -0.17946384912E+02  0.92717662397E+03  0.25500000920E-02 0. -1.
       -2    1    3    3    0  502 -0.78012763752E+03  0.50073474862E+03 -0.11110903857E+04  0.14470163318E+04  0.25500000920E-02 0.  1.
</event>
<event>
 5   0  0.3130517E-05  0.2080642E+04  0.7818609E-02  0.8569819E-01
        2   -1    0    0  501    0  0.00000000000E+00  0.00000000000E+00  0.18578162145E+04  0.18578162145E+04  0.25500000920E-02 0. -1.
       -2   -1    0    0    0  501  0.00000000000E+00  0.00000000000E+00 -0.58254821013E+03  0.58254821013E+03  0.25500000920E-02 0.  1.
    10030    2    1    2    0    0  0.00000000000E+00  0.00000000000E+00  0.12752680043E+04  0.24403644246E+04  0.20806417380E+04 0.  0.
        1    1    3    3  502    0  0.17387419335E+03  0.23431934685E+03  0.18088397881E+04  0.18322224676E+04  0.50400001928E-02 0. -1.
       -1    1    3    3    0  502 -0.17387419335E+03 -0.23431934685E+03 -0.53357178380E+03  0.60814195704E+03  0.50400001928E-02 0.  1.
</event>
<event>
 5   0  0.1492552E-05  0.2098841E+04  0.7818609E-02  0.8561754E-01
        1   -1    0    0  501    0  0.00000000000E+00  0.00000000000E+00  0.14345565427E+04  0.14345565427E+04  0.50400001928E-02 0. -1.
       -1   -1    0    0    0  501  0.00000000000E+00  0.00000000000E+00 -0.76768211317E+03  0.76768211318E+03  0.50400001928E-02 0.  1.
    10030    2    1    2    0    0  0.00000000000E+00  0.00000000000E+00  0.66687442953E+03  0.22022386559E+04  0.20988410118E+04 0.  0.
        4    1    3    3  502    0  0.18654883438E+03 -0.99667174690E+03  0.61717878372E+03  0.11870409861E+04  0.12699999809E+01 0.  1.
       -4    1    3    3    0  502 -0.18654883438E+03  0.99667174690E+03  0.49695645807E+02  0.10151976698E+04  0.12699999809E+01 0. -1.
</event>
<event>
 5   0  0.3257130E-05  0.2116042E+04  0.7818609E-02  0.8554209E-01
        2   -1    0    0  501    0  0.00000000000E+00  0.00000000000E+00  0.11547546504E+04  0.11547546504E+04  0.25500000920E-02 0. -1.
       -2   -1    0    0    0  501  0.00000000000E+00  0.00000000000E+00 -0.96939078918E+03  0.96939078918E+03  0.25500000920E-02 0.  1.
    10030    2    1    2    0    0  0.00000000000E+00  0.00000000000E+00  0.18536386121E+03  0.21241454396E+04  0.21160420807E+04 0.  0.
        3    1    3    3  502    0  0.89111249381E+03  0.41599717896E+03 -0.29903464237E+03  0.10278895160E+04  0.10100000352E+00 0.  1.
       -3    1    3    3    0  502 -0.89111249381E+03 -0.41599717896E+03  0.48439850358E+03  0.10962559236E+04  0.10100000352E+00 0. -1.
</event>
<event>
 5   0  0.1492552E-05  0.2104227E+04  0.7818609E-02  0.8559384E-01
        1   -1    0    0  501    0  0.00000000000E+00  0.00000000000E+00  0.58234266925E+03  0.58234266927E+03  0.50400001928E-02 0.  1.
       -1   -1    0    0    0  501  0.00000000000E+00  0.00000000000E+00 -0.19008443673E+04  0.19008443673E+04  0.50400001928E-02 0. -1.
    10030    2    1    2    0    0  0.00000000000E+00  0.00000000000E+00 -0.13185016980E+04  0.24831870365E+04  0.21042269675E+04 0.  0.
        4    1    3    3  502    0 -0.42150155656E+03  0.85201802947E+03 -0.12710418890E+03  0.95903877526E+03  0.12699999809E+01 0.  1.
       -4    1    3    3    0  502  0.42150155656E+03 -0.85201802947E+03 -0.11913975091E+04  0.15241482613E+04  0.12699999809E+01 0. -1.
</event>
<event>
 5   0  0.3257130E-05  0.2076787E+04  0.7818609E-02  0.8571538E-01
       -2   -1    0    0    0  501  0.00000000000E+00  0.00000000000E+00  0.44417028390E+03  0.44417028391E+03  0.25500000920E-02 0.  1.
        2   -1    0    0  501    0  0.00000000000E+00  0.00000000000E+00 -0.24275850552E+04  0.24275850552E+04  0.25500000920E-02 0. -1.
    10030    2    1    2    0    0  0.00000000000E+00  0.00000000000E+00 -0.19834147713E+04  0.28717553391E+04  0.20767870793E+04 0.  0.
        3    1    3    3  502    0 -0.94952296798E+03 -0.13458835659E+03 -0.44109874140E+03  0.10555927256E+04  0.10100000352E+00 0.  1.
       -3    1    3    3    0  502  0.94952296798E+03  0.13458835659E+03 -0.15423160299E+04  0.18161626135E+04  0.10100000352E+00 0. -1.
</event>
<event>
 5   0  0.3242231E-05  0.2105261E+04  0.7818609E-02  0.8558930E-01
       -2   -1    0    0    0  501  0.00000000000E+00  0.00000000000E+00  0.49740397866E+03  0.49740397867E+03  0.25500000920E-02 0. -1.
        2   -1    0    0  501    0  0.00000000000E+00  0.00000000000E+00 -0.22276271148E+04  0.22276271148E+04  0.25500000920E-02 0.  1.
    10030    2    1    2    0    0  0.00000000000E+00  0.00000000000E+00 -0.17302231361E+04  0.27250310934E+04  0.21052606393E+04 0.  0.
        4    1    3    3  502    0 -0.14317172789E+03  0.82660706311E+03 -0.42127433226E+02  0.83997244834E+03  0.12699999809E+01 0.  1.
       -4    1    3    3    0  502  0.14317172789E+03 -0.82660706311E+03 -0.16880957029E+04  0.18850586451E+04  0.12699999809E+01 0. -1.
</event>
<event>
 5   0  0.3279789E-05  0.2090327E+04  0.7818609E-02  0.8565516E-01
        2   -1    0    0  501    0  0.00000000000E+00  0.00000000000E+00  0.20459792662E+04  0.20459792662E+04  0.25500000920E-02 0. -1.
       -2   -1    0    0    0  501  0.00000000000E+00  0.00000000000E+00 -0.53390899861E+03  0.53390899862E+03  0.25500000920E-02 0.  1.
    10030    2    1    2    0    0  0.00000000000E+00  0.00000000000E+00  0.15120702676E+04  0.25798882649E+04  0.20903269995E+04 0.  0.
        2    1    3    3  502    0 -0.48042044582E+03 -0.53297524805E+03  0.16939486232E+04  0.18396544126E+04  0.25500000920E-02 0. -1.
       -2    1    3    3    0  502  0.48042044582E+03  0.53297524805E+03 -0.18187835556E+03  0.74023385225E+03  0.25500000920E-02 0.  1.
</event>
<event>
 5   0  0.3279789E-05  0.2100619E+04  0.7818609E-02  0.8560971E-01
        2   -1    0    0  501    0  0.00000000000E+00  0.00000000000E+00  0.11824979744E+04  0.11824979744E+04  0.25500000920E-02 0. -1.
       -2   -1    0    0    0  501  0.00000000000E+00  0.00000000000E+00 -0.93289813875E+03  0.93289813875E+03  0.25500000920E-02 0.  1.
    10030    2    1    2    0    0  0.00000000000E+00  0.00000000000E+00  0.24959983566E+03  0.21153961132E+04  0.21006191082E+04 0.  0.
        2    1    3    3  502    0 -0.47772254765E+03 -0.91628315095E+03 -0.64556099524E+02  0.10353555598E+04  0.25500000920E-02 0.  1.
       -2    1    3    3    0  502  0.47772254765E+03  0.91628315095E+03  0.31415593519E+03  0.10800405533E+04  0.25500000920E-02 0. -1.
</event>
<event>
 5   0  0.1492552E-05  0.2096291E+04  0.7818609E-02  0.8562879E-01
       -1   -1    0    0    0  501  0.00000000000E+00  0.00000000000E+00  0.10333998678E+04  0.10333998678E+04  0.50400001928E-02 0.  1.
        1   -1    0    0  501    0  0.00000000000E+00  0.00000000000E+00 -0.10631011412E+04  0.10631011412E+04  0.50400001928E-02 0. -1.
    10030    2    1    2    0    0  0.00000000000E+00  0.00000000000E+00 -0.29701273343E+02  0.20965010090E+04  0.20962906085E+04 0.  0.
        4    1    3    3  502    0 -0.35120413485E+03 -0.26809556434E+02 -0.10021396041E+04  0.10622374949E+04  0.12699999809E+01 0. -1.
       -4    1    3    3    0  502  0.35120413485E+03  0.26809556434E+02  0.97243833073E+03  0.10342635141E+04  0.12699999809E+01 0.  1.
</event>
<event>
 5   0  0.3279789E-05  0.2094936E+04  0.7818609E-02  0.8563477E-01
       -2   -1    0    0    0  501  0.00000000000E+00  0.00000000000E+00  0.58023895197E+03  0.58023895198E+03  0.25500000920E-02 0. -1.
        2   -1    0    0  501    0  0.00000000000E+00  0.00000000000E+00 -0.18909267451E+04  0.18909267451E+04  0.25500000920E-02 0.  1.
    10030    2    1    2    0    0  0.00000000000E+00  0.00000000000E+00 -0.13106877932E+04  0.24711656971E+04  0.20949361354E+04 0.  0.
        2    1    3    3  502    0 -0.14832153238E+03 -0.90860781580E+03 -0.65995057515E+02  0.92299663462E+03  0.25500000920E-02 0. -1.
       -2    1    3    3    0  502  0.14832153238E+03  0.90860781580E+03 -0.12446927357E+04  0.15481690625E+04  0.25500000920E-02 0.  1.
</event>
<event>
 5   0  0.3108326E-05  0.2094773E+04  0.7818609E-02  0.8563549E-01
       -2   -1    0    0    0  501  0.00000000000E+00  0.00000000000E+00  0.77428936281E+03  0.77428936281E+03  0.25500000920E-02 0. -1.
        2   -1    0    0  501    0  0.00000000000E+00  0.00000000000E+00 -0.14168066827E+04  0.14168066827E+04  0.25500000920E-02 0.  1.
    10030    2    1    2    0    0  0.00000000000E+00  0.00000000000E+00 -0.64251731985E+03  0.21910960455E+04  0.20947728694E+04 0.  0.
        5    1    3    3  502    0  0.93551581688E+03  0.46685483189E+03 -0.25633206630E+03  0.10765089391E+04  0.46999998093E+01 0. -1.
       -5    1    3    3    0  502 -0.93551581688E+03 -0.46685483189E+03 -0.38618525355E+03  0.11145871064E+04  0.46999998093E+01 0.  1.
</event>
<event>
 5   0  0.3108326E-05  0.2104562E+04  0.7818609E-02  0.8559236E-01
       -2   -1    0    0    0  501  0.00000000000E+00  0.00000000000E+00  0.17335812009E+04  0.17335812009E+04  0.25500000920E-02 0. -1.
        2   -1    0    0  501    0  0.00000000000E+00  0.00000000000E+00 -0.63873317607E+03  0.63873317608E+03  0.25500000920E-02 0.  1.
    10030    2    1    2    0    0  0.00000000000E+00  0.00000000000E+00  0.10948480249E+04  0.23723143770E+04  0.21045624975E+04 0.  0.
        5    1    3    3  502    0 -0.69630937658E+02 -0.50515313169E+03  0.15849884316E+04  0.16650040757E+04  0.46999998093E+01 0. -1.
       -5    1    3    3    0  502  0.69630937658E+02  0.50515313169E+03 -0.49014040675E+03  0.70731030126E+03  0.46999998093E+01 0.  1.
</event>
<event>
 5   0  0.3257130E-05  0.2099486E+04  0.7818609E-02  0.8561470E-01
        2   -1    0    0  501    0  0.00000000000E+00  0.00000000000E+00  0.10302170831E+04  0.10302170831E+04  0.25500000920E-02 0. -1.
       -2   -1    0    0    0  501  0.00000000000E+00  0.00000000000E+00 -0.10696391071E+04  0.10696391071E+04  0.25500000920E-02 0.  1.
    10030    2    1    2    0    0  0.00000000000E+00  0.00000000000E+00 -0.39422024025E+02  0.20998561903E+04  0.20994861095E+04 0.  0.
        3    1    3    3  502    0 -0.17436166847E+03 -0.80066201498E+03 -0.67595075502E+03  0.10622481288E+04  0.10100000352E+00 0.  1.
       -3    1    3    3    0  502  0.17436166847E+03  0.80066201498E+03  0.63652873100E+03  0.10376080615E+04  0.10100000352E+00 0. -1.
</event>
<event>
 5   0  0.1453430E-05  0.2102840E+04  0.7818609E-02  0.8559994E-01
        1   -1    0    0  501    0  0.00000000000E+00  0.00000000000E+00  0.22146336591E+04  0.22146336591E+04  0.50400001928E-02 0. -1.
       -1   -1    0    0    0  501  0.00000000000E+00  0.00000000000E+00 -0.49917225803E+03  0.49917225806E+03  0.50400001928E-02 0.  1.
    10030    2    1    2    0    0  0.00000000000E+00  0.00000000000E+00  0.17154614010E+04  0.27138059171E+04  0.21028396842E+04 0.  0.
        5    1    3    3  502    0  0.87142970607E+03 -0.47803161423E+03  0.41524621737E+03  0.10771979706E+04  0.46999998093E+01 0.  1.
       -5    1    3    3    0  502 -0.87142970607E+03  0.47803161423E+03  0.13002151837E+04  0.16366079465E+04  0.46999998093E+01 0. -1.
</event>
<event>
 5   0  0.1513292E-05  0.2091898E+04  0.7818609E-02  0.8564821E-01
        1   -1    0    0  501    0  0.00000000000E+00  0.00000000000E+00  0.22471129810E+04  0.22471129810E+04  0.50400001928E-02 0. -1.
       -1   -1    0    0    0  501  0.00000000000E+00  0.00000000000E+00 -0.48685084425E+03  0.48685084427E+03  0.50400001928E-02 0.  1.
    10030    2    1    2    0    0  0.00000000000E+00  0.00000000000E+00  0.17602621368E+04  0.27339638253E+04  0.20918975615E+04 0.  0.
        1    1    3    3  502    0 -0.34643178399E+03  0.83635223496E+03  0.19538350774E+03  0.92610731398E+03  0.50400001928E-02 0.  1.
       -1    1    3    3    0  502  0.34643178399E+03 -0.83635223496E+03  0.15648786290E+04  0.18078565113E+04  0.50400001928E-02 0. -1.
</event>
<event>
 5   0  0.3257130E-05  0.2095343E+04  0.7818609E-02  0.8563298E-01
        2   -1    0    0  501    0  0.00000000000E+00  0.00000000000E+00  0.11983946866E+04  0.11983946866E+04  0.25500000920E-02 0.  1.
       -2   -1    0    0    0  501  0.00000000000E+00  0.00000000000E+00 -0.91590482956E+03  0.91590482956E+03  0.25500000920E-02 0. -1.
    10030    2    1    2    0    0  0.00000000000E+00  0.00000000000E+00  0.28248985700E+03  0.21142995161E+04  0.20953429134E+04 0.  0.
        3    1    3    3  502    0 -0.30034876192E+03 -0.10036383465E+04  0.15212026032E+03  0.10586028024E+04  0.10100000352E+00 0. -1.
       -3    1    3    3    0  502  0.30034876192E+03  0.10036383465E+04  0.13036959669E+03  0.10556967137E+04  0.10100000352E+00 0.  1.
</event>
<event>
 5   0  0.1435410E-05  0.2109365E+04  0.7818609E-02  0.8557129E-01
       -1   -1    0    0    0  501  0.00000000000E+00  0.00000000000E+00  0.12234578080E+04  0.12234578080E+04  0.50400001928E-02 0. -1.
        1   -1    0    0  501    0  0.00000000000E+00  0.00000000000E+00 -0.90918967016E+03  0.90918967017E+03  0.50400001928E-02 0.  1.
    10030    2    1    2    0    0  0.00000000000E+00  0.00000000000E+00  0.31426813786E+03  0.21326474782E+04  0.21093650238E+04 0.  0.
        2    1    3    3  502    0 -0.33862466127E+03 -0.31604549568E+03 -0.80084947474E+03  0.92515474261E+03  0.25500000920E-02 0.  1.
       -2    1    3    3    0  502  0.33862466127E+03  0.31604549568E+03  0.11151176126E+04  0.12074927356E+04  0.25500000920E-02 0. -1.
</event>
<event>
 5   0  0.3242231E-05  0.2067914E+04  0.7818609E-02  0.8575511E-01
       -2   -1    0    0    0  501  0.00000000000E+00  0.00000000000E+00  0.50850471996E+03  0.50850471997E+03  0.25500000920E-02 0.  1.
        2   -1    0    0  501    0  0.00000000000E+00  0.00000000000E+00 -0.21023746542E+04  0.21023746542E+04  0.25500000920E-02 0. -1.
    10030    2    1    2    0    0  0.00000000000E+00  0.00000000000E+00 -0.15938699342E+04  0.26108793742E+04  0.20679143452E+04 0.  0.
        4    1    3    3  502    0  0.51766876792E+03 -0.22118721336E+03  0.29805386966E+03  0.63697916665E+03  0.12699999809E+01 0.  1.
       -4    1    3    3    0  502 -0.51766876792E+03  0.22118721336E+03 -0.18919238039E+04  0.19739002075E+04  0.12699999809E+01 0. -1.
</event>
<event>
 5   0  0.1492552E-05  0.2096583E+04  0.7818609E-02  0.8562750E-01
        1   -1    0    0  501    0  0.00000000000E+00  0.00000000000E+00  0.12722684776E+04  0.12722684776E+04  0.50400001928E-02 0. -1.
       -1   -1    0    0    0  501  0.00000000000E+00  0.00000000000E+00 -0.86374482030E+03  0.86374482031E+03  0.50400001928E-02 0.  1.
    10030    2    1    2    0    0  0.00000000000E+00  0.00000000000E+00  0.40852365727E+03  0.21360132979E+04  0.20965832276E+04 0.  0.
        4    1    3    3  502    0 -0.20179206378E+03  0.10192272598E+04  0.62470230844E+02  0.10408882681E+04  0.12699999809E+01 0.  1.
       -4    1    3    3    0  502  0.20179206378E+03 -0.10192272598E+04  0.34605342643E+03  0.10951250298E+04  0.12699999809E+01 0. -1.
</event>
<event>
 5   0  0.3242231E-05  0.2096275E+04  0.7818609E-02  0.8562886E-01
        2   -1    0    0  501    0  0.00000000000E+00  0.00000000000E+00  0.20080238071E+04  0.20080238071E+04  0.25500000920E-02 0. -1.
       -2   -1    0    0    0  501  0.00000000000E+00  0.00000000000E+00 -0.54710117441E+03  0.54710117442E+03  0.25500000920E-02 0.  1.
    10030    2    1    2    0    0  0.00000000000E+00  0.00000000000E+00  0.14609226327E+04  0.25551249815E+04  0.20962749659E+04 0.  0.
        4    1    3    3  502    0 -0.66990946064E+03  0.91684655017E+02 -0.24571967031E+03  0.71941957903E+03  0.12699999809E+01 0.  1.
       -4    1    3    3    0  502  0.66990946064E+03 -0.91684655017E+02  0.17066423030E+04  0.18357054025E+04  0.12699999809E+01 0. -1.
</event>
<event>
 5   0  0.3130517E-05  0.2102381E+04  0.7818609E-02  0.8560195E-01
       -2   -1    0    0    0  501  0.00000000000E+00  0.00000000000E+00  0.99148383804E+03  0.99148383804E+03  0.25500000920E-02 0.  1.
        2   -1    0    0  501    0  0.00000000000E+00  0.00000000000E+00 -0.11144921594E+04  0.11144921594E+04  0.25500000920E-02 0. -1.
    10030    2    1    2    0    0  0.00000000000E+00  0.00000000000E+00 -0.12300832141E+03  0.21059759975E+04  0.21023805210E+04 0.  0.
        1    1    3    3  502    0  0.66610586929E+03 -0.42022624781E+03 -0.75890875014E+03  0.10937228257E+04  0.50400001928E-02 0. -1.
       -1    1    3    3    0  502 -0.66610586929E+03  0.42022624781E+03  0.63590042874E+03  0.10122531718E+04  0.50400001928E-02 0.  1.
</event>
<event>
 5   0  0.3279789E-05  0.2131042E+04  0.7818609E-02  0.8547691E-01
       -2   -1    0    0    0  501  0.00000000000E+00  0.00000000000E+00  0.11212732829E+04  0.11212732829E+04  0.25500000920E-02 0.  1.
        2   -1    0    0  501    0  0.00000000000E+00  0.00000000000E+00 -0.10125410532E+04  0.10125410532E+04  0.25500000920E-02 0. -1.
    10030    2    1    2    0    0  0.00000000000E+00  0.00000000000E+00  0.10873222978E+03  0.21338143361E+04  0.21310422152E+04 0.  0.
        2    1    3    3  502    0 -0.64184518753E+03  0.76928412605E+03  0.41756640004E+03  0.10854146718E+04  0.25500000920E-02 0.  1.
       -2    1    3    3    0  502  0.64184518753E+03 -0.76928412605E+03 -0.30883417026E+03  0.10483996643E+04  0.25500000920E-02 0. -1.
</event>
<event>
 5   0  0.1466480E-05  0.2095775E+04  0.7818609E-02  0.8563107E-01
        1   -1    0    0  501    0  0.00000000000E+00  0.00000000000E+00  0.84085950025E+03  0.84085950026E+03  0.50400001928E-02 0.  1.
       -1   -1    0    0    0  501  0.00000000000E+00  0.00000000000E+00 -0.13058882661E+04  0.13058882661E+04  0.50400001928E-02 0. -1.
    10030    2    1    2    0    0  0.00000000000E+00  0.00000000000E+00 -0.46502876582E+03  0.21467477663E+04  0.20957753265E+04 0.  0.
        3    1    3    3  502    0  0.97426938837E+03 -0.38556441287E+03 -0.24727979306E+03  0.10765723681E+04  0.10100000352E+00 0.  1.
       -3    1    3    3    0  502 -0.97426938837E+03  0.38556441287E+03 -0.21774897276E+03  0.10701753982E+04  0.10100000352E+00 0. -1.
</event>
<event>
 5   0  0.1513292E-05  0.2087304E+04  0.7818609E-02  0.8566857E-01
        1   -1    0    0  501    0  0.00000000000E+00  0.00000000000E+00  0.10445611213E+04  0.10445611213E+04  0.50400001928E-02 0.  1.
       -1   -1    0    0    0  501  0.00000000000E+00  0.00000000000E+00 -0.10427432973E+04  0.10427432973E+04  0.50400001928E-02 0. -1.
    10030    2    1    2    0    0  0.00000000000E+00  0.00000000000E+00  0.18178239569E+01  0.20873044186E+04  0.20873036270E+04 0.  0.
        1    1    3    3  502    0 -0.49518650554E+03 -0.54473981160E+03  0.74067805519E+03  0.10442964709E+04  0.50400001928E-02 0.  1.
       -1    1    3    3    0  502  0.49518650554E+03  0.54473981160E+03 -0.73886023124E+03  0.10430079477E+04  0.50400001928E-02 0. -1.
</event>
<event>
 5   0  0.1435410E-05  0.2099227E+04  0.7818609E-02  0.8561584E-01
       -1   -1    0    0    0  501  0.00000000000E+00  0.00000000000E+00  0.81617765234E+03  0.81617765235E+03  0.50400001928E-02 0.  1.
        1   -1    0    0  501    0  0.00000000000E+00  0.00000000000E+00 -0.13498144800E+04  0.13498144800E+04  0.50400001928E-02 0. -1.
    10030    2    1    2    0    0  0.00000000000E+00  0.00000000000E+00 -0.53363682763E+03  0.21659921323E+04  0.20992269181E+04 0.  0.
        2    1    3    3  502    0  0.61731978313E+03  0.56649472513E+02  0.60711193873E+03  0.86768530213E+03  0.25500000920E-02 0.  1.
       -2    1    3    3    0  502 -0.61731978313E+03 -0.56649472513E+02 -0.11407487664E+04  0.12983068302E+04  0.25500000920E-02 0. -1.
</event>
<event>
 5   0  0.3279789E-05  0.2103511E+04  0.7818609E-02  0.8559698E-01
        2   -1    0    0  501    0  0.00000000000E+00  0.00000000000E+00  0.63631200548E+03  0.63631200548E+03  0.25500000920E-02 0. -1.
       -2   -1    0    0    0  501  0.00000000000E+00  0.00000000000E+00 -0.17384397424E+04  0.17384397424E+04  0.25500000920E-02 0.  1.
    10030    2    1    2    0    0  0.00000000000E+00  0.00000000000E+00 -0.11021277370E+04  0.23747517479E+04  0.21035114251E+04 0.  0.
        2    1    3    3  502    0  0.76738151005E+03 -0.36587590332E+03  0.14801794877E+03  0.86293039798E+03  0.25500000920E-02 0. -1.
       -2    1    3    3    0  502 -0.76738151005E+03  0.36587590332E+03 -0.12501456857E+04  0.15118213499E+04  0.25500000920E-02 0.  1.
</event>
<event>
 5   0  0.3108326E-05  0.2141171E+04  0.7818609E-02  0.8543321E-01
       -2   -1    0    0    0  501  0.00000000000E+00  0.00000000000E+00  0.55242249620E+03  0.55242249621E+03  0.25500000920E-02 0.  1.
        2   -1    0    0  501    0  0.00000000000E+00  0.00000000000E+00 -0.20747765755E+04  0.20747765755E+04  0.25500000920E-02 0. -1.
    10030    2    1    2    0    0  0.00000000000E+00  0.00000000000E+00 -0.15223540793E+04  0.26271990717E+04  0.21411709459E+04 0.  0.
        5    1    3    3  502    0  0.31476527817E+03 -0.87137934101E+03 -0.14193663692E+04  0.16949932497E+04  0.46999998093E+01 0. -1.
       -5    1    3    3    0  502 -0.31476527817E+03  0.87137934101E+03 -0.10298771009E+03  0.93220582207E+03  0.46999998093E+01 0.  1.
</event>
<event>
 5   0  0.1513292E-05  0.2102062E+04  0.7818609E-02  0.8560336E-01
       -1   -1    0    0    0  501  0.00000000000E+00  0.00000000000E+00  0.11240822619E+04  0.11240822619E+04  0.50400001928E-02 0.  1.
        1   -1    0    0  501    0  0.00000000000E+00  0.00000000000E+00 -0.98272734336E+03  0.98272734337E+03  0.50400001928E-02 0. -1.
    10030    2    1    2    0    0  0.00000000000E+00  0.00000000000E+00  0.14135491850E+03  0.21068096052E+04  0.21020622017E+04 0.  0.
        1    1    3    3  502    0 -0.70398463818E+03 -0.46365738976E+03 -0.55850925550E+03  0.10111899596E+04  0.50400001928E-02 0. -1.
       -1    1    3    3    0  502  0.70398463818E+03  0.46365738976E+03  0.69986417400E+03  0.10956196457E+04  0.50400001928E-02 0.  1.
</event>
<event>
 5   0  0.3130517E-05  0.2093382E+04  0.7818609E-02  0.8564164E-01
        2   -1    0    0  501    0  0.00000000000E+00  0.00000000000E+00  0.91606930726E+03  0.91606930727E+03  0.25500000920E-02 0. -1.
       -2   -1    0    0    0  501  0.00000000000E+00  0.00000000000E+00 -0.11959381106E+04  0.11959381106E+04  0.25500000920E-02 0.  1.
    10030    2    1    2    0    0  0.00000000000E+00  0.00000000000E+00 -0.27986880336E+03  0.21120074179E+04  0.20933821405E+04 0.  0.
        1    1    3    3  502    0 -0.97273008907E+03 -0.38611141565E+03 -0.15670593413E+03  0.10582261579E+04  0.50400001928E-02 0. -1.
       -1    1    3    3    0  502  0.97273008907E+03  0.38611141565E+03 -0.12316286923E+03  0.10537812600E+04  0.50400001928E-02 0.  1.
</event>
<event>
 5   0  0.1513292E-05  0.2094686E+04  0.7818609E-02  0.8563588E-01
        1   -1    0    0  501    0  0.00000000000E+00  0.00000000000E+00  0.11634636833E+04  0.11634636833E+04  0.50400001928E-02 0.  1.
       -1   -1    0    0    0  501  0.00000000000E+00  0.00000000000E+00 -0.94281157925E+03  0.94281157926E+03  0.50400001928E-02 0. -1.
    10030    2    1    2    0    0  0.00000000000E+00  0.00000000000E+00  0.22065210401E+03  0.21062752625E+04  0.20946856878E+04 0.  0.
        1    1    3    3  502    0  0.16303077131E+03 -0.63363156581E+02  0.11486735222E+04  0.11619142751E+04  0.50400001928E-02 0.  1.
       -1    1    3    3    0  502 -0.16303077131E+03  0.63363156581E+02 -0.92802141819E+03  0.94436098746E+03  0.50400001928E-02 0. -1.
</event>
<event>
 5   0  0.3108326E-05  0.2109995E+04  0.7818609E-02  0.8556853E-01
       -2   -1    0    0    0  501  0.00000000000E+00  0.00000000000E+00  0.68246339668E+03  0.68246339668E+03  0.25500000920E-02 0.  1.
        2   -1    0    0  501    0  0.00000000000E+00  0.00000000000E+00 -0.16308850943E+04  0.16308850943E+04  0.25500000920E-02 0. -1.
    10030    2    1    2    0    0  0.00000000000E+00  0.00000000000E+00 -0.94842169761E+03  0.23133484910E+04  0.21099946740E+04 0.  0.
        5    1    3    3  502    0  0.53102587979E+03 -0.77247734979E+03  0.56471090857E+02  0.93910639176E+03  0.46999998093E+01 0.  1.
       -5    1    3    3    0  502 -0.53102587979E+03  0.77247734979E+03 -0.10048927885E+04  0.13742420992E+04  0.46999998093E+01 0. -1.
</event>
<event>
 5   0  0.3130517E-05  0.2098153E+04  0.7818609E-02  0.8562057E-01
       -2   -1    0    0    0  501  0.00000000000E+00  0.00000000000E+00  0.84253580106E+03  0.84253580106E+03  0.25500000920E-02 0. -1.
        2   -1    0    0  501    0  0.00000000000E+00  0.00000000000E+00 -0.13062488885E+04  0.13062488885E+04  0.25500000920E-02 0.  1.
    10030    2    1    2    0    0  0.00000000000E+00  0.00000000000E+00 -0.46371308747E+03  0.21487846896E+04  0.20981529531E+04 0.  0.
        1    1    3    3  502    0  0.20354455425E+03  0.87330766238E+03  0.32576856449E+03  0.95405545770E+03  0.50400001928E-02 0. -1.
       -1    1    3    3    0  502 -0.20354455425E+03 -0.87330766238E+03 -0.78948165196E+03  0.11947292319E+04  0.50400001928E-02 0.  1.
</event>
<event>
 5   0  0.3108326E-05  0.2109251E+04  0.7818609E-02  0.8557179E-01
       -2   -1    0    0    0  501  0.00000000000E+00  0.00000000000E+00  0.11732730941E+04  0.11732730941E+04  0.25500000920E-02 0. -1.
        2   -1    0    0  501    0  0.00000000000E+00  0.00000000000E+00 -0.94797612966E+03  0.94797612967E+03  0.25500000920E-02 0.  1.
    10030    2    1    2    0    0  0.00000000000E+00  0.00000000000E+00  0.22529696442E+03  0.21212492238E+04  0.21092509446E+04 0.  0.
        5    1    3    3  502    0 -0.28102639629E+03 -0.86627144270E+03  0.64747311307E+03  0.11174281051E+04  0.46999998093E+01 0. -1.
       -5    1    3    3    0  502  0.28102639629E+03  0.86627144270E+03 -0.42217614865E+03  0.10038211187E+04  0.46999998093E+01 0.  1.
</event>
<event>
 5   0  0.3108326E-05  0.2124850E+04  0.7818609E-02  0.8550375E-01
       -2   -1    0    0    0  501  0.00000000000E+00  0.00000000000E+00  0.54493275339E+03  0.54493275340E+03  0.25500000920E-02 0. -1.
        2   -1    0    0  501    0  0.00000000000E+00  0.00000000000E+00 -0.20713515642E+04  0.20713515642E+04  0.25500000920E-02 0.  1.
    10030    2    1    2    0    0  0.00000000000E+00  0.00000000000E+00 -0.15264188108E+04  0.26162843176E+04  0.21248504052E+04 0.  0.
        5    1    3    3  502    0 -0.10420634107E+04 -0.17757539918E+03 -0.63234551759E+03  0.12317922382E+04  0.46999998093E+01 0. -1.
       -5    1    3    3    0  502  0.10420634107E+04  0.17757539918E+03 -0.89407329324E+03  0.13844920795E+04  0.46999998093E+01 0.  1.
</event>
<event>
 5   0  0.1435410E-05  0.2092725E+04  0.7818609E-02  0.8564455E-01
        1   -1    0    0  501    0  0.00000000000E+00  0.00000000000E+00  0.20749898406E+04  0.20749898407E+04  0.50400001928E-02 0. -1.
       -1   -1    0    0    0  501  0.00000000000E+00  0.00000000000E+00 -0.52765290492E+03  0.52765290494E+03  0.50400001928E-02 0.  1.
    10030    2    1    2    0    0  0.00000000000E+00  0.00000000000E+00  0.15473369357E+04  0.26026427456E+04  0.20927249386E+04 0.  0.
        2    1    3    3  502    0 -0.53611034214E+03  0.80007473509E+03  0.12824167866E+04  0.16037851150E+04  0.25500000920E-02 0. -1.
       -2    1    3    3    0  502  0.53611034214E+03 -0.80007473509E+03  0.26492014913E+03  0.99885763055E+03  0.25500000920E-02 0.  1.
</event>
<event>
 5   0  0.3130517E-05  0.2099471E+04  0.7818609E-02  0.8561476E-01
        2   -1    0    0  501    0  0.00000000000E+00  0.00000000000E+00  0.14167635196E+04  0.14167635196E+04  0.25500000920E-02 0.  1.
       -2   -1    0    0    0  501  0.00000000000E+00  0.00000000000E+00 -0.77779024668E+03  0.77779024668E+03  0.25500000920E-02 0. -1.
    10030    2    1    2    0    0  0.00000000000E+00  0.00000000000E+00  0.63897327287E+03  0.21945537662E+04  0.20994712166E+04 0.  0.
        1    1    3    3  502    0 -0.32939284983E+03 -0.51154465273E+03  0.12136621849E+04  0.13576278873E+04  0.50400001928E-02 0.  1.
       -1    1    3    3    0  502  0.32939284983E+03  0.51154465273E+03 -0.57468891202E+03  0.83692587896E+03  0.50400001928E-02 0. -1.
</event>
<event>
 5   0  0.1435410E-05  0.2111843E+04  0.7818609E-02  0.8556044E-01
        1   -1    0    0  501    0  0.00000000000E+00  0.00000000000E+00  0.58130722094E+03  0.58130722096E+03  0.50400001928E-02 0.  1.
       -1   -1    0    0    0  501  0.00000000000E+00  0.00000000000E+00 -0.19180400381E+04  0.19180400381E+04  0.50400001928E-02 0. -1.
    10030    2    1    2    0    0  0.00000000000E+00  0.00000000000E+00 -0.13367328171E+04  0.24993472591E+04  0.21118432936E+04 0.  0.
        2    1    3    3  502    0  0.65710575621E+03  0.80363630734E+03 -0.89709338802E+03  0.13720043135E+04  0.25500000920E-02 0. -1.
       -2    1    3    3    0  502 -0.65710575621E+03 -0.80363630734E+03 -0.43963942913E+03  0.11273429456E+04  0.25500000920E-02 0.  1.
</event>
<event>
 5   0  0.3242231E-05  0.2108133E+04  0.7818609E-02  0.8557669E-01
       -2   -1    0    0    0  501  0.00000000000E+00  0.00000000000E+00  0.74161666605E+03  0.74161666605E+03  0.25500000920E-02 0. -1.
        2   -1    0    0  501    0  0.00000000000E+00  0.00000000000E+00 -0.14981538395E+04  0.14981538395E+04  0.25500000920E-02 0.  1.
    10030    2    1    2    0    0  0.00000000000E+00  0.00000000000E+00 -0.75653717341E+03  0.22397705055E+04  0.21081326862E+04 0.  0.
        4    1    3    3  502    0 -0.45448037412E+03  0.34376330644E+03  0.56385444565E+03  0.80166019615E+03  0.12699999809E+01 0. -1.
       -4    1    3    3    0  502  0.45448037412E+03 -0.34376330644E+03 -0.13203916191E+04  0.14381103094E+04  0.12699999809E+01 0.  1.
</event>
<event>
 5   0  0.1466480E-05  0.2118827E+04  0.7818609E-02  0.8552995E-01
       -1   -1    0    0    0  501  0.00000000000E+00  0.00000000000E+00  0.59568945094E+03  0.59568945096E+03  0.50400001928E-02 0. -1.
        1   -1    0    0  501    0  0.00000000000E+00  0.00000000000E+00 -0.18841310557E+04  0.18841310557E+04  0.50400001928E-02 0.  1.
    10030    2    1    2    0    0  0.00000000000E+00  0.00000000000E+00 -0.12884416047E+04  0.24798205066E+04  0.21188270284E+04 0.  0.
        3    1    3    3  502    0  0.18593531488E+03 -0.74866656886E+03 -0.14940796437E+04  0.16814718447E+04  0.10100000352E+00 0.  1.
       -3    1    3    3    0  502 -0.18593531488E+03  0.74866656886E+03  0.20563803901E+03  0.79834866188E+03  0.10100000352E+00 0. -1.
</event>
<event>
 5   0  0.3257130E-05  0.2108366E+04  0.7818609E-02  0.8557567E-01
        2   -1    0    0  501    0  0.00000000000E+00  0.00000000000E+00  0.22460105640E+04  0.22460105640E+04  0.25500000920E-02 0. -1.
       -2   -1    0    0    0  501  0.00000000000E+00  0.00000000000E+00 -0.49478940359E+03  0.49478940360E+03  0.25500000920E-02 0.  1.
    10030    2    1    2    0    0  0.00000000000E+00  0.00000000000E+00  0.17512211604E+04  0.27407999676E+04  0.21083664078E+04 0.  0.
        3    1    3    3  502    0  0.10505526757E+04  0.58026542956E+02  0.96059891773E+03  0.14247028796E+04  0.10100000352E+00 0. -1.
       -3    1    3    3    0  502 -0.10505526757E+04 -0.58026542956E+02  0.79062224265E+03  0.13160970880E+04  0.10100000352E+00 0.  1.
</event>
<event>
 5   0  0.1492552E-05  0.2095556E+04  0.7818609E-02  0.8563204E-01
       -1   -1    0    0    0  501  0.00000000000E+00  0.00000000000E+00  0.13363583987E+04  0.13363583987E+04  0.50400001928E-02 0. -1.
        1   -1    0    0  501    0  0.00000000000E+00  0.00000000000E+00 -0.82151515453E+03  0.82151515454E+03  0.50400001928E-02 0.  1.
    10030    2    1    2    0    0  0.00000000000E+00  0.00000000000E+00  0.51484324416E+03  0.21578735532E+04  0.20955559419E+04 0.  0.
        4    1    3    3  502    0 -0.91441450885E+03  0.47703016411E+03  0.67197513277E+02  0.10335515421E+04  0.12699999809E+01 0.  1.
       -4    1    3    3    0  502  0.91441450885E+03 -0.47703016411E+03  0.44764573088E+03  0.11243220111E+04  0.12699999809E+01 0. -1.
</event>
<event>
 5   0  0.3130517E-05  0.2109322E+04  0.7818609E-02  0.8557148E-01
       -2   -1    0    0    0  501  0.00000000000E+00  0.00000000000E+00  0.48290496850E+03  0.48290496851E+03  0.25500000920E-02 0.  1.
        2   -1    0    0  501    0  0.00000000000E+00  0.00000000000E+00 -0.23033728901E+04  0.23033728901E+04  0.25500000920E-02 0. -1.
    10030    2    1    2    0    0  0.00000000000E+00  0.00000000000E+00 -0.18204679216E+04  0.27862778586E+04  0.21093223679E+04 0.  0.
        1    1    3    3  502    0 -0.75028283625E+03  0.55150562615E+03 -0.25610107586E+03  0.96574869979E+03  0.50400001928E-02 0.  1.
       -1    1    3    3    0  502  0.75028283625E+03 -0.55150562615E+03 -0.15643668458E+04  0.18205291589E+04  0.50400001928E-02 0. -1.
</event>
<event>
 5   0  0.1453430E-05  0.2100584E+04  0.7818609E-02  0.8560986E-01
       -1   -1    0    0    0  501  0.00000000000E+00  0.00000000000E+00  0.10432762935E+04  0.10432762936E+04  0.50400001928E-02 0. -1.
        1   -1    0    0  501    0  0.00000000000E+00  0.00000000000E+00 -0.10573545104E+04  0.10573545104E+04  0.50400001928E-02 0.  1.
    10030    2    1    2    0    0  0.00000000000E+00  0.00000000000E+00 -0.14078216850E+02  0.21006308040E+04  0.21005836280E+04 0.  0.
        5    1    3    3  502    0  0.28808390012E+03 -0.36153016102E+03  0.93605917017E+03  0.10439948520E+04  0.46999998093E+01 0. -1.
       -5    1    3    3    0  502 -0.28808390012E+03  0.36153016102E+03 -0.95013738702E+03  0.10566359520E+04  0.46999998093E+01 0.  1.
</event>
<event>
 5   0  0.1492552E-05  0.2102474E+04  0.7818609E-02  0.8560154E-01
        1   -1    0    0  501    0  0.00000000000E+00  0.00000000000E+00  0.15062208769E+04  0.15062208769E+04  0.50400001928E-02 0. -1.
       -1   -1    0    0    0  501  0.00000000000E+00  0.00000000000E+00 -0.73369015830E+03  0.73369015831E+03  0.50400001928E-02 0.  1.
    10030    2    1    2    0    0  0.00000000000E+00  0.00000000000E+00  0.77253071859E+03  0.22399110352E+04  0.21024741935E+04 0.  0.
        4    1    3    3  502    0 -0.66432300748E+03 -0.87505288473E+02  0.12492245792E+04  0.14175845286E+04  0.12699999809E+01 0. -1.
       -4    1    3    3    0  502  0.66432300748E+03  0.87505288473E+02 -0.47669386058E+03  0.82232650656E+03  0.12699999809E+01 0.  1.
</event>
<event>
 5   0  0.3257130E-05  0.2095266E+04  0.7818609E-02  0.8563332E-01
       -2   -1    0    0    0  501  0.00000000000E+00  0.00000000000E+00  0.44741044851E+03  0.44741044852E+03  0.25500000920E-02 0. -1.
        2   -1    0    0  501    0  0.00000000000E+00  0.00000000000E+00 -0.24530824171E+04  0.24530824171E+04  0.25500000920E-02 0.  1.
    10030    2    1    2    0    0  0.00000000000E+00  0.00000000000E+00 -0.20056719686E+04  0.29004928656E+04  0.20952658108E+04 0.  0.
        3    1    3    3  502    0  0.25698444786E+02  0.68492339311E+03  0.93964159905E+02  0.69181626032E+03  0.10100000352E+00 0. -1.
       -3    1    3    3    0  502 -0.25698444786E+02 -0.68492339311E+03 -0.20996361285E+04  0.22086766053E+04  0.10100000352E+00 0.  1.
</event>
<event>
 5   0  0.1453430E-05  0.2102190E+04  0.7818609E-02  0.8560279E-01
       -1   -1    0    0    0  501  0.00000000000E+00  0.00000000000E+00  0.53750394095E+03  0.53750394097E+03  0.50400001928E-02 0.  1.
        1   -1    0    0  501    0  0.00000000000E+00  0.00000000000E+00 -0.20554289231E+04  0.20554289231E+04  0.50400001928E-02 0. -1.
    10030    2    1    2    0    0  0.00000000000E+00  0.00000000000E+00 -0.15179249821E+04  0.25929328641E+04  0.21021904258E+04 0.  0.
        5    1    3    3  502    0 -0.15143879838E+03 -0.99483157392E+03 -0.11334004044E+04  0.15156655755E+04  0.46999998093E+01 0.  1.
       -5    1    3    3    0  502  0.15143879838E+03  0.99483157392E+03 -0.38452457778E+03  0.10772672886E+04  0.46999998093E+01 0. -1.
</event>
<event>
 5   0  0.1466480E-05  0.2086836E+04  0.7818609E-02  0.8567064E-01
       -1   -1    0    0    0  501  0.00000000000E+00  0.00000000000E+00  0.14734975076E+04  0.14734975076E+04  0.50400001928E-02 0. -1.
        1   -1    0    0  501    0  0.00000000000E+00  0.00000000000E+00 -0.73886865242E+03  0.73886865244E+03  0.50400001928E-02 0.  1.
    10030    2    1    2    0    0  0.00000000000E+00  0.00000000000E+00  0.73462885521E+03  0.22123661601E+04  0.20868359953E+04 0.  0.
        3    1    3    3  502    0  0.56287843720E+03  0.14397729552E+03 -0.55151473988E+03  0.80108059220E+03  0.10100000352E+00 0.  1.
       -3    1    3    3    0  502 -0.56287843720E+03 -0.14397729552E+03  0.12861435951E+04  0.14112855679E+04  0.10100000352E+00 0. -1.
</event>
<event>
 5   0  0.1435410E-05  0.2098234E+04  0.7818609E-02  0.8562022E-01
        1   -1    0    0  501    0  0.00000000000E+00  0.00000000000E+00  0.21061139276E+04  0.21061139276E+04  0.50400001928E-02 0. -1.
       -1   -1    0    0    0  501  0.00000000000E+00  0.00000000000E+00 -0.52259584388E+03  0.52259584391E+03  0.50400001928E-02 0.  1.
    10030    2    1    2    0    0  0.00000000000E+00  0.00000000000E+00  0.15835180837E+04  0.26287097715E+04  0.20982339101E+04 0.  0.
        2    1    3    3  502    0 -0.72143827776E+03 -0.52408524016E+03  0.14842273954E+04  0.17314934273E+04  0.25500000920E-02 0. -1.
       -2    1    3    3    0  502  0.72143827776E+03  0.52408524016E+03  0.99290688373E+02  0.89721634425E+03  0.25500000920E-02 0.  1.
</event>
<event>
 5   0  0.3279789E-05  0.2093013E+04  0.7818609E-02  0.8564327E-01
       -2   -1    0    0    0  501  0.00000000000E+00  0.00000000000E+00  0.10020333177E+04  0.10020333177E+04  0.25500000920E-02 0.  1.
        2   -1    0    0  501    0  0.00000000000E+00  0.00000000000E+00 -0.10929537906E+04  0.10929537906E+04  0.25500000920E-02 0. -1.
    10030    2    1    2    0    0  0.00000000000E+00  0.00000000000E+00 -0.90920472833E+02  0.20949871083E+04  0.20930132468E+04 0.  0.
        2    1    3    3  502    0  0.54433461504E+03 -0.11128070813E+02 -0.94003241186E+03  0.10863171463E+04  0.25500000920E-02 0. -1.
       -2    1    3    3    0  502 -0.54433461504E+03  0.11128070813E+02  0.84911193903E+03  0.10086699619E+04  0.25500000920E-02 0.  1.
</event>
<event>
 5   0  0.1435410E-05  0.2103584E+04  0.7818609E-02  0.8559666E-01
        1   -1    0    0  501    0  0.00000000000E+00  0.00000000000E+00  0.96263106545E+03  0.96263106546E+03  0.50400001928E-02 0.  1.
       -1   -1    0    0    0  501  0.00000000000E+00  0.00000000000E+00 -0.11492112771E+04  0.11492112771E+04  0.50400001928E-02 0. -1.
    10030    2    1    2    0    0  0.00000000000E+00  0.00000000000E+00 -0.18658021163E+03  0.21118423426E+04  0.21035840617E+04 0.  0.
        2    1    3    3  502    0  0.70279284455E+03 -0.49966804998E+03  0.51130377130E+03  0.10025056055E+04  0.25500000920E-02 0.  1.
       -2    1    3    3    0  502 -0.70279284455E+03  0.49966804998E+03 -0.69788398294E+03  0.11093367371E+04  0.25500000920E-02 0. -1.
</event>
<event>
 5   0  0.1435410E-05  0.2111935E+04  0.7818609E-02  0.8556004E-01
        1   -1    0    0  501    0  0.00000000000E+00  0.00000000000E+00  0.84847432091E+03  0.84847432093E+03  0.50400001928E-02 0. -1.
       -1   -1    0    0    0  501  0.00000000000E+00  0.00000000000E+00 -0.13142024239E+04  0.13142024239E+04  0.50400001928E-02 0.  1.
    10030    2    1    2    0    0  0.00000000000E+00  0.00000000000E+00 -0.46572810297E+03  0.21626767448E+04  0.21119346668E+04 0.  0.
        2    1    3    3  502    0 -0.30765998980E+03 -0.26210744295E+03 -0.12318604219E+04  0.12964702388E+04  0.25500000920E-02 0.  1.
       -2    1    3    3    0  502  0.30765998980E+03  0.26210744295E+03  0.76613231894E+03  0.86620650604E+03  0.25500000920E-02 0. -1.
</event>
<event>
 5   0  0.1466480E-05  0.2099731E+04  0.7818609E-02  0.8561362E-01
       -1   -1    0    0    0  501  0.00000000000E+00  0.00000000000E+00  0.11437512837E+04  0.11437512837E+04  0.50400001928E-02 0. -1.
        1   -1    0    0  501    0  0.00000000000E+00  0.00000000000E+00 -0.96368625286E+03  0.96368625287E+03  0.50400001928E-02 0.  1.
    10030    2    1    2    0    0  0.00000000000E+00  0.00000000000E+00  0.18006503081E+03  0.21074375366E+04  0.20997308292E+04 0.  0.
        3    1    3    3  502    0 -0.39685763268E+03 -0.65537279064E+03 -0.63038181744E+03  0.99216466440E+03  0.10100000352E+00 0.  1.
       -3    1    3    3    0  502  0.39685763268E+03  0.65537279064E+03  0.81044684825E+03  0.11152728722E+04  0.10100000352E+00 0. -1.
</event>
<event>
 5   0  0.3130517E-05  0.2089545E+04  0.7818609E-02  0.8565863E-01
       -2   -1    0    0    0  501  0.00000000000E+00  0.00000000000E+00  0.69353250158E+03  0.69353250158E+03  0.25500000920E-02 0. -1.
        2   -1    0    0  501    0  0.00000000000E+00  0.00000000000E+00 -0.15738982120E+04  0.15738982120E+04  0.25500000920E-02 0.  1.
    10030    2    1    2    0    0  0.00000000000E+00  0.00000000000E+00 -0.88036571044E+03  0.22674307136E+04  0.20895449880E+04 0.  0.
        1    1    3    3  502    0 -0.96753958495E+03  0.38720335188E+03 -0.52058720574E+03  0.11649336131E+04  0.50400001928E-02 0.  1.
       -1    1    3    3    0  502  0.96753958495E+03 -0.38720335188E+03 -0.35977850470E+03  0.11024971005E+04  0.50400001928E-02 0. -1.
</event>
<event>
 5   0  0.3242231E-05  0.2098587E+04  0.7818609E-02  0.8561866E-01
       -2   -1    0    0    0  501  0.00000000000E+00  0.00000000000E+00  0.84066245182E+03  0.84066245182E+03  0.25500000920E-02 0.  1.
        2   -1    0    0  501    0  0.00000000000E+00  0.00000000000E+00 -0.13097018473E+04  0.13097018473E+04  0.25500000920E-02 0. -1.
    10030    2    1    2    0    0  0.00000000000E+00  0.00000000000E+00 -0.46903939552E+03  0.21503642992E+04  0.20985873021E+04 0.  0.
        4    1    3    3  502    0 -0.80064003790E+02  0.29379554889E+03 -0.12634302453E+04  0.12996090439E+04  0.12699999809E+01 0. -1.
       -4    1    3    3    0  502  0.80064003790E+02 -0.29379554889E+03  0.79439084980E+03  0.85075525529E+03  0.12699999809E+01 0.  1.
</event>
<event>
 5   0  0.1513292E-05  0.2104236E+04  0.7818609E-02  0.8559380E-01
        1   -1    0    0  501    0  0.00000000000E+00  0.00000000000E+00  0.80766850109E+03  0.80766850111E+03  0.50400001928E-02 0.  1.
       -1   -1    0    0    0  501  0.00000000000E+00  0.00000000000E+00 -0.13705530345E+04  0.13705530345E+04  0.50400001928E-02 0. -1.
    10030    2    1    2    0    0  0.00000000000E+00  0.00000000000E+00 -0.56288453341E+03  0.21782215356E+04  0.21042362178E+04 0.  0.
        1    1    3    3  502    0 -0.60019813370E+03 -0.35054501156E+03 -0.10990438000E+04  0.13003910486E+04  0.50400001928E-02 0. -1.
       -1    1    3    3    0  502  0.60019813370E+03  0.35054501156E+03  0.53615926659E+03  0.87783048706E+03  0.50400001928E-02 0.  1.
</event>
<event>
 5   0  0.3130517E-05  0.2020357E+04  0.7818609E-02  0.8597162E-01
       -2   -1    0    0    0  501  0.00000000000E+00  0.00000000000E+00  0.72848826878E+03  0.72848826879E+03  0.25500000920E-02 0. -1.
        2   -1    0    0  501    0  0.00000000000E+00  0.00000000000E+00 -0.14007919807E+04  0.14007919807E+04  0.25500000920E-02 0.  1.
    10030    2    1    2    0    0  0.00000000000E+00  0.00000000000E+00 -0.67230371192E+03  0.21292802495E+04  0.20203569239E+04 0.  0.
        1    1    3    3  502    0  0.80750609864E+03 -0.32084614326E+03 -0.87914940823E+03  0.12360873873E+04  0.50400001928E-02 0.  1.
       -1    1    3    3    0  502 -0.80750609864E+03  0.32084614326E+03  0.20684569632E+03  0.89319286221E+03  0.50400001928E-02 0. -1.
</event>
<event>
 5   0  0.3242231E-05  0.2100202E+04  0.7818609E-02  0.8561154E-01
        2   -1    0    0  501    0  0.00000000000E+00  0.00000000000E+00  0.14000567938E+04  0.14000567938E+04  0.25500000920E-02 0. -1.
       -2   -1    0    0    0  501  0.00000000000E+00  0.00000000000E+00 -0.78761969891E+03  0.78761969892E+03  0.25500000920E-02 0.  1.
    10030    2    1    2    0    0  0.00000000000E+00  0.00000000000E+00  0.61243709489E+03  0.21876764927E+04  0.21002021907E+04 0.  0.
        4    1    3    3  502    0  0.88004640531E+03  0.17949764887E+03  0.87294685119E+03  0.12524930736E+04  0.12699999809E+01 0. -1.
       -4    1    3    3    0  502 -0.88004640531E+03 -0.17949764887E+03 -0.26050975629E+03  0.93518341916E+03  0.12699999809E+01 0.  1.
</event>
<event>
 5   0  0.3108326E-05  0.2100613E+04  0.7818609E-02  0.8560974E-01
       -2   -1    0    0    0  501  0.00000000000E+00  0.00000000000E+00  0.11662388720E+04  0.11662388720E+04  0.25500000920E-02 0. -1.
        2   -1    0    0  501    0  0.00000000000E+00  0.00000000000E+00 -0.94589831016E+03  0.94589831017E+03  0.25500000920E-02 0.  1.
    10030    2    1    2    0    0  0.00000000000E+00  0.00000000000E+00  0.22034056186E+03  0.21121371822E+04  0.21006126519E+04 0.  0.
        5    1    3    3  502    0  0.83769932794E+03  0.34469801510E+03  0.64465447846E+03  0.11118265927E+04  0.46999998093E+01 0. -1.
       -5    1    3    3    0  502 -0.83769932794E+03 -0.34469801510E+03 -0.42431391660E+03  0.10003105895E+04  0.46999998093E+01 0.  1.
</event>
<event>
 5   0  0.3130517E-05  0.2099920E+04  0.7818609E-02  0.8561279E-01
       -2   -1    0    0    0  501  0.00000000000E+00  0.00000000000E+00  0.95542803744E+03  0.95542803744E+03  0.25500000920E-02 0.  1.
        2   -1    0    0  501    0  0.00000000000E+00  0.00000000000E+00 -0.11538446467E+04  0.11538446467E+04  0.25500000920E-02 0. -1.
    10030    2    1    2    0    0  0.00000000000E+00  0.00000000000E+00 -0.19841660926E+03  0.21092726841E+04  0.20999195473E+04 0.  0.
        1    1    3    3  502    0  0.37571897011E+03  0.95289367747E+03 -0.33098359158E+03  0.10764391497E+04  0.50400001928E-02 0.  1.
       -1    1    3    3    0  502 -0.37571897011E+03 -0.95289367747E+03  0.13256698232E+03  0.10328335345E+04  0.50400001928E-02 0. -1.
</event>
<event>
 5   0  0.3108326E-05  0.2104463E+04  0.7818609E-02  0.8559280E-01
        2   -1    0    0  501    0  0.00000000000E+00  0.00000000000E+00  0.12065316203E+04  0.12065316203E+04  0.25500000920E-02 0. -1.
       -2   -1    0    0    0  501  0.00000000000E+00  0.00000000000E+00 -0.91766466750E+03  0.91766466750E+03  0.25500000920E-02 0.  1.
    10030    2    1    2    0    0  0.00000000000E+00  0.00000000000E+00  0.28886695276E+03  0.21241962878E+04  0.21044632932E+04 0.  0.
        5    1    3    3  502    0  0.54725676558E+02 -0.10701663383E+03  0.11995686768E+04  0.12055847378E+04  0.46999998093E+01 0. -1.
       -5    1    3    3    0  502 -0.54725676558E+02  0.10701663383E+03 -0.91070172404E+03  0.91861154999E+03  0.46999998093E+01 0.  1.
</event>
<event>
 5   0  0.3130517E-05  0.2042046E+04  0.7818609E-02  0.8587211E-01
       -2   -1    0    0    0  501  0.00000000000E+00  0.00000000000E+00  0.57433986160E+03  0.57433986161E+03  0.25500000920E-02 0.  1.
        2   -1    0    0  501    0  0.00000000000E+00  0.00000000000E+00 -0.18151065458E+04  0.18151065458E+04  0.25500000920E-02 0. -1.
    10030    2    1    2    0    0  0.00000000000E+00  0.00000000000E+00 -0.12407666842E+04  0.23894464074E+04  0.20420460742E+04 0.  0.
        1    1    3    3  502    0 -0.65000407551E+03 -0.72812034308E+03 -0.26969060744E+03  0.10126191564E+04  0.50400001928E-02 0.  1.
       -1    1    3    3    0  502  0.65000407551E+03  0.72812034308E+03 -0.97107607676E+03  0.13768272510E+04  0.50400001928E-02 0. -1.
</event>
<event>
 5   0  0.1492552E-05  0.2092922E+04  0.7818609E-02  0.8564368E-01
       -1   -1    0    0    0  501  0.00000000000E+00  0.00000000000E+00  0.97230687428E+03  0.97230687429E+03  0.50400001928E-02 0.  1.
        1   -1    0    0  501    0  0.00000000000E+00  0.00000000000E+00 -0.11262701077E+04  0.11262701077E+04  0.50400001928E-02 0. -1.
    10030    2    1    2    0    0  0.00000000000E+00  0.00000000000E+00 -0.15396323343E+03  0.20985769820E+04  0.20929215638E+04 0.  0.
        4    1    3    3  502    0 -0.40568740004E+03  0.94212151989E+03  0.13070927701E+03  0.10340511364E+04  0.12699999809E+01 0.  1.
       -4    1    3    3    0  502  0.40568740004E+03 -0.94212151989E+03 -0.28467251043E+03  0.10645258456E+04  0.12699999809E+01 0. -1.
</event>
<event>
 5   0  0.1466480E-05  0.2100687E+04  0.7818609E-02  0.8560941E-01
        1   -1    0    0  501    0  0.00000000000E+00  0.00000000000E+00  0.55649136033E+03  0.55649136035E+03  0.50400001928E-02 0. -1.
       -1   -1    0    0    0  501  0.00000000000E+00  0.00000000000E+00 -0.19824601301E+04  0.19824601301E+04  0.50400001928E-02 0.  1.
    10030    2    1    2    0    0  0.00000000000E+00  0.00000000000E+00 -0.14259687698E+04  0.25389514904E+04  0.21006874443E+04 0.  0.
        3    1    3    3  502    0  0.10368311900E+04 -0.16480244816E+03 -0.75202068211E+03  0.12913999690E+04  0.10100000352E+00 0.  1.
       -3    1    3    3    0  502 -0.10368311900E+04  0.16480244816E+03 -0.67394808765E+03  0.12475515214E+04  0.10100000352E+00 0. -1.
</event>
<event>
 5   0  0.3130517E-05  0.2080366E+04  0.7818609E-02  0.8569942E-01
       -2   -1    0    0    0  501  0.00000000000E+00  0.00000000000E+00  0.12691575457E+04  0.12691575457E+04  0.25500000920E-02 0. -1.
        2   -1    0    0  501    0  0.00000000000E+00  0.00000000000E+00 -0.85251898119E+03  0.85251898119E+03  0.25500000920E-02 0.  1.
    10030    2    1    2    0    0  0.00000000000E+00  0.00000000000E+00  0.41663856453E+03  0.21216765269E+04  0.20803662157E+04 0.  0.
        1    1    3    3  502    0  0.91324522548E+03  0.47742240680E+03  0.63974707092E+02  0.10324929828E+04  0.50400001928E-02 0. -1.
       -1    1    3    3    0  502 -0.91324522548E+03 -0.47742240680E+03  0.35266385743E+03  0.10891835441E+04  0.50400001928E-02 0.  1.
</event>
<event>
 5   0  0.1435410E-05  0.2103876E+04  0.7818609E-02  0.8559538E-01
       -1   -1    0    0    0  501  0.00000000000E+00  0.00000000000E+00  0.64737579372E+03  0.64737579374E+03  0.50400001928E-02 0. -1.
        1   -1    0    0  501    0  0.00000000000E+00  0.00000000000E+00 -0.17093218291E+04  0.17093218291E+04  0.50400001928E-02 0.  1.
    10030    2    1    2    0    0  0.00000000000E+00  0.00000000000E+00 -0.10619460354E+04  0.23566976229E+04  0.21038760191E+04 0.  0.
        2    1    3    3  502    0  0.10315935256E+04  0.46453349267E+02 -0.75565136520E+03  0.12795905991E+04  0.25500000920E-02 0.  1.
       -2    1    3    3    0  502 -0.10315935256E+04 -0.46453349267E+02 -0.30629467019E+03  0.10771070237E+04  0.25500000920E-02 0. -1.
</event>
<event>
 5   0  0.3279789E-05  0.2149885E+04  0.7818609E-02  0.8539581E-01
        2   -1    0    0  501    0  0.00000000000E+00  0.00000000000E+00  0.11779390736E+04  0.11779390736E+04  0.25500000920E-02 0.  1.
       -2   -1    0    0    0  501  0.00000000000E+00  0.00000000000E+00 -0.98095172069E+03  0.98095172069E+03  0.25500000920E-02 0. -1.
    10030    2    1    2    0    0  0.00000000000E+00  0.00000000000E+00  0.19698735294E+03  0.21588907943E+04  0.21498849840E+04 0.  0.
        2    1    3    3  502    0  0.15931600093E+03 -0.10451307088E+04  0.29378603520E+03  0.10972647908E+04  0.25500000920E-02 0.  1.
       -2    1    3    3    0  502 -0.15931600093E+03  0.10451307088E+04 -0.96798682252E+02  0.10616260036E+04  0.25500000920E-02 0. -1.
</event>
<event>
 5   0  0.1492552E-05  0.2012647E+04  0.7818609E-02  0.8600731E-01
       -1   -1    0    0    0  501  0.00000000000E+00  0.00000000000E+00  0.12799863022E+04  0.12799863022E+04  0.50400001928E-02 0. -1.
        1   -1    0    0  501    0  0.00000000000E+00  0.00000000000E+00 -0.79116982076E+03  0.79116982078E+03  0.50400001928E-02 0.  1.
    10030    2    1    2    0    0  0.00000000000E+00  0.00000000000E+00  0.48881648140E+03  0.20711561229E+04  0.20126465495E+04 0.  0.
        4    1    3    3  502    0 -0.91787228975E+01  0.24782514044E+03  0.12480470549E+04  0.12724482753E+04  0.12699999809E+01 0. -1.
       -4    1    3    3    0  502  0.91787228975E+01 -0.24782514044E+03 -0.75923057352E+03  0.79870784763E+03  0.12699999809E+01 0.  1.
</event>
<event>
 5   0  0.3108326E-05  0.2101935E+04  0.7818609E-02  0.8560392E-01
        2   -1    0    0  501    0  0.00000000000E+00  0.00000000000E+00  0.74868792705E+03  0.74868792705E+03  0.25500000920E-02 0.  1.
       -2   -1    0    0    0  501  0.00000000000E+00  0.00000000000E+00 -0.14752909511E+04  0.14752909511E+04  0.25500000920E-02 0. -1.
    10030    2    1    2    0    0  0.00000000000E+00  0.00000000000E+00 -0.72660302407E+03  0.22239788782E+04  0.21019348458E+04 0.  0.
        5    1    3    3  502    0  0.57451628002E+03 -0.25464175250E+03  0.52798620775E+03  0.82079406899E+03  0.46999998093E+01 0.  1.
       -5    1    3    3    0  502 -0.57451628002E+03  0.25464175250E+03 -0.12545892318E+04  0.14031848092E+04  0.46999998093E+01 0. -1.
</event>
<event>
 5   0  0.1492552E-05  0.2097294E+04  0.7818609E-02  0.8562436E-01
        1   -1    0    0  501    0  0.00000000000E+00  0.00000000000E+00  0.12644623420E+04  0.12644623420E+04  0.50400001928E-02 0. -1.
       -1   -1    0    0    0  501  0.00000000000E+00  0.00000000000E+00 -0.86966640975E+03  0.86966640977E+03  0.50400001928E-02 0.  1.
    10030    2    1    2    0    0  0.00000000000E+00  0.00000000000E+00  0.39479593227E+03  0.21341287518E+04  0.20972938996E+04 0.  0.
        4    1    3    3  502    0 -0.69333002335E+02  0.40855625431E+03 -0.78281345420E+03  0.88573347860E+03  0.12699999809E+01 0.  1.
       -4    1    3    3    0  502  0.69333002335E+02 -0.40855625431E+03  0.11776093865E+04  0.12483952732E+04  0.12699999809E+01 0. -1.
</event>
<event>
 5   0  0.3130517E-05  0.2112498E+04  0.7818609E-02  0.8555758E-01
       -2   -1    0    0    0  501  0.00000000000E+00  0.00000000000E+00  0.77186242332E+03  0.77186242333E+03  0.25500000920E-02 0.  1.
        2   -1    0    0  501    0  0.00000000000E+00  0.00000000000E+00 -0.14454158835E+04  0.14454158835E+04  0.25500000920E-02 0. -1.
    10030    2    1    2    0    0  0.00000000000E+00  0.00000000000E+00 -0.67355346020E+03  0.22172783069E+04  0.21124982429E+04 0.  0.
        1    1    3    3  502    0  0.46799150151E+03  0.39987151796E+03  0.56413783573E+03  0.83496393580E+03  0.50400001928E-02 0.  1.
       -1    1    3    3    0  502 -0.46799150151E+03 -0.39987151796E+03 -0.12376912959E+04  0.13823143710E+04  0.50400001928E-02 0. -1.
</event>
<event>
 5   0  0.1435410E-05  0.2100724E+04  0.7818609E-02  0.8560924E-01
        1   -1    0    0  501    0  0.00000000000E+00  0.00000000000E+00  0.15941851432E+04  0.15941851432E+04  0.50400001928E-02 0.  1.
       -1   -1    0    0    0  501  0.00000000000E+00  0.00000000000E+00 -0.69205290410E+03  0.69205290412E+03  0.50400001928E-02 0. -1.
    10030    2    1    2    0    0  0.00000000000E+00  0.00000000000E+00  0.90213223911E+03  0.22862380473E+04  0.21007241209E+04 0.  0.
        2    1    3    3  502    0  0.10053832138E+04  0.14824175979E+03  0.16212161982E+03  0.10291037098E+04  0.25500000920E-02 0. -1.
       -2    1    3    3    0  502 -0.10053832138E+04 -0.14824175979E+03  0.74001061930E+03  0.12571343375E+04  0.25500000920E-02 0.  1.
</event>
<event>
 5   0  0.1435410E-05  0.2090363E+04  0.7818609E-02  0.8565501E-01
        1   -1    0    0  501    0  0.00000000000E+00  0.00000000000E+00  0.20151823545E+04  0.20151823545E+04  0.50400001928E-02 0.  1.
       -1   -1    0    0    0  501  0.00000000000E+00  0.00000000000E+00 -0.54208692446E+03  0.54208692448E+03  0.50400001928E-02 0. -1.
    10030    2    1    2    0    0  0.00000000000E+00  0.00000000000E+00  0.14730954300E+04  0.25572692790E+04  0.20903626526E+04 0.  0.
        2    1    3    3  502    0 -0.97990952149E+03 -0.58994481457E+02  0.11754276848E+04  0.15314480930E+04  0.25500000920E-02 0.  1.
       -2    1    3    3    0  502  0.97990952149E+03  0.58994481457E+02  0.29766774519E+03  0.10258211860E+04  0.25500000920E-02 0. -1.
</event>
<event>
 5   0  0.1466480E-05  0.2089837E+04  0.7818609E-02  0.8565734E-01
        1   -1    0    0  501    0  0.00000000000E+00  0.00000000000E+00  0.27251612389E+04  0.27251612389E+04  0.50400001928E-02 0.  1.
       -1   -1    0    0    0  501  0.00000000000E+00  0.00000000000E+00 -0.40065690965E+03  0.40065690969E+03  0.50400001928E-02 0. -1.
    10030    2    1    2    0    0  0.00000000000E+00  0.00000000000E+00  0.23245043293E+04  0.31258181486E+04  0.20898370083E+04 0.  0.
        3    1    3    3  502    0 -0.79811851659E+03 -0.39841810693E+03  0.34831950653E+03  0.95763074475E+03  0.10100000352E+00 0. -1.
       -3    1    3    3    0  502  0.79811851659E+03  0.39841810693E+03  0.19761848227E+04  0.21681874039E+04  0.10100000352E+00 0.  1.
</event>
<event>
 5   0  0.1453430E-05  0.2093080E+04  0.7818609E-02  0.8564298E-01
        1   -1    0    0  501    0  0.00000000000E+00  0.00000000000E+00  0.11313824309E+04  0.11313824309E+04  0.50400001928E-02 0.  1.
       -1   -1    0    0    0  501  0.00000000000E+00  0.00000000000E+00 -0.96805960876E+03  0.96805960878E+03  0.50400001928E-02 0. -1.
    10030    2    1    2    0    0  0.00000000000E+00  0.00000000000E+00  0.16332282217E+03  0.20994420397E+04  0.20930796769E+04 0.  0.
        5    1    3    3  502    0  0.53489840111E+03 -0.62380757818E+03  0.73168326850E+03  0.11002884574E+04  0.46999998093E+01 0.  1.
       -5    1    3    3    0  502 -0.53489840111E+03  0.62380757818E+03 -0.56836044633E+03  0.99915358232E+03  0.46999998093E+01 0. -1.
</event>
<event>
 5   0  0.1492552E-05  0.2095098E+04  0.7818609E-02  0.8563406E-01
        1   -1    0    0  501    0  0.00000000000E+00  0.00000000000E+00  0.25725326972E+04  0.25725326972E+04  0.50400001928E-02 0. -1.
       -1   -1    0    0    0  501  0.00000000000E+00  0.00000000000E+00 -0.42656751993E+03  0.42656751996E+03  0.50400001928E-02 0.  1.
    10030    2    1    2    0    0  0.00000000000E+00  0.00000000000E+00  0.21459651772E+04  0.29991002171E+04  0.20950979859E+04 0.  0.
        4    1    3    3  502    0 -0.80186838548E+03  0.66490687624E+03  0.91446083653E+03  0.13861220351E+04  0.12699999809E+01 0. -1.
       -4    1    3    3    0  502  0.80186838548E+03 -0.66490687624E+03  0.12315043407E+04  0.16129781820E+04  0.12699999809E+01 0.  1.
</event>
<event>
 5   0  0.3242231E-05  0.2108095E+04  0.7818609E-02  0.8557686E-01
       -2   -1    0    0    0  501  0.00000000000E+00  0.00000000000E+00  0.84426060762E+03  0.84426060762E+03  0.25500000920E-02 0. -1.
        2   -1    0    0  501    0  0.00000000000E+00  0.00000000000E+00 -0.13159640239E+04  0.13159640239E+04  0.25500000920E-02 0.  1.
    10030    2    1    2    0    0  0.00000000000E+00  0.00000000000E+00 -0.47170341630E+03  0.21602246315E+04  0.21080954309E+04 0.  0.
        4    1    3    3  502    0 -0.43065814661E+03  0.47495830450E+03 -0.10931781788E+04  0.12673168403E+04  0.12699999809E+01 0.  1.
       -4    1    3    3    0  502  0.43065814661E+03 -0.47495830450E+03  0.62147476252E+03  0.89290779121E+03  0.12699999809E+01 0. -1.
</event>
<event>
 5   0  0.3130517E-05  0.2098252E+04  0.7818609E-02  0.8562014E-01
        2   -1    0    0  501    0  0.00000000000E+00  0.00000000000E+00  0.14353788952E+04  0.14353788952E+04  0.25500000920E-02 0.  1.
       -2   -1    0    0    0  501  0.00000000000E+00  0.00000000000E+00 -0.76681165171E+03  0.76681165171E+03  0.25500000920E-02 0. -1.
    10030    2    1    2    0    0  0.00000000000E+00  0.00000000000E+00  0.66856724351E+03  0.22021905469E+04  0.20982519024E+04 0.  0.
        1    1    3    3  502    0 -0.38191509285E+03  0.50057291329E+03 -0.54647198819E+03  0.83370499193E+03  0.50400001928E-02 0. -1.
       -1    1    3    3    0  502  0.38191509285E+03 -0.50057291329E+03  0.12150392317E+04  0.13684855550E+04  0.50400001928E-02 0.  1.
</event>
<event>
 5   0  0.3108326E-05  0.2096482E+04  0.7818609E-02  0.8562795E-01
        2   -1    0    0  501    0  0.00000000000E+00  0.00000000000E+00  0.13328081940E+04  0.13328081940E+04  0.25500000920E-02 0.  1.
       -2   -1    0    0    0  501  0.00000000000E+00  0.00000000000E+00 -0.82443159796E+03  0.82443159796E+03  0.25500000920E-02 0. -1.
    10030    2    1    2    0    0  0.00000000000E+00  0.00000000000E+00  0.50837659608E+03  0.21572397920E+04  0.20964819953E+04 0.  0.
        5    1    3    3  502    0 -0.87770771375E+03  0.41974848623E+02  0.84228877124E+03  0.12172120534E+04  0.46999998093E+01 0.  1.
       -5    1    3    3    0  502  0.87770771375E+03 -0.41974848623E+02 -0.33391217516E+03  0.94002773864E+03  0.46999998093E+01 0. -1.
</event>
<event>
 5   0  0.3279789E-05  0.2092536E+04  0.7818609E-02  0.8564539E-01
        2   -1    0    0  501    0  0.00000000000E+00  0.00000000000E+00  0.79617150714E+03  0.79617150715E+03  0.25500000920E-02 0.  1.
       -2   -1    0    0    0  501  0.00000000000E+00  0.00000000000E+00 -0.13749251781E+04  0.13749251781E+04  0.25500000920E-02 0. -1.
    10030    2    1    2    0    0  0.00000000000E+00  0.00000000000E+00 -0.57875367096E+03  0.21710966853E+04  0.20925355445E+04 0.  0.
        2    1    3    3  502    0 -0.79381303581E+03  0.12614649387E+03 -0.98431739254E+03  0.12708000641E+04  0.25500000920E-02 0. -1.
       -2    1    3    3    0  502  0.79381303581E+03 -0.12614649387E+03  0.40556372157E+03  0.90029662112E+03  0.25500000920E-02 0.  1.
</event>
<event>
 5   0  0.1435410E-05  0.2093389E+04  0.7818609E-02  0.8564161E-01
       -1   -1    0    0    0  501  0.00000000000E+00  0.00000000000E+00  0.65526744843E+03  0.65526744845E+03  0.50400001928E-02 0. -1.
        1   -1    0    0  501    0  0.00000000000E+00  0.00000000000E+00 -0.16719424311E+04  0.16719424311E+04  0.50400001928E-02 0.  1.
    10030    2    1    2    0    0  0.00000000000E+00  0.00000000000E+00 -0.10166749827E+04  0.23272098796E+04  0.20933890711E+04 0.  0.
        2    1    3    3  502    0 -0.75529175251E+03 -0.64779428715E+03 -0.86936693415E+03  0.13213258251E+04  0.25500000920E-02 0.  1.
       -2    1    3    3    0  502  0.75529175251E+03  0.64779428715E+03 -0.14730804855E+03  0.10058840545E+04  0.25500000920E-02 0. -1.
</event>
<event>
 5   0  0.1513292E-05  0.2089391E+04  0.7818609E-02  0.8565931E-01
       -1   -1    0    0    0  501  0.00000000000E+00  0.00000000000E+00  0.70386257957E+03  0.70386257959E+03  0.50400001928E-02 0.  1.
        1   -1    0    0  501    0  0.00000000000E+00  0.00000000000E+00 -0.15505710467E+04  0.15505710467E+04  0.50400001928E-02 0. -1.
    10030    2    1    2    0    0  0.00000000000E+00  0.00000000000E+00 -0.84670846712E+03  0.22544336263E+04  0.20893912384E+04 0.  0.
        1    1    3    3  502    0  0.21738832809E+03 -0.52112088724E+03 -0.13717399281E+04  0.14834065844E+04  0.50400001928E-02 0. -1.
       -1    1    3    3    0  502 -0.21738832809E+03  0.52112088724E+03  0.52503146097E+03  0.77102704190E+03  0.50400001928E-02 0.  1.
</event>
<event>
 5   0  0.3108326E-05  0.2110583E+04  0.7818609E-02  0.8556596E-01
       -2   -1    0    0    0  501  0.00000000000E+00  0.00000000000E+00  0.87535204220E+03  0.87535204221E+03  0.25500000920E-02 0.  1.
        2   -1    0    0  501    0  0.00000000000E+00  0.00000000000E+00 -0.12722195061E+04  0.12722195061E+04  0.25500000920E-02 0. -1.
    10030    2    1    2    0    0  0.00000000000E+00  0.00000000000E+00 -0.39686746385E+03  0.21475715483E+04  0.21105828036E+04 0.  0.
        5    1    3    3  502    0  0.82218426503E+03 -0.65943962782E+03 -0.14487801300E+03  0.10638887710E+04  0.46999998093E+01 0. -1.
       -5    1    3    3    0  502 -0.82218426503E+03  0.65943962782E+03 -0.25198945086E+03  0.10836827773E+04  0.46999998093E+01 0.  1.
</event>
<event>
 5   0  0.3130517E-05  0.2097068E+04  0.7818609E-02  0.8562536E-01
        2   -1    0    0  501    0  0.00000000000E+00  0.00000000000E+00  0.10346034517E+04  0.10346034517E+04  0.25500000920E-02 0. -1.
       -2   -1    0    0    0  501  0.00000000000E+00  0.00000000000E+00 -0.10626525233E+04  0.10626525233E+04  0.25500000920E-02 0.  1.
    10030    2    1    2    0    0  0.00000000000E+00  0.00000000000E+00 -0.28049071573E+02  0.20972559750E+04  0.20970684000E+04 0.  0.
        1    1    3    3  502    0 -0.82786317375E+02  0.32667731755E+03  0.97896523958E+03  0.10353475670E+04  0.50400001928E-02 0. -1.
       -1    1    3    3    0  502  0.82786317375E+02 -0.32667731755E+03 -0.10070143112E+04  0.10619084080E+04  0.50400001928E-02 0.  1.
</event>
<event>
 5   0  0.1453430E-05  0.2100251E+04  0.7818609E-02  0.8561133E-01
       -1   -1    0    0    0  501  0.00000000000E+00  0.00000000000E+00  0.10216607346E+04  0.10216607347E+04  0.50400001928E-02 0.  1.
        1   -1    0    0  501    0  0.00000000000E+00  0.00000000000E+00 -0.10793834691E+04  0.10793834691E+04  0.50400001928E-02 0. -1.
    10030    2    1    2    0    0  0.00000000000E+00  0.00000000000E+00 -0.57722734493E+02  0.21010442038E+04  0.21002511355E+04 0.  0.
        5    1    3    3  502    0  0.68325023930E+01  0.88144551799E+03  0.54209816709E+03  0.10348359276E+04  0.46999998093E+01 0.  1.
       -5    1    3    3    0  502 -0.68325023930E+01 -0.88144551799E+03 -0.59982090158E+03  0.10662082762E+04  0.46999998093E+01 0. -1.
</event>
<event>
 5   0  0.1466480E-05  0.2098467E+04  0.7818609E-02  0.8561919E-01
       -1   -1    0    0    0  501  0.00000000000E+00  0.00000000000E+00  0.61722299142E+03  0.61722299144E+03  0.50400001928E-02 0.  1.
        1   -1    0    0  501    0  0.00000000000E+00  0.00000000000E+00 -0.17836199769E+04  0.17836199769E+04  0.50400001928E-02 0. -1.
    10030    2    1    2    0    0  0.00000000000E+00  0.00000000000E+00 -0.11663969855E+04  0.24008429684E+04  0.20984673052E+04 0.  0.
        3    1    3    3  502    0  0.36201923041E+03 -0.97887399985E+03 -0.70662819890E+03  0.12603871042E+04  0.10100000352E+00 0.  1.
       -3    1    3    3    0  502 -0.36201923041E+03  0.97887399985E+03 -0.45976878661E+03  0.11404558642E+04  0.10100000352E+00 0. -1.
</event>
<event>
 5   0  0.3108326E-05  0.2104730E+04  0.7818609E-02  0.8559163E-01
       -2   -1    0    0    0  501  0.00000000000E+00  0.00000000000E+00  0.68939384076E+03  0.68939384077E+03  0.25500000920E-02 0. -1.
        2   -1    0    0  501    0  0.00000000000E+00  0.00000000000E+00 -0.16064431738E+04  0.16064431738E+04  0.25500000920E-02 0.  1.
    10030    2    1    2    0    0  0.00000000000E+00  0.00000000000E+00 -0.91704933299E+03  0.22958370145E+04  0.21047299395E+04 0.  0.
        5    1    3    3  502    0  0.95658395099E+02 -0.76088134967E+03 -0.12446259373E+04  0.14619188660E+04  0.46999998093E+01 0.  1.
       -5    1    3    3    0  502 -0.95658395099E+02  0.76088134967E+03  0.32757660432E+03  0.83391814857E+03  0.46999998093E+01 0. -1.
</event>
<event>
 5   0  0.1466480E-05  0.2078578E+04  0.7818609E-02  0.8570739E-01
        1   -1    0    0  501    0  0.00000000000E+00  0.00000000000E+00  0.15904426292E+04  0.15904426292E+04  0.50400001928E-02 0.  1.
       -1   -1    0    0    0  501  0.00000000000E+00  0.00000000000E+00 -0.67913255140E+03  0.67913255141E+03  0.50400001928E-02 0. -1.
    10030    2    1    2    0    0  0.00000000000E+00  0.00000000000E+00  0.91131007783E+03  0.22695751806E+04  0.20785777452E+04 0.  0.
        3    1    3    3  502    0 -0.20883594549E+03  0.37931904800E+03 -0.57594905402E+03  0.72056416462E+03  0.10100000352E+00 0. -1.
       -3    1    3    3    0  502  0.20883594549E+03 -0.37931904800E+03  0.14872591318E+04  0.15490110160E+04  0.10100000352E+00 0.  1.
</event>
<event>
 5   0  0.3108326E-05  0.2106972E+04  0.7818609E-02  0.8558178E-01
       -2   -1    0    0    0  501  0.00000000000E+00  0.00000000000E+00  0.89343243648E+03  0.89343243649E+03  0.25500000920E-02 0. -1.
        2   -1    0    0  501    0  0.00000000000E+00  0.00000000000E+00 -0.12422128006E+04  0.12422128006E+04  0.25500000920E-02 0.  1.
    10030    2    1    2    0    0  0.00000000000E+00  0.00000000000E+00 -0.34878036408E+03  0.21356452371E+04  0.21069724337E+04 0.  0.
        5    1    3    3  502    0  0.10511044228E+04 -0.69910197699E+02 -0.18468594974E+03  0.10695040596E+04  0.46999998093E+01 0. -1.
       -5    1    3    3    0  502 -0.10511044228E+04  0.69910197699E+02 -0.16409441434E+03  0.10661411775E+04  0.46999998093E+01 0.  1.
</event>
<event>
 5   0  0.1435410E-05  0.2108054E+04  0.7818609E-02  0.8557704E-01
       -1   -1    0    0    0  501  0.00000000000E+00  0.00000000000E+00  0.72694109002E+03  0.72694109004E+03  0.50400001928E-02 0.  1.
        1   -1    0    0  501    0  0.00000000000E+00  0.00000000000E+00 -0.15282839420E+04  0.15282839420E+04  0.50400001928E-02 0. -1.
    10030    2    1    2    0    0  0.00000000000E+00  0.00000000000E+00 -0.80134285200E+03  0.22552250321E+04  0.21080535047E+04 0.  0.
        2    1    3    3  502    0  0.83256548328E+03 -0.53869294815E+03 -0.18496182794E+02  0.99181524747E+03  0.25500000920E-02 0.  1.
       -2    1    3    3    0  502 -0.83256548328E+03  0.53869294815E+03 -0.78284666921E+03  0.12634097846E+04  0.25500000920E-02 0. -1.
</event>
<event>
 5   0  0.3130517E-05  0.2094289E+04  0.7818609E-02  0.8563763E-01
        2   -1    0    0  501    0  0.00000000000E+00  0.00000000000E+00  0.19646684446E+04  0.19646684446E+04  0.25500000920E-02 0. -1.
       -2   -1    0    0    0  501  0.00000000000E+00  0.00000000000E+00 -0.55811518156E+03  0.55811518156E+03  0.25500000920E-02 0.  1.
    10030    2    1    2    0    0  0.00000000000E+00  0.00000000000E+00  0.14065532631E+04  0.25227836262E+04  0.20942886961E+04 0.  0.
        1    1    3    3  502    0 -0.31947987528E+03 -0.98703086345E+03  0.87454188379E+03  0.13568790744E+04  0.50400001928E-02 0. -1.
       -1    1    3    3    0  502  0.31947987528E+03  0.98703086345E+03  0.53201137930E+03  0.11659045518E+04  0.50400001928E-02 0.  1.
</event>
<event>
 5   0  0.1435410E-05  0.2098152E+04  0.7818609E-02  0.8562058E-01
        1   -1    0    0  501    0  0.00000000000E+00  0.00000000000E+00  0.10644538403E+04  0.10644538403E+04  0.50400001928E-02 0. -1.
       -1   -1    0    0    0  501  0.00000000000E+00  0.00000000000E+00 -0.10339202199E+04  0.10339202199E+04  0.50400001928E-02 0.  1.
    10030    2    1    2    0    0  0.00000000000E+00  0.00000000000E+00  0.30533620373E+02  0.20983740602E+04  0.20981518998E+04 0.  0.
        2    1    3    3  502    0 -0.88416055328E+03  0.56312665271E+03  0.56609277446E+02  0.10497886079E+04  0.25500000920E-02 0.  1.
       -2    1    3    3    0  502  0.88416055328E+03 -0.56312665271E+03 -0.26075657073E+02  0.10485854523E+04  0.25500000920E-02 0. -1.
</event>
<event>
 5   0  0.3242231E-05  0.2103479E+04  0.7818609E-02  0.8559712E-01
       -2   -1    0    0    0  501  0.00000000000E+00  0.00000000000E+00  0.12983831213E+04  0.12983831213E+04  0.25500000920E-02 0. -1.
        2   -1    0    0  501    0  0.00000000000E+00  0.00000000000E+00 -0.85194904297E+03  0.85194904297E+03  0.25500000920E-02 0.  1.
    10030    2    1    2    0    0  0.00000000000E+00  0.00000000000E+00  0.44643407831E+03  0.21503321643E+04  0.21034792679E+04 0.  0.
        4    1    3    3  502    0 -0.65676906735E+03  0.53665466225E+03  0.85901131947E+03  0.12071644023E+04  0.12699999809E+01 0. -1.
       -4    1    3    3    0  502  0.65676906735E+03 -0.53665466225E+03 -0.41257724116E+03  0.94316776194E+03  0.12699999809E+01 0.  1.
</event>
<event>
 5   0  0.1492552E-05  0.2101851E+04  0.7818609E-02  0.8560428E-01
       -1   -1    0    0    0  501  0.00000000000E+00  0.00000000000E+00  0.11836948299E+04  0.11836948299E+04  0.50400001928E-02 0. -1.
        1   -1    0    0  501    0  0.00000000000E+00  0.00000000000E+00 -0.93304848192E+03  0.93304848193E+03  0.50400001928E-02 0.  1.
    10030    2    1    2    0    0  0.00000000000E+00  0.00000000000E+00  0.25064634797E+03  0.21167433118E+04  0.21018512451E+04 0.  0.
        4    1    3    3  502    0 -0.37359917275E+03 -0.94473836056E+03 -0.14553620802E+03  0.10262988417E+04  0.12699999809E+01 0.  1.
       -4    1    3    3    0  502  0.37359917275E+03  0.94473836056E+03  0.39618255599E+03  0.10904444701E+04  0.12699999809E+01 0. -1.
</event>
<event>
 5   0  0.1435410E-05  0.2098356E+04  0.7818609E-02  0.8561968E-01
        1   -1    0    0  501    0  0.00000000000E+00  0.00000000000E+00  0.11322363108E+04  0.11322363108E+04  0.50400001928E-02 0. -1.
       -1   -1    0    0    0  501  0.00000000000E+00  0.00000000000E+00 -0.97221221211E+03  0.97221221213E+03  0.50400001928E-02 0.  1.
    10030    2    1    2    0    0  0.00000000000E+00  0.00000000000E+00  0.16002409864E+03  0.21044485229E+04  0.20983555164E+04 0.  0.
        2    1    3    3  502    0  0.89790208820E+02 -0.70287473603E+03 -0.69597803680E+03  0.99321729942E+03  0.25500000920E-02 0.  1.
       -2    1    3    3    0  502 -0.89790208820E+02  0.70287473603E+03  0.85600213543E+03  0.11112312235E+04  0.25500000920E-02 0. -1.
</event>
<event>
 5   0  0.1453430E-05  0.2090299E+04  0.7818609E-02  0.8565529E-01
       -1   -1    0    0    0  501  0.00000000000E+00  0.00000000000E+00  0.67435527605E+03  0.67435527607E+03  0.50400001928E-02 0. -1.
        1   -1    0    0  501    0  0.00000000000E+00  0.00000000000E+00 -0.16198246788E+04  0.16198246788E+04  0.50400001928E-02 0.  1.
    10030    2    1    2    0    0  0.00000000000E+00  0.00000000000E+00 -0.94546940278E+03  0.22941799549E+04  0.20902988480E+04 0.  0.
        5    1    3    3  502    0  0.94176933037E+03  0.10310353728E+03 -0.95708979718E+03  0.13467007020E+04  0.46999998093E+01 0.  1.
       -5    1    3    3    0  502 -0.94176933037E+03 -0.10310353728E+03  0.11620394399E+02  0.94747925286E+03  0.46999998093E+01 0. -1.
</event>
<event>
 5   0  0.1435410E-05  0.2102590E+04  0.7818609E-02  0.8560103E-01
       -1   -1    0    0    0  501  0.00000000000E+00  0.00000000000E+00  0.66144007590E+03  0.66144007592E+03  0.50400001928E-02 0. -1.
        1   -1    0    0  501    0  0.00000000000E+00  0.00000000000E+00 -0.16709317717E+04  0.16709317717E+04  0.50400001928E-02 0.  1.
    10030    2    1    2    0    0  0.00000000000E+00  0.00000000000E+00 -0.10094916958E+04  0.23323718476E+04  0.21025900579E+04 0.  0.
        2    1    3    3  502    0 -0.67623572112E+03 -0.21717484084E+03  0.35504785122E+03  0.79405203776E+03  0.25500000920E-02 0. -1.
       -2    1    3    3    0  502  0.67623572112E+03  0.21717484084E+03 -0.13645395470E+04  0.15383198098E+04  0.25500000920E-02 0.  1.
</event>
<event>
 5   0  0.1466480E-05  0.2101428E+04  0.7818609E-02  0.8560615E-01
       -1   -1    0    0    0  501  0.00000000000E+00  0.00000000000E+00  0.74684436274E+03  0.74684436275E+03  0.50400001928E-02 0.  1.
        1   -1    0    0  501    0  0.00000000000E+00  0.00000000000E+00 -0.14782197820E+04  0.14782197820E+04  0.50400001928E-02 0. -1.
    10030    2    1    2    0    0  0.00000000000E+00  0.00000000000E+00 -0.73137541922E+03  0.22250641447E+04  0.21014281916E+04 0.  0.
        3    1    3    3  502    0  0.34991091168E+03  0.39208158904E+03  0.59769697408E+03  0.79586889724E+03  0.10100000352E+00 0.  1.
       -3    1    3    3    0  502 -0.34991091168E+03 -0.39208158904E+03 -0.13290723933E+04  0.14291952475E+04  0.10100000352E+00 0. -1.
</event>
<event>
 5   0  0.1453430E-05  0.2105403E+04  0.7818609E-02  0.8558867E-01
        1   -1    0    0  501    0  0.00000000000E+00  0.00000000000E+00  0.77245206017E+03  0.77245206019E+03  0.50400001928E-02 0. -1.
       -1   -1    0    0    0  501  0.00000000000E+00  0.00000000000E+00 -0.14346264582E+04  0.14346264582E+04  0.50400001928E-02 0.  1.
    10030    2    1    2    0    0  0.00000000000E+00  0.00000000000E+00 -0.66217439805E+03  0.22070785184E+04  0.21054027294E+04 0.  0.
        5    1    3    3  502    0 -0.27450287708E+02 -0.10482539253E+04 -0.23405206800E+03  0.10744264846E+04  0.46999998093E+01 0.  1.
       -5    1    3    3    0  502  0.27450287708E+02  0.10482539253E+04 -0.42812233005E+03  0.11326520338E+04  0.46999998093E+01 0. -1.
</event>
<event>
 5   0  0.1453430E-05  0.2101656E+04  0.7818609E-02  0.8560514E-01
        1   -1    0    0  501    0  0.00000000000E+00  0.00000000000E+00  0.17603107500E+04  0.17603107500E+04  0.50400001928E-02 0. -1.
       -1   -1    0    0    0  501  0.00000000000E+00  0.00000000000E+00 -0.62729786113E+03  0.62729786115E+03  0.50400001928E-02 0.  1.
    10030    2    1    2    0    0  0.00000000000E+00  0.00000000000E+00  0.11330128889E+04  0.23876086112E+04  0.21016556982E+04 0.  0.
        5    1    3    3  502    0 -0.88421226446E+03 -0.56534786814E+03  0.50674124833E+03  0.11654434020E+04  0.46999998093E+01 0.  1.
       -5    1    3    3    0  502  0.88421226446E+03  0.56534786814E+03  0.62627164055E+03  0.12221652091E+04  0.46999998093E+01 0. -1.
</event>
<event>
 5   0  0.1453430E-05  0.2100089E+04  0.7818609E-02  0.8561204E-01
       -1   -1    0    0    0  501  0.00000000000E+00  0.00000000000E+00  0.14194998664E+04  0.14194998665E+04  0.50400001928E-02 0. -1.
        1   -1    0    0  501    0  0.00000000000E+00  0.00000000000E+00 -0.77674807717E+03  0.77674807719E+03  0.50400001928E-02 0.  1.
    10030    2    1    2    0    0  0.00000000000E+00  0.00000000000E+00  0.64275178927E+03  0.21962479436E+04  0.21000893237E+04 0.  0.
        5    1    3    3  502    0  0.86495617109E+03 -0.36646068724E+03  0.81203777467E+03  0.12417206009E+04  0.46999998093E+01 0. -1.
       -5    1    3    3    0  502 -0.86495617109E+03  0.36646068724E+03 -0.16928598540E+03  0.95452734275E+03  0.46999998093E+01 0.  1.
</event>
<event>
 5   0  0.3242231E-05  0.2107927E+04  0.7818609E-02  0.8557759E-01
        2   -1    0    0  501    0  0.00000000000E+00  0.00000000000E+00  0.11489684457E+04  0.11489684457E+04  0.25500000920E-02 0.  1.
       -2   -1    0    0    0  501  0.00000000000E+00  0.00000000000E+00 -0.96681467671E+03  0.96681467672E+03  0.25500000920E-02 0. -1.
    10030    2    1    2    0    0  0.00000000000E+00  0.00000000000E+00  0.18215376895E+03  0.21157831224E+04  0.21079274716E+04 0.  0.
        4    1    3    3  502    0  0.56513189930E+03  0.75495519197E+03 -0.38132188675E+03  0.10172214113E+04  0.12699999809E+01 0. -1.
       -4    1    3    3    0  502 -0.56513189930E+03 -0.75495519197E+03  0.56347565570E+03  0.10985617110E+04  0.12699999809E+01 0.  1.
</event>
<event>
 5   0  0.1492552E-05  0.2110510E+04  0.7818609E-02  0.8556628E-01
        1   -1    0    0  501    0  0.00000000000E+00  0.00000000000E+00  0.14420927391E+04  0.14420927391E+04  0.50400001928E-02 0.  1.
       -1   -1    0    0    0  501  0.00000000000E+00  0.00000000000E+00 -0.77218585835E+03  0.77218585836E+03  0.50400001928E-02 0. -1.
    10030    2    1    2    0    0  0.00000000000E+00  0.00000000000E+00  0.66990688073E+03  0.22142785974E+04  0.21105104781E+04 0.  0.
        4    1    3    3  502    0 -0.55885066574E+03 -0.37114716987E+03 -0.51964966491E+03  0.84858804814E+03  0.12699999809E+01 0. -1.
       -4    1    3    3    0  502  0.55885066574E+03  0.37114716987E+03  0.11895565456E+04  0.13656905493E+04  0.12699999809E+01 0.  1.
</event>
<event>
 5   0  0.3257130E-05  0.2101387E+04  0.7818609E-02  0.8560633E-01
        2   -1    0    0  501    0  0.00000000000E+00  0.00000000000E+00  0.13935775778E+04  0.13935775778E+04  0.25500000920E-02 0.  1.
       -2   -1    0    0    0  501  0.00000000000E+00  0.00000000000E+00 -0.79217472490E+03  0.79217472491E+03  0.25500000920E-02 0. -1.
    10030    2    1    2    0    0  0.00000000000E+00  0.00000000000E+00  0.60140285289E+03  0.21857523027E+04  0.21013870984E+04 0.  0.
        3    1    3    3  502    0 -0.66193573540E+03 -0.21618508387E+03 -0.51769167866E+03  0.86769786945E+03  0.10100000352E+00 0. -1.
       -3    1    3    3    0  502  0.66193573540E+03  0.21618508387E+03  0.11190945315E+04  0.13180544333E+04  0.10100000352E+00 0.  1.
</event>
<event>
 5   0  0.3130517E-05  0.2098258E+04  0.7818609E-02  0.8562011E-01
       -2   -1    0    0    0  501  0.00000000000E+00  0.00000000000E+00  0.73987361593E+03  0.73987361593E+03  0.25500000920E-02 0. -1.
        2   -1    0    0  501    0  0.00000000000E+00  0.00000000000E+00 -0.14876481309E+04  0.14876481309E+04  0.25500000920E-02 0.  1.
    10030    2    1    2    0    0  0.00000000000E+00  0.00000000000E+00 -0.74777451499E+03  0.22275217469E+04  0.20982579459E+04 0.  0.
        1    1    3    3  502    0  0.28548423606E+03 -0.68547935261E+03 -0.11606853421E+04  0.13778873884E+04  0.50400001928E-02 0.  1.
       -1    1    3    3    0  502 -0.28548423606E+03  0.68547935261E+03  0.41291082706E+03  0.84963435843E+03  0.50400001928E-02 0. -1.
</event>
<event>
 5   0  0.1492552E-05  0.2099599E+04  0.7818609E-02  0.8561420E-01
       -1   -1    0    0    0  501  0.00000000000E+00  0.00000000000E+00  0.97199856670E+03  0.97199856671E+03  0.50400001928E-02 0. -1.
        1   -1    0    0  501    0  0.00000000000E+00  0.00000000000E+00 -0.11338273377E+04  0.11338273377E+04  0.50400001928E-02 0.  1.
    10030    2    1    2    0    0  0.00000000000E+00  0.00000000000E+00 -0.16182877096E+03  0.21058259044E+04  0.20995985779E+04 0.  0.
        4    1    3    3  502    0  0.56474487890E+03 -0.16637115720E+03 -0.95266479328E+03  0.11199053359E+04  0.12699999809E+01 0.  1.
       -4    1    3    3    0  502 -0.56474487890E+03  0.16637115720E+03  0.79083602232E+03  0.98592056845E+03  0.12699999809E+01 0. -1.
</event>
<event>
 5   0  0.3130517E-05  0.2095989E+04  0.7818609E-02  0.8563012E-01
       -2   -1    0    0    0  501  0.00000000000E+00  0.00000000000E+00  0.59496713191E+03  0.59496713191E+03  0.25500000920E-02 0. -1.
        2   -1    0    0  501    0  0.00000000000E+00  0.00000000000E+00 -0.18459725427E+04  0.18459725427E+04  0.25500000920E-02 0.  1.
    10030    2    1    2    0    0  0.00000000000E+00  0.00000000000E+00 -0.12510054108E+04  0.24409396746E+04  0.20959894936E+04 0.  0.
        1    1    3    3  502    0 -0.10532867908E+03  0.75580050926E+03 -0.14620256055E+04  0.16491959894E+04  0.50400001928E-02 0.  1.
       -1    1    3    3    0  502  0.10532867908E+03 -0.75580050926E+03  0.21102019470E+03  0.79174368518E+03  0.50400001928E-02 0. -1.
</event>
<event>
 5   0  0.3257130E-05  0.2095828E+04  0.7818609E-02  0.8563083E-01
        2   -1    0    0  501    0  0.00000000000E+00  0.00000000000E+00  0.15612614160E+04  0.15612614160E+04  0.25500000920E-02 0.  1.
       -2   -1    0    0    0  501  0.00000000000E+00  0.00000000000E+00 -0.70335697088E+03  0.70335697089E+03  0.25500000920E-02 0. -1.
    10030    2    1    2    0    0  0.00000000000E+00  0.00000000000E+00  0.85790444507E+03  0.22646183868E+04  0.20958283329E+04 0.  0.
        3    1    3    3  502    0  0.41404536027E+03  0.45179895354E+03  0.13474513642E+04  0.14802638426E+04  0.10100000352E+00 0.  1.
       -3    1    3    3    0  502 -0.41404536027E+03 -0.45179895354E+03 -0.48954691912E+03  0.78435454420E+03  0.10100000352E+00 0. -1.
</event>
<event>
 5   0  0.1435410E-05  0.2110298E+04  0.7818609E-02  0.8556721E-01
       -1   -1    0    0    0  501  0.00000000000E+00  0.00000000000E+00  0.87931937306E+03  0.87931937307E+03  0.50400001928E-02 0.  1.
        1   -1    0    0  501    0  0.00000000000E+00  0.00000000000E+00 -0.12661377155E+04  0.12661377155E+04  0.50400001928E-02 0. -1.
    10030    2    1    2    0    0  0.00000000000E+00  0.00000000000E+00 -0.38681834243E+03  0.21454570886E+04  0.21102980095E+04 0.  0.
        2    1    3    3  502    0 -0.26592271748E+03 -0.50118055601E+03  0.71104329943E+03  0.90965895536E+03  0.25500000920E-02 0.  1.
       -2    1    3    3    0  502  0.26592271748E+03  0.50118055601E+03 -0.10978616419E+04  0.12357981332E+04  0.25500000920E-02 0. -1.
</event>
<event>
 5   0  0.3257130E-05  0.2101894E+04  0.7818609E-02  0.8560410E-01
        2   -1    0    0  501    0  0.00000000000E+00  0.00000000000E+00  0.18352398989E+04  0.18352398989E+04  0.25500000920E-02 0. -1.
       -2   -1    0    0    0  501  0.00000000000E+00  0.00000000000E+00 -0.60182292973E+03  0.60182292974E+03  0.25500000920E-02 0.  1.
    10030    2    1    2    0    0  0.00000000000E+00  0.00000000000E+00  0.12334169692E+04  0.24370628286E+04  0.21018938629E+04 0.  0.
        3    1    3    3  502    0 -0.10360547524E+04 -0.92975860856E+02  0.44303894859E+03  0.11306358746E+04  0.10100000352E+00 0.  1.
       -3    1    3    3    0  502  0.10360547524E+04  0.92975860856E+02  0.79037802059E+03  0.13064269541E+04  0.10100000352E+00 0. -1.
</event>
<event>
 5   0  0.1492552E-05  0.2124765E+04  0.7818609E-02  0.8550412E-01
       -1   -1    0    0    0  501  0.00000000000E+00  0.00000000000E+00  0.67321023934E+03  0.67321023936E+03  0.50400001928E-02 0. -1.
        1   -1    0    0  501    0  0.00000000000E+00  0.00000000000E+00 -0.16765292396E+04  0.16765292396E+04  0.50400001928E-02 0.  1.
    10030    2    1    2    0    0  0.00000000000E+00  0.00000000000E+00 -0.10033190003E+04  0.23497394790E+04  0.21247650700E+04 0.  0.
        4    1    3    3  502    0 -0.57749117450E+03 -0.74267726308E+03 -0.10474651733E+04  0.14079241727E+04  0.12699999809E+01 0.  1.
       -4    1    3    3    0  502  0.57749117450E+03  0.74267726308E+03  0.44146173070E+02  0.94181530632E+03  0.12699999809E+01 0. -1.
</event>
<event>
 5   0  0.1435410E-05  0.2100891E+04  0.7818609E-02  0.8560851E-01
       -1   -1    0    0    0  501  0.00000000000E+00  0.00000000000E+00  0.87594802588E+03  0.87594802590E+03  0.50400001928E-02 0.  1.
        1   -1    0    0  501    0  0.00000000000E+00  0.00000000000E+00 -0.12597044095E+04  0.12597044095E+04  0.50400001928E-02 0. -1.
    10030    2    1    2    0    0  0.00000000000E+00  0.00000000000E+00 -0.38375638364E+03  0.21356524354E+04  0.21008908499E+04 0.  0.
        2    1    3    3  502    0  0.10403373351E+04  0.14220136542E+03 -0.22258716736E+03  0.10733443279E+04  0.25500000920E-02 0.  1.
       -2    1    3    3    0  502 -0.10403373351E+04 -0.14220136542E+03 -0.16116921628E+03  0.10623081076E+04  0.25500000920E-02 0. -1.
</event>
<event>
 5   0  0.1513292E-05  0.2098333E+04  0.7818609E-02  0.8561978E-01
       -1   -1    0    0    0  501  0.00000000000E+00  0.00000000000E+00  0.20843721015E+04  0.20843721015E+04  0.50400001928E-02 0. -1.
        1   -1    0    0  501    0  0.00000000000E+00  0.00000000000E+00 -0.52809660294E+03  0.52809660297E+03  0.50400001928E-02 0.  1.
    10030    2    1    2    0    0  0.00000000000E+00  0.00000000000E+00  0.15562754986E+04  0.26124687045E+04  0.20983325057E+04 0.  0.
        1    1    3    3  502    0 -0.42469785710E+02 -0.63016475326E+02  0.20809412095E+04  0.20823282825E+04  0.50400001928E-02 0. -1.
       -1    1    3    3    0  502  0.42469785710E+02  0.63016475326E+02 -0.52466571087E+03  0.53014042201E+03  0.50400001928E-02 0.  1.
</event>
<event>
 5   0  0.3130517E-05  0.2108440E+04  0.7818609E-02  0.8557535E-01
        2   -1    0    0  501    0  0.00000000000E+00  0.00000000000E+00  0.16609885237E+04  0.16609885237E+04  0.25500000920E-02 0. -1.
       -2   -1    0    0    0  501  0.00000000000E+00  0.00000000000E+00 -0.66910723477E+03  0.66910723477E+03  0.25500000920E-02 0.  1.
    10030    2    1    2    0    0  0.00000000000E+00  0.00000000000E+00  0.99188128891E+03  0.23300957585E+04  0.21084396487E+04 0.  0.
        1    1    3    3  502    0  0.58241384306E+03  0.50960180740E+03 -0.29519484232E+03  0.82827524511E+03  0.50400001928E-02 0.  1.
       -1    1    3    3    0  502 -0.58241384306E+03 -0.50960180740E+03  0.12870761312E+04  0.15018205133E+04  0.50400001928E-02 0. -1.
</event>
<event>
 5   0  0.1513292E-05  0.2093100E+04  0.7818609E-02  0.8564289E-01
        1   -1    0    0  501    0  0.00000000000E+00  0.00000000000E+00  0.10073959991E+04  0.10073959991E+04  0.50400001928E-02 0.  1.
       -1   -1    0    0    0  501  0.00000000000E+00  0.00000000000E+00 -0.10872259282E+04  0.10872259282E+04  0.50400001928E-02 0. -1.
    10030    2    1    2    0    0  0.00000000000E+00  0.00000000000E+00 -0.79829929052E+02  0.20946219273E+04  0.20931001411E+04 0.  0.
        1    1    3    3  502    0  0.15168591743E+03 -0.49606019202E+03 -0.94952175083E+03  0.10819777664E+04  0.50400001928E-02 0. -1.
       -1    1    3    3    0  502 -0.15168591743E+03  0.49606019202E+03  0.86969182178E+03  0.10126441609E+04  0.50400001928E-02 0.  1.
</event>
<event>
 5   0  0.1492552E-05  0.2117067E+04  0.7818609E-02  0.8553762E-01
       -1   -1    0    0    0  501  0.00000000000E+00  0.00000000000E+00  0.15392702643E+04  0.15392702643E+04  0.50400001928E-02 0. -1.
        1   -1    0    0  501    0  0.00000000000E+00  0.00000000000E+00 -0.72793769358E+03  0.72793769360E+03  0.50400001928E-02 0.  1.
    10030    2    1    2    0    0  0.00000000000E+00  0.00000000000E+00  0.81133257070E+03  0.22672079579E+04  0.21170666933E+04 0.  0.
        4    1    3    3  502    0  0.15716052349E+03  0.10302496108E+04  0.20710515739E+03  0.10625478106E+04  0.12699999809E+01 0.  1.
       -4    1    3    3    0  502 -0.15716052349E+03 -0.10302496108E+04  0.60422741331E+03  0.12046601473E+04  0.12699999809E+01 0. -1.
</event>
<event>
 5   0  0.3279789E-05  0.2110385E+04  0.7818609E-02  0.8556682E-01
       -2   -1    0    0    0  501  0.00000000000E+00  0.00000000000E+00  0.66825140294E+03  0.66825140294E+03  0.25500000920E-02 0.  1.
        2   -1    0    0  501    0  0.00000000000E+00  0.00000000000E+00 -0.16661862579E+04  0.16661862579E+04  0.25500000920E-02 0. -1.
    10030    2    1    2    0    0  0.00000000000E+00  0.00000000000E+00 -0.99793485492E+03  0.23344376608E+04  0.21103850875E+04 0.  0.
        2    1    3    3  502    0  0.72140048582E+03  0.20553142082E+03  0.32196139578E+03  0.81628485608E+03  0.25500000920E-02 0.  1.
       -2    1    3    3    0  502 -0.72140048582E+03 -0.20553142082E+03 -0.13198962507E+04  0.15181528047E+04  0.25500000920E-02 0. -1.
</event>
<event>
 5   0  0.3279789E-05  0.2098072E+04  0.7818609E-02  0.8562093E-01
        2   -1    0    0  501    0  0.00000000000E+00  0.00000000000E+00  0.18146772883E+04  0.18146772883E+04  0.25500000920E-02 0. -1.
       -2   -1    0    0    0  501  0.00000000000E+00  0.00000000000E+00 -0.60643081991E+03  0.60643081992E+03  0.25500000920E-02 0.  1.
    10030    2    1    2    0    0  0.00000000000E+00  0.00000000000E+00  0.12082464684E+04  0.24211081082E+04  0.20980717202E+04 0.  0.
        2    1    3    3  502    0 -0.28934978881E+03  0.10000694450E+04  0.45538196341E+03  0.11363251857E+04  0.25500000920E-02 0.  1.
       -2    1    3    3    0  502  0.28934978881E+03 -0.10000694450E+04  0.75286450497E+03  0.12847829225E+04  0.25500000920E-02 0. -1.
</event>
<event>
 5   0  0.1129987E-05  0.2235054E+04  0.7818609E-02  0.8503978E-01
        4   -1    0    0  501    0  0.00000000000E+00  0.00000000000E+00  0.91188554023E+03  0.91188642461E+03  0.12699999809E+01 0. -1.
       -4   -1    0    0    0  501  0.00000000000E+00  0.00000000000E+00 -0.13695412684E+04  0.13695418572E+04  0.12699999809E+01 0.  1.
    10030    2    1    2    0    0  0.00000000000E+00  0.00000000000E+00 -0.45765572814E+03  0.22814282818E+04  0.22350539679E+04 0.  0.
        2    1    3    3  502    0  0.27031020124E+02 -0.81120111098E+03  0.55528293354E+03  0.98342109739E+03  0.25500000920E-02 0. -1.
       -2    1    3    3    0  502 -0.27031020124E+02  0.81120111098E+03 -0.10129386617E+04  0.12980071844E+04  0.25500000920E-02 0.  1.
</event>
<event>
 5   0  0.3130517E-05  0.2095199E+04  0.7818609E-02  0.8563361E-01
        2   -1    0    0  501    0  0.00000000000E+00  0.00000000000E+00  0.15448169587E+04  0.15448169587E+04  0.25500000920E-02 0.  1.
       -2   -1    0    0    0  501  0.00000000000E+00  0.00000000000E+00 -0.71041702522E+03  0.71041702523E+03  0.25500000920E-02 0. -1.
    10030    2    1    2    0    0  0.00000000000E+00  0.00000000000E+00  0.83439993350E+03  0.22552339840E+04  0.20951985761E+04 0.  0.
        1    1    3    3  502    0  0.56146229009E+03 -0.72846660704E+03  0.95706832301E+03  0.13273595126E+04  0.50400001928E-02 0.  1.
       -1    1    3    3    0  502 -0.56146229009E+03  0.72846660704E+03 -0.12266838951E+03  0.92787447135E+03  0.50400001928E-02 0. -1.
</event>
<event>
 5   0  0.1466480E-05  0.2099344E+04  0.7818609E-02  0.8561532E-01
        1   -1    0    0  501    0  0.00000000000E+00  0.00000000000E+00  0.10563393084E+04  0.10563393084E+04  0.50400001928E-02 0.  1.
       -1   -1    0    0    0  501  0.00000000000E+00  0.00000000000E+00 -0.10430467302E+04  0.10430467302E+04  0.50400001928E-02 0. -1.
    10030    2    1    2    0    0  0.00000000000E+00  0.00000000000E+00  0.13292578137E+02  0.20993860386E+04  0.20993439562E+04 0.  0.
        3    1    3    3  502    0 -0.85345992176E+02 -0.13295083687E+03 -0.10310890146E+04  0.10431224423E+04  0.10100000352E+00 0. -1.
       -3    1    3    3    0  502  0.85345992176E+02  0.13295083687E+03  0.10443815928E+04  0.10562635963E+04  0.10100000352E+00 0.  1.
</event>
<event>
 5   0  0.3242231E-05  0.2100974E+04  0.7818609E-02  0.8560814E-01
       -2   -1    0    0    0  501  0.00000000000E+00  0.00000000000E+00  0.92505447254E+03  0.92505447255E+03  0.25500000920E-02 0. -1.
        2   -1    0    0  501    0  0.00000000000E+00  0.00000000000E+00 -0.11929275675E+04  0.11929275675E+04  0.25500000920E-02 0.  1.
    10030    2    1    2    0    0  0.00000000000E+00  0.00000000000E+00 -0.26787309500E+03  0.21179820401E+04  0.21009740425E+04 0.  0.
        4    1    3    3  502    0  0.30312443110E+03  0.56984997012E+03 -0.96944502496E+03  0.11646624741E+04  0.12699999809E+01 0.  1.
       -4    1    3    3    0  502 -0.30312443110E+03 -0.56984997012E+03  0.70157192996E+03  0.95331956603E+03  0.12699999809E+01 0. -1.
</event>
<event>
 5   0  0.3108326E-05  0.2101864E+04  0.7818609E-02  0.8560423E-01
       -2   -1    0    0    0  501  0.00000000000E+00  0.00000000000E+00  0.14437247859E+04  0.14437247859E+04  0.25500000920E-02 0.  1.
        2   -1    0    0  501    0  0.00000000000E+00  0.00000000000E+00 -0.76500581709E+03  0.76500581709E+03  0.25500000920E-02 0. -1.
    10030    2    1    2    0    0  0.00000000000E+00  0.00000000000E+00  0.67871896877E+03  0.22087306030E+04  0.21018638010E+04 0.  0.
        5    1    3    3  502    0 -0.88911417268E+02 -0.33076600708E+03  0.13834162609E+04  0.14251926300E+04  0.46999998093E+01 0.  1.
       -5    1    3    3    0  502  0.88911417268E+02  0.33076600708E+03 -0.70469729214E+03  0.78353797298E+03  0.46999998093E+01 0. -1.
</event>
<event>
 5   0  0.3257130E-05  0.2142037E+04  0.7818609E-02  0.8542949E-01
       -2   -1    0    0    0  501  0.00000000000E+00  0.00000000000E+00  0.60330029064E+03  0.60330029065E+03  0.25500000920E-02 0. -1.
        2   -1    0    0  501    0  0.00000000000E+00  0.00000000000E+00 -0.19013420742E+04  0.19013420742E+04  0.25500000920E-02 0.  1.
    10030    2    1    2    0    0  0.00000000000E+00  0.00000000000E+00 -0.12980417835E+04  0.25046423648E+04  0.21420366252E+04 0.  0.
        3    1    3    3  502    0  0.73886345498E+03 -0.38903197135E+03  0.13519540376E+03  0.84589768131E+03  0.10100000352E+00 0. -1.
       -3    1    3    3    0  502 -0.73886345498E+03  0.38903197135E+03 -0.14332371873E+04  0.16587446835E+04  0.10100000352E+00 0.  1.
</event>
<event>
 5   0  0.1513292E-05  0.2097243E+04  0.7818609E-02  0.8562459E-01
        1   -1    0    0  501    0  0.00000000000E+00  0.00000000000E+00  0.11927766080E+04  0.11927766080E+04  0.50400001928E-02 0.  1.
       -1   -1    0    0    0  501  0.00000000000E+00  0.00000000000E+00 -0.92188878059E+03  0.92188878061E+03  0.50400001928E-02 0. -1.
    10030    2    1    2    0    0  0.00000000000E+00  0.00000000000E+00  0.27088782744E+03  0.21146653886E+04  0.20972433075E+04 0.  0.
        1    1    3    3  502    0 -0.26331615377E+03 -0.91394301708E+03  0.58067761068E+03  0.11143669606E+04  0.50400001928E-02 0.  1.
       -1    1    3    3    0  502  0.26331615377E+03  0.91394301708E+03 -0.30978978325E+03  0.10002984280E+04  0.50400001928E-02 0. -1.
</event>
<event>
 5   0  0.1435410E-05  0.2106266E+04  0.7818609E-02  0.8558488E-01
        1   -1    0    0  501    0  0.00000000000E+00  0.00000000000E+00  0.36326714115E+03  0.36326714118E+03  0.50400001928E-02 0.  1.
       -1   -1    0    0    0  501  0.00000000000E+00  0.00000000000E+00 -0.30530955179E+04  0.30530955179E+04  0.50400001928E-02 0. -1.
    10030    2    1    2    0    0  0.00000000000E+00  0.00000000000E+00 -0.26898283767E+04  0.34163626591E+04  0.21062661565E+04 0.  0.
        2    1    3    3  502    0  0.47941330419E+03 -0.27937747669E+03  0.10693428670E+03  0.56508745553E+03  0.25500000920E-02 0.  1.
       -2    1    3    3    0  502 -0.47941330419E+03  0.27937747669E+03 -0.27967626634E+04  0.28512752036E+04  0.25500000920E-02 0. -1.
</event>
<event>
 5   0  0.1435410E-05  0.2099850E+04  0.7818609E-02  0.8561310E-01
       -1   -1    0    0    0  501  0.00000000000E+00  0.00000000000E+00  0.70695570971E+03  0.70695570973E+03  0.50400001928E-02 0. -1.
        1   -1    0    0  501    0  0.00000000000E+00  0.00000000000E+00 -0.15592802888E+04  0.15592802888E+04  0.50400001928E-02 0.  1.
    10030    2    1    2    0    0  0.00000000000E+00  0.00000000000E+00 -0.85232457911E+03  0.22662359986E+04  0.20998496168E+04 0.  0.
        2    1    3    3  502    0  0.67537110140E+03  0.99994760649E+02 -0.12869966316E+04  0.14568752199E+04  0.25500000920E-02 0.  1.
       -2    1    3    3    0  502 -0.67537110140E+03 -0.99994760649E+02  0.43467205246E+03  0.80936077862E+03  0.25500000920E-02 0. -1.
</event>
<event>
 5   0  0.3279789E-05  0.2163760E+04  0.7818609E-02  0.8533665E-01
       -2   -1    0    0    0  501  0.00000000000E+00  0.00000000000E+00  0.55304448587E+03  0.55304448588E+03  0.25500000920E-02 0.  1.
        2   -1    0    0  501    0  0.00000000000E+00  0.00000000000E+00 -0.21164023416E+04  0.21164023416E+04  0.25500000920E-02 0. -1.
    10030    2    1    2    0    0  0.00000000000E+00  0.00000000000E+00 -0.15633578557E+04  0.26694468275E+04  0.21637602870E+04 0.  0.
        2    1    3    3  502    0 -0.52553998682E+03 -0.48715823635E+03 -0.17816283404E+04  0.19203424092E+04  0.25500000920E-02 0. -1.
       -2    1    3    3    0  502  0.52553998682E+03  0.48715823635E+03  0.21827048473E+03  0.74910441829E+03  0.25500000920E-02 0.  1.
</event>
<event>
 5   0  0.3242231E-05  0.2101971E+04  0.7818609E-02  0.8560376E-01
       -2   -1    0    0    0  501  0.00000000000E+00  0.00000000000E+00  0.49430095641E+03  0.49430095641E+03  0.25500000920E-02 0. -1.
        2   -1    0    0  501    0  0.00000000000E+00  0.00000000000E+00 -0.22346106224E+04  0.22346106224E+04  0.25500000920E-02 0.  1.
    10030    2    1    2    0    0  0.00000000000E+00  0.00000000000E+00 -0.17403096660E+04  0.27289115788E+04  0.21019706638E+04 0.  0.
        4    1    3    3  502    0  0.30896534827E+03 -0.90831473002E+03 -0.31315093300E+03  0.10092375117E+04  0.12699999809E+01 0. -1.
       -4    1    3    3    0  502 -0.30896534827E+03  0.90831473002E+03 -0.14271587330E+04  0.17196740672E+04  0.12699999809E+01 0.  1.
</event>
<event>
 5   0  0.3108326E-05  0.2086705E+04  0.7818609E-02  0.8567123E-01
       -2   -1    0    0    0  501  0.00000000000E+00  0.00000000000E+00  0.10582144685E+04  0.10582144685E+04  0.25500000920E-02 0. -1.
        2   -1    0    0  501    0  0.00000000000E+00  0.00000000000E+00 -0.10286994504E+04  0.10286994504E+04  0.25500000920E-02 0.  1.
    10030    2    1    2    0    0  0.00000000000E+00  0.00000000000E+00  0.29515018150E+02  0.20869139189E+04  0.20867051945E+04 0.  0.
        5    1    3    3  502    0 -0.48525514045E+03 -0.53813630686E+03  0.76549851014E+03  0.10540746155E+04  0.46999998093E+01 0. -1.
       -5    1    3    3    0  502  0.48525514045E+03  0.53813630686E+03 -0.73598349199E+03  0.10328393034E+04  0.46999998093E+01 0.  1.
</event>
<event>
 5   0  0.1513292E-05  0.2106843E+04  0.7818609E-02  0.8558235E-01
       -1   -1    0    0    0  501  0.00000000000E+00  0.00000000000E+00  0.96378176348E+03  0.96378176349E+03  0.50400001928E-02 0.  1.
        1   -1    0    0  501    0  0.00000000000E+00  0.00000000000E+00 -0.11513981268E+04  0.11513981268E+04  0.50400001928E-02 0. -1.
    10030    2    1    2    0    0  0.00000000000E+00  0.00000000000E+00 -0.18761636328E+03  0.21151798903E+04  0.21068426777E+04 0.  0.
        1    1    3    3  502    0 -0.46114179813E+02 -0.60457506933E+03 -0.95864548849E+03  0.11343009762E+04  0.50400001928E-02 0. -1.
       -1    1    3    3    0  502  0.46114179813E+02  0.60457506933E+03  0.77102912521E+03  0.98087891403E+03  0.50400001928E-02 0.  1.
</event>
<event>
 5   0  0.1492552E-05  0.2099693E+04  0.7818609E-02  0.8561379E-01
       -1   -1    0    0    0  501  0.00000000000E+00  0.00000000000E+00  0.74622966065E+03  0.74622966067E+03  0.50400001928E-02 0. -1.
        1   -1    0    0  501    0  0.00000000000E+00  0.00000000000E+00 -0.14769948915E+04  0.14769948915E+04  0.50400001928E-02 0.  1.
    10030    2    1    2    0    0  0.00000000000E+00  0.00000000000E+00 -0.73076523088E+03  0.22232245522E+04  0.20996927363E+04 0.  0.
        4    1    3    3  502    0  0.60779608412E+03 -0.78803787911E+03 -0.71934981377E+03  0.12279599123E+04  0.12699999809E+01 0. -1.
       -4    1    3    3    0  502 -0.60779608412E+03  0.78803787911E+03 -0.11415417115E+02  0.99526463990E+03  0.12699999809E+01 0.  1.
</event>
<event>
 5   0  0.3279789E-05  0.2100177E+04  0.7818609E-02  0.8561165E-01
        2   -1    0    0  501    0  0.00000000000E+00  0.00000000000E+00  0.14677319917E+04  0.14677319917E+04  0.25500000920E-02 0.  1.
       -2   -1    0    0    0  501  0.00000000000E+00  0.00000000000E+00 -0.75128563508E+03  0.75128563508E+03  0.25500000920E-02 0. -1.
    10030    2    1    2    0    0  0.00000000000E+00  0.00000000000E+00  0.71644635664E+03  0.22190176268E+04  0.21001770988E+04 0.  0.
        2    1    3    3  502    0  0.60733144654E+03 -0.29711924777E+02 -0.54634749817E+03  0.81745328502E+03  0.25500000920E-02 0. -1.
       -2    1    3    3    0  502 -0.60733144654E+03  0.29711924777E+02  0.12627938548E+04  0.14015643418E+04  0.25500000920E-02 0.  1.
</event>
<event>
 5   0  0.3130517E-05  0.2118823E+04  0.7818609E-02  0.8552997E-01
       -2   -1    0    0    0  501  0.00000000000E+00  0.00000000000E+00  0.16021761840E+04  0.16021761840E+04  0.25500000920E-02 0.  1.
        2   -1    0    0  501    0  0.00000000000E+00  0.00000000000E+00 -0.70051762835E+03  0.70051762835E+03  0.25500000920E-02 0. -1.
    10030    2    1    2    0    0  0.00000000000E+00  0.00000000000E+00  0.90165855569E+03  0.23026938124E+04  0.21188229380E+04 0.  0.
        1    1    3    3  502    0 -0.97119149554E+03  0.29680516575E+03  0.77875312199E+03  0.12797510119E+04  0.50400001928E-02 0.  1.
       -1    1    3    3    0  502  0.97119149554E+03 -0.29680516575E+03  0.12290543371E+03  0.10229428005E+04  0.50400001928E-02 0. -1.
</event>
<event>
 5   0  0.3130517E-05  0.2100535E+04  0.7818609E-02  0.8561008E-01
       -2   -1    0    0    0  501  0.00000000000E+00  0.00000000000E+00  0.11806631471E+04  0.11806631471E+04  0.25500000920E-02 0. -1.
        2   -1    0    0  501    0  0.00000000000E+00  0.00000000000E+00 -0.93427336234E+03  0.93427336234E+03  0.25500000920E-02 0.  1.
    10030    2    1    2    0    0  0.00000000000E+00  0.00000000000E+00  0.24638978481E+03  0.21149365095E+04  0.21005352920E+04 0.  0.
        1    1    3    3  502    0 -0.25709808234E+03  0.51573504825E+03 -0.76087973332E+03  0.95447369400E+03  0.50400001928E-02 0.  1.
       -1    1    3    3    0  502  0.25709808234E+03 -0.51573504825E+03  0.10072695181E+04  0.11604628155E+04  0.50400001928E-02 0. -1.
</event>
<event>
 5   0  0.1435410E-05  0.2098909E+04  0.7818609E-02  0.8561724E-01
       -1   -1    0    0    0  501  0.00000000000E+00  0.00000000000E+00  0.47639020708E+03  0.47639020711E+03  0.50400001928E-02 0.  1.
        1   -1    0    0  501    0  0.00000000000E+00  0.00000000000E+00 -0.23118762641E+04  0.23118762641E+04  0.50400001928E-02 0. -1.
    10030    2    1    2    0    0  0.00000000000E+00  0.00000000000E+00 -0.18354860570E+04  0.27882664712E+04  0.20989094428E+04 0.  0.
        2    1    3    3  502    0 -0.10389488173E+03 -0.35432406372E+03 -0.22227346544E+04  0.22531952939E+04  0.25500000920E-02 0. -1.
       -2    1    3    3    0  502  0.10389488173E+03  0.35432406372E+03  0.38724859740E+03  0.53507117730E+03  0.25500000920E-02 0.  1.
</event>
<event>
 5   0  0.3108326E-05  0.2088968E+04  0.7818609E-02  0.8566119E-01
       -2   -1    0    0    0  501  0.00000000000E+00  0.00000000000E+00  0.43372745416E+03  0.43372745416E+03  0.25500000920E-02 0. -1.
        2   -1    0    0  501    0  0.00000000000E+00  0.00000000000E+00 -0.25152820237E+04  0.25152820237E+04  0.25500000920E-02 0.  1.
    10030    2    1    2    0    0  0.00000000000E+00  0.00000000000E+00 -0.20815545695E+04  0.29490094778E+04  0.20889680406E+04 0.  0.
        5    1    3    3  502    0  0.30012326398E+03  0.70576225009E+03 -0.20417462378E+04  0.21810373947E+04  0.46999998093E+01 0.  1.
       -5    1    3    3    0  502 -0.30012326398E+03 -0.70576225009E+03 -0.39808331671E+02  0.76797208316E+03  0.46999998093E+01 0. -1.
</event>
<event>
 5   0  0.1492552E-05  0.2101972E+04  0.7818609E-02  0.8560375E-01
        1   -1    0    0  501    0  0.00000000000E+00  0.00000000000E+00  0.72867678750E+03  0.72867678751E+03  0.50400001928E-02 0.  1.
       -1   -1    0    0    0  501  0.00000000000E+00  0.00000000000E+00 -0.15158600861E+04  0.15158600861E+04  0.50400001928E-02 0. -1.
    10030    2    1    2    0    0  0.00000000000E+00  0.00000000000E+00 -0.78718329863E+03  0.22445368736E+04  0.21019724621E+04 0.  0.
        4    1    3    3  502    0  0.16235952242E+03  0.95998777418E+03  0.29020304106E+02  0.97405386506E+03  0.12699999809E+01 0.  1.
       -4    1    3    3    0  502 -0.16235952242E+03 -0.95998777418E+03 -0.81620360273E+03  0.12704830086E+04  0.12699999809E+01 0. -1.
</event>
<event>
 5   0  0.1513292E-05  0.2100251E+04  0.7818609E-02  0.8561133E-01
        1   -1    0    0  501    0  0.00000000000E+00  0.00000000000E+00  0.13938977881E+04  0.13938977881E+04  0.50400001928E-02 0.  1.
       -1   -1    0    0    0  501  0.00000000000E+00  0.00000000000E+00 -0.79113629890E+03  0.79113629891E+03  0.50400001928E-02 0. -1.
    10030    2    1    2    0    0  0.00000000000E+00  0.00000000000E+00  0.60276148920E+03  0.21850340870E+04  0.21002505918E+04 0.  0.
        1    1    3    3  502    0 -0.92810904975E+03 -0.36486882709E+03  0.64367213364E+03  0.11869412306E+04  0.50400001928E-02 0.  1.
       -1    1    3    3    0  502  0.92810904975E+03  0.36486882709E+03 -0.40910644444E+02  0.99809285643E+03  0.50400001928E-02 0. -1.
</event>
<event>
 5   0  0.1513292E-05  0.2104010E+04  0.7818609E-02  0.8559479E-01
       -1   -1    0    0    0  501  0.00000000000E+00  0.00000000000E+00  0.71028609570E+03  0.71028609572E+03  0.50400001928E-02 0.  1.
        1   -1    0    0  501    0  0.00000000000E+00  0.00000000000E+00 -0.15581249859E+04  0.15581249859E+04  0.50400001928E-02 0. -1.
    10030    2    1    2    0    0  0.00000000000E+00  0.00000000000E+00 -0.84783889020E+03  0.22684110816E+04  0.21040099932E+04 0.  0.
        1    1    3    3  502    0  0.10990270525E+03  0.55072092965E+03  0.53516350515E+03  0.77573972713E+03  0.50400001928E-02 0.  1.
       -1    1    3    3    0  502 -0.10990270525E+03 -0.55072092965E+03 -0.13830023954E+04  0.14926713545E+04  0.50400001928E-02 0. -1.
</event>
<event>
 5   0  0.1435410E-05  0.2097828E+04  0.7818609E-02  0.8562201E-01
       -1   -1    0    0    0  501  0.00000000000E+00  0.00000000000E+00  0.12001943323E+04  0.12001943323E+04  0.50400001928E-02 0.  1.
        1   -1    0    0  501    0  0.00000000000E+00  0.00000000000E+00 -0.91670199774E+03  0.91670199775E+03  0.50400001928E-02 0. -1.
    10030    2    1    2    0    0  0.00000000000E+00  0.00000000000E+00  0.28349233455E+03  0.21168963300E+04  0.20978279644E+04 0.  0.
        2    1    3    3  502    0 -0.45050199916E+03 -0.24741237561E+03 -0.78092574817E+03  0.93488499775E+03  0.25500000920E-02 0. -1.
       -2    1    3    3    0  502  0.45050199916E+03  0.24741237561E+03  0.10644180827E+04  0.11820113323E+04  0.25500000920E-02 0.  1.
</event>
<event>
 5   0  0.1466480E-05  0.2162008E+04  0.7818609E-02  0.8534410E-01
        1   -1    0    0  501    0  0.00000000000E+00  0.00000000000E+00  0.15633803682E+04  0.15633803682E+04  0.50400001928E-02 0. -1.
       -1   -1    0    0    0  501  0.00000000000E+00  0.00000000000E+00 -0.74746347345E+03  0.74746347346E+03  0.50400001928E-02 0.  1.
    10030    2    1    2    0    0  0.00000000000E+00  0.00000000000E+00  0.81591689475E+03  0.23108438417E+04  0.21620080669E+04 0.  0.
        3    1    3    3  502    0  0.87152497093E+03 -0.38718519741E+03  0.95202033090E+03  0.13475202680E+04  0.10100000352E+00 0. -1.
       -3    1    3    3    0  502 -0.87152497093E+03  0.38718519741E+03 -0.13610343614E+03  0.96332357367E+03  0.10100000352E+00 0.  1.
</event>
<event>
 5   0  0.3257130E-05  0.2100742E+04  0.7818609E-02  0.8560917E-01
        2   -1    0    0  501    0  0.00000000000E+00  0.00000000000E+00  0.15189512253E+04  0.15189512253E+04  0.25500000920E-02 0.  1.
       -2   -1    0    0    0  501  0.00000000000E+00  0.00000000000E+00 -0.72634267746E+03  0.72634267746E+03  0.25500000920E-02 0. -1.
    10030    2    1    2    0    0  0.00000000000E+00  0.00000000000E+00  0.79260854783E+03  0.22452939027E+04  0.21007418689E+04 0.  0.
        3    1    3    3  502    0 -0.47929384492E+03 -0.26658789599E+03 -0.56115346795E+03  0.78465592514E+03  0.10100000352E+00 0. -1.
       -3    1    3    3    0  502  0.47929384492E+03  0.26658789599E+03  0.13537620158E+04  0.14606379776E+04  0.10100000352E+00 0.  1.
</event>
<event>
 5   0  0.1466480E-05  0.2097048E+04  0.7818609E-02  0.8562545E-01
       -1   -1    0    0    0  501  0.00000000000E+00  0.00000000000E+00  0.12506643318E+04  0.12506643318E+04  0.50400001928E-02 0.  1.
        1   -1    0    0  501    0  0.00000000000E+00  0.00000000000E+00 -0.87905474207E+03  0.87905474208E+03  0.50400001928E-02 0. -1.
    10030    2    1    2    0    0  0.00000000000E+00  0.00000000000E+00  0.37160958971E+03  0.21297190739E+04  0.20970478408E+04 0.  0.
        3    1    3    3  502    0 -0.10112139284E+04  0.19616565498E+03 -0.13123972173E+02  0.10301489319E+04  0.10100000352E+00 0.  1.
       -3    1    3    3    0  502  0.10112139284E+04 -0.19616565498E+03  0.38473356188E+03  0.10995701419E+04  0.10100000352E+00 0. -1.
</event>
<event>
 5   0  0.3242231E-05  0.2098376E+04  0.7818609E-02  0.8561959E-01
        2   -1    0    0  501    0  0.00000000000E+00  0.00000000000E+00  0.12864289036E+04  0.12864289036E+04  0.25500000920E-02 0.  1.
       -2   -1    0    0    0  501  0.00000000000E+00  0.00000000000E+00 -0.85569894781E+03  0.85569894782E+03  0.25500000920E-02 0. -1.
    10030    2    1    2    0    0  0.00000000000E+00  0.00000000000E+00  0.43072995582E+03  0.21421278515E+04  0.20983763812E+04 0.  0.
        4    1    3    3  502    0 -0.85672489079E+03 -0.25834346455E+03 -0.34384790512E+03  0.95861977808E+03  0.12699999809E+01 0. -1.
       -4    1    3    3    0  502  0.85672489079E+03  0.25834346455E+03  0.77457786095E+03  0.11835080734E+04  0.12699999809E+01 0.  1.
</event>
<event>
 5   0  0.3257130E-05  0.2065138E+04  0.7818609E-02  0.8576758E-01
        2   -1    0    0  501    0  0.00000000000E+00  0.00000000000E+00  0.15808532878E+04  0.15808532878E+04  0.25500000920E-02 0. -1.
       -2   -1    0    0    0  501  0.00000000000E+00  0.00000000000E+00 -0.67444479960E+03  0.67444479960E+03  0.25500000920E-02 0.  1.
    10030    2    1    2    0    0  0.00000000000E+00  0.00000000000E+00  0.90640848821E+03  0.22552980874E+04  0.20651375537E+04 0.  0.
        3    1    3    3  502    0  0.75823230258E+03  0.27347054293E+03 -0.25158673360E+03  0.84439224135E+03  0.10100000352E+00 0.  1.
       -3    1    3    3    0  502 -0.75823230258E+03 -0.27347054293E+03  0.11579952218E+04  0.14109058461E+04  0.10100000352E+00 0. -1.
</event>
<event>
 5   0  0.3279789E-05  0.2130615E+04  0.7818609E-02  0.8547876E-01
        2   -1    0    0  501    0  0.00000000000E+00  0.00000000000E+00  0.15449111151E+04  0.15449111151E+04  0.25500000920E-02 0. -1.
       -2   -1    0    0    0  501  0.00000000000E+00  0.00000000000E+00 -0.73459263851E+03  0.73459263851E+03  0.25500000920E-02 0.  1.
    10030    2    1    2    0    0  0.00000000000E+00  0.00000000000E+00  0.81031847661E+03  0.22795037536E+04  0.21306152467E+04 0.  0.
        2    1    3    3  502    0 -0.65149684472E+03 -0.75234168279E+03 -0.14153299239E+01  0.99522266328E+03  0.25500000920E-02 0.  1.
       -2    1    3    3    0  502  0.65149684472E+03  0.75234168279E+03  0.81173380653E+03  0.12842810903E+04  0.25500000920E-02 0. -1.
</event>
<event>
 5   0  0.1453430E-05  0.2095255E+04  0.7818609E-02  0.8563337E-01
       -1   -1    0    0    0  501  0.00000000000E+00  0.00000000000E+00  0.99151733326E+03  0.99151733327E+03  0.50400001928E-02 0.  1.
        1   -1    0    0  501    0  0.00000000000E+00  0.00000000000E+00 -0.11069128252E+04  0.11069128252E+04  0.50400001928E-02 0. -1.
    10030    2    1    2    0    0  0.00000000000E+00  0.00000000000E+00 -0.11539549196E+03  0.20984301585E+04  0.20952548796E+04 0.  0.
        5    1    3    3  502    0  0.50297753435E+03 -0.85206830966E+03  0.28705401651E+03  0.10302567169E+04  0.46999998093E+01 0.  1.
       -5    1    3    3    0  502 -0.50297753435E+03  0.85206830966E+03 -0.40244950847E+03  0.10681734416E+04  0.46999998093E+01 0. -1.
</event>
<event>
 5   0  0.1513292E-05  0.2099664E+04  0.7818609E-02  0.8561391E-01
        1   -1    0    0  501    0  0.00000000000E+00  0.00000000000E+00  0.82491626059E+03  0.82491626060E+03  0.50400001928E-02 0.  1.
       -1   -1    0    0    0  501  0.00000000000E+00  0.00000000000E+00 -0.13360720061E+04  0.13360720061E+04  0.50400001928E-02 0. -1.
    10030    2    1    2    0    0  0.00000000000E+00  0.00000000000E+00 -0.51115574551E+03  0.21609882667E+04  0.20996642810E+04 0.  0.
        1    1    3    3  502    0  0.63801514972E+03  0.80397267696E+03 -0.48273224135E+03  0.11342247632E+04  0.50400001928E-02 0. -1.
       -1    1    3    3    0  502 -0.63801514972E+03 -0.80397267696E+03 -0.28423504168E+02  0.10267635035E+04  0.50400001928E-02 0.  1.
</event>
<event>
 5   0  0.3130517E-05  0.2105226E+04  0.7818609E-02  0.8558945E-01
       -2   -1    0    0    0  501  0.00000000000E+00  0.00000000000E+00  0.66621950901E+03  0.66621950901E+03  0.25500000920E-02 0. -1.
        2   -1    0    0  501    0  0.00000000000E+00  0.00000000000E+00 -0.16631059747E+04  0.16631059747E+04  0.25500000920E-02 0.  1.
    10030    2    1    2    0    0  0.00000000000E+00  0.00000000000E+00 -0.99688646565E+03  0.23293254837E+04  0.21052255422E+04 0.  0.
        1    1    3    3  502    0  0.99173699925E+03 -0.34105066580E+03 -0.59824357737E+03  0.12073745112E+04  0.50400001928E-02 0.  1.
       -1    1    3    3    0  502 -0.99173699925E+03  0.34105066580E+03 -0.39864288828E+03  0.11219509725E+04  0.50400001928E-02 0. -1.
</event>
<event>
 5   0  0.3242231E-05  0.2101554E+04  0.7818609E-02  0.8560559E-01
        2   -1    0    0  501    0  0.00000000000E+00  0.00000000000E+00  0.86984032662E+03  0.86984032662E+03  0.25500000920E-02 0. -1.
       -2   -1    0    0    0  501  0.00000000000E+00  0.00000000000E+00 -0.12693507114E+04  0.12693507114E+04  0.25500000920E-02 0.  1.
    10030    2    1    2    0    0  0.00000000000E+00  0.00000000000E+00 -0.39951038479E+03  0.21391910380E+04  0.21015541272E+04 0.  0.
        4    1    3    3  502    0  0.13912163046E+03  0.41352477670E+03 -0.11727896317E+04  0.12513171869E+04  0.12699999809E+01 0.  1.
       -4    1    3    3    0  502 -0.13912163046E+03 -0.41352477670E+03  0.77327924691E+03  0.88787385118E+03  0.12699999809E+01 0. -1.
</event>
<event>
 5   0  0.3108326E-05  0.2118930E+04  0.7818609E-02  0.8552950E-01
       -2   -1    0    0    0  501  0.00000000000E+00  0.00000000000E+00  0.12015092080E+04  0.12015092080E+04  0.25500000920E-02 0. -1.
        2   -1    0    0  501    0  0.00000000000E+00  0.00000000000E+00 -0.93421363594E+03  0.93421363594E+03  0.25500000920E-02 0.  1.
    10030    2    1    2    0    0  0.00000000000E+00  0.00000000000E+00  0.26729557206E+03  0.21357228439E+04  0.21189301884E+04 0.  0.
        5    1    3    3  502    0  0.72190831856E+03  0.38613630339E+03  0.81142873954E+03  0.11526888368E+04  0.46999998093E+01 0. -1.
       -5    1    3    3    0  502 -0.72190831856E+03 -0.38613630339E+03 -0.54413316748E+03  0.98303400712E+03  0.46999998093E+01 0.  1.
</event>
<event>
 5   0  0.3257130E-05  0.2098344E+04  0.7818609E-02  0.8561973E-01
        2   -1    0    0  501    0  0.00000000000E+00  0.00000000000E+00  0.13535464807E+04  0.13535464807E+04  0.25500000920E-02 0.  1.
       -2   -1    0    0    0  501  0.00000000000E+00  0.00000000000E+00 -0.81324279442E+03  0.81324279443E+03  0.25500000920E-02 0. -1.
    10030    2    1    2    0    0  0.00000000000E+00  0.00000000000E+00  0.54030368624E+03  0.21667892751E+04  0.20983440350E+04 0.  0.
        3    1    3    3  502    0  0.15173147746E+03 -0.97210482620E+03  0.64638753417E+03  0.11772115736E+04  0.10100000352E+00 0.  1.
       -3    1    3    3    0  502 -0.15173147746E+03  0.97210482620E+03 -0.10608384794E+03  0.98957770153E+03  0.10100000352E+00 0. -1.
</event>
<event>
 5   0  0.3242231E-05  0.2110492E+04  0.7818609E-02  0.8556636E-01
        2   -1    0    0  501    0  0.00000000000E+00  0.00000000000E+00  0.13480737565E+04  0.13480737565E+04  0.25500000920E-02 0.  1.
       -2   -1    0    0    0  501  0.00000000000E+00  0.00000000000E+00 -0.82602594276E+03  0.82602594276E+03  0.25500000920E-02 0. -1.
    10030    2    1    2    0    0  0.00000000000E+00  0.00000000000E+00  0.52204781376E+03  0.21740996993E+04  0.21104917869E+04 0.  0.
        4    1    3    3  502    0  0.69408798083E+03  0.60801732206E+03  0.78840984899E+03  0.12136864883E+04  0.12699999809E+01 0. -1.
       -4    1    3    3    0  502 -0.69408798083E+03 -0.60801732206E+03 -0.26636203523E+03  0.96041321095E+03  0.12699999809E+01 0.  1.
</event>
<event>
 5   0  0.1453430E-05  0.2058824E+04  0.7818609E-02  0.8579602E-01
        1   -1    0    0  501    0  0.00000000000E+00  0.00000000000E+00  0.80958446398E+03  0.80958446400E+03  0.50400001928E-02 0.  1.
       -1   -1    0    0    0  501  0.00000000000E+00  0.00000000000E+00 -0.13089296426E+04  0.13089296426E+04  0.50400001928E-02 0. -1.
    10030    2    1    2    0    0  0.00000000000E+00  0.00000000000E+00 -0.49934517864E+03  0.21185141066E+04  0.20588240363E+04 0.  0.
        5    1    3    3  502    0  0.76810729253E+03  0.14069004100E+03  0.44050785806E+03  0.89657780671E+03  0.46999998093E+01 0.  1.
       -5    1    3    3    0  502 -0.76810729253E+03 -0.14069004100E+03 -0.93985303670E+03  0.12219362999E+04  0.46999998093E+01 0. -1.
</event>
<event>
 5   0  0.1435410E-05  0.2101709E+04  0.7818609E-02  0.8560491E-01
        1   -1    0    0  501    0  0.00000000000E+00  0.00000000000E+00  0.11359894403E+04  0.11359894403E+04  0.50400001928E-02 0.  1.
       -1   -1    0    0    0  501  0.00000000000E+00  0.00000000000E+00 -0.97209999539E+03  0.97209999540E+03  0.50400001928E-02 0. -1.
    10030    2    1    2    0    0  0.00000000000E+00  0.00000000000E+00  0.16388944491E+03  0.21080894357E+04  0.21017091423E+04 0.  0.
        2    1    3    3  502    0 -0.21810126614E+03 -0.77279457208E+03  0.76187847977E+03  0.11069048879E+04  0.25500000920E-02 0.  1.
       -2    1    3    3    0  502  0.21810126614E+03  0.77279457208E+03 -0.59798903486E+03  0.10011845478E+04  0.25500000920E-02 0. -1.
</event>
<event>
 5   0  0.3242231E-05  0.2092345E+04  0.7818609E-02  0.8564623E-01
        2   -1    0    0  501    0  0.00000000000E+00  0.00000000000E+00  0.20883089168E+04  0.20883089168E+04  0.25500000920E-02 0. -1.
       -2   -1    0    0    0  501  0.00000000000E+00  0.00000000000E+00 -0.52409722551E+03  0.52409722551E+03  0.25500000920E-02 0.  1.
    10030    2    1    2    0    0  0.00000000000E+00  0.00000000000E+00  0.15642116912E+04  0.26124061423E+04  0.20923450091E+04 0.  0.
        4    1    3    3  502    0  0.67845065910E+03 -0.11272343355E+03 -0.20217420001E+03  0.71685276686E+03  0.12699999809E+01 0.  1.
       -4    1    3    3    0  502 -0.67845065910E+03  0.11272343355E+03  0.17663858912E+04  0.18955533754E+04  0.12699999809E+01 0. -1.
</event>
<event>
 5   0  0.3257130E-05  0.2103904E+04  0.7818609E-02  0.8559525E-01
        2   -1    0    0  501    0  0.00000000000E+00  0.00000000000E+00  0.25168995876E+04  0.25168995876E+04  0.25500000920E-02 0. -1.
       -2   -1    0    0    0  501  0.00000000000E+00  0.00000000000E+00 -0.43966930823E+03  0.43966930823E+03  0.25500000920E-02 0.  1.
    10030    2    1    2    0    0  0.00000000000E+00  0.00000000000E+00  0.20772302794E+04  0.29565688958E+04  0.21039044661E+04 0.  0.
        3    1    3    3  502    0 -0.21794469897E+03 -0.48503686184E+02  0.24832174997E+04  0.24932351795E+04  0.10100000352E+00 0. -1.
       -3    1    3    3    0  502  0.21794469897E+03  0.48503686184E+02 -0.40598722034E+03  0.46333371630E+03  0.10100000352E+00 0.  1.
</event>
<event>
 5   0  0.1129987E-05  0.2089832E+04  0.7818609E-02  0.8565736E-01
        3   -1    0    0  501    0  0.00000000000E+00  0.00000000000E+00  0.14179367584E+04  0.14179367620E+04  0.10100000352E+00 0.  1.
       -3   -1    0    0    0  501  0.00000000000E+00  0.00000000000E+00 -0.77002663528E+03  0.77002664190E+03  0.10100000352E+00 0. -1.
    10030    2    1    2    0    0  0.00000000000E+00  0.00000000000E+00  0.64791012312E+03  0.21879634039E+04  0.20898316509E+04 0.  0.
        4    1    3    3  502    0  0.55653034349E+03 -0.39745703143E+03  0.11510836163E+04  0.13389149411E+04  0.12699999809E+01 0.  1.
       -4    1    3    3    0  502 -0.55653034349E+03  0.39745703143E+03 -0.50317349313E+03  0.84904846278E+03  0.12699999809E+01 0. -1.
</event>
<event>
 5   0  0.3279789E-05  0.2012930E+04  0.7818609E-02  0.8600599E-01
        2   -1    0    0  501    0  0.00000000000E+00  0.00000000000E+00  0.14522398424E+04  0.14522398424E+04  0.25500000920E-02 0.  1.
       -2   -1    0    0    0  501  0.00000000000E+00  0.00000000000E+00 -0.69752341888E+03  0.69752341889E+03  0.25500000920E-02 0. -1.
    10030    2    1    2    0    0  0.00000000000E+00  0.00000000000E+00  0.75471642350E+03  0.21497632613E+04  0.20129295069E+04 0.  0.
        2    1    3    3  502    0 -0.21404958481E+03  0.83069834915E+03  0.93953885550E+03  0.12722461370E+04  0.25500000920E-02 0.  1.
       -2    1    3    3    0  502  0.21404958481E+03 -0.83069834915E+03 -0.18482243200E+03  0.87751712429E+03  0.25500000920E-02 0. -1.
</event>
<event>
 5   0  0.3242231E-05  0.2112778E+04  0.7818609E-02  0.8555635E-01
       -2   -1    0    0    0  501  0.00000000000E+00  0.00000000000E+00  0.10442645685E+04  0.10442645685E+04  0.25500000920E-02 0.  1.
        2   -1    0    0  501    0  0.00000000000E+00  0.00000000000E+00 -0.10686545081E+04  0.10686545081E+04  0.25500000920E-02 0. -1.
    10030    2    1    2    0    0  0.00000000000E+00  0.00000000000E+00 -0.24389939542E+02  0.21129190766E+04  0.21127783024E+04 0.  0.
        4    1    3    3  502    0 -0.67600011504E+03 -0.76540924311E+03  0.25824671780E+03  0.10533377640E+04  0.12699999809E+01 0.  1.
       -4    1    3    3    0  502  0.67600011504E+03  0.76540924311E+03 -0.28263665734E+03  0.10595813126E+04  0.12699999809E+01 0. -1.
</event>
<event>
 5   0  0.1513292E-05  0.2101373E+04  0.7818609E-02  0.8560639E-01
        1   -1    0    0  501    0  0.00000000000E+00  0.00000000000E+00  0.17372006978E+04  0.17372006979E+04  0.50400001928E-02 0. -1.
       -1   -1    0    0    0  501  0.00000000000E+00  0.00000000000E+00 -0.63547194603E+03  0.63547194605E+03  0.50400001928E-02 0.  1.
    10030    2    1    2    0    0  0.00000000000E+00  0.00000000000E+00  0.11017287518E+04  0.23726726439E+04  0.21013731778E+04 0.  0.
        1    1    3    3  502    0  0.13654665613E+02 -0.32262205369E+03 -0.57805559716E+03  0.66213270034E+03  0.50400001928E-02 0.  1.
       -1    1    3    3    0  502 -0.13654665613E+02  0.32262205369E+03  0.16797843490E+04  0.17105399436E+04  0.50400001928E-02 0. -1.
</event>
<event>
 5   0  0.3279789E-05  0.2098151E+04  0.7818609E-02  0.8562059E-01
       -2   -1    0    0    0  501  0.00000000000E+00  0.00000000000E+00  0.42869751557E+03  0.42869751558E+03  0.25500000920E-02 0. -1.
        2   -1    0    0  501    0  0.00000000000E+00  0.00000000000E+00 -0.25672154514E+04  0.25672154514E+04  0.25500000920E-02 0.  1.
    10030    2    1    2    0    0  0.00000000000E+00  0.00000000000E+00 -0.21385179358E+04  0.29959129670E+04  0.20981505055E+04 0.  0.
        2    1    3    3  502    0  0.47318086712E+03 -0.50098213650E+03  0.60191480257E+02  0.69174146067E+03  0.25500000920E-02 0. -1.
       -2    1    3    3    0  502 -0.47318086712E+03  0.50098213650E+03 -0.21987094161E+04  0.23041715063E+04  0.25500000920E-02 0.  1.
</event>
<event>
 5   0  0.1453430E-05  0.2097856E+04  0.7818609E-02  0.8562188E-01
       -1   -1    0    0    0  501  0.00000000000E+00  0.00000000000E+00  0.54141415247E+03  0.54141415249E+03  0.50400001928E-02 0. -1.
        1   -1    0    0  501    0  0.00000000000E+00  0.00000000000E+00 -0.20321787498E+04  0.20321787498E+04  0.50400001928E-02 0.  1.
    10030    2    1    2    0    0  0.00000000000E+00  0.00000000000E+00 -0.14907645973E+04  0.25735929023E+04  0.20978563683E+04 0.  0.
        5    1    3    3  502    0 -0.69848302193E+03  0.77258795183E+03 -0.89790507936E+03  0.13751459184E+04  0.46999998093E+01 0.  1.
       -5    1    3    3    0  502  0.69848302193E+03 -0.77258795183E+03 -0.59285951794E+03  0.11984469839E+04  0.46999998093E+01 0. -1.
</event>
<event>
 5   0  0.1466480E-05  0.2076733E+04  0.7818609E-02  0.8571563E-01
        1   -1    0    0  501    0  0.00000000000E+00  0.00000000000E+00  0.13528092528E+04  0.13528092528E+04  0.50400001928E-02 0.  1.
       -1   -1    0    0    0  501  0.00000000000E+00  0.00000000000E+00 -0.79701158272E+03  0.79701158273E+03  0.50400001928E-02 0. -1.
    10030    2    1    2    0    0  0.00000000000E+00  0.00000000000E+00  0.55579767006E+03  0.21498208355E+04  0.20767326681E+04 0.  0.
        3    1    3    3  502    0  0.52778419314E+03 -0.14096161286E+03  0.11920273290E+04  0.13112419663E+04  0.10100000352E+00 0.  1.
       -3    1    3    3    0  502 -0.52778419314E+03  0.14096161286E+03 -0.63622965894E+03  0.83857886925E+03  0.10100000352E+00 0. -1.
</event>
<event>
 5   0  0.3108326E-05  0.2089794E+04  0.7818609E-02  0.8565752E-01
       -2   -1    0    0    0  501  0.00000000000E+00  0.00000000000E+00  0.69477316822E+03  0.69477316823E+03  0.25500000920E-02 0.  1.
        2   -1    0    0  501    0  0.00000000000E+00  0.00000000000E+00 -0.15714625325E+04  0.15714625325E+04  0.25500000920E-02 0. -1.
    10030    2    1    2    0    0  0.00000000000E+00  0.00000000000E+00 -0.87668936425E+03  0.22662357007E+04  0.20897942506E+04 0.  0.
        5    1    3    3  502    0 -0.42639411100E+03  0.25567049955E+03  0.55827460761E+03  0.74757740050E+03  0.46999998093E+01 0.  1.
       -5    1    3    3    0  502  0.42639411100E+03 -0.25567049955E+03 -0.14349639719E+04  0.15186583002E+04  0.46999998093E+01 0. -1.
</event>
<event>
 5   0  0.1453430E-05  0.2093568E+04  0.7818609E-02  0.8564082E-01
        1   -1    0    0  501    0  0.00000000000E+00  0.00000000000E+00  0.16737103812E+04  0.16737103812E+04  0.50400001928E-02 0. -1.
       -1   -1    0    0    0  501  0.00000000000E+00  0.00000000000E+00 -0.65468690216E+03  0.65468690218E+03  0.50400001928E-02 0.  1.
    10030    2    1    2    0    0  0.00000000000E+00  0.00000000000E+00  0.10190234791E+04  0.23283972834E+04  0.20935675433E+04 0.  0.
        5    1    3    3  502    0  0.23721959988E+02 -0.60571794483E+02 -0.65242497515E+03  0.65567683493E+03  0.46999998093E+01 0.  1.
       -5    1    3    3    0  502 -0.23721959988E+02  0.60571794483E+02  0.16714484542E+04  0.16727204485E+04  0.46999998093E+01 0. -1.
</event>
<event>
 5   0  0.3257130E-05  0.2095560E+04  0.7818609E-02  0.8563202E-01
        2   -1    0    0  501    0  0.00000000000E+00  0.00000000000E+00  0.10248429797E+04  0.10248429798E+04  0.25500000920E-02 0.  1.
       -2   -1    0    0    0  501  0.00000000000E+00  0.00000000000E+00 -0.10712302096E+04  0.10712302096E+04  0.25500000920E-02 0. -1.
    10030    2    1    2    0    0  0.00000000000E+00  0.00000000000E+00 -0.46387229854E+02  0.20960731894E+04  0.20955598393E+04 0.  0.
        3    1    3    3  502    0  0.10393306697E+04 -0.13234269599E+03 -0.34147080215E+02  0.10482790008E+04  0.10100000352E+00 0.  1.
       -3    1    3    3    0  502 -0.10393306697E+04  0.13234269599E+03 -0.12240149639E+02  0.10477941886E+04  0.10100000352E+00 0. -1.
</event>
<event>
 5   0  0.1513292E-05  0.2121363E+04  0.7818609E-02  0.8551891E-01
       -1   -1    0    0    0  501  0.00000000000E+00  0.00000000000E+00  0.18671445606E+04  0.18671445606E+04  0.50400001928E-02 0.  1.
        1   -1    0    0  501    0  0.00000000000E+00  0.00000000000E+00 -0.60254879343E+03  0.60254879345E+03  0.50400001928E-02 0. -1.
    10030    2    1    2    0    0  0.00000000000E+00  0.00000000000E+00  0.12645957671E+04  0.24696933540E+04  0.21213634315E+04 0.  0.
        1    1    3    3  502    0 -0.11365874589E+03  0.37157712806E+03  0.17812986694E+04  0.18231875444E+04  0.50400001928E-02 0.  1.
       -1    1    3    3    0  502  0.11365874589E+03 -0.37157712806E+03 -0.51670290225E+03  0.64650580959E+03  0.50400001928E-02 0. -1.
</event>
<event>
 5   0  0.1453430E-05  0.2086456E+04  0.7818609E-02  0.8567233E-01
        1   -1    0    0  501    0  0.00000000000E+00  0.00000000000E+00  0.75787390461E+03  0.75787390462E+03  0.50400001928E-02 0. -1.
       -1   -1    0    0    0  501  0.00000000000E+00  0.00000000000E+00 -0.14360232637E+04  0.14360232637E+04  0.50400001928E-02 0.  1.
    10030    2    1    2    0    0  0.00000000000E+00  0.00000000000E+00 -0.67814935907E+03  0.21938971683E+04  0.20864559022E+04 0.  0.
        5    1    3    3  502    0 -0.49258116319E+03  0.55055203148E+03  0.43544139170E+03  0.85754010828E+03  0.46999998093E+01 0. -1.
       -5    1    3    3    0  502  0.49258116319E+03 -0.55055203148E+03 -0.11135907508E+04  0.13363570600E+04  0.46999998093E+01 0.  1.
</event>
<event>
 5   0  0.3257130E-05  0.2117023E+04  0.7818609E-02  0.8553781E-01
        2   -1    0    0  501    0  0.00000000000E+00  0.00000000000E+00  0.62783726232E+03  0.62783726232E+03  0.25500000920E-02 0. -1.
       -2   -1    0    0    0  501  0.00000000000E+00  0.00000000000E+00 -0.17846131444E+04  0.17846131444E+04  0.25500000920E-02 0.  1.
    10030    2    1    2    0    0  0.00000000000E+00  0.00000000000E+00 -0.11567758820E+04  0.24124504067E+04  0.21170230333E+04 0.  0.
        3    1    3    3  502    0 -0.82096481472E+03 -0.30253765849E+03  0.10051365915E+03  0.88069022232E+03  0.10100000352E+00 0. -1.
       -3    1    3    3    0  502  0.82096481472E+03  0.30253765849E+03 -0.12572895412E+04  0.15317601844E+04  0.10100000352E+00 0.  1.
</event>
<event>
 5   0  0.3108326E-05  0.1973694E+04  0.7818609E-02  0.8619019E-01
       -2   -1    0    0    0  501  0.00000000000E+00  0.00000000000E+00  0.63853700215E+03  0.63853700216E+03  0.25500000920E-02 0.  1.
        2   -1    0    0  501    0  0.00000000000E+00  0.00000000000E+00 -0.15251530140E+04  0.15251530140E+04  0.25500000920E-02 0. -1.
    10030    2    1    2    0    0  0.00000000000E+00  0.00000000000E+00 -0.88661601188E+03  0.21636900162E+04  0.19736936271E+04 0.  0.
        5    1    3    3  502    0  0.22303568484E+03  0.96083229568E+03 -0.47621285713E+03  0.10953284404E+04  0.46999998093E+01 0.  1.
       -5    1    3    3    0  502 -0.22303568484E+03 -0.96083229568E+03 -0.41040315475E+03  0.10683615758E+04  0.46999998093E+01 0. -1.
</event>
<event>
 5   0  0.3108326E-05  0.2100773E+04  0.7818609E-02  0.8560903E-01
       -2   -1    0    0    0  501  0.00000000000E+00  0.00000000000E+00  0.52378314209E+03  0.52378314210E+03  0.25500000920E-02 0.  1.
        2   -1    0    0  501    0  0.00000000000E+00  0.00000000000E+00 -0.21064289891E+04  0.21064289891E+04  0.25500000920E-02 0. -1.
    10030    2    1    2    0    0  0.00000000000E+00  0.00000000000E+00 -0.15826458470E+04  0.26302121312E+04  0.21007731858E+04 0.  0.
        5    1    3    3  502    0 -0.98756460225E+03  0.91185156317E+02 -0.35816830027E+03  0.10544691544E+04  0.46999998093E+01 0.  1.
       -5    1    3    3    0  502  0.98756460225E+03 -0.91185156317E+02 -0.12244775467E+04  0.15757429767E+04  0.46999998093E+01 0. -1.
</event>
<event>
 5   0  0.1492552E-05  0.2002827E+04  0.7818609E-02  0.8605300E-01
       -1   -1    0    0    0  501  0.00000000000E+00  0.00000000000E+00  0.48287094045E+03  0.48287094048E+03  0.50400001928E-02 0. -1.
        1   -1    0    0  501    0  0.00000000000E+00  0.00000000000E+00 -0.20768060593E+04  0.20768060593E+04  0.50400001928E-02 0.  1.
    10030    2    1    2    0    0  0.00000000000E+00  0.00000000000E+00 -0.15939351189E+04  0.25596769998E+04  0.20028272966E+04 0.  0.
        4    1    3    3  502    0  0.90734025747E+03 -0.31209890311E+03 -0.43064784908E+03  0.10517277456E+04  0.12699999809E+01 0. -1.
       -4    1    3    3    0  502 -0.90734025747E+03  0.31209890311E+03 -0.11632872698E+04  0.15079492541E+04  0.12699999809E+01 0.  1.
</event>
<event>
 5   0  0.1129987E-05  0.2096371E+04  0.7818609E-02  0.8562844E-01
        3   -1    0    0  501    0  0.00000000000E+00  0.00000000000E+00  0.72308549436E+03  0.72308550142E+03  0.10100000352E+00 0. -1.
       -3   -1    0    0    0  501  0.00000000000E+00  0.00000000000E+00 -0.15194505723E+04  0.15194505757E+04  0.10100000352E+00 0.  1.
    10030    2    1    2    0    0  0.00000000000E+00  0.00000000000E+00 -0.79636507795E+03  0.22425360771E+04  0.20963708450E+04 0.  0.
        2    1    3    3  502    0  0.12932766795E+03  0.10036788343E+04 -0.10601725687E+03  0.10175148682E+04  0.25500000920E-02 0. -1.
       -2    1    3    3    0  502 -0.12932766795E+03 -0.10036788343E+04 -0.69034782108E+03  0.12250212089E+04  0.25500000920E-02 0.  1.
</event>
<event>
 5   0  0.1492552E-05  0.2101465E+04  0.7818609E-02  0.8560598E-01
        1   -1    0    0  501    0  0.00000000000E+00  0.00000000000E+00  0.23622427064E+04  0.23622427064E+04  0.50400001928E-02 0. -1.
       -1   -1    0    0    0  501  0.00000000000E+00  0.00000000000E+00 -0.46736875119E+03  0.46736875121E+03  0.50400001928E-02 0.  1.
    10030    2    1    2    0    0  0.00000000000E+00  0.00000000000E+00  0.18948739552E+04  0.28296114576E+04  0.21014646547E+04 0.  0.
        4    1    3    3  502    0  0.21734708868E+03  0.90779445385E+03  0.29789268583E+03  0.97983273704E+03  0.12699999809E+01 0.  1.
       -4    1    3    3    0  502 -0.21734708868E+03 -0.90779445385E+03  0.15969812693E+04  0.18497787205E+04  0.12699999809E+01 0. -1.
</event>
<event>
 5   0  0.1466480E-05  0.2089202E+04  0.7818609E-02  0.8566015E-01
       -1   -1    0    0    0  501  0.00000000000E+00  0.00000000000E+00  0.16211912601E+04  0.16211912601E+04  0.50400001928E-02 0. -1.
        1   -1    0    0  501    0  0.00000000000E+00  0.00000000000E+00 -0.67308002741E+03  0.67308002743E+03  0.50400001928E-02 0.  1.
    10030    2    1    2    0    0  0.00000000000E+00  0.00000000000E+00  0.94811123266E+03  0.22942712875E+04  0.20892021997E+04 0.  0.
        3    1    3    3  502    0 -0.31077972920E+03  0.41571370915E+03  0.14695632503E+04  0.15585307456E+04  0.10100000352E+00 0. -1.
       -3    1    3    3    0  502  0.31077972920E+03 -0.41571370915E+03 -0.52145201767E+03  0.73574054190E+03  0.10100000352E+00 0.  1.
</event>
<event>
 5   0  0.1492552E-05  0.2093943E+04  0.7818609E-02  0.8563916E-01
        1   -1    0    0  501    0  0.00000000000E+00  0.00000000000E+00  0.10075440687E+04  0.10075440687E+04  0.50400001928E-02 0.  1.
       -1   -1    0    0    0  501  0.00000000000E+00  0.00000000000E+00 -0.10879417507E+04  0.10879417507E+04  0.50400001928E-02 0. -1.
    10030    2    1    2    0    0  0.00000000000E+00  0.00000000000E+00 -0.80397681940E+02  0.20954858194E+04  0.20939429391E+04 0.  0.
        4    1    3    3  502    0  0.17423692410E+03 -0.10164443859E+04  0.14057187850E+03  0.10408072642E+04  0.12699999809E+01 0. -1.
       -4    1    3    3    0  502 -0.17423692410E+03  0.10164443859E+04 -0.22096956044E+03  0.10546785552E+04  0.12699999809E+01 0.  1.
</event>
<event>
 5   0  0.3257130E-05  0.2102475E+04  0.7818609E-02  0.8560154E-01
        2   -1    0    0  501    0  0.00000000000E+00  0.00000000000E+00  0.93572107795E+03  0.93572107795E+03  0.25500000920E-02 0. -1.
       -2   -1    0    0    0  501  0.00000000000E+00  0.00000000000E+00 -0.11810150344E+04  0.11810150344E+04  0.25500000920E-02 0.  1.
    10030    2    1    2    0    0  0.00000000000E+00  0.00000000000E+00 -0.24529395642E+03  0.21167361123E+04  0.21024753611E+04 0.  0.
        3    1    3    3  502    0 -0.84066049689E+03  0.18004622104E+03  0.48641415155E+03  0.98778816037E+03  0.10100000352E+00 0. -1.
       -3    1    3    3    0  502  0.84066049689E+03 -0.18004622104E+03 -0.73170810797E+03  0.11289479519E+04  0.10100000352E+00 0.  1.
</event>
<event>
 5   0  0.3108326E-05  0.2139351E+04  0.7818609E-02  0.8544104E-01
       -2   -1    0    0    0  501  0.00000000000E+00  0.00000000000E+00  0.44428232868E+03  0.44428232869E+03  0.25500000920E-02 0.  1.
        2   -1    0    0  501    0  0.00000000000E+00  0.00000000000E+00 -0.25754017209E+04  0.25754017210E+04  0.25500000920E-02 0. -1.
    10030    2    1    2    0    0  0.00000000000E+00  0.00000000000E+00 -0.21311193923E+04  0.30196840496E+04  0.21393508117E+04 0.  0.
        5    1    3    3  502    0 -0.80531718948E+03  0.25438788344E+03 -0.19921443159E+04  0.21637721776E+04  0.46999998093E+01 0. -1.
       -5    1    3    3    0  502  0.80531718948E+03 -0.25438788344E+03 -0.13897507632E+03  0.85591187207E+03  0.46999998093E+01 0.  1.
</event>
<event>
 5   0  0.3108326E-05  0.2104937E+04  0.7818609E-02  0.8559072E-01
        2   -1    0    0  501    0  0.00000000000E+00  0.00000000000E+00  0.11396322802E+04  0.11396322802E+04  0.25500000920E-02 0. -1.
       -2   -1    0    0    0  501  0.00000000000E+00  0.00000000000E+00 -0.97197144221E+03  0.97197144221E+03  0.25500000920E-02 0.  1.
    10030    2    1    2    0    0  0.00000000000E+00  0.00000000000E+00  0.16766083795E+03  0.21116037224E+04  0.21049370831E+04 0.  0.
        5    1    3    3  502    0  0.56623565683E+03  0.87631545852E+03  0.22253016372E+03  0.10668145882E+04  0.46999998093E+01 0. -1.
       -5    1    3    3    0  502 -0.56623565683E+03 -0.87631545852E+03 -0.54869325774E+02  0.10447891341E+04  0.46999998093E+01 0.  1.
</event>
<event>
 5   0  0.1513292E-05  0.2099044E+04  0.7818609E-02  0.8561664E-01
        1   -1    0    0  501    0  0.00000000000E+00  0.00000000000E+00  0.11358486371E+04  0.11358486371E+04  0.50400001928E-02 0. -1.
       -1   -1    0    0    0  501  0.00000000000E+00  0.00000000000E+00 -0.96975660718E+03  0.96975660720E+03  0.50400001928E-02 0.  1.
    10030    2    1    2    0    0  0.00000000000E+00  0.00000000000E+00  0.16609202989E+03  0.21056052443E+04  0.20990442783E+04 0.  0.
        1    1    3    3  502    0 -0.68543443431E+02 -0.54601349727E+03 -0.81342950601E+03  0.98208782913E+03  0.50400001928E-02 0.  1.
       -1    1    3    3    0  502  0.68543443431E+02  0.54601349727E+03  0.97952153590E+03  0.11235174152E+04  0.50400001928E-02 0. -1.
</event>
<event>
 5   0  0.3130517E-05  0.2088760E+04  0.7818609E-02  0.8566211E-01
       -2   -1    0    0    0  501  0.00000000000E+00  0.00000000000E+00  0.81729420151E+03  0.81729420151E+03  0.25500000920E-02 0.  1.
        2   -1    0    0  501    0  0.00000000000E+00  0.00000000000E+00 -0.13345619770E+04  0.13345619770E+04  0.25500000920E-02 0. -1.
    10030    2    1    2    0    0  0.00000000000E+00  0.00000000000E+00 -0.51726777552E+03  0.21518561785E+04  0.20887601733E+04 0.  0.
        1    1    3    3  502    0 -0.39113837671E+02 -0.19115789650E+03 -0.13156179058E+04  0.13300081608E+04  0.50400001928E-02 0. -1.
       -1    1    3    3    0  502  0.39113837671E+02  0.19115789650E+03  0.79835013029E+03  0.82184801773E+03  0.50400001928E-02 0.  1.
</event>
<event>
 5   0  0.3130517E-05  0.2093752E+04  0.7818609E-02  0.8564001E-01
        2   -1    0    0  501    0  0.00000000000E+00  0.00000000000E+00  0.10732933672E+04  0.10732933672E+04  0.25500000920E-02 0. -1.
       -2   -1    0    0    0  501  0.00000000000E+00  0.00000000000E+00 -0.10211092124E+04  0.10211092124E+04  0.25500000920E-02 0.  1.
    10030    2    1    2    0    0  0.00000000000E+00  0.00000000000E+00  0.52184154841E+02  0.20944025796E+04  0.20937523682E+04 0.  0.
        1    1    3    3  502    0 -0.27397354460E+03 -0.90759665819E+03 -0.41806895193E+03  0.10361345693E+04  0.50400001928E-02 0.  1.
       -1    1    3    3    0  502  0.27397354460E+03  0.90759665819E+03  0.47025310677E+03  0.10582680103E+04  0.50400001928E-02 0. -1.
</event>
<event>
 5   0  0.1466480E-05  0.2117412E+04  0.7818609E-02  0.8553612E-01
       -1   -1    0    0    0  501  0.00000000000E+00  0.00000000000E+00  0.12975464989E+04  0.12975464989E+04  0.50400001928E-02 0. -1.
        1   -1    0    0  501    0  0.00000000000E+00  0.00000000000E+00 -0.86382883382E+03  0.86382883384E+03  0.50400001928E-02 0.  1.
    10030    2    1    2    0    0  0.00000000000E+00  0.00000000000E+00  0.43371766511E+03  0.21613753328E+04  0.21174117021E+04 0.  0.
        3    1    3    3  502    0  0.57566830369E+03 -0.42133656107E+03  0.10153666129E+04  0.12409221823E+04  0.10100000352E+00 0. -1.
       -3    1    3    3    0  502 -0.57566830369E+03  0.42133656107E+03 -0.58164894783E+03  0.92045315051E+03  0.10100000352E+00 0.  1.
</event>
<event>
 5   0  0.3242231E-05  0.2110923E+04  0.7818609E-02  0.8556447E-01
       -2   -1    0    0    0  501  0.00000000000E+00  0.00000000000E+00  0.93735975620E+03  0.93735975620E+03  0.25500000920E-02 0.  1.
        2   -1    0    0  501    0  0.00000000000E+00  0.00000000000E+00 -0.11884431112E+04  0.11884431112E+04  0.25500000920E-02 0. -1.
    10030    2    1    2    0    0  0.00000000000E+00  0.00000000000E+00 -0.25108335499E+03  0.21258028674E+04  0.21109227792E+04 0.  0.
        4    1    3    3  502    0 -0.40681030977E+03  0.90750991207E+03  0.23040176272E+03  0.10208601539E+04  0.12699999809E+01 0.  1.
       -4    1    3    3    0  502  0.40681030977E+03 -0.90750991207E+03 -0.48148511771E+03  0.11049427135E+04  0.12699999809E+01 0. -1.
</event>
<event>
 5   0  0.1435410E-05  0.2099959E+04  0.7818609E-02  0.8561261E-01
       -1   -1    0    0    0  501  0.00000000000E+00  0.00000000000E+00  0.10616677340E+04  0.10616677340E+04  0.50400001928E-02 0. -1.
        1   -1    0    0  501    0  0.00000000000E+00  0.00000000000E+00 -0.10384201990E+04  0.10384201990E+04  0.50400001928E-02 0.  1.
    10030    2    1    2    0    0  0.00000000000E+00  0.00000000000E+00  0.23247535021E+02  0.21000879330E+04  0.20999592564E+04 0.  0.
        2    1    3    3  502    0 -0.32698532107E+03 -0.13998095612E+03  0.99958265244E+03  0.10609804651E+04  0.25500000920E-02 0. -1.
       -2    1    3    3    0  502  0.32698532107E+03  0.13998095612E+03 -0.97633511742E+03  0.10391074679E+04  0.25500000920E-02 0.  1.
</event>
<event>
 5   0  0.3279789E-05  0.2091951E+04  0.7818609E-02  0.8564797E-01
        2   -1    0    0  501    0  0.00000000000E+00  0.00000000000E+00  0.63440853110E+03  0.63440853111E+03  0.25500000920E-02 0. -1.
       -2   -1    0    0    0  501  0.00000000000E+00  0.00000000000E+00 -0.17245437001E+04  0.17245437001E+04  0.25500000920E-02 0.  1.
    10030    2    1    2    0    0  0.00000000000E+00  0.00000000000E+00 -0.10901351690E+04  0.23589522312E+04  0.20919514675E+04 0.  0.
        2    1    3    3  502    0 -0.79341915060E+03 -0.50353192760E+03 -0.27084169305E+02  0.94010207046E+03  0.25500000920E-02 0. -1.
       -2    1    3    3    0  502  0.79341915060E+03  0.50353192760E+03 -0.10630509997E+04  0.14188501607E+04  0.25500000920E-02 0.  1.
</event>
<event>
 5   0  0.1513292E-05  0.2101400E+04  0.7818609E-02  0.8560627E-01
        1   -1    0    0  501    0  0.00000000000E+00  0.00000000000E+00  0.18609964679E+04  0.18609964679E+04  0.50400001928E-02 0. -1.
       -1   -1    0    0    0  501  0.00000000000E+00  0.00000000000E+00 -0.59321495687E+03  0.59321495689E+03  0.50400001928E-02 0.  1.
    10030    2    1    2    0    0  0.00000000000E+00  0.00000000000E+00  0.12677815110E+04  0.24542114248E+04  0.21014004278E+04 0.  0.
        1    1    3    3  502    0  0.35484809335E+03 -0.53983428544E+03  0.16016457088E+04  0.17270226407E+04  0.50400001928E-02 0. -1.
       -1    1    3    3    0  502 -0.35484809335E+03  0.53983428544E+03 -0.33386419777E+03  0.72718878406E+03  0.50400001928E-02 0.  1.
</event>
<event>
 5   0  0.3279789E-05  0.2076340E+04  0.7818609E-02  0.8571738E-01
       -2   -1    0    0    0  501  0.00000000000E+00  0.00000000000E+00  0.48206959756E+03  0.48206959756E+03  0.25500000920E-02 0.  1.
        2   -1    0    0  501    0  0.00000000000E+00  0.00000000000E+00 -0.22357698184E+04  0.22357698184E+04  0.25500000920E-02 0. -1.
    10030    2    1    2    0    0  0.00000000000E+00  0.00000000000E+00 -0.17537002208E+04  0.27178394159E+04  0.20763397184E+04 0.  0.
        2    1    3    3  502    0  0.92170066393E+03  0.31655041963E+03 -0.40843298465E+03  0.10566710865E+04  0.25500000920E-02 0.  1.
       -2    1    3    3    0  502 -0.92170066393E+03 -0.31655041963E+03 -0.13452672362E+04  0.16611683294E+04  0.25500000920E-02 0. -1.
</event>
<event>
 5   0  0.3108326E-05  0.2105380E+04  0.7818609E-02  0.8558877E-01
       -2   -1    0    0    0  501  0.00000000000E+00  0.00000000000E+00  0.98708256206E+03  0.98708256207E+03  0.25500000920E-02 0. -1.
        2   -1    0    0  501    0  0.00000000000E+00  0.00000000000E+00 -0.11226583784E+04  0.11226583785E+04  0.25500000920E-02 0.  1.
    10030    2    1    2    0    0  0.00000000000E+00  0.00000000000E+00 -0.13557581639E+03  0.21097409405E+04  0.21053802588E+04 0.  0.
        5    1    3    3  502    0  0.20588488628E+03 -0.76550007374E+03 -0.76186634372E+03  0.10994732216E+04  0.46999998093E+01 0.  1.
       -5    1    3    3    0  502 -0.20588488628E+03  0.76550007374E+03  0.62629052734E+03  0.10102677189E+04  0.46999998093E+01 0. -1.
</event>
<event>
 5   0  0.3108326E-05  0.2062220E+04  0.7818609E-02  0.8578071E-01
       -2   -1    0    0    0  501  0.00000000000E+00  0.00000000000E+00  0.64901153826E+03  0.64901153827E+03  0.25500000920E-02 0. -1.
        2   -1    0    0  501    0  0.00000000000E+00  0.00000000000E+00 -0.16381649661E+04  0.16381649661E+04  0.25500000920E-02 0.  1.
    10030    2    1    2    0    0  0.00000000000E+00  0.00000000000E+00 -0.98915342779E+03  0.22871765043E+04  0.20622201285E+04 0.  0.
        5    1    3    3  502    0  0.43475611499E+03  0.58903935784E+03 -0.12998558392E+04  0.14918537252E+04  0.46999998093E+01 0.  1.
       -5    1    3    3    0  502 -0.43475611499E+03 -0.58903935784E+03  0.31070241140E+03  0.79532277916E+03  0.46999998093E+01 0. -1.
</event>
<event>
 5   0  0.3108326E-05  0.2100794E+04  0.7818609E-02  0.8560894E-01
       -2   -1    0    0    0  501  0.00000000000E+00  0.00000000000E+00  0.10626845283E+04  0.10626845283E+04  0.25500000920E-02 0.  1.
        2   -1    0    0  501    0  0.00000000000E+00  0.00000000000E+00 -0.10382512659E+04  0.10382512659E+04  0.25500000920E-02 0. -1.
    10030    2    1    2    0    0  0.00000000000E+00  0.00000000000E+00  0.24433262383E+02  0.21009357941E+04  0.21007937135E+04 0.  0.
        5    1    3    3  502    0  0.23989369070E+03  0.10225974760E+04  0.46738392518E+01  0.10503801766E+04  0.46999998093E+01 0.  1.
       -5    1    3    3    0  502 -0.23989369070E+03 -0.10225974760E+04  0.19759423132E+02  0.10505556175E+04  0.46999998093E+01 0. -1.
</event>
<event>
 5   0  0.1513292E-05  0.2098561E+04  0.7818609E-02  0.8561878E-01
       -1   -1    0    0    0  501  0.00000000000E+00  0.00000000000E+00  0.10092295147E+04  0.10092295148E+04  0.50400001928E-02 0.  1.
        1   -1    0    0  501    0  0.00000000000E+00  0.00000000000E+00 -0.10909204609E+04  0.10909204609E+04  0.50400001928E-02 0. -1.
    10030    2    1    2    0    0  0.00000000000E+00  0.00000000000E+00 -0.81690946133E+02  0.21001499757E+04  0.20985605804E+04 0.  0.
        1    1    3    3  502    0 -0.33286433576E+03 -0.41509705735E+03 -0.94590030732E+03  0.10852795144E+04  0.50400001928E-02 0. -1.
       -1    1    3    3    0  502  0.33286433576E+03  0.41509705735E+03  0.86420936119E+03  0.10148704612E+04  0.50400001928E-02 0.  1.
</event>
<event>
 5   0  0.1466480E-05  0.2097168E+04  0.7818609E-02  0.8562492E-01
        1   -1    0    0  501    0  0.00000000000E+00  0.00000000000E+00  0.12124427710E+04  0.12124427710E+04  0.50400001928E-02 0.  1.
       -1   -1    0    0    0  501  0.00000000000E+00  0.00000000000E+00 -0.90687036987E+03  0.90687036988E+03  0.50400001928E-02 0. -1.
    10030    2    1    2    0    0  0.00000000000E+00  0.00000000000E+00  0.30557240117E+03  0.21193131409E+04  0.20971680183E+04 0.  0.
        3    1    3    3  502    0 -0.50582609124E+03 -0.78249823587E+03  0.63886942441E+03  0.11297423049E+04  0.10100000352E+00 0.  1.
       -3    1    3    3    0  502  0.50582609124E+03  0.78249823587E+03 -0.33329702325E+03  0.98957083608E+03  0.10100000352E+00 0. -1.
</event>
<event>
 5   0  0.1466480E-05  0.2084922E+04  0.7818609E-02  0.8567915E-01
       -1   -1    0    0    0  501  0.00000000000E+00  0.00000000000E+00  0.52563124202E+03  0.52563124204E+03  0.50400001928E-02 0.  1.
        1   -1    0    0  501    0  0.00000000000E+00  0.00000000000E+00 -0.20674656125E+04  0.20674656125E+04  0.50400001928E-02 0. -1.
    10030    2    1    2    0    0  0.00000000000E+00  0.00000000000E+00 -0.15418343705E+04  0.25930968545E+04  0.20849215983E+04 0.  0.
        3    1    3    3  502    0  0.47062159331E+03  0.69372109082E+03 -0.15416244632E+04  0.17548047275E+04  0.10100000352E+00 0. -1.
       -3    1    3    3    0  502 -0.47062159331E+03 -0.69372109082E+03 -0.20990723945E+00  0.83829212700E+03  0.10100000352E+00 0.  1.
</event>
<event>
 5   0  0.3130517E-05  0.2106375E+04  0.7818609E-02  0.8558440E-01
       -2   -1    0    0    0  501  0.00000000000E+00  0.00000000000E+00  0.72944212145E+03  0.72944212146E+03  0.25500000920E-02 0.  1.
        2   -1    0    0  501    0  0.00000000000E+00  0.00000000000E+00 -0.15206193569E+04  0.15206193569E+04  0.25500000920E-02 0. -1.
    10030    2    1    2    0    0  0.00000000000E+00  0.00000000000E+00 -0.79117723542E+03  0.22500614783E+04  0.21063749045E+04 0.  0.
        1    1    3    3  502    0  0.49076149453E+03  0.18858941439E+03 -0.13704137639E+04  0.14678033574E+04  0.50400001928E-02 0. -1.
       -1    1    3    3    0  502 -0.49076149453E+03 -0.18858941439E+03  0.57923652850E+03  0.78225812090E+03  0.50400001928E-02 0.  1.
</event>
<event>
 5   0  0.1453430E-05  0.2090126E+04  0.7818609E-02  0.8565605E-01
        1   -1    0    0  501    0  0.00000000000E+00  0.00000000000E+00  0.11283065248E+04  0.11283065248E+04  0.50400001928E-02 0.  1.
       -1   -1    0    0    0  501  0.00000000000E+00  0.00000000000E+00 -0.96796124574E+03  0.96796124576E+03  0.50400001928E-02 0. -1.
    10030    2    1    2    0    0  0.00000000000E+00  0.00000000000E+00  0.16034527904E+03  0.20962677706E+04  0.20901263018E+04 0.  0.
        5    1    3    3  502    0 -0.75881767479E+03  0.43210950977E+03  0.65597804678E+03  0.10921777236E+04  0.46999998093E+01 0.  1.
       -5    1    3    3    0  502  0.75881767479E+03 -0.43210950977E+03 -0.49563276774E+03  0.10040900470E+04  0.46999998093E+01 0. -1.
</event>
<event>
 5   0  0.3130517E-05  0.2096030E+04  0.7818609E-02  0.8562994E-01
        2   -1    0    0  501    0  0.00000000000E+00  0.00000000000E+00  0.26250570870E+04  0.26250570870E+04  0.25500000920E-02 0. -1.
       -2   -1    0    0    0  501  0.00000000000E+00  0.00000000000E+00 -0.41840454428E+03  0.41840454429E+03  0.25500000920E-02 0.  1.
    10030    2    1    2    0    0  0.00000000000E+00  0.00000000000E+00  0.22066525427E+04  0.30434616312E+04  0.20960303568E+04 0.  0.
        1    1    3    3  502    0  0.13904036500E+03 -0.22020798525E+03 -0.37067139744E+03  0.45301331633E+03  0.50400001928E-02 0.  1.
       -1    1    3    3    0  502 -0.13904036500E+03  0.22020798525E+03  0.25773239401E+04  0.25904483149E+04  0.50400001928E-02 0. -1.
</event>
<event>
 5   0  0.3257130E-05  0.2109916E+04  0.7818609E-02  0.8556888E-01
        2   -1    0    0  501    0  0.00000000000E+00  0.00000000000E+00  0.14446611158E+04  0.14446611158E+04  0.25500000920E-02 0.  1.
       -2   -1    0    0    0  501  0.00000000000E+00  0.00000000000E+00 -0.77037914357E+03  0.77037914357E+03  0.25500000920E-02 0. -1.
    10030    2    1    2    0    0  0.00000000000E+00  0.00000000000E+00  0.67428197222E+03  0.22150402594E+04  0.21099163899E+04 0.  0.
        3    1    3    3  502    0 -0.39666843668E+03 -0.32332484861E+03 -0.63134740798E+03  0.81270189255E+03  0.10100000352E+00 0. -1.
       -3    1    3    3    0  502  0.39666843668E+03  0.32332484861E+03  0.13056293802E+04  0.14023383668E+04  0.10100000352E+00 0.  1.
</event>
<event>
 5   0  0.3279789E-05  0.2107194E+04  0.7818609E-02  0.8558081E-01
        2   -1    0    0  501    0  0.00000000000E+00  0.00000000000E+00  0.10485465408E+04  0.10485465408E+04  0.25500000920E-02 0.  1.
       -2   -1    0    0    0  501  0.00000000000E+00  0.00000000000E+00 -0.10586718415E+04  0.10586718415E+04  0.25500000920E-02 0. -1.
    10030    2    1    2    0    0  0.00000000000E+00  0.00000000000E+00 -0.10125300680E+02  0.21072183822E+04  0.21071940558E+04 0.  0.
        2    1    3    3  502    0 -0.99026752108E+01  0.87928173994E+03 -0.58544186530E+03  0.10563979453E+04  0.25500000920E-02 0. -1.
       -2    1    3    3    0  502  0.99026752108E+01 -0.87928173994E+03  0.57531656462E+03  0.10508204369E+04  0.25500000920E-02 0.  1.
</event>
<event>
 5   0  0.1435410E-05  0.2113137E+04  0.7818609E-02  0.8555478E-01
       -1   -1    0    0    0  501  0.00000000000E+00  0.00000000000E+00  0.66098211537E+03  0.66098211539E+03  0.50400001928E-02 0. -1.
        1   -1    0    0  501    0  0.00000000000E+00  0.00000000000E+00 -0.16889072055E+04  0.16889072055E+04  0.50400001928E-02 0.  1.
    10030    2    1    2    0    0  0.00000000000E+00  0.00000000000E+00 -0.10279250901E+04  0.23498893209E+04  0.21131374374E+04 0.  0.
        2    1    3    3  502    0  0.22028372948E+03  0.79655565783E+03  0.21805220312E+03  0.85473539811E+03  0.25500000920E-02 0. -1.
       -2    1    3    3    0  502 -0.22028372948E+03 -0.79655565783E+03 -0.12459772932E+04  0.14951539227E+04  0.25500000920E-02 0.  1.
</event>
<event>
 5   0  0.3108326E-05  0.2083181E+04  0.7818609E-02  0.8568689E-01
        2   -1    0    0  501    0  0.00000000000E+00  0.00000000000E+00  0.29025831331E+04  0.29025831331E+04  0.25500000920E-02 0.  1.
       -2   -1    0    0    0  501  0.00000000000E+00  0.00000000000E+00 -0.37377406709E+03  0.37377406710E+03  0.25500000920E-02 0. -1.
    10030    2    1    2    0    0  0.00000000000E+00  0.00000000000E+00  0.25288090660E+04  0.32763572002E+04  0.20831805517E+04 0.  0.
        5    1    3    3  502    0  0.10321562955E+04 -0.26424830234E+02  0.10485092892E+04  0.14715429690E+04  0.46999998093E+01 0.  1.
       -5    1    3    3    0  502 -0.10321562955E+04  0.26424830234E+02  0.14802997768E+04  0.18048142312E+04  0.46999998093E+01 0. -1.
</event>
<event>
 5   0  0.1129987E-05  0.2101656E+04  0.7818609E-02  0.8560514E-01
       -3   -1    0    0    0  501  0.00000000000E+00  0.00000000000E+00  0.70676200482E+03  0.70676201204E+03  0.10100000352E+00 0.  1.
        3   -1    0    0  501    0  0.00000000000E+00  0.00000000000E+00 -0.15623923012E+04  0.15623923045E+04  0.10100000352E+00 0. -1.
    10030    2    1    2    0    0  0.00000000000E+00  0.00000000000E+00 -0.85563029640E+03  0.22691543165E+04  0.21016560394E+04 0.  0.
        3    1    3    3  502    0 -0.96028853711E+03  0.25243198652E+03 -0.79927454925E+03  0.12746434002E+04  0.10100000352E+00 0. -1.
       -3    1    3    3    0  502  0.96028853711E+03 -0.25243198652E+03 -0.56355747150E+02  0.99451091636E+03  0.10100000352E+00 0.  1.
</event>
<event>
 5   0  0.3108326E-05  0.2102280E+04  0.7818609E-02  0.8560240E-01
       -2   -1    0    0    0  501  0.00000000000E+00  0.00000000000E+00  0.11892177695E+04  0.11892177695E+04  0.25500000920E-02 0.  1.
        2   -1    0    0  501    0  0.00000000000E+00  0.00000000000E+00 -0.92909374599E+03  0.92909374599E+03  0.25500000920E-02 0. -1.
    10030    2    1    2    0    0  0.00000000000E+00  0.00000000000E+00  0.26012402347E+03  0.21183115155E+04  0.21022795173E+04 0.  0.
        5    1    3    3  502    0  0.76484462245E+02  0.98970843666E+02  0.11816816487E+04  0.11882923503E+04  0.46999998093E+01 0.  1.
       -5    1    3    3    0  502 -0.76484462245E+02 -0.98970843666E+02 -0.92155762526E+03  0.93001916515E+03  0.46999998093E+01 0. -1.
</event>
<event>
 5   0  0.3130517E-05  0.2096689E+04  0.7818609E-02  0.8562703E-01
       -2   -1    0    0    0  501  0.00000000000E+00  0.00000000000E+00  0.84265956816E+03  0.84265956816E+03  0.25500000920E-02 0. -1.
        2   -1    0    0  501    0  0.00000000000E+00  0.00000000000E+00 -0.13042347578E+04  0.13042347578E+04  0.25500000920E-02 0.  1.
    10030    2    1    2    0    0  0.00000000000E+00  0.00000000000E+00 -0.46157518963E+03  0.21468943260E+04  0.20966887206E+04 0.  0.
        1    1    3    3  502    0 -0.55254201164E+03 -0.68941661753E+03 -0.80859393131E+03  0.11976736170E+04  0.50400001928E-02 0.  1.
       -1    1    3    3    0  502  0.55254201164E+03  0.68941661753E+03  0.34701874168E+03  0.94922070893E+03  0.50400001928E-02 0. -1.
</event>
<event>
 5   0  0.3242231E-05  0.2101289E+04  0.7818609E-02  0.8560676E-01
       -2   -1    0    0    0  501  0.00000000000E+00  0.00000000000E+00  0.49741140498E+03  0.49741140498E+03  0.25500000920E-02 0.  1.
        2   -1    0    0  501    0  0.00000000000E+00  0.00000000000E+00 -0.22191976565E+04  0.22191976565E+04  0.25500000920E-02 0. -1.
    10030    2    1    2    0    0  0.00000000000E+00  0.00000000000E+00 -0.17217862515E+04  0.27166090615E+04  0.21012893416E+04 0.  0.
        4    1    3    3  502    0  0.27923723681E+03 -0.42450135902E+02  0.44740773778E+03  0.52910371874E+03  0.12699999809E+01 0.  1.
       -4    1    3    3    0  502 -0.27923723681E+03  0.42450135902E+02 -0.21691939893E+04  0.21875053427E+04  0.12699999809E+01 0. -1.
</event>
<event>
 5   0  0.1435410E-05  0.2104615E+04  0.7818609E-02  0.8559213E-01
       -1   -1    0    0    0  501  0.00000000000E+00  0.00000000000E+00  0.65758130433E+03  0.65758130435E+03  0.50400001928E-02 0.  1.
        1   -1    0    0  501    0  0.00000000000E+00  0.00000000000E+00 -0.16839756761E+04  0.16839756761E+04  0.50400001928E-02 0. -1.
    10030    2    1    2    0    0  0.00000000000E+00  0.00000000000E+00 -0.10263943718E+04  0.23415569804E+04  0.21046148546E+04 0.  0.
        2    1    3    3  502    0 -0.40588814295E+03 -0.15438296736E+03 -0.15796358665E+04  0.16382395295E+04  0.25500000920E-02 0. -1.
       -2    1    3    3    0  502  0.40588814295E+03  0.15438296736E+03  0.55324149479E+03  0.70331745092E+03  0.25500000920E-02 0.  1.
</event>
<event>
 5   0  0.1435410E-05  0.2097001E+04  0.7818609E-02  0.8562566E-01
       -1   -1    0    0    0  501  0.00000000000E+00  0.00000000000E+00  0.80638665347E+03  0.80638665349E+03  0.50400001928E-02 0.  1.
        1   -1    0    0  501    0  0.00000000000E+00  0.00000000000E+00 -0.13633074036E+04  0.13633074036E+04  0.50400001928E-02 0. -1.
    10030    2    1    2    0    0  0.00000000000E+00  0.00000000000E+00 -0.55692075009E+03  0.21696940571E+04  0.20970006150E+04 0.  0.
        2    1    3    3  502    0  0.28683065826E+03 -0.10010486241E+04 -0.15181326593E+03  0.10523390338E+04  0.25500000920E-02 0. -1.
       -2    1    3    3    0  502 -0.28683065826E+03  0.10010486241E+04 -0.40510748416E+03  0.11173550233E+04  0.25500000920E-02 0.  1.
</event>
<event>
 5   0  0.3108326E-05  0.2092048E+04  0.7818609E-02  0.8564754E-01
       -2   -1    0    0    0  501  0.00000000000E+00  0.00000000000E+00  0.88725784035E+03  0.88725784035E+03  0.25500000920E-02 0.  1.
        2   -1    0    0  501    0  0.00000000000E+00  0.00000000000E+00 -0.12331999454E+04  0.12331999454E+04  0.25500000920E-02 0. -1.
    10030    2    1    2    0    0  0.00000000000E+00  0.00000000000E+00 -0.34594210505E+03  0.21204577858E+04  0.20920481068E+04 0.  0.
        5    1    3    3  502    0  0.54909155759E+03 -0.26073454775E+03  0.68985880464E+03  0.91946250786E+03  0.46999998093E+01 0.  1.
       -5    1    3    3    0  502 -0.54909155759E+03  0.26073454775E+03 -0.10358009097E+04  0.12009952779E+04  0.46999998093E+01 0. -1.
</event>
<event>
 5   0  0.3257130E-05  0.2106490E+04  0.7818609E-02  0.8558390E-01
        2   -1    0    0  501    0  0.00000000000E+00  0.00000000000E+00  0.12178152737E+04  0.12178152737E+04  0.25500000920E-02 0.  1.
       -2   -1    0    0    0  501  0.00000000000E+00  0.00000000000E+00 -0.91091403525E+03  0.91091403526E+03  0.25500000920E-02 0. -1.
    10030    2    1    2    0    0  0.00000000000E+00  0.00000000000E+00  0.30690123844E+03  0.21287293090E+04  0.21064899954E+04 0.  0.
        3    1    3    3  502    0  0.30308282850E+03  0.50914876548E+03  0.10334097047E+04  0.11912293206E+04  0.10100000352E+00 0.  1.
       -3    1    3    3    0  502 -0.30308282850E+03 -0.50914876548E+03 -0.72650846628E+03  0.93749998832E+03  0.10100000352E+00 0. -1.
</event>
<event>
 5   0  0.1435410E-05  0.2087403E+04  0.7818609E-02  0.8566813E-01
       -1   -1    0    0    0  501  0.00000000000E+00  0.00000000000E+00  0.64270186321E+03  0.64270186323E+03  0.50400001928E-02 0.  1.
        1   -1    0    0  501    0  0.00000000000E+00  0.00000000000E+00 -0.16948966188E+04  0.16948966189E+04  0.50400001928E-02 0. -1.
    10030    2    1    2    0    0  0.00000000000E+00  0.00000000000E+00 -0.10521947556E+04  0.23375984821E+04  0.20874033773E+04 0.  0.
        2    1    3    3  502    0 -0.44819946665E+03 -0.23704735310E+03 -0.15477131003E+04  0.16286466929E+04  0.25500000920E-02 0. -1.
       -2    1    3    3    0  502  0.44819946665E+03  0.23704735310E+03  0.49551834463E+03  0.70895178919E+03  0.25500000920E-02 0.  1.
</event>
<event>
 5   0  0.3242231E-05  0.2103184E+04  0.7818609E-02  0.8559842E-01
       -2   -1    0    0    0  501  0.00000000000E+00  0.00000000000E+00  0.47782056126E+03  0.47782056127E+03  0.25500000920E-02 0. -1.
        2   -1    0    0  501    0  0.00000000000E+00  0.00000000000E+00 -0.23143525282E+04  0.23143525282E+04  0.25500000920E-02 0.  1.
    10030    2    1    2    0    0  0.00000000000E+00  0.00000000000E+00 -0.18365319670E+04  0.27921730895E+04  0.21031835146E+04 0.  0.
        4    1    3    3  502    0  0.30468142152E+03  0.84941277013E+02 -0.22497026522E+04  0.22718295326E+04  0.12699999809E+01 0.  1.
       -4    1    3    3    0  502 -0.30468142152E+03 -0.84941277013E+02  0.41317068521E+03  0.52034355687E+03  0.12699999809E+01 0. -1.
</event>
<event>
 5   0  0.1492552E-05  0.2099241E+04  0.7818609E-02  0.8561578E-01
       -1   -1    0    0    0  501  0.00000000000E+00  0.00000000000E+00  0.49641727289E+03  0.49641727292E+03  0.50400001928E-02 0.  1.
        1   -1    0    0  501    0  0.00000000000E+00  0.00000000000E+00 -0.22193078818E+04  0.22193078818E+04  0.50400001928E-02 0. -1.
    10030    2    1    2    0    0  0.00000000000E+00  0.00000000000E+00 -0.17228906089E+04  0.27157251547E+04  0.20992405926E+04 0.  0.
        4    1    3    3  502    0 -0.24823380006E+03 -0.92853622509E+03 -0.14070945285E+04  0.17040293911E+04  0.12699999809E+01 0. -1.
       -4    1    3    3    0  502  0.24823380006E+03  0.92853622509E+03 -0.31579608041E+03  0.10116957636E+04  0.12699999809E+01 0.  1.
</event>
<event>
 5   0  0.1466480E-05  0.2095745E+04  0.7818609E-02  0.8563120E-01
       -1   -1    0    0    0  501  0.00000000000E+00  0.00000000000E+00  0.87596981662E+03  0.87596981663E+03  0.50400001928E-02 0.  1.
        1   -1    0    0  501    0  0.00000000000E+00  0.00000000000E+00 -0.12535095485E+04  0.12535095485E+04  0.50400001928E-02 0. -1.
    10030    2    1    2    0    0  0.00000000000E+00  0.00000000000E+00 -0.37753973188E+03  0.21294793651E+04  0.20957447644E+04 0.  0.
        3    1    3    3  502    0 -0.10298600553E+04 -0.19262471039E+03 -0.20696073725E+03  0.10679647792E+04  0.10100000352E+00 0.  1.
       -3    1    3    3    0  502  0.10298600553E+04  0.19262471039E+03 -0.17057899463E+03  0.10615145860E+04  0.10100000352E+00 0. -1.
</event>
<event>
 5   0  0.3130517E-05  0.2101231E+04  0.7818609E-02  0.8560701E-01
        2   -1    0    0  501    0  0.00000000000E+00  0.00000000000E+00  0.11442113344E+04  0.11442113344E+04  0.25500000920E-02 0.  1.
       -2   -1    0    0    0  501  0.00000000000E+00  0.00000000000E+00 -0.96467568187E+03  0.96467568188E+03  0.25500000920E-02 0. -1.
    10030    2    1    2    0    0  0.00000000000E+00  0.00000000000E+00  0.17953565255E+03  0.21088870163E+04  0.21012309242E+04 0.  0.
        1    1    3    3  502    0  0.51279800555E+03 -0.69599010731E+03  0.68895973318E+03  0.11054544486E+04  0.50400001928E-02 0.  1.
       -1    1    3    3    0  502 -0.51279800555E+03  0.69599010731E+03 -0.50942408063E+03  0.10034325677E+04  0.50400001928E-02 0. -1.
</event>
<event>
 5   0  0.1435410E-05  0.2105858E+04  0.7818609E-02  0.8558667E-01
        1   -1    0    0  501    0  0.00000000000E+00  0.00000000000E+00  0.15403046020E+04  0.15403046020E+04  0.50400001928E-02 0. -1.
       -1   -1    0    0    0  501  0.00000000000E+00  0.00000000000E+00 -0.71976645289E+03  0.71976645290E+03  0.50400001928E-02 0.  1.
    10030    2    1    2    0    0  0.00000000000E+00  0.00000000000E+00  0.82053814911E+03  0.22600710549E+04  0.21058580957E+04 0.  0.
        2    1    3    3  502    0  0.82832875062E+01  0.76590309537E+02 -0.71673783716E+03  0.72086601778E+03  0.25500000920E-02 0.  1.
       -2    1    3    3    0  502 -0.82832875062E+01 -0.76590309537E+02  0.15372759863E+04  0.15392050371E+04  0.25500000920E-02 0. -1.
</event>
<event>
 5   0  0.3130517E-05  0.2090464E+04  0.7818609E-02  0.8565456E-01
       -2   -1    0    0    0  501  0.00000000000E+00  0.00000000000E+00  0.82190258402E+03  0.82190258402E+03  0.25500000920E-02 0. -1.
        2   -1    0    0  501    0  0.00000000000E+00  0.00000000000E+00 -0.13292449960E+04  0.13292449960E+04  0.25500000920E-02 0.  1.
    10030    2    1    2    0    0  0.00000000000E+00  0.00000000000E+00 -0.50734241196E+03  0.21511475800E+04  0.20904639648E+04 0.  0.
        1    1    3    3  502    0  0.98484920500E+03  0.31695068313E+03 -0.10061133035E+03  0.10394750271E+04  0.50400001928E-02 0.  1.
       -1    1    3    3    0  502 -0.98484920500E+03 -0.31695068313E+03 -0.40673108161E+03  0.11116725529E+04  0.50400001928E-02 0. -1.
</event>
<event>
 5   0  0.3257130E-05  0.2097710E+04  0.7818609E-02  0.8562253E-01
        2   -1    0    0  501    0  0.00000000000E+00  0.00000000000E+00  0.20371389826E+04  0.20371389826E+04  0.25500000920E-02 0. -1.
       -2   -1    0    0    0  501  0.00000000000E+00  0.00000000000E+00 -0.54002029212E+03  0.54002029213E+03  0.25500000920E-02 0.  1.
    10030    2    1    2    0    0  0.00000000000E+00  0.00000000000E+00  0.14971186905E+04  0.25771592747E+04  0.20977095971E+04 0.  0.
        3    1    3    3  502    0 -0.19207199172E+03 -0.26946866982E+03  0.19713248080E+04  0.19989063317E+04  0.10100000352E+00 0. -1.
       -3    1    3    3    0  502  0.19207199172E+03  0.26946866982E+03 -0.47420611753E+03  0.57825294303E+03  0.10100000352E+00 0.  1.
</event>
<event>
 5   0  0.1513292E-05  0.2110260E+04  0.7818609E-02  0.8556737E-01
       -1   -1    0    0    0  501  0.00000000000E+00  0.00000000000E+00  0.74052950828E+03  0.74052950830E+03  0.50400001928E-02 0.  1.
        1   -1    0    0  501    0  0.00000000000E+00  0.00000000000E+00 -0.15033834651E+04  0.15033834651E+04  0.50400001928E-02 0. -1.
    10030    2    1    2    0    0  0.00000000000E+00  0.00000000000E+00 -0.76285395682E+03  0.22439129734E+04  0.21102604751E+04 0.  0.
        1    1    3    3  502    0 -0.30806536088E+03 -0.46582518629E+03 -0.13333356365E+04  0.14455729972E+04  0.50400001928E-02 0. -1.
       -1    1    3    3    0  502  0.30806536088E+03  0.46582518629E+03  0.57048167964E+03  0.79833997620E+03  0.50400001928E-02 0.  1.
</event>
<event>
 5   0  0.1513292E-05  0.2135971E+04  0.7818609E-02  0.8545561E-01
       -1   -1    0    0    0  501  0.00000000000E+00  0.00000000000E+00  0.10925439199E+04  0.10925439199E+04  0.50400001928E-02 0. -1.
        1   -1    0    0  501    0  0.00000000000E+00  0.00000000000E+00 -0.10439793461E+04  0.10439793461E+04  0.50400001928E-02 0.  1.
    10030    2    1    2    0    0  0.00000000000E+00  0.00000000000E+00  0.48564573869E+02  0.21365232660E+04  0.21359712424E+04 0.  0.
        1    1    3    3  502    0  0.64898855866E+03 -0.10782050793E+03  0.86579744635E+03  0.10873898240E+04  0.50400001928E-02 0. -1.
       -1    1    3    3    0  502 -0.64898855866E+03  0.10782050793E+03 -0.81723287249E+03  0.10491334420E+04  0.50400001928E-02 0.  1.
</event>
<event>
 5   0  0.3130517E-05  0.2098354E+04  0.7818609E-02  0.8561969E-01
       -2   -1    0    0    0  501  0.00000000000E+00  0.00000000000E+00  0.77318833429E+03  0.77318833430E+03  0.25500000920E-02 0. -1.
        2   -1    0    0  501    0  0.00000000000E+00  0.00000000000E+00 -0.14236800531E+04  0.14236800531E+04  0.25500000920E-02 0.  1.
    10030    2    1    2    0    0  0.00000000000E+00  0.00000000000E+00 -0.65049171883E+03  0.21968683874E+04  0.20983544113E+04 0.  0.
        1    1    3    3  502    0  0.29926380054E+03  0.32562137073E+03 -0.13213249000E+04  0.13933727394E+04  0.50400001928E-02 0.  1.
       -1    1    3    3    0  502 -0.29926380054E+03 -0.32562137073E+03  0.67083318120E+03  0.80349564804E+03  0.50400001928E-02 0. -1.
</event>
<event>
 5   0  0.1435410E-05  0.1977170E+04  0.7818609E-02  0.8617369E-01
        1   -1    0    0  501    0  0.00000000000E+00  0.00000000000E+00  0.17488552415E+04  0.17488552415E+04  0.50400001928E-02 0. -1.
       -1   -1    0    0    0  501  0.00000000000E+00  0.00000000000E+00 -0.55882297890E+03  0.55882297892E+03  0.50400001928E-02 0.  1.
    10030    2    1    2    0    0  0.00000000000E+00  0.00000000000E+00  0.11900322626E+04  0.23076782204E+04  0.19771701957E+04 0.  0.
        2    1    3    3  502    0 -0.76033478821E+03 -0.40751949850E+03  0.11585504519E+04  0.14444446273E+04  0.25500000920E-02 0. -1.
       -2    1    3    3    0  502  0.76033478821E+03  0.40751949850E+03  0.31481810689E+02  0.86323359308E+03  0.25500000920E-02 0.  1.
</event>
<event>
 5   0  0.1513292E-05  0.2092455E+04  0.7818609E-02  0.8564574E-01
       -1   -1    0    0    0  501  0.00000000000E+00  0.00000000000E+00  0.16773392809E+04  0.16773392809E+04  0.50400001928E-02 0.  1.
        1   -1    0    0  501    0  0.00000000000E+00  0.00000000000E+00 -0.65257650056E+03  0.65257650058E+03  0.50400001928E-02 0. -1.
    10030    2    1    2    0    0  0.00000000000E+00  0.00000000000E+00  0.10247627803E+04  0.23299157815E+04  0.20924552069E+04 0.  0.
        1    1    3    3  502    0 -0.59072842606E+03 -0.81252102763E+03  0.18690536399E+03  0.10218043398E+04  0.50400001928E-02 0. -1.
       -1    1    3    3    0  502  0.59072842606E+03  0.81252102763E+03  0.83785741632E+03  0.13081114417E+04  0.50400001928E-02 0.  1.
</event>
<event>
 5   0  0.3257130E-05  0.2088791E+04  0.7818609E-02  0.8566197E-01
        2   -1    0    0  501    0  0.00000000000E+00  0.00000000000E+00  0.93283952870E+03  0.93283952870E+03  0.25500000920E-02 0. -1.
       -2   -1    0    0    0  501  0.00000000000E+00  0.00000000000E+00 -0.11692918091E+04  0.11692918091E+04  0.25500000920E-02 0.  1.
    10030    2    1    2    0    0  0.00000000000E+00  0.00000000000E+00 -0.23645228041E+03  0.21021313378E+04  0.20887906742E+04 0.  0.
        3    1    3    3  502    0 -0.22946928469E+03 -0.75037551541E+03  0.57540878286E+03  0.97304411223E+03  0.10100000352E+00 0. -1.
       -3    1    3    3    0  502  0.22946928469E+03  0.75037551541E+03 -0.81186106327E+03  0.11290872256E+04  0.10100000352E+00 0.  1.
</event>
<event>
 5   0  0.1492552E-05  0.2105607E+04  0.7818609E-02  0.8558777E-01
        1   -1    0    0  501    0  0.00000000000E+00  0.00000000000E+00  0.72329758684E+03  0.72329758686E+03  0.50400001928E-02 0.  1.
       -1   -1    0    0    0  501  0.00000000000E+00  0.00000000000E+00 -0.15324197396E+04  0.15324197396E+04  0.50400001928E-02 0. -1.
    10030    2    1    2    0    0  0.00000000000E+00  0.00000000000E+00 -0.80912215278E+03  0.22557173265E+04  0.21056072756E+04 0.  0.
        4    1    3    3  502    0 -0.14742230894E+03 -0.40594004388E+03 -0.14331525143E+04  0.14968127466E+04  0.12699999809E+01 0. -1.
       -4    1    3    3    0  502  0.14742230894E+03  0.40594004388E+03  0.62403036148E+03  0.75890457987E+03  0.12699999809E+01 0.  1.
</event>
<event>
 5   0  0.1513292E-05  0.2105754E+04  0.7818609E-02  0.8558713E-01
       -1   -1    0    0    0  501  0.00000000000E+00  0.00000000000E+00  0.60573814815E+03  0.60573814817E+03  0.50400001928E-02 0. -1.
        1   -1    0    0  501    0  0.00000000000E+00  0.00000000000E+00 -0.18300812230E+04  0.18300812230E+04  0.50400001928E-02 0.  1.
    10030    2    1    2    0    0  0.00000000000E+00  0.00000000000E+00 -0.12243430748E+04  0.24358193712E+04  0.21057540322E+04 0.  0.
        1    1    3    3  502    0  0.20530278340E+03 -0.40481429451E+03 -0.17110947311E+04  0.17702737147E+04  0.50400001928E-02 0.  1.
       -1    1    3    3    0  502 -0.20530278340E+03  0.40481429451E+03  0.48675165631E+03  0.66554565648E+03  0.50400001928E-02 0. -1.
</event>
<event>
 5   0  0.1492552E-05  0.2109605E+04  0.7818609E-02  0.8557024E-01
        1   -1    0    0  501    0  0.00000000000E+00  0.00000000000E+00  0.89152430065E+03  0.89152430067E+03  0.50400001928E-02 0.  1.
       -1   -1    0    0    0  501  0.00000000000E+00  0.00000000000E+00 -0.12479845836E+04  0.12479845836E+04  0.50400001928E-02 0. -1.
    10030    2    1    2    0    0  0.00000000000E+00  0.00000000000E+00 -0.35646028296E+03  0.21395088843E+04  0.21096052552E+04 0.  0.
        4    1    3    3  502    0 -0.18769057411E+03  0.93619198733E+03 -0.63282923689E+03  0.11454944979E+04  0.12699999809E+01 0. -1.
       -4    1    3    3    0  502  0.18769057411E+03 -0.93619198733E+03  0.27636895393E+03  0.99401438639E+03  0.12699999809E+01 0.  1.
</event>
<event>
 5   0  0.3279789E-05  0.2088227E+04  0.7818609E-02  0.8566447E-01
       -2   -1    0    0    0  501  0.00000000000E+00  0.00000000000E+00  0.10755880350E+04  0.10755880350E+04  0.25500000920E-02 0.  1.
        2   -1    0    0  501    0  0.00000000000E+00  0.00000000000E+00 -0.10135598999E+04  0.10135598999E+04  0.25500000920E-02 0. -1.
    10030    2    1    2    0    0  0.00000000000E+00  0.00000000000E+00  0.62028135154E+02  0.20891479349E+04  0.20882269045E+04 0.  0.
        2    1    3    3  502    0  0.21874586257E+03  0.85800532641E+03  0.58456634907E+03  0.10610092879E+04  0.25500000920E-02 0.  1.
       -2    1    3    3    0  502 -0.21874586257E+03 -0.85800532641E+03 -0.52253821391E+03  0.10281386470E+04  0.25500000920E-02 0. -1.
</event>
<event>
 5   0  0.3242231E-05  0.2091329E+04  0.7818609E-02  0.8565072E-01
        2   -1    0    0  501    0  0.00000000000E+00  0.00000000000E+00  0.19577706618E+04  0.19577706618E+04  0.25500000920E-02 0. -1.
       -2   -1    0    0    0  501  0.00000000000E+00  0.00000000000E+00 -0.55849985999E+03  0.55849985999E+03  0.25500000920E-02 0.  1.
    10030    2    1    2    0    0  0.00000000000E+00  0.00000000000E+00  0.13992708018E+04  0.25162705218E+04  0.20913293767E+04 0.  0.
        4    1    3    3  502    0 -0.31882461515E+03 -0.20030708553E+03 -0.47410338496E+03  0.60543182628E+03  0.12699999809E+01 0.  1.
       -4    1    3    3    0  502  0.31882461515E+03  0.20030708553E+03  0.18733741867E+04  0.19108386955E+04  0.12699999809E+01 0. -1.
</event>
<event>
 5   0  0.3257130E-05  0.2098098E+04  0.7818609E-02  0.8562082E-01
        2   -1    0    0  501    0  0.00000000000E+00  0.00000000000E+00  0.13765109585E+04  0.13765109585E+04  0.25500000920E-02 0.  1.
       -2   -1    0    0    0  501  0.00000000000E+00  0.00000000000E+00 -0.79948763753E+03  0.79948763753E+03  0.25500000920E-02 0. -1.
    10030    2    1    2    0    0  0.00000000000E+00  0.00000000000E+00  0.57702332101E+03  0.21759985961E+04  0.20980977044E+04 0.  0.
        3    1    3    3  502    0 -0.80362545598E+03  0.61836184723E+03  0.96063293349E+01  0.10140402060E+04  0.10100000352E+00 0.  1.
       -3    1    3    3    0  502  0.80362545598E+03 -0.61836184723E+03  0.56741699167E+03  0.11619583901E+04  0.10100000352E+00 0. -1.
</event>
<event>
 5   0  0.1466480E-05  0.2098521E+04  0.7818609E-02  0.8561895E-01
        1   -1    0    0  501    0  0.00000000000E+00  0.00000000000E+00  0.11580994285E+04  0.11580994285E+04  0.50400001928E-02 0. -1.
       -1   -1    0    0    0  501  0.00000000000E+00  0.00000000000E+00 -0.95065039320E+03  0.95065039321E+03  0.50400001928E-02 0.  1.
    10030    2    1    2    0    0  0.00000000000E+00  0.00000000000E+00  0.20744903532E+03  0.21087498217E+04  0.20985210765E+04 0.  0.
        3    1    3    3  502    0  0.50311366861E+03  0.91564024717E+03  0.20129176021E+03  0.10639731241E+04  0.10100000352E+00 0. -1.
       -3    1    3    3    0  502 -0.50311366861E+03 -0.91564024717E+03  0.61572751180E+01  0.10447766977E+04  0.10100000352E+00 0.  1.
</event>
<event>
 5   0  0.3108326E-05  0.2060561E+04  0.7818609E-02  0.8578818E-01
        2   -1    0    0  501    0  0.00000000000E+00  0.00000000000E+00  0.19736642844E+04  0.19736642844E+04  0.25500000920E-02 0. -1.
       -2   -1    0    0    0  501  0.00000000000E+00  0.00000000000E+00 -0.53782113775E+03  0.53782113776E+03  0.25500000920E-02 0.  1.
    10030    2    1    2    0    0  0.00000000000E+00  0.00000000000E+00  0.14358431466E+04  0.25114854221E+04  0.20605614487E+04 0.  0.
        5    1    3    3  502    0  0.68071718385E+03 -0.56120035232E+03  0.13664686916E+04  0.16265240530E+04  0.46999998093E+01 0.  1.
       -5    1    3    3    0  502 -0.68071718385E+03  0.56120035232E+03  0.69374454996E+02  0.88496136912E+03  0.46999998093E+01 0. -1.
</event>
<event>
 5   0  0.3279789E-05  0.2082216E+04  0.7818609E-02  0.8569118E-01
       -2   -1    0    0    0  501  0.00000000000E+00  0.00000000000E+00  0.78678982867E+03  0.78678982867E+03  0.25500000920E-02 0. -1.
        2   -1    0    0  501    0  0.00000000000E+00  0.00000000000E+00 -0.13776309635E+04  0.13776309635E+04  0.25500000920E-02 0.  1.
    10030    2    1    2    0    0  0.00000000000E+00  0.00000000000E+00 -0.59084113488E+03  0.21644207922E+04  0.20822161557E+04 0.  0.
        2    1    3    3  502    0 -0.78542582681E+03 -0.66921303970E+03 -0.43932825092E+03  0.11214941525E+04  0.25500000920E-02 0. -1.
       -2    1    3    3    0  502  0.78542582681E+03  0.66921303970E+03 -0.15151288396E+03  0.10429266398E+04  0.25500000920E-02 0.  1.
</event>
<event>
 5   0  0.1466480E-05  0.2099132E+04  0.7818609E-02  0.8561626E-01
       -1   -1    0    0    0  501  0.00000000000E+00  0.00000000000E+00  0.13005263359E+04  0.13005263359E+04  0.50400001928E-02 0.  1.
        1   -1    0    0  501    0  0.00000000000E+00  0.00000000000E+00 -0.84703329150E+03  0.84703329152E+03  0.50400001928E-02 0. -1.
    10030    2    1    2    0    0  0.00000000000E+00  0.00000000000E+00  0.45349304437E+03  0.21475596274E+04  0.20991322998E+04 0.  0.
        3    1    3    3  502    0 -0.15042212146E+03  0.36952427427E+03  0.12199227243E+04  0.12835055385E+04  0.10100000352E+00 0.  1.
       -3    1    3    3    0  502  0.15042212146E+03 -0.36952427427E+03 -0.76642967998E+03  0.86405408885E+03  0.10100000352E+00 0. -1.
</event>
<event>
 5   0  0.3108326E-05  0.2085799E+04  0.7818609E-02  0.8567525E-01
        2   -1    0    0  501    0  0.00000000000E+00  0.00000000000E+00  0.12718577615E+04  0.12718577615E+04  0.25500000920E-02 0. -1.
       -2   -1    0    0    0  501  0.00000000000E+00  0.00000000000E+00 -0.85515805092E+03  0.85515805092E+03  0.25500000920E-02 0.  1.
    10030    2    1    2    0    0  0.00000000000E+00  0.00000000000E+00  0.41669971054E+03  0.21270158124E+04  0.20857990357E+04 0.  0.
        5    1    3    3  502    0 -0.83632376094E+03 -0.31910427326E+02  0.84286851382E+03  0.11878152761E+04  0.46999998093E+01 0. -1.
       -5    1    3    3    0  502  0.83632376094E+03  0.31910427326E+02 -0.42616880329E+03  0.93920053630E+03  0.46999998093E+01 0.  1.
</event>
<event>
 5   0  0.1129987E-05  0.2046768E+04  0.7818609E-02  0.8585062E-01
       -3   -1    0    0    0  501  0.00000000000E+00  0.00000000000E+00  0.62204242576E+03  0.62204243396E+03  0.10100000352E+00 0. -1.
        3   -1    0    0  501    0  0.00000000000E+00  0.00000000000E+00 -0.16836701938E+04  0.16836701968E+04  0.10100000352E+00 0.  1.
    10030    2    1    2    0    0  0.00000000000E+00  0.00000000000E+00 -0.10616277680E+04  0.23057126307E+04  0.20467675046E+04 0.  0.
        2    1    3    3  502    0 -0.37811163388E+03  0.78549197362E+03 -0.11346803991E+04  0.14308968014E+04  0.25500000920E-02 0.  1.
       -2    1    3    3    0  502  0.37811163388E+03 -0.78549197362E+03  0.73052631066E+02  0.87481582931E+03  0.25500000920E-02 0. -1.
</event>
<event>
 5   0  0.3108326E-05  0.2095082E+04  0.7818609E-02  0.8563413E-01
       -2   -1    0    0    0  501  0.00000000000E+00  0.00000000000E+00  0.94456965990E+03  0.94456965990E+03  0.25500000920E-02 0.  1.
        2   -1    0    0  501    0  0.00000000000E+00  0.00000000000E+00 -0.11617379592E+04  0.11617379592E+04  0.25500000920E-02 0. -1.
    10030    2    1    2    0    0  0.00000000000E+00  0.00000000000E+00 -0.21716829926E+03  0.21063076191E+04  0.20950822695E+04 0.  0.
        5    1    3    3  502    0 -0.55839467341E+03  0.83983887964E+03  0.17610507645E+03  0.10238012712E+04  0.46999998093E+01 0. -1.
       -5    1    3    3    0  502  0.55839467341E+03 -0.83983887964E+03 -0.39327337571E+03  0.10825063478E+04  0.46999998093E+01 0.  1.
</event>
<event>
 5   0  0.3130517E-05  0.2100100E+04  0.7818609E-02  0.8561199E-01
        2   -1    0    0  501    0  0.00000000000E+00  0.00000000000E+00  0.22302502480E+04  0.22302502480E+04  0.25500000920E-02 0. -1.
       -2   -1    0    0    0  501  0.00000000000E+00  0.00000000000E+00 -0.49438608366E+03  0.49438608367E+03  0.25500000920E-02 0.  1.
    10030    2    1    2    0    0  0.00000000000E+00  0.00000000000E+00  0.17358641644E+04  0.27246363317E+04  0.21000996983E+04 0.  0.
        1    1    3    3  502    0  0.74261860254E+03 -0.57819763192E+03  0.14720310318E+04  0.17471892424E+04  0.50400001928E-02 0. -1.
       -1    1    3    3    0  502 -0.74261860254E+03  0.57819763192E+03  0.26383313260E+03  0.97744708925E+03  0.50400001928E-02 0.  1.
</event>
<event>
 5   0  0.3242231E-05  0.2006982E+04  0.7818609E-02  0.8603363E-01
       -2   -1    0    0    0  501  0.00000000000E+00  0.00000000000E+00  0.66349825675E+03  0.66349825675E+03  0.25500000920E-02 0.  1.
        2   -1    0    0  501    0  0.00000000000E+00  0.00000000000E+00 -0.15177046269E+04  0.15177046269E+04  0.25500000920E-02 0. -1.
    10030    2    1    2    0    0  0.00000000000E+00  0.00000000000E+00 -0.85420637018E+03  0.21812028837E+04  0.20069821865E+04 0.  0.
        4    1    3    3  502    0  0.92053526175E+03  0.14556868350E+03 -0.83144421510E+03  0.12489501613E+04  0.12699999809E+01 0. -1.
       -4    1    3    3    0  502 -0.92053526175E+03 -0.14556868350E+03 -0.22762155080E+02  0.93225272236E+03  0.12699999809E+01 0.  1.
</event>
<event>
 5   0  0.1466480E-05  0.2098504E+04  0.7818609E-02  0.8561903E-01
       -1   -1    0    0    0  501  0.00000000000E+00  0.00000000000E+00  0.51882834456E+03  0.51882834459E+03  0.50400001928E-02 0. -1.
        1   -1    0    0  501    0  0.00000000000E+00  0.00000000000E+00 -0.21219532622E+04  0.21219532622E+04  0.50400001928E-02 0.  1.
    10030    2    1    2    0    0  0.00000000000E+00  0.00000000000E+00 -0.16031249177E+04  0.26407816068E+04  0.20985037511E+04 0.  0.
        3    1    3    3  502    0  0.10346340758E+04  0.11864159505E+03 -0.96264893011E+03  0.14181806908E+04  0.10100000352E+00 0.  1.
       -3    1    3    3    0  502 -0.10346340758E+04 -0.11864159505E+03 -0.64047598757E+03  0.12226009160E+04  0.10100000352E+00 0. -1.
</event>
<event>
 5   0  0.1492552E-05  0.2087052E+04  0.7818609E-02  0.8566968E-01
        1   -1    0    0  501    0  0.00000000000E+00  0.00000000000E+00  0.80230571763E+03  0.80230571764E+03  0.50400001928E-02 0.  1.
       -1   -1    0    0    0  501  0.00000000000E+00  0.00000000000E+00 -0.13572716430E+04  0.13572716430E+04  0.50400001928E-02 0. -1.
    10030    2    1    2    0    0  0.00000000000E+00  0.00000000000E+00 -0.55496592539E+03  0.21595773607E+04  0.20870522749E+04 0.  0.
        4    1    3    3  502    0 -0.33659676893E+02  0.45952553232E+03 -0.12463143170E+04  0.13287579457E+04  0.12699999809E+01 0. -1.
       -4    1    3    3    0  502  0.33659676893E+02 -0.45952553232E+03  0.69134839163E+03  0.83081941492E+03  0.12699999809E+01 0.  1.
</event>
<event>
 5   0  0.3130517E-05  0.2105717E+04  0.7818609E-02  0.8558729E-01
       -2   -1    0    0    0  501  0.00000000000E+00  0.00000000000E+00  0.51920144334E+03  0.51920144335E+03  0.25500000920E-02 0.  1.
        2   -1    0    0  501    0  0.00000000000E+00  0.00000000000E+00 -0.21350303466E+04  0.21350303466E+04  0.25500000920E-02 0. -1.
    10030    2    1    2    0    0  0.00000000000E+00  0.00000000000E+00 -0.16158289033E+04  0.26542317900E+04  0.21057168257E+04 0.  0.
        1    1    3    3  502    0  0.37658053906E+03  0.97111056665E+03 -0.61410147787E+03  0.12091274789E+04  0.50400001928E-02 0.  1.
       -1    1    3    3    0  502 -0.37658053906E+03 -0.97111056665E+03 -0.10017274254E+04  0.14451043111E+04  0.50400001928E-02 0. -1.
</event>
<event>
 5   0  0.1513292E-05  0.2153355E+04  0.7818609E-02  0.8538098E-01
       -1   -1    0    0    0  501  0.00000000000E+00  0.00000000000E+00  0.62421858754E+03  0.62421858756E+03  0.50400001928E-02 0. -1.
        1   -1    0    0  501    0  0.00000000000E+00  0.00000000000E+00 -0.18570967734E+04  0.18570967734E+04  0.50400001928E-02 0.  1.
    10030    2    1    2    0    0  0.00000000000E+00  0.00000000000E+00 -0.12328781858E+04  0.24813153610E+04  0.21533548940E+04 0.  0.
        1    1    3    3  502    0  0.37460991687E+03  0.77072995557E+03 -0.13675395036E+04  0.16138530132E+04  0.50400001928E-02 0.  1.
       -1    1    3    3    0  502 -0.37460991687E+03 -0.77072995557E+03  0.13466131779E+03  0.86746234775E+03  0.50400001928E-02 0. -1.
</event>
<event>
 5   0  0.3242231E-05  0.2101028E+04  0.7818609E-02  0.8560791E-01
       -2   -1    0    0    0  501  0.00000000000E+00  0.00000000000E+00  0.12104412421E+04  0.12104412421E+04  0.25500000920E-02 0.  1.
        2   -1    0    0  501    0  0.00000000000E+00  0.00000000000E+00 -0.91171662884E+03  0.91171662884E+03  0.25500000920E-02 0. -1.
    10030    2    1    2    0    0  0.00000000000E+00  0.00000000000E+00  0.29872461327E+03  0.21221578710E+04  0.21010277568E+04 0.  0.
        4    1    3    3  502    0 -0.73725155152E+03 -0.28422285611E+03  0.84860730262E+03  0.11595078478E+04  0.12699999809E+01 0.  1.
       -4    1    3    3    0  502  0.73725155152E+03  0.28422285611E+03 -0.54988268934E+03  0.96265002316E+03  0.12699999809E+01 0. -1.
</event>
<event>
 5   0  0.3108326E-05  0.2124251E+04  0.7818609E-02  0.8550635E-01
       -2   -1    0    0    0  501  0.00000000000E+00  0.00000000000E+00  0.55424070940E+03  0.55424070941E+03  0.25500000920E-02 0.  1.
        2   -1    0    0  501    0  0.00000000000E+00  0.00000000000E+00 -0.20354158487E+04  0.20354158487E+04  0.25500000920E-02 0. -1.
    10030    2    1    2    0    0  0.00000000000E+00  0.00000000000E+00 -0.14811751393E+04  0.25896565581E+04  0.21242507610E+04 0.  0.
        5    1    3    3  502    0  0.42197571292E+03  0.87508282214E+03 -0.21729354252E+03  0.99552600243E+03  0.46999998093E+01 0.  1.
       -5    1    3    3    0  502 -0.42197571292E+03 -0.87508282214E+03 -0.12638815968E+04  0.15941305557E+04  0.46999998093E+01 0. -1.
</event>
<event>
 5   0  0.3108326E-05  0.2095047E+04  0.7818609E-02  0.8563429E-01
       -2   -1    0    0    0  501  0.00000000000E+00  0.00000000000E+00  0.76061391195E+03  0.76061391196E+03  0.25500000920E-02 0. -1.
        2   -1    0    0  501    0  0.00000000000E+00  0.00000000000E+00 -0.14426570229E+04  0.14426570229E+04  0.25500000920E-02 0.  1.
    10030    2    1    2    0    0  0.00000000000E+00  0.00000000000E+00 -0.68204311093E+03  0.22032709348E+04  0.20950465406E+04 0.  0.
        5    1    3    3  502    0 -0.99255622979E+03  0.33479682001E+03 -0.33564555864E+03  0.10999712774E+04  0.46999998093E+01 0. -1.
       -5    1    3    3    0  502  0.99255622979E+03 -0.33479682001E+03 -0.34639755229E+03  0.11032996575E+04  0.46999998093E+01 0.  1.
</event>
<event>
 5   0  0.1492552E-05  0.2108265E+04  0.7818609E-02  0.8557611E-01
       -1   -1    0    0    0  501  0.00000000000E+00  0.00000000000E+00  0.13708870644E+04  0.13708870644E+04  0.50400001928E-02 0.  1.
        1   -1    0    0  501    0  0.00000000000E+00  0.00000000000E+00 -0.81056664378E+03  0.81056664380E+03  0.50400001928E-02 0. -1.
    10030    2    1    2    0    0  0.00000000000E+00  0.00000000000E+00  0.56032042065E+03  0.21814537082E+04  0.21082649993E+04 0.  0.
        4    1    3    3  502    0 -0.10528970829E+04 -0.11323757490E+02  0.22870230382E+03  0.10775095597E+04  0.12699999809E+01 0.  1.
       -4    1    3    3    0  502  0.10528970829E+04  0.11323757490E+02  0.33161811682E+03  0.11039441485E+04  0.12699999809E+01 0. -1.
</event>
<event>
 5   0  0.1492552E-05  0.2116661E+04  0.7818609E-02  0.8553940E-01
        1   -1    0    0  501    0  0.00000000000E+00  0.00000000000E+00  0.11679993156E+04  0.11679993156E+04  0.50400001928E-02 0. -1.
       -1   -1    0    0    0  501  0.00000000000E+00  0.00000000000E+00 -0.95895858892E+03  0.95895858893E+03  0.50400001928E-02 0.  1.
    10030    2    1    2    0    0  0.00000000000E+00  0.00000000000E+00  0.20904072671E+03  0.21269579046E+04  0.21166605544E+04 0.  0.
        4    1    3    3  502    0 -0.36044867683E+03 -0.46826692552E+03 -0.77773969203E+03  0.97676906361E+03  0.12699999809E+01 0.  1.
       -4    1    3    3    0  502  0.36044867683E+03  0.46826692552E+03  0.98678041874E+03  0.11501888410E+04  0.12699999809E+01 0. -1.
</event>
<event>
 5   0  0.1513292E-05  0.2225450E+04  0.7818609E-02  0.8507909E-01
        1   -1    0    0  501    0  0.00000000000E+00  0.00000000000E+00  0.19004770760E+04  0.19004770760E+04  0.50400001928E-02 0. -1.
       -1   -1    0    0    0  501  0.00000000000E+00  0.00000000000E+00 -0.65149823998E+03  0.65149824000E+03  0.50400001928E-02 0.  1.
    10030    2    1    2    0    0  0.00000000000E+00  0.00000000000E+00  0.12489788360E+04  0.25519753160E+04  0.22254504894E+04 0.  0.
        1    1    3    3  502    0 -0.44318572105E+03 -0.74796097143E+03  0.14208621578E+04  0.16657456198E+04  0.50400001928E-02 0.  1.
       -1    1    3    3    0  502  0.44318572105E+03  0.74796097143E+03 -0.17188332184E+03  0.88622969623E+03  0.50400001928E-02 0. -1.
</event>
<event>
 5   0  0.3108326E-05  0.2105877E+04  0.7818609E-02  0.8558659E-01
        2   -1    0    0  501    0  0.00000000000E+00  0.00000000000E+00  0.13454123354E+04  0.13454123354E+04  0.25500000920E-02 0. -1.
       -2   -1    0    0    0  501  0.00000000000E+00  0.00000000000E+00 -0.82404408064E+03  0.82404408064E+03  0.25500000920E-02 0.  1.
    10030    2    1    2    0    0  0.00000000000E+00  0.00000000000E+00  0.52136825474E+03  0.21694564160E+04  0.21058766070E+04 0.  0.
        5    1    3    3  502    0 -0.54945562815E+03  0.83994839174E+03 -0.67108197920E+02  0.10059524782E+04  0.46999998093E+01 0. -1.
       -5    1    3    3    0  502  0.54945562815E+03 -0.83994839174E+03  0.58847645266E+03  0.11635039379E+04  0.46999998093E+01 0.  1.
</event>
<event>
 5   0  0.3130517E-05  0.2095345E+04  0.7818609E-02  0.8563297E-01
       -2   -1    0    0    0  501  0.00000000000E+00  0.00000000000E+00  0.72713158549E+03  0.72713158550E+03  0.25500000920E-02 0. -1.
        2   -1    0    0  501    0  0.00000000000E+00  0.00000000000E+00 -0.15095170863E+04  0.15095170863E+04  0.25500000920E-02 0.  1.
    10030    2    1    2    0    0  0.00000000000E+00  0.00000000000E+00 -0.78238550083E+03  0.22366486718E+04  0.20953448903E+04 0.  0.
        1    1    3    3  502    0 -0.81591047836E+03 -0.12413581843E+03  0.29769535166E+03  0.87734949281E+03  0.50400001928E-02 0. -1.
       -1    1    3    3    0  502  0.81591047836E+03  0.12413581843E+03 -0.10800808525E+04  0.13592991790E+04  0.50400001928E-02 0.  1.
</event>
<event>
 5   0  0.3130517E-05  0.2104071E+04  0.7818609E-02  0.8559452E-01
       -2   -1    0    0    0  501  0.00000000000E+00  0.00000000000E+00  0.20370789194E+04  0.20370789194E+04  0.25500000920E-02 0. -1.
        2   -1    0    0  501    0  0.00000000000E+00  0.00000000000E+00 -0.54331629425E+03  0.54331629426E+03  0.25500000920E-02 0.  1.
    10030    2    1    2    0    0  0.00000000000E+00  0.00000000000E+00  0.14937626252E+04  0.25803952137E+04  0.21040705023E+04 0.  0.
        1    1    3    3  502    0  0.42334411116E+03 -0.25486553051E+03  0.18859005074E+04  0.19495633868E+04  0.50400001928E-02 0. -1.
       -1    1    3    3    0  502 -0.42334411116E+03  0.25486553051E+03 -0.39213788226E+03  0.63083182690E+03  0.50400001928E-02 0.  1.
</event>
<event>
 5   0  0.3130517E-05  0.2105141E+04  0.7818609E-02  0.8558982E-01
        2   -1    0    0  501    0  0.00000000000E+00  0.00000000000E+00  0.14495487608E+04  0.14495487608E+04  0.25500000920E-02 0. -1.
       -2   -1    0    0    0  501  0.00000000000E+00  0.00000000000E+00 -0.76431024979E+03  0.76431024979E+03  0.25500000920E-02 0.  1.
    10030    2    1    2    0    0  0.00000000000E+00  0.00000000000E+00  0.68523851100E+03  0.22138590106E+04  0.21051413021E+04 0.  0.
        1    1    3    3  502    0  0.85934245573E+03 -0.45110953994E+03 -0.85770055652E+02  0.97433350333E+03  0.50400001928E-02 0.  1.
       -1    1    3    3    0  502 -0.85934245573E+03  0.45110953994E+03  0.77100856665E+03  0.12395255072E+04  0.50400001928E-02 0. -1.
</event>
<event>
 5   0  0.1435410E-05  0.2099528E+04  0.7818609E-02  0.8561451E-01
        1   -1    0    0  501    0  0.00000000000E+00  0.00000000000E+00  0.14559105629E+04  0.14559105629E+04  0.50400001928E-02 0.  1.
       -1   -1    0    0    0  501  0.00000000000E+00  0.00000000000E+00 -0.75691739554E+03  0.75691739555E+03  0.50400001928E-02 0. -1.
    10030    2    1    2    0    0  0.00000000000E+00  0.00000000000E+00  0.69899316732E+03  0.22128279584E+04  0.20995275958E+04 0.  0.
        2    1    3    3  502    0 -0.40061242391E+03  0.96988892368E+03  0.31914692167E+03  0.10968270584E+04  0.25500000920E-02 0. -1.
       -2    1    3    3    0  502  0.40061242391E+03 -0.96988892368E+03  0.37984624565E+03  0.11160009000E+04  0.25500000920E-02 0.  1.
</event>
<event>
 5   0  0.1453430E-05  0.2093076E+04  0.7818609E-02  0.8564299E-01
        1   -1    0    0  501    0  0.00000000000E+00  0.00000000000E+00  0.72589199802E+03  0.72589199804E+03  0.50400001928E-02 0. -1.
       -1   -1    0    0    0  501  0.00000000000E+00  0.00000000000E+00 -0.15088226593E+04  0.15088226593E+04  0.50400001928E-02 0.  1.
    10030    2    1    2    0    0  0.00000000000E+00  0.00000000000E+00 -0.78293066129E+03  0.22347146574E+04  0.20930764868E+04 0.  0.
        5    1    3    3  502    0 -0.31962046509E+02 -0.46381233440E+03  0.60957223573E+03  0.76664454249E+03  0.46999998093E+01 0. -1.
       -5    1    3    3    0  502  0.31962046509E+02  0.46381233440E+03 -0.13925028970E+04  0.14680701149E+04  0.46999998093E+01 0.  1.
</event>
<event>
 5   0  0.3108326E-05  0.2103604E+04  0.7818609E-02  0.8559658E-01
       -2   -1    0    0    0  501  0.00000000000E+00  0.00000000000E+00  0.10799925201E+04  0.10799925201E+04  0.25500000920E-02 0.  1.
        2   -1    0    0  501    0  0.00000000000E+00  0.00000000000E+00 -0.10243468831E+04  0.10243468831E+04  0.25500000920E-02 0. -1.
    10030    2    1    2    0    0  0.00000000000E+00  0.00000000000E+00  0.55645636950E+02  0.21043394032E+04  0.21036035480E+04 0.  0.
        5    1    3    3  502    0  0.99668122358E+03  0.29043844972E+03 -0.14116503779E+03  0.10477011083E+04  0.46999998093E+01 0. -1.
       -5    1    3    3    0  502 -0.99668122358E+03 -0.29043844972E+03  0.19681067474E+03  0.10566382949E+04  0.46999998093E+01 0.  1.
</event>
<event>
 5   0  0.1492552E-05  0.2102813E+04  0.7818609E-02  0.8560005E-01
       -1   -1    0    0    0  501  0.00000000000E+00  0.00000000000E+00  0.11293222389E+04  0.11293222389E+04  0.50400001928E-02 0.  1.
        1   -1    0    0  501    0  0.00000000000E+00  0.00000000000E+00 -0.97886673553E+03  0.97886673554E+03  0.50400001928E-02 0. -1.
    10030    2    1    2    0    0  0.00000000000E+00  0.00000000000E+00  0.15045550338E+03  0.21081889745E+04  0.21028133283E+04 0.  0.
        4    1    3    3  502    0  0.60622316808E+03  0.39522280152E+03  0.83990084047E+03  0.11086670497E+04  0.12699999809E+01 0.  1.
       -4    1    3    3    0  502 -0.60622316808E+03 -0.39522280152E+03 -0.68944533709E+03  0.99952192477E+03  0.12699999809E+01 0. -1.
</event>
<event>
 5   0  0.3279789E-05  0.2098063E+04  0.7818609E-02  0.8562097E-01
        2   -1    0    0  501    0  0.00000000000E+00  0.00000000000E+00  0.17495428295E+04  0.17495428296E+04  0.25500000920E-02 0. -1.
       -2   -1    0    0    0  501  0.00000000000E+00  0.00000000000E+00 -0.62900293435E+03  0.62900293436E+03  0.25500000920E-02 0.  1.
    10030    2    1    2    0    0  0.00000000000E+00  0.00000000000E+00  0.11205398952E+04  0.23785457639E+04  0.20980634629E+04 0.  0.
        2    1    3    3  502    0 -0.29005148616E+03  0.10012106194E+04  0.69400171018E+03  0.12522743081E+04  0.25500000920E-02 0. -1.
       -2    1    3    3    0  502  0.29005148616E+03 -0.10012106194E+04  0.42653818502E+03  0.11262714558E+04  0.25500000920E-02 0.  1.
</event>
<event>
 5   0  0.1513292E-05  0.2122808E+04  0.7818609E-02  0.8551262E-01
        1   -1    0    0  501    0  0.00000000000E+00  0.00000000000E+00  0.20255976024E+04  0.20255976025E+04  0.50400001928E-02 0. -1.
       -1   -1    0    0    0  501  0.00000000000E+00  0.00000000000E+00 -0.55617085843E+03  0.55617085846E+03  0.50400001928E-02 0.  1.
    10030    2    1    2    0    0  0.00000000000E+00  0.00000000000E+00  0.14694267440E+04  0.25817684609E+04  0.21228079116E+04 0.  0.
        1    1    3    3  502    0  0.40586844254E+03 -0.86006434722E+03  0.13079296236E+04  0.16171331962E+04  0.50400001928E-02 0. -1.
       -1    1    3    3    0  502 -0.40586844254E+03  0.86006434722E+03  0.16149712045E+03  0.96463526472E+03  0.50400001928E-02 0.  1.
</event>
<event>
 5   0  0.3257130E-05  0.2096436E+04  0.7818609E-02  0.8562815E-01
       -2   -1    0    0    0  501  0.00000000000E+00  0.00000000000E+00  0.85339853236E+03  0.85339853237E+03  0.25500000920E-02 0.  1.
        2   -1    0    0  501    0  0.00000000000E+00  0.00000000000E+00 -0.12875118761E+04  0.12875118761E+04  0.25500000920E-02 0. -1.
    10030    2    1    2    0    0  0.00000000000E+00  0.00000000000E+00 -0.43411334377E+03  0.21409104085E+04  0.20964357806E+04 0.  0.
        3    1    3    3  502    0 -0.51232385314E+01 -0.59971976499E+03 -0.10949867338E+04  0.12484734685E+04  0.10100000352E+00 0. -1.
       -3    1    3    3    0  502  0.51232385314E+01  0.59971976499E+03  0.66087339002E+03  0.89243694003E+03  0.10100000352E+00 0.  1.
</event>
<event>
 5   0  0.3108326E-05  0.2104046E+04  0.7818609E-02  0.8559463E-01
        2   -1    0    0  501    0  0.00000000000E+00  0.00000000000E+00  0.13186958309E+04  0.13186958309E+04  0.25500000920E-02 0.  1.
       -2   -1    0    0    0  501  0.00000000000E+00  0.00000000000E+00 -0.83927819520E+03  0.83927819520E+03  0.25500000920E-02 0. -1.
    10030    2    1    2    0    0  0.00000000000E+00  0.00000000000E+00  0.47941763573E+03  0.21579740261E+04  0.21040462514E+04 0.  0.
        5    1    3    3  502    0  0.98373355453E+03  0.14095251308E+03 -0.11429160409E+03  0.10003419306E+04  0.46999998093E+01 0. -1.
       -5    1    3    3    0  502 -0.98373355453E+03 -0.14095251308E+03  0.59370923982E+03  0.11576320956E+04  0.46999998093E+01 0.  1.
</event>
<event>
 5   0  0.1513292E-05  0.2115078E+04  0.7818609E-02  0.8554630E-01
       -1   -1    0    0    0  501  0.00000000000E+00  0.00000000000E+00  0.89302713452E+03  0.89302713454E+03  0.50400001928E-02 0. -1.
        1   -1    0    0  501    0  0.00000000000E+00  0.00000000000E+00 -0.12523571012E+04  0.12523571012E+04  0.50400001928E-02 0.  1.
    10030    2    1    2    0    0  0.00000000000E+00  0.00000000000E+00 -0.35932996671E+03  0.21453842358E+04  0.21150781296E+04 0.  0.
        1    1    3    3  502    0  0.10986486243E+03 -0.40551543603E+03 -0.11640737976E+04  0.12375705488E+04  0.50400001928E-02 0.  1.
       -1    1    3    3    0  502 -0.10986486243E+03  0.40551543603E+03  0.80474383093E+03  0.90781368699E+03  0.50400001928E-02 0. -1.
</event>
<event>
 5   0  0.1492552E-05  0.2100346E+04  0.7818609E-02  0.8561091E-01
        1   -1    0    0  501    0  0.00000000000E+00  0.00000000000E+00  0.10115814635E+04  0.10115814635E+04  0.50400001928E-02 0. -1.
       -1   -1    0    0    0  501  0.00000000000E+00  0.00000000000E+00 -0.10902365789E+04  0.10902365790E+04  0.50400001928E-02 0.  1.
    10030    2    1    2    0    0  0.00000000000E+00  0.00000000000E+00 -0.78655115461E+02  0.21018180424E+04  0.21003457945E+04 0.  0.
        4    1    3    3  502    0 -0.45590022184E+03  0.38537609354E+03 -0.90393651591E+03  0.10832647799E+04  0.12699999809E+01 0.  1.
       -4    1    3    3    0  502  0.45590022184E+03 -0.38537609354E+03  0.82528140045E+03  0.10185532625E+04  0.12699999809E+01 0. -1.
</event>
<event>
 5   0  0.1129987E-05  0.2097805E+04  0.7818609E-02  0.8562211E-01
        3   -1    0    0  501    0  0.00000000000E+00  0.00000000000E+00  0.46782563127E+03  0.46782564217E+03  0.10100000352E+00 0.  1.
       -3   -1    0    0    0  501  0.00000000000E+00  0.00000000000E+00 -0.23517234773E+04  0.23517234794E+04  0.10100000352E+00 0. -1.
    10030    2    1    2    0    0  0.00000000000E+00  0.00000000000E+00 -0.18838978460E+04  0.28195491216E+04  0.20978050803E+04 0.  0.
        2    1    3    3  502    0  0.89429571818E+03  0.27651637241E+03 -0.30587169464E+03  0.98477592850E+03  0.25500000920E-02 0.  1.
       -2    1    3    3    0  502 -0.89429571818E+03 -0.27651637241E+03 -0.15780261514E+04  0.18347731931E+04  0.25500000920E-02 0. -1.
</event>
<event>
 5   0  0.1453430E-05  0.2102521E+04  0.7818609E-02  0.8560133E-01
        1   -1    0    0  501    0  0.00000000000E+00  0.00000000000E+00  0.11561133199E+04  0.11561133199E+04  0.50400001928E-02 0. -1.
       -1   -1    0    0    0  501  0.00000000000E+00  0.00000000000E+00 -0.95591767380E+03  0.95591767381E+03  0.50400001928E-02 0.  1.
    10030    2    1    2    0    0  0.00000000000E+00  0.00000000000E+00  0.20019564613E+03  0.21120309938E+04  0.21025214914E+04 0.  0.
        5    1    3    3  502    0  0.20829880714E+03 -0.93733811923E+03 -0.32978155686E+03  0.10152679982E+04  0.46999998093E+01 0.  1.
       -5    1    3    3    0  502 -0.20829880714E+03  0.93733811923E+03  0.52997720300E+03  0.10967629956E+04  0.46999998093E+01 0. -1.
</event>
<event>
 5   0  0.3108326E-05  0.2098103E+04  0.7818609E-02  0.8562079E-01
       -2   -1    0    0    0  501  0.00000000000E+00  0.00000000000E+00  0.13917114556E+04  0.13917114556E+04  0.25500000920E-02 0.  1.
        2   -1    0    0  501    0  0.00000000000E+00  0.00000000000E+00 -0.79075983951E+03  0.79075983951E+03  0.25500000920E-02 0. -1.
    10030    2    1    2    0    0  0.00000000000E+00  0.00000000000E+00  0.60095161611E+03  0.21824712951E+04  0.20981034553E+04 0.  0.
        5    1    3    3  502    0 -0.43881095169E+03 -0.11758709480E+03  0.12840702449E+04  0.13620720465E+04  0.46999998093E+01 0.  1.
       -5    1    3    3    0  502  0.43881095169E+03  0.11758709480E+03 -0.68311862875E+03  0.82039924861E+03  0.46999998093E+01 0. -1.
</event>
<event>
 5   0  0.3108326E-05  0.2093104E+04  0.7818609E-02  0.8564287E-01
       -2   -1    0    0    0  501  0.00000000000E+00  0.00000000000E+00  0.68865908610E+03  0.68865908611E+03  0.25500000920E-02 0.  1.
        2   -1    0    0  501    0  0.00000000000E+00  0.00000000000E+00 -0.15904405452E+04  0.15904405452E+04  0.25500000920E-02 0. -1.
    10030    2    1    2    0    0  0.00000000000E+00  0.00000000000E+00 -0.90178145907E+03  0.22790996313E+04  0.20931042328E+04 0.  0.
        5    1    3    3  502    0 -0.66150377135E+03  0.79203803400E+03 -0.26123578114E+03  0.10645082011E+04  0.46999998093E+01 0. -1.
       -5    1    3    3    0  502  0.66150377135E+03 -0.79203803400E+03 -0.64054567793E+03  0.12145914302E+04  0.46999998093E+01 0.  1.
</event>
<event>
 5   0  0.3257130E-05  0.2094578E+04  0.7818609E-02  0.8563635E-01
       -2   -1    0    0    0  501  0.00000000000E+00  0.00000000000E+00  0.11676302788E+04  0.11676302788E+04  0.25500000920E-02 0. -1.
        2   -1    0    0  501    0  0.00000000000E+00  0.00000000000E+00 -0.93935103017E+03  0.93935103017E+03  0.25500000920E-02 0.  1.
    10030    2    1    2    0    0  0.00000000000E+00  0.00000000000E+00  0.22827924862E+03  0.21069813090E+04  0.20945784351E+04 0.  0.
        3    1    3    3  502    0 -0.11143127704E+03  0.89463446491E+03 -0.42195792551E+03  0.99540758306E+03  0.10100000352E+00 0.  1.
       -3    1    3    3    0  502  0.11143127704E+03 -0.89463446491E+03  0.65023717413E+03  0.11115737259E+04  0.10100000352E+00 0. -1.
</event>
<event>
 5   0  0.3108326E-05  0.1994283E+04  0.7818609E-02  0.8609298E-01
       -2   -1    0    0    0  501  0.00000000000E+00  0.00000000000E+00  0.92164751343E+03  0.92164751343E+03  0.25500000920E-02 0. -1.
        2   -1    0    0  501    0  0.00000000000E+00  0.00000000000E+00 -0.10788191720E+04  0.10788191720E+04  0.25500000920E-02 0.  1.
    10030    2    1    2    0    0  0.00000000000E+00  0.00000000000E+00 -0.15717165860E+03  0.20004666855E+04  0.19942828359E+04 0.  0.
        5    1    3    3  502    0 -0.42964851552E+03 -0.48455679383E+03  0.68197084052E+03  0.94047830951E+03  0.46999998093E+01 0. -1.
       -5    1    3    3    0  502  0.42964851552E+03  0.48455679383E+03 -0.83914249912E+03  0.10599883760E+04  0.46999998093E+01 0.  1.
</event>
<event>
 5   0  0.1435410E-05  0.2103070E+04  0.7818609E-02  0.8559892E-01
        1   -1    0    0  501    0  0.00000000000E+00  0.00000000000E+00  0.12562890750E+04  0.12562890750E+04  0.50400001928E-02 0.  1.
       -1   -1    0    0    0  501  0.00000000000E+00  0.00000000000E+00 -0.88015214711E+03  0.88015214712E+03  0.50400001928E-02 0. -1.
    10030    2    1    2    0    0  0.00000000000E+00  0.00000000000E+00  0.37613692792E+03  0.21364412222E+04  0.21030696867E+04 0.  0.
        2    1    3    3  502    0  0.40938974386E+03 -0.31803368929E+02 -0.79533905377E+03  0.89508414527E+03  0.25500000920E-02 0. -1.
       -2    1    3    3    0  502 -0.40938974386E+03  0.31803368929E+02  0.11714759817E+04  0.12413570769E+04  0.25500000920E-02 0.  1.
</event>
<event>
 5   0  0.3257130E-05  0.2092875E+04  0.7818609E-02  0.8564389E-01
        2   -1    0    0  501    0  0.00000000000E+00  0.00000000000E+00  0.12346170383E+04  0.12346170383E+04  0.25500000920E-02 0. -1.
       -2   -1    0    0    0  501  0.00000000000E+00  0.00000000000E+00 -0.88693999957E+03  0.88693999958E+03  0.25500000920E-02 0.  1.
    10030    2    1    2    0    0  0.00000000000E+00  0.00000000000E+00  0.34767703870E+03  0.21215570378E+04  0.20928748031E+04 0.  0.
        3    1    3    3  502    0  0.23654322045E+03 -0.12864676316E+03  0.11988982725E+04  0.12287635097E+04  0.10100000352E+00 0. -1.
       -3    1    3    3    0  502 -0.23654322045E+03  0.12864676316E+03 -0.85122123380E+03  0.89279352813E+03  0.10100000352E+00 0.  1.
</event>
<event>
 5   0  0.3242231E-05  0.2102660E+04  0.7818609E-02  0.8560072E-01
       -2   -1    0    0    0  501  0.00000000000E+00  0.00000000000E+00  0.14570574137E+04  0.14570574137E+04  0.25500000920E-02 0. -1.
        2   -1    0    0  501    0  0.00000000000E+00  0.00000000000E+00 -0.75858037004E+03  0.75858037004E+03  0.25500000920E-02 0.  1.
    10030    2    1    2    0    0  0.00000000000E+00  0.00000000000E+00  0.69847704370E+03  0.22156377838E+04  0.21026603645E+04 0.  0.
        4    1    3    3  502    0 -0.79943059891E+03 -0.29551476993E+03 -0.29936270844E+03  0.90334816424E+03  0.12699999809E+01 0.  1.
       -4    1    3    3    0  502  0.79943059891E+03  0.29551476993E+03  0.99783975214E+03  0.13122896195E+04  0.12699999809E+01 0. -1.
</event>
<event>
 5   0  0.3257130E-05  0.2089470E+04  0.7818609E-02  0.8565896E-01
        2   -1    0    0  501    0  0.00000000000E+00  0.00000000000E+00  0.64880620642E+03  0.64880620642E+03  0.25500000920E-02 0.  1.
       -2   -1    0    0    0  501  0.00000000000E+00  0.00000000000E+00 -0.16822758080E+04  0.16822758080E+04  0.25500000920E-02 0. -1.
    10030    2    1    2    0    0  0.00000000000E+00  0.00000000000E+00 -0.10334696016E+04  0.23310820144E+04  0.20894697750E+04 0.  0.
        3    1    3    3  502    0  0.55108419567E+03  0.59314283228E+02 -0.15047217684E+04  0.16035584135E+04  0.10100000352E+00 0. -1.
       -3    1    3    3    0  502 -0.55108419567E+03 -0.59314283228E+02  0.47125216687E+03  0.72752360091E+03  0.10100000352E+00 0.  1.
</event>
<event>
 5   0  0.1435410E-05  0.2097816E+04  0.7818609E-02  0.8562206E-01
        1   -1    0    0  501    0  0.00000000000E+00  0.00000000000E+00  0.87636827770E+03  0.87636827771E+03  0.50400001928E-02 0.  1.
       -1   -1    0    0    0  501  0.00000000000E+00  0.00000000000E+00 -0.12554179952E+04  0.12554179952E+04  0.50400001928E-02 0. -1.
    10030    2    1    2    0    0  0.00000000000E+00  0.00000000000E+00 -0.37904971747E+03  0.21317862729E+04  0.20978164898E+04 0.  0.
        2    1    3    3  502    0  0.51683206916E+03 -0.91111283338E+03 -0.24487261923E+03  0.10757344387E+04  0.25500000920E-02 0. -1.
       -2    1    3    3    0  502 -0.51683206916E+03  0.91111283338E+03 -0.13417709825E+03  0.10560518342E+04  0.25500000920E-02 0.  1.
</event>
<event>
 5   0  0.3279789E-05  0.2102649E+04  0.7818609E-02  0.8560077E-01
        2   -1    0    0  501    0  0.00000000000E+00  0.00000000000E+00  0.93897221632E+03  0.93897221632E+03  0.25500000920E-02 0. -1.
       -2   -1    0    0    0  501  0.00000000000E+00  0.00000000000E+00 -0.11771203069E+04  0.11771203069E+04  0.25500000920E-02 0.  1.
    10030    2    1    2    0    0  0.00000000000E+00  0.00000000000E+00 -0.23814809056E+03  0.21160925232E+04  0.21026490562E+04 0.  0.
        2    1    3    3  502    0 -0.51943898637E+03 -0.29943284133E+03  0.75004828064E+03  0.96023398728E+03  0.25500000920E-02 0. -1.
       -2    1    3    3    0  502  0.51943898637E+03  0.29943284133E+03 -0.98819637120E+03  0.11558585359E+04  0.25500000920E-02 0.  1.
</event>
<event>
 5   0  0.1492552E-05  0.2104022E+04  0.7818609E-02  0.8559474E-01
       -1   -1    0    0    0  501  0.00000000000E+00  0.00000000000E+00  0.70118601426E+03  0.70118601428E+03  0.50400001928E-02 0.  1.
        1   -1    0    0  501    0  0.00000000000E+00  0.00000000000E+00 -0.15783639178E+04  0.15783639178E+04  0.50400001928E-02 0. -1.
    10030    2    1    2    0    0  0.00000000000E+00  0.00000000000E+00 -0.87717790352E+03  0.22795499321E+04  0.21040215822E+04 0.  0.
        4    1    3    3  502    0 -0.36142038212E+03 -0.28284923255E+03 -0.14641850521E+04  0.15344275352E+04  0.12699999809E+01 0. -1.
       -4    1    3    3    0  502  0.36142038212E+03  0.28284923255E+03  0.58700714859E+03  0.74512239690E+03  0.12699999809E+01 0.  1.
</event>
<event>
 5   0  0.1492552E-05  0.2109552E+04  0.7818609E-02  0.8557047E-01
       -1   -1    0    0    0  501  0.00000000000E+00  0.00000000000E+00  0.12411926260E+04  0.12411926260E+04  0.50400001928E-02 0. -1.
        1   -1    0    0  501    0  0.00000000000E+00  0.00000000000E+00 -0.89635779808E+03  0.89635779809E+03  0.50400001928E-02 0.  1.
    10030    2    1    2    0    0  0.00000000000E+00  0.00000000000E+00  0.34483482789E+03  0.21375504241E+04  0.21095522646E+04 0.  0.
        4    1    3    3  502    0  0.56107664995E+03  0.64951264116E+03 -0.44880795803E+03  0.96855762567E+03  0.12699999809E+01 0.  1.
       -4    1    3    3    0  502 -0.56107664995E+03 -0.64951264116E+03  0.79364278592E+03  0.11689927984E+04  0.12699999809E+01 0. -1.
</event>
<event>
 5   0  0.3242231E-05  0.2100301E+04  0.7818609E-02  0.8561111E-01
        2   -1    0    0  501    0  0.00000000000E+00  0.00000000000E+00  0.20565951476E+04  0.20565951476E+04  0.25500000920E-02 0. -1.
       -2   -1    0    0    0  501  0.00000000000E+00  0.00000000000E+00 -0.53623381878E+03  0.53623381879E+03  0.25500000920E-02 0.  1.
    10030    2    1    2    0    0  0.00000000000E+00  0.00000000000E+00  0.15203613288E+04  0.25928289664E+04  0.21003008067E+04 0.  0.
        4    1    3    3  502    0  0.70029985412E+03  0.57233327823E+03  0.10133382724E+03  0.91008539407E+03  0.12699999809E+01 0.  1.
       -4    1    3    3    0  502 -0.70029985412E+03 -0.57233327823E+03  0.14190275016E+04  0.16827435723E+04  0.12699999809E+01 0. -1.
</event>
<event>
 5   0  0.1466480E-05  0.2087968E+04  0.7818609E-02  0.8566562E-01
       -1   -1    0    0    0  501  0.00000000000E+00  0.00000000000E+00  0.89430014141E+03  0.89430014143E+03  0.50400001928E-02 0.  1.
        1   -1    0    0  501    0  0.00000000000E+00  0.00000000000E+00 -0.12187207238E+04  0.12187207238E+04  0.50400001928E-02 0. -1.
    10030    2    1    2    0    0  0.00000000000E+00  0.00000000000E+00 -0.32442058235E+03  0.21130208652E+04  0.20879675435E+04 0.  0.
        3    1    3    3  502    0  0.67950198009E+03 -0.13868678351E+03 -0.95192299907E+03  0.11777581973E+04  0.10100000352E+00 0. -1.
       -3    1    3    3    0  502 -0.67950198009E+03  0.13868678351E+03  0.62750241671E+03  0.93526266794E+03  0.10100000352E+00 0.  1.
</event>
<event>
 5   0  0.1435410E-05  0.2110547E+04  0.7818609E-02  0.8556612E-01
        1   -1    0    0  501    0  0.00000000000E+00  0.00000000000E+00  0.94861780888E+03  0.94861780890E+03  0.50400001928E-02 0. -1.
       -1   -1    0    0    0  501  0.00000000000E+00  0.00000000000E+00 -0.11739204731E+04  0.11739204731E+04  0.50400001928E-02 0.  1.
    10030    2    1    2    0    0  0.00000000000E+00  0.00000000000E+00 -0.22530266419E+03  0.21225382820E+04  0.21105467225E+04 0.  0.
        2    1    3    3  502    0  0.83061880223E+03  0.48494116662E+03  0.32398868829E+03  0.10149207850E+04  0.25500000920E-02 0. -1.
       -2    1    3    3    0  502 -0.83061880223E+03 -0.48494116662E+03 -0.54929135248E+03  0.11076174970E+04  0.25500000920E-02 0.  1.
</event>
<event>
 5   0  0.3257130E-05  0.2102210E+04  0.7818609E-02  0.8560271E-01
        2   -1    0    0  501    0  0.00000000000E+00  0.00000000000E+00  0.15240281900E+04  0.15240281900E+04  0.25500000920E-02 0. -1.
       -2   -1    0    0    0  501  0.00000000000E+00  0.00000000000E+00 -0.72493494917E+03  0.72493494917E+03  0.25500000920E-02 0.  1.
    10030    2    1    2    0    0  0.00000000000E+00  0.00000000000E+00  0.79909324087E+03  0.22489631392E+04  0.21022095980E+04 0.  0.
        3    1    3    3  502    0 -0.52232701425E+03 -0.91059218008E+03  0.34275939911E+03  0.11043041448E+04  0.10100000352E+00 0. -1.
       -3    1    3    3    0  502  0.52232701425E+03  0.91059218008E+03  0.45633384176E+03  0.11446589945E+04  0.10100000352E+00 0.  1.
</event>
<event>
 5   0  0.3257130E-05  0.2077753E+04  0.7818609E-02  0.8571107E-01
       -2   -1    0    0    0  501  0.00000000000E+00  0.00000000000E+00  0.83954232614E+03  0.83954232614E+03  0.25500000920E-02 0.  1.
        2   -1    0    0  501    0  0.00000000000E+00  0.00000000000E+00 -0.12855389789E+04  0.12855389789E+04  0.25500000920E-02 0. -1.
    10030    2    1    2    0    0  0.00000000000E+00  0.00000000000E+00 -0.44599665272E+03  0.21250813050E+04  0.20777530023E+04 0.  0.
        3    1    3    3  502    0  0.17573477576E+03  0.63525560959E+03 -0.10443041720E+04  0.12349103671E+04  0.10100000352E+00 0. -1.
       -3    1    3    3    0  502 -0.17573477576E+03 -0.63525560959E+03  0.59830751926E+03  0.89017093792E+03  0.10100000352E+00 0.  1.
</event>
<event>
 5   0  0.3242231E-05  0.2098279E+04  0.7818609E-02  0.8562002E-01
        2   -1    0    0  501    0  0.00000000000E+00  0.00000000000E+00  0.14142386365E+04  0.14142386365E+04  0.25500000920E-02 0. -1.
       -2   -1    0    0    0  501  0.00000000000E+00  0.00000000000E+00 -0.77829430529E+03  0.77829430530E+03  0.25500000920E-02 0.  1.
    10030    2    1    2    0    0  0.00000000000E+00  0.00000000000E+00  0.63594433120E+03  0.21925329418E+04  0.20982791779E+04 0.  0.
        4    1    3    3  502    0 -0.17210938841E+03  0.56226100361E+03 -0.58992595015E+03  0.83293055972E+03  0.12699999809E+01 0.  1.
       -4    1    3    3    0  502  0.17210938841E+03 -0.56226100361E+03  0.12258702813E+04  0.13596023821E+04  0.12699999809E+01 0. -1.
</event>
<event>
 5   0  0.1513292E-05  0.2123397E+04  0.7818609E-02  0.8551006E-01
       -1   -1    0    0    0  501  0.00000000000E+00  0.00000000000E+00  0.62354880205E+03  0.62354880207E+03  0.50400001928E-02 0. -1.
        1   -1    0    0  501    0  0.00000000000E+00  0.00000000000E+00 -0.18077235932E+04  0.18077235932E+04  0.50400001928E-02 0.  1.
    10030    2    1    2    0    0  0.00000000000E+00  0.00000000000E+00 -0.11841747912E+04  0.24312723953E+04  0.21233971659E+04 0.  0.
        1    1    3    3  502    0  0.10285736922E+04 -0.24728783840E+03 -0.48910961815E+03  0.11654798728E+04  0.50400001928E-02 0.  1.
       -1    1    3    3    0  502 -0.10285736922E+04  0.24728783840E+03 -0.69506517304E+03  0.12657925225E+04  0.50400001928E-02 0. -1.
</event>
<event>
 5   0  0.3242231E-05  0.2122975E+04  0.7818609E-02  0.8551190E-01
        2   -1    0    0  501    0  0.00000000000E+00  0.00000000000E+00  0.85016009500E+03  0.85016009500E+03  0.25500000920E-02 0. -1.
       -2   -1    0    0    0  501  0.00000000000E+00  0.00000000000E+00 -0.13253458401E+04  0.13253458401E+04  0.25500000920E-02 0.  1.
    10030    2    1    2    0    0  0.00000000000E+00  0.00000000000E+00 -0.47518574508E+03  0.21755059351E+04  0.21229754076E+04 0.  0.
        4    1    3    3  502    0 -0.35611485018E+03  0.21586456672E+03  0.76295769464E+03  0.86920731382E+03  0.12699999809E+01 0. -1.
       -4    1    3    3    0  502  0.35611485018E+03 -0.21586456672E+03 -0.12381434397E+04  0.13062986213E+04  0.12699999809E+01 0.  1.
</event>
<event>
 5   0  0.1466480E-05  0.2045979E+04  0.7818609E-02  0.8585421E-01
       -1   -1    0    0    0  501  0.00000000000E+00  0.00000000000E+00  0.11052004323E+04  0.11052004323E+04  0.50400001928E-02 0.  1.
        1   -1    0    0  501    0  0.00000000000E+00  0.00000000000E+00 -0.94689380248E+03  0.94689380249E+03  0.50400001928E-02 0. -1.
    10030    2    1    2    0    0  0.00000000000E+00  0.00000000000E+00  0.15830662985E+03  0.20520942348E+04  0.20459789245E+04 0.  0.
        3    1    3    3  502    0  0.95061582627E+03  0.32496421550E+03 -0.11438779105E+03  0.10111165944E+04  0.10100000352E+00 0. -1.
       -3    1    3    3    0  502 -0.95061582627E+03 -0.32496421550E+03  0.27269442090E+03  0.10409776404E+04  0.10100000352E+00 0.  1.
</event>
<event>
 5   0  0.3257130E-05  0.2100860E+04  0.7818609E-02  0.8560865E-01
       -2   -1    0    0    0  501  0.00000000000E+00  0.00000000000E+00  0.10446532753E+04  0.10446532753E+04  0.25500000920E-02 0. -1.
        2   -1    0    0  501    0  0.00000000000E+00  0.00000000000E+00 -0.10562386081E+04  0.10562386081E+04  0.25500000920E-02 0.  1.
    10030    2    1    2    0    0  0.00000000000E+00  0.00000000000E+00 -0.11585332805E+02  0.21008918834E+04  0.21008599396E+04 0.  0.
        3    1    3    3  502    0 -0.85387459136E+03 -0.61038698320E+03  0.35789503050E+02  0.10502166375E+04  0.10100000352E+00 0. -1.
       -3    1    3    3    0  502  0.85387459136E+03  0.61038698320E+03 -0.47374835855E+02  0.10506752459E+04  0.10100000352E+00 0.  1.
</event>
<event>
 5   0  0.3257130E-05  0.2196036E+04  0.7818609E-02  0.8520080E-01
       -2   -1    0    0    0  501  0.00000000000E+00  0.00000000000E+00  0.14291547510E+04  0.14291547510E+04  0.25500000920E-02 0.  1.
        2   -1    0    0  501    0  0.00000000000E+00  0.00000000000E+00 -0.84360621270E+03  0.84360621271E+03  0.25500000920E-02 0. -1.
    10030    2    1    2    0    0  0.00000000000E+00  0.00000000000E+00  0.58554853827E+03  0.22727609637E+04  0.21960362719E+04 0.  0.
        3    1    3    3  502    0  0.35787590780E+03  0.14312946787E+03  0.13568406353E+04  0.14105239203E+04  0.10100000352E+00 0.  1.
       -3    1    3    3    0  502 -0.35787590780E+03 -0.14312946787E+03 -0.77129209699E+03  0.86223704341E+03  0.10100000352E+00 0. -1.
</event>
<event>
 5   0  0.1492552E-05  0.2060429E+04  0.7818609E-02  0.8578878E-01
        1   -1    0    0  501    0  0.00000000000E+00  0.00000000000E+00  0.13291280251E+04  0.13291280251E+04  0.50400001928E-02 0.  1.
       -1   -1    0    0    0  501  0.00000000000E+00  0.00000000000E+00 -0.79852521681E+03  0.79852521683E+03  0.50400001928E-02 0. -1.
    10030    2    1    2    0    0  0.00000000000E+00  0.00000000000E+00  0.53060280826E+03  0.21276532419E+04  0.20604293188E+04 0.  0.
        4    1    3    3  502    0  0.17813999641E+03  0.68662587836E+03 -0.50616895606E+03  0.87143420872E+03  0.12699999809E+01 0. -1.
       -4    1    3    3    0  502 -0.17813999641E+03 -0.68662587836E+03  0.10367717643E+04  0.12562190332E+04  0.12699999809E+01 0.  1.
</event>
<event>
 5   0  0.1513292E-05  0.2079254E+04  0.7818609E-02  0.8570437E-01
        1   -1    0    0  501    0  0.00000000000E+00  0.00000000000E+00  0.81862843469E+03  0.81862843470E+03  0.50400001928E-02 0.  1.
       -1   -1    0    0    0  501  0.00000000000E+00  0.00000000000E+00 -0.13202871287E+04  0.13202871287E+04  0.50400001928E-02 0. -1.
    10030    2    1    2    0    0  0.00000000000E+00  0.00000000000E+00 -0.50165869400E+03  0.21389155634E+04  0.20792542755E+04 0.  0.
        1    1    3    3  502    0  0.64748510682E+03  0.76099513720E+03  0.44593872947E+02  0.10001695736E+04  0.50400001928E-02 0. -1.
       -1    1    3    3    0  502 -0.64748510682E+03 -0.76099513720E+03 -0.54625256695E+03  0.11387459898E+04  0.50400001928E-02 0.  1.
</event>
<event>
 5   0  0.3130517E-05  0.2097725E+04  0.7818609E-02  0.8562246E-01
       -2   -1    0    0    0  501  0.00000000000E+00  0.00000000000E+00  0.69242706521E+03  0.69242706521E+03  0.25500000920E-02 0. -1.
        2   -1    0    0  501    0  0.00000000000E+00  0.00000000000E+00 -0.15887777413E+04  0.15887777413E+04  0.25500000920E-02 0.  1.
    10030    2    1    2    0    0  0.00000000000E+00  0.00000000000E+00 -0.89635067612E+03  0.22812048065E+04  0.20977251571E+04 0.  0.
        1    1    3    3  502    0 -0.11170218115E+03 -0.75033540025E+03 -0.12358432055E+04  0.14500996582E+04  0.50400001928E-02 0.  1.
       -1    1    3    3    0  502  0.11170218115E+03  0.75033540025E+03  0.33949252934E+03  0.83110514837E+03  0.50400001928E-02 0. -1.
</event>
<event>
 5   0  0.1492552E-05  0.2091366E+04  0.7818609E-02  0.8565056E-01
       -1   -1    0    0    0  501  0.00000000000E+00  0.00000000000E+00  0.79568830750E+03  0.79568830752E+03  0.50400001928E-02 0.  1.
        1   -1    0    0  501    0  0.00000000000E+00  0.00000000000E+00 -0.13742231564E+04  0.13742231565E+04  0.50400001928E-02 0. -1.
    10030    2    1    2    0    0  0.00000000000E+00  0.00000000000E+00 -0.57853484895E+03  0.21699114640E+04  0.20913663452E+04 0.  0.
        4    1    3    3  502    0  0.84727784455E+03  0.60143071487E+03 -0.16714811251E+03  0.10523966719E+04  0.12699999809E+01 0. -1.
       -4    1    3    3    0  502 -0.84727784455E+03 -0.60143071487E+03 -0.41138673644E+03  0.11175147921E+04  0.12699999809E+01 0.  1.
</event>
<event>
 5   0  0.3108326E-05  0.2093290E+04  0.7818609E-02  0.8564205E-01
        2   -1    0    0  501    0  0.00000000000E+00  0.00000000000E+00  0.12180938227E+04  0.12180938227E+04  0.25500000920E-02 0.  1.
       -2   -1    0    0    0  501  0.00000000000E+00  0.00000000000E+00 -0.89932760397E+03  0.89932760397E+03  0.25500000920E-02 0. -1.
    10030    2    1    2    0    0  0.00000000000E+00  0.00000000000E+00  0.31876621873E+03  0.21174214267E+04  0.20932896589E+04 0.  0.
        5    1    3    3  502    0  0.10319150994E+04  0.97219810029E+02  0.30646516469E+03  0.10808531126E+04  0.46999998093E+01 0. -1.
       -5    1    3    3    0  502 -0.10319150994E+04 -0.97219810029E+02  0.12301054041E+02  0.10365683141E+04  0.46999998093E+01 0.  1.
</event>
<event>
 5   0  0.1435410E-05  0.2096661E+04  0.7818609E-02  0.8562716E-01
        1   -1    0    0  501    0  0.00000000000E+00  0.00000000000E+00  0.89413289377E+03  0.89413289378E+03  0.50400001928E-02 0.  1.
       -1   -1    0    0    0  501  0.00000000000E+00  0.00000000000E+00 -0.12291197388E+04  0.12291197388E+04  0.50400001928E-02 0. -1.
    10030    2    1    2    0    0  0.00000000000E+00  0.00000000000E+00 -0.33498684499E+03  0.21232526326E+04  0.20966605723E+04 0.  0.
        2    1    3    3  502    0 -0.76036024213E+02 -0.69738757022E+03  0.62140259421E+03  0.93716171720E+03  0.25500000920E-02 0.  1.
       -2    1    3    3    0  502  0.76036024213E+02  0.69738757022E+03 -0.95638943920E+03  0.11860909154E+04  0.25500000920E-02 0. -1.
</event>
<event>
 5   0  0.1453430E-05  0.2098854E+04  0.7818609E-02  0.8561749E-01
        1   -1    0    0  501    0  0.00000000000E+00  0.00000000000E+00  0.14716035621E+04  0.14716035621E+04  0.50400001928E-02 0. -1.
       -1   -1    0    0    0  501  0.00000000000E+00  0.00000000000E+00 -0.74836493614E+03  0.74836493616E+03  0.50400001928E-02 0.  1.
    10030    2    1    2    0    0  0.00000000000E+00  0.00000000000E+00  0.72323862594E+03  0.22199684982E+04  0.20988535021E+04 0.  0.
        5    1    3    3  502    0  0.69667188181E+03 -0.72562807836E+03  0.45390901240E+02  0.10069608944E+04  0.46999998093E+01 0.  1.
       -5    1    3    3    0  502 -0.69667188181E+03  0.72562807836E+03  0.67784772470E+03  0.12130076038E+04  0.46999998093E+01 0. -1.
</event>
<event>
 5   0  0.1513292E-05  0.2099610E+04  0.7818609E-02  0.8561415E-01
        1   -1    0    0  501    0  0.00000000000E+00  0.00000000000E+00  0.17426888471E+04  0.17426888471E+04  0.50400001928E-02 0.  1.
       -1   -1    0    0    0  501  0.00000000000E+00  0.00000000000E+00 -0.63240817641E+03  0.63240817643E+03  0.50400001928E-02 0. -1.
    10030    2    1    2    0    0  0.00000000000E+00  0.00000000000E+00  0.11102806707E+04  0.23750970235E+04  0.20996101313E+04 0.  0.
        1    1    3    3  502    0 -0.23820500151E+03 -0.94880113981E+03  0.12420263907E+03  0.98609914372E+03  0.50400001928E-02 0. -1.
       -1    1    3    3    0  502  0.23820500151E+03  0.94880113981E+03  0.98607803159E+03  0.13889978798E+04  0.50400001928E-02 0.  1.
</event>
<event>
 5   0  0.3108326E-05  0.2105389E+04  0.7818609E-02  0.8558873E-01
        2   -1    0    0  501    0  0.00000000000E+00  0.00000000000E+00  0.14281215221E+04  0.14281215221E+04  0.25500000920E-02 0. -1.
       -2   -1    0    0    0  501  0.00000000000E+00  0.00000000000E+00 -0.77596055058E+03  0.77596055058E+03  0.25500000920E-02 0.  1.
    10030    2    1    2    0    0  0.00000000000E+00  0.00000000000E+00  0.65216097155E+03  0.22040820727E+04  0.21053892396E+04 0.  0.
        5    1    3    3  502    0  0.57580615278E+03 -0.84152589391E+03  0.59992482756E+03  0.11830682332E+04  0.46999998093E+01 0.  1.
       -5    1    3    3    0  502 -0.57580615278E+03  0.84152589391E+03  0.52236143987E+02  0.10210138395E+04  0.46999998093E+01 0. -1.
</event>
<event>
 5   0  0.1435410E-05  0.2103984E+04  0.7818609E-02  0.8559491E-01
       -1   -1    0    0    0  501  0.00000000000E+00  0.00000000000E+00  0.12376496263E+04  0.12376496263E+04  0.50400001928E-02 0.  1.
        1   -1    0    0  501    0  0.00000000000E+00  0.00000000000E+00 -0.89418414012E+03  0.89418414014E+03  0.50400001928E-02 0. -1.
    10030    2    1    2    0    0  0.00000000000E+00  0.00000000000E+00  0.34346548621E+03  0.21318337665E+04  0.21039835236E+04 0.  0.
        2    1    3    3  502    0 -0.37591058146E+03  0.55856172562E+03  0.99075583641E+03  0.11978719021E+04  0.25500000920E-02 0.  1.
       -2    1    3    3    0  502  0.37591058146E+03 -0.55856172562E+03 -0.64729035019E+03  0.93396186434E+03  0.25500000920E-02 0. -1.
</event>
<event>
 5   0  0.1466480E-05  0.2085427E+04  0.7818609E-02  0.8567690E-01
       -1   -1    0    0    0  501  0.00000000000E+00  0.00000000000E+00  0.53325324130E+03  0.53325324132E+03  0.50400001928E-02 0.  1.
        1   -1    0    0  501    0  0.00000000000E+00  0.00000000000E+00 -0.20389023881E+04  0.20389023881E+04  0.50400001928E-02 0. -1.
    10030    2    1    2    0    0  0.00000000000E+00  0.00000000000E+00 -0.15056491468E+04  0.25721556294E+04  0.20854268696E+04 0.  0.
        3    1    3    3  502    0  0.72205688251E+03  0.61893311979E+03 -0.12801741809E+04  0.15947696674E+04  0.10100000352E+00 0. -1.
       -3    1    3    3    0  502 -0.72205688251E+03 -0.61893311979E+03 -0.22547496591E+03  0.97738596204E+03  0.10100000352E+00 0.  1.
</event>
<event>
 5   0  0.3257130E-05  0.2068372E+04  0.7818609E-02  0.8575305E-01
       -2   -1    0    0    0  501  0.00000000000E+00  0.00000000000E+00  0.75564126609E+03  0.75564126609E+03  0.25500000920E-02 0.  1.
        2   -1    0    0  501    0  0.00000000000E+00  0.00000000000E+00 -0.14154082328E+04  0.14154082328E+04  0.25500000920E-02 0. -1.
    10030    2    1    2    0    0  0.00000000000E+00  0.00000000000E+00 -0.65976696670E+03  0.21710494989E+04  0.20683721803E+04 0.  0.
        3    1    3    3  502    0 -0.93086070825E+03 -0.82883496324E+02 -0.79478055391E+03  0.12268037623E+04  0.10100000352E+00 0. -1.
       -3    1    3    3    0  502  0.93086070825E+03  0.82883496324E+02  0.13501358721E+03  0.94424573658E+03  0.10100000352E+00 0.  1.
</event>
<event>
 5   0  0.3108326E-05  0.2104989E+04  0.7818609E-02  0.8559049E-01
        2   -1    0    0  501    0  0.00000000000E+00  0.00000000000E+00  0.16276089504E+04  0.16276089504E+04  0.25500000920E-02 0. -1.
       -2   -1    0    0    0  501  0.00000000000E+00  0.00000000000E+00 -0.68059624923E+03  0.68059624924E+03  0.25500000920E-02 0.  1.
    10030    2    1    2    0    0  0.00000000000E+00  0.00000000000E+00  0.94701270119E+03  0.23082051997E+04  0.21049888806E+04 0.  0.
        5    1    3    3  502    0 -0.11298693572E+03 -0.18762628734E+03 -0.65531935953E+03  0.69096687642E+03  0.46999998093E+01 0.  1.
       -5    1    3    3    0  502  0.11298693572E+03  0.18762628734E+03  0.16023320607E+04  0.16172383232E+04  0.46999998093E+01 0. -1.
</event>
<event>
 5   0  0.3130517E-05  0.2103601E+04  0.7818609E-02  0.8559659E-01
       -2   -1    0    0    0  501  0.00000000000E+00  0.00000000000E+00  0.58443047213E+03  0.58443047214E+03  0.25500000920E-02 0. -1.
        2   -1    0    0  501    0  0.00000000000E+00  0.00000000000E+00 -0.18929276171E+04  0.18929276171E+04  0.25500000920E-02 0.  1.
    10030    2    1    2    0    0  0.00000000000E+00  0.00000000000E+00 -0.13084971449E+04  0.24773580892E+04  0.21036012749E+04 0.  0.
        1    1    3    3  502    0 -0.25121487965E+03  0.67045701873E+03  0.25314431490E+03  0.75941001699E+03  0.50400001928E-02 0. -1.
       -1    1    3    3    0  502  0.25121487965E+03 -0.67045701873E+03 -0.15616414598E+04  0.17179480722E+04  0.50400001928E-02 0.  1.
</event>
<event>
 5   0  0.1492552E-05  0.2097296E+04  0.7818609E-02  0.8562435E-01
        1   -1    0    0  501    0  0.00000000000E+00  0.00000000000E+00  0.83237835059E+03  0.83237835061E+03  0.50400001928E-02 0. -1.
       -1   -1    0    0    0  501  0.00000000000E+00  0.00000000000E+00 -0.13211096751E+04  0.13211096752E+04  0.50400001928E-02 0.  1.
    10030    2    1    2    0    0  0.00000000000E+00  0.00000000000E+00 -0.48873132455E+03  0.21534880258E+04  0.20972964429E+04 0.  0.
        4    1    3    3  502    0 -0.21987789886E+03 -0.10074567010E+04 -0.44012029782E+03  0.11211702744E+04  0.12699999809E+01 0.  1.
       -4    1    3    3    0  502  0.21987789886E+03  0.10074567010E+04 -0.48611026728E+02  0.10323177513E+04  0.12699999809E+01 0. -1.
</event>
<event>
 5   0  0.1453430E-05  0.2099311E+04  0.7818609E-02  0.8561547E-01
       -1   -1    0    0    0  501  0.00000000000E+00  0.00000000000E+00  0.63347347373E+03  0.63347347375E+03  0.50400001928E-02 0.  1.
        1   -1    0    0  501    0  0.00000000000E+00  0.00000000000E+00 -0.17392621162E+04  0.17392621163E+04  0.50400001928E-02 0. -1.
    10030    2    1    2    0    0  0.00000000000E+00  0.00000000000E+00 -0.11057886425E+04  0.23727355900E+04  0.20993107579E+04 0.  0.
        5    1    3    3  502    0  0.86423912171E+02  0.26165926597E+03 -0.16976376530E+04  0.17198634699E+04  0.46999998093E+01 0. -1.
       -5    1    3    3    0  502 -0.86423912171E+02 -0.26165926597E+03  0.59184901048E+03  0.65287212015E+03  0.46999998093E+01 0.  1.
</event>
<event>
 5   0  0.1513292E-05  0.2099111E+04  0.7818609E-02  0.8561635E-01
        1   -1    0    0  501    0  0.00000000000E+00  0.00000000000E+00  0.13967081849E+04  0.13967081849E+04  0.50400001928E-02 0. -1.
       -1   -1    0    0    0  501  0.00000000000E+00  0.00000000000E+00 -0.78868776792E+03  0.78868776793E+03  0.50400001928E-02 0.  1.
    10030    2    1    2    0    0  0.00000000000E+00  0.00000000000E+00  0.60802041694E+03  0.21853959528E+04  0.20991109173E+04 0.  0.
        1    1    3    3  502    0 -0.14803718378E+03  0.58667473727E+03 -0.58883377530E+03  0.84429110506E+03  0.50400001928E-02 0.  1.
       -1    1    3    3    0  502  0.14803718378E+03 -0.58667473727E+03  0.11968541922E+04  0.13411048477E+04  0.50400001928E-02 0. -1.
</event>
<event>
 5   0  0.3279789E-05  0.2054541E+04  0.7818609E-02  0.8581537E-01
        2   -1    0    0  501    0  0.00000000000E+00  0.00000000000E+00  0.20357155810E+04  0.20357155810E+04  0.25500000920E-02 0.  1.
       -2   -1    0    0    0  501  0.00000000000E+00  0.00000000000E+00 -0.51838506218E+03  0.51838506219E+03  0.25500000920E-02 0. -1.
    10030    2    1    2    0    0  0.00000000000E+00  0.00000000000E+00  0.15173305189E+04  0.25541006432E+04  0.20545408714E+04 0.  0.
        2    1    3    3  502    0  0.11835610785E+03  0.62673038194E+03  0.17597557256E+04  0.18717743864E+04  0.25500000920E-02 0.  1.
       -2    1    3    3    0  502 -0.11835610785E+03 -0.62673038194E+03 -0.24242520670E+03  0.68232625683E+03  0.25500000920E-02 0. -1.
</event>
<event>
 5   0  0.1466480E-05  0.2052681E+04  0.7818609E-02  0.8582379E-01
        1   -1    0    0  501    0  0.00000000000E+00  0.00000000000E+00  0.15085803237E+04  0.15085803237E+04  0.50400001928E-02 0. -1.
       -1   -1    0    0    0  501  0.00000000000E+00  0.00000000000E+00 -0.69825544880E+03  0.69825544882E+03  0.50400001928E-02 0.  1.
    10030    2    1    2    0    0  0.00000000000E+00  0.00000000000E+00  0.81032487492E+03  0.22068357725E+04  0.20526806191E+04 0.  0.
        3    1    3    3  502    0  0.38653599422E+03 -0.73144530596E+02 -0.61398091866E+03  0.72920009316E+03  0.10100000352E+00 0.  1.
       -3    1    3    3    0  502 -0.38653599422E+03  0.73144530596E+02  0.14243057936E+04  0.14776356794E+04  0.10100000352E+00 0. -1.
</event>
<event>
 5   0  0.1435410E-05  0.2097600E+04  0.7818609E-02  0.8562302E-01
       -1   -1    0    0    0  501  0.00000000000E+00  0.00000000000E+00  0.56680005360E+03  0.56680005362E+03  0.50400001928E-02 0. -1.
        1   -1    0    0  501    0  0.00000000000E+00  0.00000000000E+00 -0.19406860674E+04  0.19406860674E+04  0.50400001928E-02 0.  1.
    10030    2    1    2    0    0  0.00000000000E+00  0.00000000000E+00 -0.13738860138E+04  0.25074861210E+04  0.20975995491E+04 0.  0.
        2    1    3    3  502    0  0.70212905648E+03 -0.77461452135E+03 -0.58715620717E+03  0.11990685052E+04  0.25500000920E-02 0.  1.
       -2    1    3    3    0  502 -0.70212905648E+03  0.77461452135E+03 -0.78672980664E+03  0.13084176158E+04  0.25500000920E-02 0. -1.
</event>
<event>
 5   0  0.1492552E-05  0.2094065E+04  0.7818609E-02  0.8563862E-01
       -1   -1    0    0    0  501  0.00000000000E+00  0.00000000000E+00  0.75079554879E+03  0.75079554881E+03  0.50400001928E-02 0.  1.
        1   -1    0    0  501    0  0.00000000000E+00  0.00000000000E+00 -0.14601541510E+04  0.14601541510E+04  0.50400001928E-02 0. -1.
    10030    2    1    2    0    0  0.00000000000E+00  0.00000000000E+00 -0.70935860218E+03  0.22109496998E+04  0.20940651729E+04 0.  0.
        4    1    3    3  502    0  0.48893488893E+03  0.58002231168E+03  0.40726108590E+03  0.86101475751E+03  0.12699999809E+01 0.  1.
       -4    1    3    3    0  502 -0.48893488893E+03 -0.58002231168E+03 -0.11166196881E+04  0.13499349423E+04  0.12699999809E+01 0. -1.
</event>
<event>
 5   0  0.3130517E-05  0.2133671E+04  0.7818609E-02  0.8546554E-01
        2   -1    0    0  501    0  0.00000000000E+00  0.00000000000E+00  0.12167376339E+04  0.12167376339E+04  0.25500000920E-02 0. -1.
       -2   -1    0    0    0  501  0.00000000000E+00  0.00000000000E+00 -0.93540124662E+03  0.93540124662E+03  0.25500000920E-02 0.  1.
    10030    2    1    2    0    0  0.00000000000E+00  0.00000000000E+00  0.28133638732E+03  0.21521388806E+04  0.21336709208E+04 0.  0.
        1    1    3    3  502    0  0.51897535463E+03  0.86341720263E+03 -0.21353107949E+03  0.10297670642E+04  0.50400001928E-02 0.  1.
       -1    1    3    3    0  502 -0.51897535463E+03 -0.86341720263E+03  0.49486746681E+03  0.11223718164E+04  0.50400001928E-02 0. -1.
</event>
<event>
 5   0  0.3257130E-05  0.2109014E+04  0.7818609E-02  0.8557283E-01
        2   -1    0    0  501    0  0.00000000000E+00  0.00000000000E+00  0.58805923788E+03  0.58805923789E+03  0.25500000920E-02 0. -1.
       -2   -1    0    0    0  501  0.00000000000E+00  0.00000000000E+00 -0.18909401185E+04  0.18909401185E+04  0.25500000920E-02 0.  1.
    10030    2    1    2    0    0  0.00000000000E+00  0.00000000000E+00 -0.13028808806E+04  0.24789993564E+04  0.21090138027E+04 0.  0.
        3    1    3    3  502    0 -0.23015621770E+02 -0.44795993781E+03  0.47033362816E+03  0.64993196314E+03  0.10100000352E+00 0. -1.
       -3    1    3    3    0  502  0.23015621770E+02  0.44795993781E+03 -0.17732145087E+04  0.18290673932E+04  0.10100000352E+00 0.  1.
</event>
<event>
 5   0  0.1435410E-05  0.2113987E+04  0.7818609E-02  0.8555107E-01
        1   -1    0    0  501    0  0.00000000000E+00  0.00000000000E+00  0.22625837668E+04  0.22625837668E+04  0.50400001928E-02 0.  1.
       -1   -1    0    0    0  501  0.00000000000E+00  0.00000000000E+00 -0.49378755485E+03  0.49378755488E+03  0.50400001928E-02 0. -1.
    10030    2    1    2    0    0  0.00000000000E+00  0.00000000000E+00  0.17687962119E+04  0.27563713217E+04  0.21139874228E+04 0.  0.
        2    1    3    3  502    0  0.24019578835E+03  0.97896353459E+03  0.12991283222E+04  0.16443229660E+04  0.25500000920E-02 0. -1.
       -2    1    3    3    0  502 -0.24019578835E+03 -0.97896353459E+03  0.46966788973E+03  0.11120483557E+04  0.25500000920E-02 0.  1.
</event>
<event>
 5   0  0.1453430E-05  0.2103166E+04  0.7818609E-02  0.8559850E-01
        1   -1    0    0  501    0  0.00000000000E+00  0.00000000000E+00  0.12969842642E+04  0.12969842642E+04  0.50400001928E-02 0.  1.
       -1   -1    0    0    0  501  0.00000000000E+00  0.00000000000E+00 -0.85261397793E+03  0.85261397794E+03  0.50400001928E-02 0. -1.
    10030    2    1    2    0    0  0.00000000000E+00  0.00000000000E+00  0.44437028624E+03  0.21495982421E+04  0.21031661017E+04 0.  0.
        5    1    3    3  502    0  0.34952218752E+03 -0.73296571114E+03  0.90506763508E+03  0.12159662854E+04  0.46999998093E+01 0.  1.
       -5    1    3    3    0  502 -0.34952218752E+03  0.73296571114E+03 -0.46069734885E+03  0.93363195667E+03  0.46999998093E+01 0. -1.
</event>
<event>
 5   0  0.3108326E-05  0.2091188E+04  0.7818609E-02  0.8565135E-01
       -2   -1    0    0    0  501  0.00000000000E+00  0.00000000000E+00  0.86856043699E+03  0.86856043699E+03  0.25500000920E-02 0.  1.
        2   -1    0    0  501    0  0.00000000000E+00  0.00000000000E+00 -0.12587108591E+04  0.12587108591E+04  0.25500000920E-02 0. -1.
    10030    2    1    2    0    0  0.00000000000E+00  0.00000000000E+00 -0.39015042213E+03  0.21272712961E+04  0.20911876567E+04 0.  0.
        5    1    3    3  502    0  0.10103909135E+04  0.26824029907E+03 -0.17468672467E+03  0.10598963147E+04  0.46999998093E+01 0. -1.
       -5    1    3    3    0  502 -0.10103909135E+04 -0.26824029907E+03 -0.21546369746E+03  0.10673749814E+04  0.46999998093E+01 0.  1.
</event>
<event>
 5   0  0.3130517E-05  0.2113956E+04  0.7818609E-02  0.8555121E-01
        2   -1    0    0  501    0  0.00000000000E+00  0.00000000000E+00  0.10179225174E+04  0.10179225174E+04  0.25500000920E-02 0.  1.
       -2   -1    0    0    0  501  0.00000000000E+00  0.00000000000E+00 -0.10975314804E+04  0.10975314804E+04  0.25500000920E-02 0. -1.
    10030    2    1    2    0    0  0.00000000000E+00  0.00000000000E+00 -0.79608963034E+02  0.21154539979E+04  0.21139555412E+04 0.  0.
        1    1    3    3  502    0 -0.49199319041E+03  0.41918934179E+03 -0.87671362614E+03  0.10892216423E+04  0.50400001928E-02 0. -1.
       -1    1    3    3    0  502  0.49199319041E+03 -0.41918934179E+03  0.79710466311E+03  0.10262323556E+04  0.50400001928E-02 0.  1.
</event>
<event>
 5   0  0.1129987E-05  0.2087271E+04  0.7818609E-02  0.8566871E-01
       -3   -1    0    0    0  501  0.00000000000E+00  0.00000000000E+00  0.11647626104E+04  0.11647626148E+04  0.10100000352E+00 0.  1.
        3   -1    0    0  501    0  0.00000000000E+00  0.00000000000E+00 -0.93510465263E+03  0.93510465809E+03  0.10100000352E+00 0. -1.
    10030    2    1    2    0    0  0.00000000000E+00  0.00000000000E+00  0.22965795774E+03  0.20998672728E+04  0.20872708943E+04 0.  0.
        2    1    3    3  502    0 -0.91565182958E+03 -0.34786369088E+01  0.61859491575E+03  0.11050294312E+04  0.25500000920E-02 0.  1.
       -2    1    3    3    0  502  0.91565182958E+03  0.34786369088E+01 -0.38893695801E+03  0.99483784168E+03  0.25500000920E-02 0. -1.
</event>
<event>
 5   0  0.1492552E-05  0.2072987E+04  0.7818609E-02  0.8573237E-01
       -1   -1    0    0    0  501  0.00000000000E+00  0.00000000000E+00  0.93516413471E+03  0.93516413473E+03  0.50400001928E-02 0. -1.
        1   -1    0    0  501    0  0.00000000000E+00  0.00000000000E+00 -0.11488025707E+04  0.11488025708E+04  0.50400001928E-02 0.  1.
    10030    2    1    2    0    0  0.00000000000E+00  0.00000000000E+00 -0.21363843603E+03  0.20839667055E+04  0.20729871799E+04 0.  0.
        4    1    3    3  502    0 -0.12964140374E+03  0.14782067796E+03  0.91624443877E+03  0.93710369270E+03  0.12699999809E+01 0. -1.
       -4    1    3    3    0  502  0.12964140374E+03 -0.14782067796E+03 -0.11298828748E+04  0.11468630128E+04  0.12699999809E+01 0.  1.
</event>
<event>
 5   0  0.3242231E-05  0.2100889E+04  0.7818609E-02  0.8560852E-01
       -2   -1    0    0    0  501  0.00000000000E+00  0.00000000000E+00  0.94126402088E+03  0.94126402088E+03  0.25500000920E-02 0. -1.
        2   -1    0    0  501    0  0.00000000000E+00  0.00000000000E+00 -0.11722895865E+04  0.11722895865E+04  0.25500000920E-02 0.  1.
    10030    2    1    2    0    0  0.00000000000E+00  0.00000000000E+00 -0.23102556558E+03  0.21135536073E+04  0.21008893448E+04 0.  0.
        4    1    3    3  502    0 -0.78760102037E+03 -0.52337864960E+03  0.34461921676E+03  0.10064812942E+04  0.12699999809E+01 0. -1.
       -4    1    3    3    0  502  0.78760102037E+03  0.52337864960E+03 -0.57564478234E+03  0.11070723131E+04  0.12699999809E+01 0.  1.
</event>
<event>
 5   0  0.3257130E-05  0.2113450E+04  0.7818609E-02  0.8555342E-01
       -2   -1    0    0    0  501  0.00000000000E+00  0.00000000000E+00  0.10373807926E+04  0.10373807926E+04  0.25500000920E-02 0.  1.
        2   -1    0    0  501    0  0.00000000000E+00  0.00000000000E+00 -0.10764299314E+04  0.10764299314E+04  0.25500000920E-02 0. -1.
    10030    2    1    2    0    0  0.00000000000E+00  0.00000000000E+00 -0.39049138749E+02  0.21138107240E+04  0.21134500092E+04 0.  0.
        3    1    3    3  502    0  0.65101036698E+03 -0.48143145324E+03  0.65961782063E+03  0.10443593355E+04  0.10100000352E+00 0.  1.
       -3    1    3    3    0  502 -0.65101036698E+03  0.48143145324E+03 -0.69866695938E+03  0.10694513885E+04  0.10100000352E+00 0. -1.
</event>
<event>
 5   0  0.3108326E-05  0.2096938E+04  0.7818609E-02  0.8562593E-01
        2   -1    0    0  501    0  0.00000000000E+00  0.00000000000E+00  0.24927698364E+04  0.24927698364E+04  0.25500000920E-02 0.  1.
       -2   -1    0    0    0  501  0.00000000000E+00  0.00000000000E+00 -0.44099030152E+03  0.44099030153E+03  0.25500000920E-02 0. -1.
    10030    2    1    2    0    0  0.00000000000E+00  0.00000000000E+00  0.20517795349E+04  0.29337601379E+04  0.20969380742E+04 0.  0.
        5    1    3    3  502    0  0.20597890928E+03  0.28074867917E+03  0.24094957914E+04  0.24345305894E+04  0.46999998093E+01 0.  1.
       -5    1    3    3    0  502 -0.20597890928E+03 -0.28074867917E+03 -0.35771625654E+03  0.49922954852E+03  0.46999998093E+01 0. -1.
</event>
<event>
 5   0  0.3108326E-05  0.2094035E+04  0.7818609E-02  0.8563876E-01
       -2   -1    0    0    0  501  0.00000000000E+00  0.00000000000E+00  0.59931417796E+03  0.59931417797E+03  0.25500000920E-02 0. -1.
        2   -1    0    0  501    0  0.00000000000E+00  0.00000000000E+00 -0.18291669326E+04  0.18291669326E+04  0.25500000920E-02 0.  1.
    10030    2    1    2    0    0  0.00000000000E+00  0.00000000000E+00 -0.12298527547E+04  0.24284811106E+04  0.20940350299E+04 0.  0.
        5    1    3    3  502    0 -0.37306096377E+03 -0.95100953278E+03 -0.88097888624E+03  0.13489772059E+04  0.46999998093E+01 0.  1.
       -5    1    3    3    0  502  0.37306096377E+03  0.95100953278E+03 -0.34887386844E+03  0.10795039047E+04  0.46999998093E+01 0. -1.
</event>
<event>
 5   0  0.3108326E-05  0.2090320E+04  0.7818609E-02  0.8565520E-01
        2   -1    0    0  501    0  0.00000000000E+00  0.00000000000E+00  0.10709685222E+04  0.10709685222E+04  0.25500000920E-02 0. -1.
       -2   -1    0    0    0  501  0.00000000000E+00  0.00000000000E+00 -0.10199729636E+04  0.10199729636E+04  0.25500000920E-02 0.  1.
    10030    2    1    2    0    0  0.00000000000E+00  0.00000000000E+00  0.50995558662E+02  0.20909414858E+04  0.20903195330E+04 0.  0.
        5    1    3    3  502    0 -0.77958121698E+03  0.51751787948E+03  0.49121682525E+03  0.10568290727E+04  0.46999998093E+01 0. -1.
       -5    1    3    3    0  502  0.77958121698E+03 -0.51751787948E+03 -0.44022126659E+03  0.10341124131E+04  0.46999998093E+01 0.  1.
</event>
<event>
 5   0  0.1453430E-05  0.2096245E+04  0.7818609E-02  0.8562899E-01
       -1   -1    0    0    0  501  0.00000000000E+00  0.00000000000E+00  0.78500017054E+03  0.78500017055E+03  0.50400001928E-02 0.  1.
        1   -1    0    0  501    0  0.00000000000E+00  0.00000000000E+00 -0.13994400847E+04  0.13994400847E+04  0.50400001928E-02 0. -1.
    10030    2    1    2    0    0  0.00000000000E+00  0.00000000000E+00 -0.61443991419E+03  0.21844402553E+04  0.20962449334E+04 0.  0.
        5    1    3    3  502    0  0.82545542328E+03 -0.41867211950E+03  0.20528041994E+03  0.94806389040E+03  0.46999998093E+01 0.  1.
       -5    1    3    3    0  502 -0.82545542328E+03  0.41867211950E+03 -0.81972033414E+03  0.12363763649E+04  0.46999998093E+01 0. -1.
</event>
<event>
 5   0  0.3130517E-05  0.2104581E+04  0.7818609E-02  0.8559228E-01
        2   -1    0    0  501    0  0.00000000000E+00  0.00000000000E+00  0.95146202475E+03  0.95146202475E+03  0.25500000920E-02 0.  1.
       -2   -1    0    0    0  501  0.00000000000E+00  0.00000000000E+00 -0.11638042207E+04  0.11638042207E+04  0.25500000920E-02 0. -1.
    10030    2    1    2    0    0  0.00000000000E+00  0.00000000000E+00 -0.21234219598E+03  0.21152662455E+04  0.21045812127E+04 0.  0.
        1    1    3    3  502    0  0.41155580535E+03  0.12373416358E+03  0.85924042014E+03  0.96071974258E+03  0.50400001928E-02 0.  1.
       -1    1    3    3    0  502 -0.41155580535E+03 -0.12373416358E+03 -0.10715826161E+04  0.11545465029E+04  0.50400001928E-02 0. -1.
</event>
<event>
 5   0  0.1435410E-05  0.2112924E+04  0.7818609E-02  0.8555572E-01
       -1   -1    0    0    0  501  0.00000000000E+00  0.00000000000E+00  0.97047757754E+03  0.97047757755E+03  0.50400001928E-02 0.  1.
        1   -1    0    0  501    0  0.00000000000E+00  0.00000000000E+00 -0.11500644119E+04  0.11500644119E+04  0.50400001928E-02 0. -1.
    10030    2    1    2    0    0  0.00000000000E+00  0.00000000000E+00 -0.17958683440E+03  0.21205419895E+04  0.21129237795E+04 0.  0.
        2    1    3    3  502    0 -0.88972541144E+03  0.47405454701E+03  0.22721362878E+03  0.10334239471E+04  0.25500000920E-02 0.  1.
       -2    1    3    3    0  502  0.88972541144E+03 -0.47405454701E+03 -0.40680046317E+03  0.10871180424E+04  0.25500000920E-02 0. -1.
</event>
<event>
 5   0  0.1435410E-05  0.2107615E+04  0.7818609E-02  0.8557897E-01
       -1   -1    0    0    0  501  0.00000000000E+00  0.00000000000E+00  0.65147738195E+03  0.65147738197E+03  0.50400001928E-02 0. -1.
        1   -1    0    0  501    0  0.00000000000E+00  0.00000000000E+00 -0.17046021773E+04  0.17046021773E+04  0.50400001928E-02 0.  1.
    10030    2    1    2    0    0  0.00000000000E+00  0.00000000000E+00 -0.10531247954E+04  0.23560795593E+04  0.21076145414E+04 0.  0.
        2    1    3    3  502    0 -0.35545486761E+03 -0.81813958235E+02  0.57866096477E+03  0.68402499868E+03  0.25500000920E-02 0. -1.
       -2    1    3    3    0  502  0.35545486761E+03  0.81813958235E+02 -0.16317857601E+04  0.16720545606E+04  0.25500000920E-02 0.  1.
</event>
<event>
 5   0  0.1466480E-05  0.2103241E+04  0.7818609E-02  0.8559817E-01
        1   -1    0    0  501    0  0.00000000000E+00  0.00000000000E+00  0.91399355176E+03  0.91399355178E+03  0.50400001928E-02 0.  1.
       -1   -1    0    0    0  501  0.00000000000E+00  0.00000000000E+00 -0.12099714361E+04  0.12099714361E+04  0.50400001928E-02 0. -1.
    10030    2    1    2    0    0  0.00000000000E+00  0.00000000000E+00 -0.29597788432E+03  0.21239649879E+04  0.21032413941E+04 0.  0.
        3    1    3    3  502    0  0.91180895208E+03 -0.47469980093E+03 -0.37191830744E+03  0.10931874056E+04  0.10100000352E+00 0. -1.
       -3    1    3    3    0  502 -0.91180895208E+03  0.47469980093E+03  0.75940423121E+02  0.10307775823E+04  0.10100000352E+00 0.  1.
</event>
<event>
 5   0  0.3130517E-05  0.2101257E+04  0.7818609E-02  0.8560690E-01
        2   -1    0    0  501    0  0.00000000000E+00  0.00000000000E+00  0.97530735530E+03  0.97530735531E+03  0.25500000920E-02 0.  1.
       -2   -1    0    0    0  501  0.00000000000E+00  0.00000000000E+00 -0.11317666727E+04  0.11317666727E+04  0.25500000920E-02 0. -1.
    10030    2    1    2    0    0  0.00000000000E+00  0.00000000000E+00 -0.15645931736E+03  0.21070740280E+04  0.21012571098E+04 0.  0.
        1    1    3    3  502    0 -0.91751140645E+03  0.50175698400E+03 -0.17966852445E+03  0.10610692865E+04  0.50400001928E-02 0.  1.
       -1    1    3    3    0  502  0.91751140645E+03 -0.50175698400E+03  0.23209207091E+02  0.10460047415E+04  0.50400001928E-02 0. -1.
</event>
<event>
 5   0  0.1492552E-05  0.2104752E+04  0.7818609E-02  0.8559153E-01
        1   -1    0    0  501    0  0.00000000000E+00  0.00000000000E+00  0.92251979270E+03  0.92251979271E+03  0.50400001928E-02 0.  1.
       -1   -1    0    0    0  501  0.00000000000E+00  0.00000000000E+00 -0.12005107924E+04  0.12005107924E+04  0.50400001928E-02 0. -1.
    10030    2    1    2    0    0  0.00000000000E+00  0.00000000000E+00 -0.27799099970E+03  0.21230305851E+04  0.21047517358E+04 0.  0.
        4    1    3    3  502    0 -0.32404432453E+02  0.82601055588E+02  0.91873922732E+03  0.92301482239E+03  0.12699999809E+01 0.  1.
       -4    1    3    3    0  502  0.32404432453E+02 -0.82601055588E+02 -0.11967302270E+04  0.12000157627E+04  0.12699999809E+01 0. -1.
</event>
<event>
 5   0  0.1492552E-05  0.2105038E+04  0.7818609E-02  0.8559027E-01
        1   -1    0    0  501    0  0.00000000000E+00  0.00000000000E+00  0.12645356629E+04  0.12645356629E+04  0.50400001928E-02 0. -1.
       -1   -1    0    0    0  501  0.00000000000E+00  0.00000000000E+00 -0.87605005787E+03  0.87605005788E+03  0.50400001928E-02 0.  1.
    10030    2    1    2    0    0  0.00000000000E+00  0.00000000000E+00  0.38848560501E+03  0.21405857208E+04  0.21050382806E+04 0.  0.
        4    1    3    3  502    0  0.45524224684E+03  0.29744178347E+03  0.11106140368E+04  0.12366010955E+04  0.12699999809E+01 0. -1.
       -4    1    3    3    0  502 -0.45524224684E+03 -0.29744178347E+03 -0.72212843175E+03  0.90398462526E+03  0.12699999809E+01 0.  1.
</event>
<event>
 5   0  0.1453430E-05  0.2107156E+04  0.7818609E-02  0.8558098E-01
       -1   -1    0    0    0  501  0.00000000000E+00  0.00000000000E+00  0.11836171325E+04  0.11836171325E+04  0.50400001928E-02 0. -1.
        1   -1    0    0  501    0  0.00000000000E+00  0.00000000000E+00 -0.93782594634E+03  0.93782594636E+03  0.50400001928E-02 0.  1.
    10030    2    1    2    0    0  0.00000000000E+00  0.00000000000E+00  0.24579118618E+03  0.21214430789E+04  0.21071562424E+04 0.  0.
        5    1    3    3  502    0 -0.70911592889E+03 -0.73587312266E+03 -0.13506441828E+03  0.10308341963E+04  0.46999998093E+01 0.  1.
       -5    1    3    3    0  502  0.70911592889E+03  0.73587312266E+03  0.38085560446E+03  0.10906088826E+04  0.46999998093E+01 0. -1.
</event>
<event>
 5   0  0.3279789E-05  0.2094723E+04  0.7818609E-02  0.8563572E-01
        2   -1    0    0  501    0  0.00000000000E+00  0.00000000000E+00  0.24118505055E+04  0.24118505055E+04  0.25500000920E-02 0.  1.
       -2   -1    0    0    0  501  0.00000000000E+00  0.00000000000E+00 -0.45482340381E+03  0.45482340382E+03  0.25500000920E-02 0. -1.
    10030    2    1    2    0    0  0.00000000000E+00  0.00000000000E+00  0.19570271017E+04  0.28666739093E+04  0.20947229472E+04 0.  0.
        2    1    3    3  502    0  0.14075450814E+03 -0.78337099172E+02  0.23947963864E+04  0.24002079628E+04  0.25500000920E-02 0.  1.
       -2    1    3    3    0  502 -0.14075450814E+03  0.78337099172E+02 -0.43776928465E+03  0.46646594652E+03  0.25500000920E-02 0. -1.
</event>
<event>
 5   0  0.3242231E-05  0.2110064E+04  0.7818609E-02  0.8556823E-01
        2   -1    0    0  501    0  0.00000000000E+00  0.00000000000E+00  0.15984977074E+04  0.15984977074E+04  0.25500000920E-02 0. -1.
       -2   -1    0    0    0  501  0.00000000000E+00  0.00000000000E+00 -0.69633648580E+03  0.69633648580E+03  0.25500000920E-02 0.  1.
    10030    2    1    2    0    0  0.00000000000E+00  0.00000000000E+00  0.90216122162E+03  0.22948341932E+04  0.21100637679E+04 0.  0.
        4    1    3    3  502    0  0.45775499515E+03 -0.48293585082E+03 -0.43934596559E+03  0.79736639129E+03  0.12699999809E+01 0.  1.
       -4    1    3    3    0  502 -0.45775499515E+03  0.48293585082E+03  0.13415071872E+04  0.14974678019E+04  0.12699999809E+01 0. -1.
</event>
<event>
 5   0  0.3108326E-05  0.2100969E+04  0.7818609E-02  0.8560817E-01
        2   -1    0    0  501    0  0.00000000000E+00  0.00000000000E+00  0.65682134020E+03  0.65682134020E+03  0.25500000920E-02 0.  1.
       -2   -1    0    0    0  501  0.00000000000E+00  0.00000000000E+00 -0.16800884471E+04  0.16800884471E+04  0.25500000920E-02 0. -1.
    10030    2    1    2    0    0  0.00000000000E+00  0.00000000000E+00 -0.10232671069E+04  0.23369097874E+04  0.21009692482E+04 0.  0.
        5    1    3    3  502    0 -0.86942216888E+02  0.35807403451E+02  0.65211949600E+03  0.65888014561E+03  0.46999998093E+01 0.  1.
       -5    1    3    3    0  502  0.86942216888E+02 -0.35807403451E+02 -0.16753866029E+04  0.16780296417E+04  0.46999998093E+01 0. -1.
</event>
<event>
 5   0  0.3257130E-05  0.2115621E+04  0.7818609E-02  0.8554393E-01
       -2   -1    0    0    0  501  0.00000000000E+00  0.00000000000E+00  0.69536569049E+03  0.69536569049E+03  0.25500000920E-02 0.  1.
        2   -1    0    0  501    0  0.00000000000E+00  0.00000000000E+00 -0.16091716828E+04  0.16091716828E+04  0.25500000920E-02 0. -1.
    10030    2    1    2    0    0  0.00000000000E+00  0.00000000000E+00 -0.91380599229E+03  0.23045373733E+04  0.21156207395E+04 0.  0.
        3    1    3    3  502    0 -0.49453308480E+03 -0.75735125140E+03  0.14054276404E+03  0.91536668536E+03  0.10100000352E+00 0.  1.
       -3    1    3    3    0  502  0.49453308480E+03  0.75735125140E+03 -0.10543487563E+04  0.13891706879E+04  0.10100000352E+00 0. -1.
</event>
<event>
 5   0  0.3108326E-05  0.2098627E+04  0.7818609E-02  0.8561848E-01
        2   -1    0    0  501    0  0.00000000000E+00  0.00000000000E+00  0.22025729648E+04  0.22025729648E+04  0.25500000920E-02 0. -1.
       -2   -1    0    0    0  501  0.00000000000E+00  0.00000000000E+00 -0.49989679921E+03  0.49989679922E+03  0.25500000920E-02 0.  1.
    10030    2    1    2    0    0  0.00000000000E+00  0.00000000000E+00  0.17026761656E+04  0.27024697640E+04  0.20986273372E+04 0.  0.
        5    1    3    3  502    0  0.30793971380E+03  0.74578504870E+03 -0.12513144200E+02  0.80697018221E+03  0.46999998093E+01 0.  1.
       -5    1    3    3    0  502 -0.30793971380E+03 -0.74578504870E+03  0.17151893098E+04  0.18954995818E+04  0.46999998093E+01 0. -1.
</event>
<event>
 5   0  0.3279789E-05  0.2101222E+04  0.7818609E-02  0.8560705E-01
       -2   -1    0    0    0  501  0.00000000000E+00  0.00000000000E+00  0.75103433801E+03  0.75103433801E+03  0.25500000920E-02 0.  1.
        2   -1    0    0  501    0  0.00000000000E+00  0.00000000000E+00 -0.14696844245E+04  0.14696844245E+04  0.25500000920E-02 0. -1.
    10030    2    1    2    0    0  0.00000000000E+00  0.00000000000E+00 -0.71865008651E+03  0.22207187625E+04  0.21012219958E+04 0.  0.
        2    1    3    3  502    0  0.78380747481E+03  0.46708980316E+03  0.19111705540E+03  0.93222999879E+03  0.25500000920E-02 0.  1.
       -2    1    3    3    0  502 -0.78380747481E+03 -0.46708980316E+03 -0.90976714191E+03  0.12884887637E+04  0.25500000920E-02 0. -1.
</event>
<event>
 5   0  0.1513292E-05  0.2100481E+04  0.7818609E-02  0.8561032E-01
        1   -1    0    0  501    0  0.00000000000E+00  0.00000000000E+00  0.74075442995E+03  0.74075442996E+03  0.50400001928E-02 0.  1.
       -1   -1    0    0    0  501  0.00000000000E+00  0.00000000000E+00 -0.14890288215E+04  0.14890288215E+04  0.50400001928E-02 0. -1.
    10030    2    1    2    0    0  0.00000000000E+00  0.00000000000E+00 -0.74827439154E+03  0.22297832515E+04  0.21004806077E+04 0.  0.
        1    1    3    3  502    0 -0.66422718401E+03 -0.42926845006E+03 -0.11077160818E+04  0.13610672548E+04  0.50400001928E-02 0. -1.
       -1    1    3    3    0  502  0.66422718401E+03  0.42926845006E+03  0.35944169023E+03  0.86871599668E+03  0.50400001928E-02 0.  1.
</event>
<event>
 5   0  0.1492552E-05  0.2098383E+04  0.7818609E-02  0.8561956E-01
       -1   -1    0    0    0  501  0.00000000000E+00  0.00000000000E+00  0.19294019724E+04  0.19294019724E+04  0.50400001928E-02 0.  1.
        1   -1    0    0  501    0  0.00000000000E+00  0.00000000000E+00 -0.57054110263E+03  0.57054110265E+03  0.50400001928E-02 0. -1.
    10030    2    1    2    0    0  0.00000000000E+00  0.00000000000E+00  0.13588608698E+04  0.24999430751E+04  0.20983833099E+04 0.  0.
        4    1    3    3  502    0  0.84240257299E+03 -0.58758484944E+03  0.42417909300E+03  0.11112279542E+04  0.12699999809E+01 0.  1.
       -4    1    3    3    0  502 -0.84240257299E+03  0.58758484944E+03  0.93468177677E+03  0.13887151209E+04  0.12699999809E+01 0. -1.
</event>
<event>
 5   0  0.3242231E-05  0.2100946E+04  0.7818609E-02  0.8560827E-01
       -2   -1    0    0    0  501  0.00000000000E+00  0.00000000000E+00  0.79042858724E+03  0.79042858724E+03  0.25500000920E-02 0. -1.
        2   -1    0    0  501    0  0.00000000000E+00  0.00000000000E+00 -0.13960693794E+04  0.13960693794E+04  0.25500000920E-02 0.  1.
    10030    2    1    2    0    0  0.00000000000E+00  0.00000000000E+00 -0.60564079216E+03  0.21864979666E+04  0.21009456416E+04 0.  0.
        4    1    3    3  502    0  0.18283612328E+03 -0.54473180304E+03 -0.12180216796E+04  0.13467517255E+04  0.12699999809E+01 0.  1.
       -4    1    3    3    0  502 -0.18283612328E+03  0.54473180304E+03  0.61238088748E+03  0.83974624112E+03  0.12699999809E+01 0. -1.
</event>
<event>
 5   0  0.3242231E-05  0.2105665E+04  0.7818609E-02  0.8558752E-01
       -2   -1    0    0    0  501  0.00000000000E+00  0.00000000000E+00  0.91519832750E+03  0.91519832750E+03  0.25500000920E-02 0. -1.
        2   -1    0    0  501    0  0.00000000000E+00  0.00000000000E+00 -0.12111647912E+04  0.12111647912E+04  0.25500000920E-02 0.  1.
    10030    2    1    2    0    0  0.00000000000E+00  0.00000000000E+00 -0.29596646368E+03  0.21263631187E+04  0.21056647323E+04 0.  0.
        4    1    3    3  502    0  0.42635516918E+03  0.19370912667E+03 -0.11002010759E+04  0.11957198570E+04  0.12699999809E+01 0.  1.
       -4    1    3    3    0  502 -0.42635516918E+03 -0.19370912667E+03  0.80423461226E+03  0.93064326167E+03  0.12699999809E+01 0. -1.
</event>
<event>
 5   0  0.1435410E-05  0.2101782E+04  0.7818609E-02  0.8560459E-01
       -1   -1    0    0    0  501  0.00000000000E+00  0.00000000000E+00  0.66004254806E+03  0.66004254807E+03  0.50400001928E-02 0.  1.
        1   -1    0    0  501    0  0.00000000000E+00  0.00000000000E+00 -0.16731834641E+04  0.16731834641E+04  0.50400001928E-02 0. -1.
    10030    2    1    2    0    0  0.00000000000E+00  0.00000000000E+00 -0.10131409160E+04  0.23332260122E+04  0.21017823646E+04 0.  0.
        2    1    3    3  502    0  0.81892856485E+03 -0.58272684735E+03 -0.16592939766E+03  0.10186987474E+04  0.25500000920E-02 0.  1.
       -2    1    3    3    0  502 -0.81892856485E+03  0.58272684735E+03 -0.84721151838E+03  0.13145272648E+04  0.25500000920E-02 0. -1.
</event>
<event>
 5   0  0.1435410E-05  0.2096086E+04  0.7818609E-02  0.8562969E-01
        1   -1    0    0  501    0  0.00000000000E+00  0.00000000000E+00  0.11634594357E+04  0.11634594357E+04  0.50400001928E-02 0.  1.
       -1   -1    0    0    0  501  0.00000000000E+00  0.00000000000E+00 -0.94407621355E+03  0.94407621356E+03  0.50400001928E-02 0. -1.
    10030    2    1    2    0    0  0.00000000000E+00  0.00000000000E+00  0.21938322214E+03  0.21075356493E+04  0.20960862374E+04 0.  0.
        2    1    3    3  502    0  0.11748495113E+01 -0.52426190374E+03  0.10221409887E+04  0.11487489390E+04  0.25500000920E-02 0.  1.
       -2    1    3    3    0  502 -0.11748495113E+01  0.52426190374E+03 -0.80275776659E+03  0.95878671028E+03  0.25500000920E-02 0. -1.
</event>
<event>
 5   0  0.3279789E-05  0.2108241E+04  0.7818609E-02  0.8557622E-01
        2   -1    0    0  501    0  0.00000000000E+00  0.00000000000E+00  0.12092171046E+04  0.12092171047E+04  0.25500000920E-02 0. -1.
       -2   -1    0    0    0  501  0.00000000000E+00  0.00000000000E+00 -0.91891713837E+03  0.91891713837E+03  0.25500000920E-02 0.  1.
    10030    2    1    2    0    0  0.00000000000E+00  0.00000000000E+00  0.29029996628E+03  0.21281342430E+04  0.21082412779E+04 0.  0.
        2    1    3    3  502    0 -0.10462796195E+03  0.10480340130E+04  0.18854420203E+03  0.10699865509E+04  0.25500000920E-02 0. -1.
       -2    1    3    3    0  502  0.10462796195E+03 -0.10480340130E+04  0.10175576425E+03  0.10581476922E+04  0.25500000920E-02 0.  1.
</event>
<event>
 5   0  0.3257130E-05  0.2104468E+04  0.7818609E-02  0.8559278E-01
        2   -1    0    0  501    0  0.00000000000E+00  0.00000000000E+00  0.22626144377E+04  0.22626144377E+04  0.25500000920E-02 0. -1.
       -2   -1    0    0    0  501  0.00000000000E+00  0.00000000000E+00 -0.48934366356E+03  0.48934366357E+03  0.25500000920E-02 0.  1.
    10030    2    1    2    0    0  0.00000000000E+00  0.00000000000E+00  0.17732707741E+04  0.27519581013E+04  0.21044676649E+04 0.  0.
        3    1    3    3  502    0 -0.88943974366E+03 -0.55551089110E+03  0.99988797873E+03  0.14489552746E+04  0.10100000352E+00 0. -1.
       -3    1    3    3    0  502  0.88943974366E+03  0.55551089110E+03  0.77338279540E+03  0.13030028266E+04  0.10100000352E+00 0.  1.
</event>
<event>
 5   0  0.3279789E-05  0.2115054E+04  0.7818609E-02  0.8554641E-01
        2   -1    0    0  501    0  0.00000000000E+00  0.00000000000E+00  0.14037106879E+04  0.14037106879E+04  0.25500000920E-02 0.  1.
       -2   -1    0    0    0  501  0.00000000000E+00  0.00000000000E+00 -0.79671948495E+03  0.79671948496E+03  0.25500000920E-02 0. -1.
    10030    2    1    2    0    0  0.00000000000E+00  0.00000000000E+00  0.60699120298E+03  0.22004301729E+04  0.21150542842E+04 0.  0.
        2    1    3    3  502    0 -0.10225475964E+04 -0.23749550191E+03  0.43654840779E+03  0.11369178566E+04  0.25500000920E-02 0. -1.
       -2    1    3    3    0  502  0.10225475964E+04  0.23749550191E+03  0.17044279520E+03  0.10635123163E+04  0.25500000920E-02 0.  1.
</event>
<event>
 5   0  0.3130517E-05  0.2103985E+04  0.7818609E-02  0.8559490E-01
        2   -1    0    0  501    0  0.00000000000E+00  0.00000000000E+00  0.15173988222E+04  0.15173988222E+04  0.25500000920E-02 0.  1.
       -2   -1    0    0    0  501  0.00000000000E+00  0.00000000000E+00 -0.72933239725E+03  0.72933239725E+03  0.25500000920E-02 0. -1.
    10030    2    1    2    0    0  0.00000000000E+00  0.00000000000E+00  0.78806642494E+03  0.22467312194E+04  0.21039849054E+04 0.  0.
        1    1    3    3  502    0 -0.67221034802E+03 -0.80772286600E+03  0.44640274633E+03  0.11417348169E+04  0.50400001928E-02 0.  1.
       -1    1    3    3    0  502  0.67221034802E+03  0.80772286600E+03  0.34166367862E+03  0.11049964025E+04  0.50400001928E-02 0. -1.
</event>
<event>
 5   0  0.1453430E-05  0.2097690E+04  0.7818609E-02  0.8562262E-01
       -1   -1    0    0    0  501  0.00000000000E+00  0.00000000000E+00  0.12371580542E+04  0.12371580542E+04  0.50400001928E-02 0. -1.
        1   -1    0    0  501    0  0.00000000000E+00  0.00000000000E+00 -0.88919564307E+03  0.88919564308E+03  0.50400001928E-02 0.  1.
    10030    2    1    2    0    0  0.00000000000E+00  0.00000000000E+00  0.34796241116E+03  0.21263536973E+04  0.20976897308E+04 0.  0.
        5    1    3    3  502    0  0.62583546467E+03 -0.76253305685E+03 -0.18715486536E+03  0.10040795413E+04  0.46999998093E+01 0.  1.
       -5    1    3    3    0  502 -0.62583546467E+03  0.76253305685E+03  0.53511727651E+03  0.11222741560E+04  0.46999998093E+01 0. -1.
</event>
<event>
 5   0  0.3108326E-05  0.2084781E+04  0.7818609E-02  0.8567977E-01
        2   -1    0    0  501    0  0.00000000000E+00  0.00000000000E+00  0.93829836609E+03  0.93829836609E+03  0.25500000920E-02 0.  1.
       -2   -1    0    0    0  501  0.00000000000E+00  0.00000000000E+00 -0.11580305281E+04  0.11580305281E+04  0.25500000920E-02 0. -1.
    10030    2    1    2    0    0  0.00000000000E+00  0.00000000000E+00 -0.21973216206E+03  0.20963288942E+04  0.20847811899E+04 0.  0.
        5    1    3    3  502    0 -0.10081048972E+04  0.23749528116E+03  0.85852671700E+01  0.10357486612E+04  0.46999998093E+01 0.  1.
       -5    1    3    3    0  502  0.10081048972E+04 -0.23749528116E+03 -0.22831742923E+03  0.10605802331E+04  0.46999998093E+01 0. -1.
</event>
<event>
 5   0  0.3242231E-05  0.2100446E+04  0.7818609E-02  0.8561047E-01
       -2   -1    0    0    0  501  0.00000000000E+00  0.00000000000E+00  0.72525665757E+03  0.72525665758E+03  0.25500000920E-02 0. -1.
        2   -1    0    0  501    0  0.00000000000E+00  0.00000000000E+00 -0.15207973963E+04  0.15207973963E+04  0.25500000920E-02 0.  1.
    10030    2    1    2    0    0  0.00000000000E+00  0.00000000000E+00 -0.79554073873E+03  0.22460540539E+04  0.21004460826E+04 0.  0.
        4    1    3    3  502    0 -0.67939895985E+03 -0.71009509856E+03 -0.79377905941E+03  0.12632912585E+04  0.12699999809E+01 0.  1.
       -4    1    3    3    0  502  0.67939895985E+03  0.71009509856E+03 -0.17616793131E+01  0.98276279542E+03  0.12699999809E+01 0. -1.
</event>
<event>
 5   0  0.3279789E-05  0.2102145E+04  0.7818609E-02  0.8560299E-01
       -2   -1    0    0    0  501  0.00000000000E+00  0.00000000000E+00  0.96171348602E+03  0.96171348602E+03  0.25500000920E-02 0. -1.
        2   -1    0    0  501    0  0.00000000000E+00  0.00000000000E+00 -0.11487344172E+04  0.11487344172E+04  0.25500000920E-02 0.  1.
    10030    2    1    2    0    0  0.00000000000E+00  0.00000000000E+00 -0.18702093115E+03  0.21104479032E+04  0.21021449815E+04 0.  0.
        2    1    3    3  502    0  0.48247194830E+03  0.68239964482E+03  0.54642770263E+03  0.99851474218E+03  0.25500000920E-02 0. -1.
       -2    1    3    3    0  502 -0.48247194830E+03 -0.68239964482E+03 -0.73344863378E+03  0.11119331610E+04  0.25500000920E-02 0.  1.
</event>
<event>
 5   0  0.1466480E-05  0.2100182E+04  0.7818609E-02  0.8561163E-01
        1   -1    0    0  501    0  0.00000000000E+00  0.00000000000E+00  0.12431090081E+04  0.12431090081E+04  0.50400001928E-02 0.  1.
       -1   -1    0    0    0  501  0.00000000000E+00  0.00000000000E+00 -0.88704274447E+03  0.88704274449E+03  0.50400001928E-02 0. -1.
    10030    2    1    2    0    0  0.00000000000E+00  0.00000000000E+00  0.35606626362E+03  0.21301517526E+04  0.21001817314E+04 0.  0.
        3    1    3    3  502    0  0.33036094265E+03  0.21763820861E+03 -0.80856875850E+03  0.90016009115E+03  0.10100000352E+00 0. -1.
       -3    1    3    3    0  502 -0.33036094265E+03 -0.21763820861E+03  0.11646350221E+04  0.12299916614E+04  0.10100000352E+00 0.  1.
</event>
<event>
 5   0  0.1453430E-05  0.2100792E+04  0.7818609E-02  0.8560895E-01
        1   -1    0    0  501    0  0.00000000000E+00  0.00000000000E+00  0.11947436348E+04  0.11947436348E+04  0.50400001928E-02 0.  1.
       -1   -1    0    0    0  501  0.00000000000E+00  0.00000000000E+00 -0.92348795705E+03  0.92348795707E+03  0.50400001928E-02 0. -1.
    10030    2    1    2    0    0  0.00000000000E+00  0.00000000000E+00  0.27125567771E+03  0.21182315918E+04  0.21007916208E+04 0.  0.
        5    1    3    3  502    0  0.28261068722E+03 -0.89461094872E+03 -0.34064043786E+03  0.99812601809E+03  0.46999998093E+01 0. -1.
       -5    1    3    3    0  502 -0.28261068722E+03  0.89461094872E+03  0.61189611557E+03  0.11201055737E+04  0.46999998093E+01 0.  1.
</event>
<event>
 5   0  0.3130517E-05  0.2117276E+04  0.7818609E-02  0.8553671E-01
        2   -1    0    0  501    0  0.00000000000E+00  0.00000000000E+00  0.14880643369E+04  0.14880643369E+04  0.25500000920E-02 0.  1.
       -2   -1    0    0    0  501  0.00000000000E+00  0.00000000000E+00 -0.75313566889E+03  0.75313566889E+03  0.25500000920E-02 0. -1.
    10030    2    1    2    0    0  0.00000000000E+00  0.00000000000E+00  0.73492866804E+03  0.22412000058E+04  0.21172759194E+04 0.  0.
        1    1    3    3  502    0 -0.47649627360E+02  0.10541301798E+04  0.45761608623E+03  0.11501623387E+04  0.50400001928E-02 0.  1.
       -1    1    3    3    0  502  0.47649627360E+02 -0.10541301798E+04  0.27731258181E+03  0.10910376671E+04  0.50400001928E-02 0. -1.
</event>
<event>
 5   0  0.3108326E-05  0.2102800E+04  0.7818609E-02  0.8560011E-01
        2   -1    0    0  501    0  0.00000000000E+00  0.00000000000E+00  0.10483081664E+04  0.10483081664E+04  0.25500000920E-02 0. -1.
       -2   -1    0    0    0  501  0.00000000000E+00  0.00000000000E+00 -0.10545008520E+04  0.10545008521E+04  0.25500000920E-02 0.  1.
    10030    2    1    2    0    0  0.00000000000E+00  0.00000000000E+00 -0.61926856548E+01  0.21028090185E+04  0.21027998998E+04 0.  0.
        5    1    3    3  502    0  0.27330670835E+03  0.99502355929E+03 -0.20471895285E+03  0.10519982795E+04  0.46999998093E+01 0.  1.
       -5    1    3    3    0  502 -0.27330670835E+03 -0.99502355929E+03  0.19852626720E+03  0.10508107390E+04  0.46999998093E+01 0. -1.
</event>
<event>
 5   0  0.3108326E-05  0.2104075E+04  0.7818609E-02  0.8559450E-01
       -2   -1    0    0    0  501  0.00000000000E+00  0.00000000000E+00  0.55316886563E+03  0.55316886563E+03  0.25500000920E-02 0. -1.
        2   -1    0    0  501    0  0.00000000000E+00  0.00000000000E+00 -0.20008052549E+04  0.20008052549E+04  0.25500000920E-02 0.  1.
    10030    2    1    2    0    0  0.00000000000E+00  0.00000000000E+00 -0.14476363893E+04  0.25539741206E+04  0.21040752584E+04 0.  0.
        5    1    3    3  502    0 -0.24685793665E+03 -0.73039720867E+03 -0.15926491184E+04  0.17694553478E+04  0.46999998093E+01 0.  1.
       -5    1    3    3    0  502  0.24685793665E+03  0.73039720867E+03  0.14501272909E+03  0.78451877282E+03  0.46999998093E+01 0. -1.
</event>
<event>
 5   0  0.1492552E-05  0.2096737E+04  0.7818609E-02  0.8562682E-01
        1   -1    0    0  501    0  0.00000000000E+00  0.00000000000E+00  0.89620545437E+03  0.89620545438E+03  0.50400001928E-02 0.  1.
       -1   -1    0    0    0  501  0.00000000000E+00  0.00000000000E+00 -0.12263672424E+04  0.12263672424E+04  0.50400001928E-02 0. -1.
    10030    2    1    2    0    0  0.00000000000E+00  0.00000000000E+00 -0.33016178801E+03  0.21225726968E+04  0.20967374769E+04 0.  0.
        4    1    3    3  502    0 -0.85421900766E+03 -0.35374766094E+03  0.33522303725E+03  0.98346510780E+03  0.12699999809E+01 0.  1.
       -4    1    3    3    0  502  0.85421900766E+03  0.35374766094E+03 -0.66538482526E+03  0.11391075890E+04  0.12699999809E+01 0. -1.
</event>
<event>
 5   0  0.1492552E-05  0.2102981E+04  0.7818609E-02  0.8559931E-01
        1   -1    0    0  501    0  0.00000000000E+00  0.00000000000E+00  0.18217437559E+04  0.18217437559E+04  0.50400001928E-02 0. -1.
       -1   -1    0    0    0  501  0.00000000000E+00  0.00000000000E+00 -0.60690872278E+03  0.60690872280E+03  0.50400001928E-02 0.  1.
    10030    2    1    2    0    0  0.00000000000E+00  0.00000000000E+00  0.12148350332E+04  0.24286524787E+04  0.21029809093E+04 0.  0.
        4    1    3    3  502    0 -0.10380580773E+04 -0.16446889408E+03  0.64422799103E+03  0.12327391883E+04  0.12699999809E+01 0. -1.
       -4    1    3    3    0  502  0.10380580773E+04  0.16446889408E+03  0.57060704212E+03  0.11959132905E+04  0.12699999809E+01 0.  1.
</event>
<event>
 5   0  0.1435410E-05  0.2092948E+04  0.7818609E-02  0.8564356E-01
       -1   -1    0    0    0  501  0.00000000000E+00  0.00000000000E+00  0.14385774438E+04  0.14385774438E+04  0.50400001928E-02 0. -1.
        1   -1    0    0  501    0  0.00000000000E+00  0.00000000000E+00 -0.76124346675E+03  0.76124346676E+03  0.50400001928E-02 0.  1.
    10030    2    1    2    0    0  0.00000000000E+00  0.00000000000E+00  0.67733397708E+03  0.21998209106E+04  0.20929478546E+04 0.  0.
        2    1    3    3  502    0  0.38143342877E+03 -0.35824509866E+03 -0.61385204061E+03  0.80662589784E+03  0.25500000920E-02 0.  1.
       -2    1    3    3    0  502 -0.38143342877E+03  0.35824509866E+03  0.12911860177E+04  0.13931950128E+04  0.25500000920E-02 0. -1.
</event>
<event>
 5   0  0.3130517E-05  0.2094711E+04  0.7818609E-02  0.8563577E-01
       -2   -1    0    0    0  501  0.00000000000E+00  0.00000000000E+00  0.50034460229E+03  0.50034460229E+03  0.25500000920E-02 0. -1.
        2   -1    0    0  501    0  0.00000000000E+00  0.00000000000E+00 -0.21923953559E+04  0.21923953559E+04  0.25500000920E-02 0.  1.
    10030    2    1    2    0    0  0.00000000000E+00  0.00000000000E+00 -0.16920507536E+04  0.26927399582E+04  0.20947106553E+04 0.  0.
        1    1    3    3  502    0 -0.69173172804E+03  0.53958784902E+03 -0.11058591970E+03  0.88423813311E+03  0.50400001928E-02 0. -1.
       -1    1    3    3    0  502  0.69173172804E+03 -0.53958784902E+03 -0.15814648339E+04  0.18085018251E+04  0.50400001928E-02 0.  1.
</event>
<event>
 5   0  0.3108326E-05  0.2097501E+04  0.7818609E-02  0.8562345E-01
        2   -1    0    0  501    0  0.00000000000E+00  0.00000000000E+00  0.12783074266E+04  0.12783074266E+04  0.25500000920E-02 0.  1.
       -2   -1    0    0    0  501  0.00000000000E+00  0.00000000000E+00 -0.86041742069E+03  0.86041742069E+03  0.25500000920E-02 0. -1.
    10030    2    1    2    0    0  0.00000000000E+00  0.00000000000E+00  0.41789000586E+03  0.21387248472E+04  0.20975013505E+04 0.  0.
        5    1    3    3  502    0 -0.64839602761E+02  0.10265289775E+04  0.25208752649E+00  0.10285854701E+04  0.46999998093E+01 0. -1.
       -5    1    3    3    0  502  0.64839602761E+02 -0.10265289775E+04  0.41763791834E+03  0.11101393771E+04  0.46999998093E+01 0.  1.
</event>
<event>
 5   0  0.3257130E-05  0.2102082E+04  0.7818609E-02  0.8560327E-01
       -2   -1    0    0    0  501  0.00000000000E+00  0.00000000000E+00  0.15975493404E+04  0.15975493404E+04  0.25500000920E-02 0.  1.
        2   -1    0    0  501    0  0.00000000000E+00  0.00000000000E+00 -0.69148881238E+03  0.69148881239E+03  0.25500000920E-02 0. -1.
    10030    2    1    2    0    0  0.00000000000E+00  0.00000000000E+00  0.90606052803E+03  0.22890381528E+04  0.21020822973E+04 0.  0.
        3    1    3    3  502    0  0.96876659333E+03  0.38190392547E+03  0.60828769944E+03  0.12059739865E+04  0.10100000352E+00 0.  1.
       -3    1    3    3    0  502 -0.96876659333E+03 -0.38190392547E+03  0.29777282858E+03  0.10830641663E+04  0.10100000352E+00 0. -1.
</event>
<event>
 5   0  0.1492552E-05  0.2104628E+04  0.7818609E-02  0.8559208E-01
        1   -1    0    0  501    0  0.00000000000E+00  0.00000000000E+00  0.12741192211E+04  0.12741192211E+04  0.50400001928E-02 0. -1.
       -1   -1    0    0    0  501  0.00000000000E+00  0.00000000000E+00 -0.86912160227E+03  0.86912160228E+03  0.50400001928E-02 0.  1.
    10030    2    1    2    0    0  0.00000000000E+00  0.00000000000E+00  0.40499761887E+03  0.21432408234E+04  0.21046277951E+04 0.  0.
        4    1    3    3  502    0  0.51883609427E+03 -0.77573711679E+03 -0.29263552605E+03  0.97805732506E+03  0.12699999809E+01 0.  1.
       -4    1    3    3    0  502 -0.51883609427E+03  0.77573711679E+03  0.69763314492E+03  0.11651834984E+04  0.12699999809E+01 0. -1.
</event>
<event>
 5   0  0.3130517E-05  0.2100004E+04  0.7818609E-02  0.8561242E-01
        2   -1    0    0  501    0  0.00000000000E+00  0.00000000000E+00  0.85208941019E+03  0.85208941019E+03  0.25500000920E-02 0.  1.
       -2   -1    0    0    0  501  0.00000000000E+00  0.00000000000E+00 -0.12938835241E+04  0.12938835241E+04  0.25500000920E-02 0. -1.
    10030    2    1    2    0    0  0.00000000000E+00  0.00000000000E+00 -0.44179411389E+03  0.21459729343E+04  0.21000042370E+04 0.  0.
        1    1    3    3  502    0 -0.39786009180E+03 -0.26247202093E+03 -0.11769623510E+04  0.12698128169E+04  0.50400001928E-02 0. -1.
       -1    1    3    3    0  502  0.39786009180E+03  0.26247202093E+03  0.73516823707E+03  0.87616011735E+03  0.50400001928E-02 0.  1.
</event>
<event>
 5   0  0.1492552E-05  0.2080865E+04  0.7818609E-02  0.8569720E-01
       -1   -1    0    0    0  501  0.00000000000E+00  0.00000000000E+00  0.75336686149E+03  0.75336686151E+03  0.50400001928E-02 0. -1.
        1   -1    0    0  501    0  0.00000000000E+00  0.00000000000E+00 -0.14368830044E+04  0.14368830044E+04  0.50400001928E-02 0.  1.
    10030    2    1    2    0    0  0.00000000000E+00  0.00000000000E+00 -0.68351614291E+03  0.21902498659E+04  0.20808652425E+04 0.  0.
        4    1    3    3  502    0 -0.10154180424E+04 -0.14304600811E+03 -0.15654677486E+03  0.10373256320E+04  0.12699999809E+01 0. -1.
       -4    1    3    3    0  502  0.10154180424E+04  0.14304600811E+03 -0.52696936805E+03  0.11529242339E+04  0.12699999809E+01 0.  1.
</event>
<event>
 5   0  0.3257130E-05  0.2098463E+04  0.7818609E-02  0.8561921E-01
        2   -1    0    0  501    0  0.00000000000E+00  0.00000000000E+00  0.85759679921E+03  0.85759679922E+03  0.25500000920E-02 0.  1.
       -2   -1    0    0    0  501  0.00000000000E+00  0.00000000000E+00 -0.12836879998E+04  0.12836879998E+04  0.25500000920E-02 0. -1.
    10030    2    1    2    0    0  0.00000000000E+00  0.00000000000E+00 -0.42609120058E+03  0.21412847990E+04  0.20984629802E+04 0.  0.
        3    1    3    3  502    0  0.16122601760E+03 -0.71644146515E+03 -0.97774088891E+03  0.12228080216E+04  0.10100000352E+00 0. -1.
       -3    1    3    3    0  502 -0.16122601760E+03  0.71644146515E+03  0.55164968833E+03  0.91847677737E+03  0.10100000352E+00 0.  1.
</event>
<event>
 5   0  0.3242231E-05  0.2090493E+04  0.7818609E-02  0.8565443E-01
       -2   -1    0    0    0  501  0.00000000000E+00  0.00000000000E+00  0.56614783105E+03  0.56614783106E+03  0.25500000920E-02 0. -1.
        2   -1    0    0  501    0  0.00000000000E+00  0.00000000000E+00 -0.19297790681E+04  0.19297790681E+04  0.25500000920E-02 0.  1.
    10030    2    1    2    0    0  0.00000000000E+00  0.00000000000E+00 -0.13636312370E+04  0.24959268991E+04  0.20904929886E+04 0.  0.
        4    1    3    3  502    0  0.21109309683E+03  0.92396607522E+03 -0.15557974971E+03  0.96045836719E+03  0.12699999809E+01 0. -1.
       -4    1    3    3    0  502 -0.21109309683E+03 -0.92396607522E+03 -0.12080514873E+04  0.15354685319E+04  0.12699999809E+01 0.  1.
</event>
<event>
 5   0  0.1513292E-05  0.2097364E+04  0.7818609E-02  0.8562406E-01
       -1   -1    0    0    0  501  0.00000000000E+00  0.00000000000E+00  0.61429521828E+03  0.61429521830E+03  0.50400001928E-02 0.  1.
        1   -1    0    0  501    0  0.00000000000E+00  0.00000000000E+00 -0.17902361364E+04  0.17902361364E+04  0.50400001928E-02 0. -1.
    10030    2    1    2    0    0  0.00000000000E+00  0.00000000000E+00 -0.11759409181E+04  0.24045313547E+04  0.20973635815E+04 0.  0.
        1    1    3    3  502    0 -0.51062721321E+03  0.17460503809E+03 -0.16188275448E+04  0.17064084183E+04  0.50400001928E-02 0. -1.
       -1    1    3    3    0  502  0.51062721321E+03 -0.17460503809E+03  0.44288662669E+03  0.69812293640E+03  0.50400001928E-02 0.  1.
</event>
<event>
 5   0  0.3130517E-05  0.2127604E+04  0.7818609E-02  0.8549180E-01
       -2   -1    0    0    0  501  0.00000000000E+00  0.00000000000E+00  0.53710537252E+03  0.53710537252E+03  0.25500000920E-02 0.  1.
        2   -1    0    0  501    0  0.00000000000E+00  0.00000000000E+00 -0.21069882802E+04  0.21069882802E+04  0.25500000920E-02 0. -1.
    10030    2    1    2    0    0  0.00000000000E+00  0.00000000000E+00 -0.15698829077E+04  0.26440936528E+04  0.21276040282E+04 0.  0.
        1    1    3    3  502    0  0.70825508990E+03 -0.78656853239E+03 -0.65248788598E+03  0.12434049099E+04  0.50400001928E-02 0.  1.
       -1    1    3    3    0  502 -0.70825508990E+03  0.78656853239E+03 -0.91739502173E+03  0.14006887429E+04  0.50400001928E-02 0. -1.
</event>
<event>
 5   0  0.1453430E-05  0.2103729E+04  0.7818609E-02  0.8559602E-01
        1   -1    0    0  501    0  0.00000000000E+00  0.00000000000E+00  0.10067701957E+04  0.10067701957E+04  0.50400001928E-02 0.  1.
       -1   -1    0    0    0  501  0.00000000000E+00  0.00000000000E+00 -0.10989788588E+04  0.10989788588E+04  0.50400001928E-02 0. -1.
    10030    2    1    2    0    0  0.00000000000E+00  0.00000000000E+00 -0.92208663069E+02  0.21057490545E+04  0.21037292228E+04 0.  0.
        5    1    3    3  502    0 -0.10010102656E+04 -0.31947101159E+03 -0.94252403447E+02  0.10549828836E+04  0.46999998093E+01 0. -1.
       -5    1    3    3    0  502  0.10010102656E+04  0.31947101159E+03  0.20437403771E+01  0.10507661709E+04  0.46999998093E+01 0.  1.
</event>
<event>
 5   0  0.1453430E-05  0.2091152E+04  0.7818609E-02  0.8565151E-01
       -1   -1    0    0    0  501  0.00000000000E+00  0.00000000000E+00  0.93093034359E+03  0.93093034360E+03  0.50400001928E-02 0. -1.
        1   -1    0    0  501    0  0.00000000000E+00  0.00000000000E+00 -0.11743403345E+04  0.11743403346E+04  0.50400001928E-02 0.  1.
    10030    2    1    2    0    0  0.00000000000E+00  0.00000000000E+00 -0.24340999095E+03  0.21052706782E+04  0.20911518846E+04 0.  0.
        5    1    3    3  502    0 -0.14210581065E+03  0.91177491941E+03  0.37322317927E+03  0.99541207378E+03  0.46999998093E+01 0. -1.
       -5    1    3    3    0  502  0.14210581065E+03 -0.91177491941E+03 -0.61663317022E+03  0.11098586044E+04  0.46999998093E+01 0.  1.
</event>
<event>
 5   0  0.1492552E-05  0.2130946E+04  0.7818609E-02  0.8547733E-01
        1   -1    0    0  501    0  0.00000000000E+00  0.00000000000E+00  0.88236985127E+03  0.88236985128E+03  0.50400001928E-02 0.  1.
       -1   -1    0    0    0  501  0.00000000000E+00  0.00000000000E+00 -0.12865725407E+04  0.12865725407E+04  0.50400001928E-02 0. -1.
    10030    2    1    2    0    0  0.00000000000E+00  0.00000000000E+00 -0.40420268947E+03  0.21689423920E+04  0.21309461011E+04 0.  0.
        4    1    3    3  502    0  0.73698608748E+03  0.63035441080E+03 -0.65125890122E+03  0.11681759053E+04  0.12699999809E+01 0. -1.
       -4    1    3    3    0  502 -0.73698608748E+03 -0.63035441080E+03  0.24705621175E+03  0.10007664868E+04  0.12699999809E+01 0.  1.
</event>
<event>
 5   0  0.1466480E-05  0.2056247E+04  0.7818609E-02  0.8580766E-01
       -1   -1    0    0    0  501  0.00000000000E+00  0.00000000000E+00  0.13612031253E+04  0.13612031253E+04  0.50400001928E-02 0. -1.
        1   -1    0    0  501    0  0.00000000000E+00  0.00000000000E+00 -0.77654697695E+03  0.77654697697E+03  0.50400001928E-02 0.  1.
    10030    2    1    2    0    0  0.00000000000E+00  0.00000000000E+00  0.58465614835E+03  0.21377501023E+04  0.20562472342E+04 0.  0.
        3    1    3    3  502    0 -0.19830933337E+03  0.11879504546E+03 -0.74917793776E+03  0.78403217228E+03  0.10100000352E+00 0.  1.
       -3    1    3    3    0  502  0.19830933337E+03 -0.11879504546E+03  0.13338340861E+04  0.13537179300E+04  0.10100000352E+00 0. -1.
</event>
<event>
 5   0  0.1466480E-05  0.2107597E+04  0.7818609E-02  0.8557904E-01
        1   -1    0    0  501    0  0.00000000000E+00  0.00000000000E+00  0.10601594530E+04  0.10601594530E+04  0.50400001928E-02 0.  1.
       -1   -1    0    0    0  501  0.00000000000E+00  0.00000000000E+00 -0.10474755367E+04  0.10474755367E+04  0.50400001928E-02 0. -1.
    10030    2    1    2    0    0  0.00000000000E+00  0.00000000000E+00  0.12683916317E+02  0.21076349896E+04  0.21075968229E+04 0.  0.
        3    1    3    3  502    0 -0.83002225893E+03  0.63887155799E+03 -0.10940668791E+03  0.10531209102E+04  0.10100000352E+00 0. -1.
       -3    1    3    3    0  502  0.83002225893E+03 -0.63887155799E+03  0.12209060423E+03  0.10545140795E+04  0.10100000352E+00 0.  1.
</event>
<event>
 5   0  0.1492552E-05  0.2086697E+04  0.7818609E-02  0.8567126E-01
        1   -1    0    0  501    0  0.00000000000E+00  0.00000000000E+00  0.95288571075E+03  0.95288571076E+03  0.50400001928E-02 0. -1.
       -1   -1    0    0    0  501  0.00000000000E+00  0.00000000000E+00 -0.11423996820E+04  0.11423996820E+04  0.50400001928E-02 0.  1.
    10030    2    1    2    0    0  0.00000000000E+00  0.00000000000E+00 -0.18951397124E+03  0.20952853928E+04  0.20866972305E+04 0.  0.
        4    1    3    3  502    0  0.39840778659E+03  0.79805842354E+03  0.44871797450E+03  0.99848657745E+03  0.12699999809E+01 0. -1.
       -4    1    3    3    0  502 -0.39840778659E+03 -0.79805842354E+03 -0.63823194574E+03  0.10967988153E+04  0.12699999809E+01 0.  1.
</event>
<event>
 5   0  0.1466480E-05  0.2110219E+04  0.7818609E-02  0.8556755E-01
       -1   -1    0    0    0  501  0.00000000000E+00  0.00000000000E+00  0.67875162939E+03  0.67875162941E+03  0.50400001928E-02 0. -1.
        1   -1    0    0  501    0  0.00000000000E+00  0.00000000000E+00 -0.16401527832E+04  0.16401527832E+04  0.50400001928E-02 0.  1.
    10030    2    1    2    0    0  0.00000000000E+00  0.00000000000E+00 -0.96140115376E+03  0.23189044126E+04  0.21102193005E+04 0.  0.
        3    1    3    3  502    0 -0.43912248680E+03  0.87784630529E+03 -0.55365718091E+02  0.98311142149E+03  0.10100000352E+00 0. -1.
       -3    1    3    3    0  502  0.43912248680E+03 -0.87784630529E+03 -0.90603543567E+03  0.13357929911E+04  0.10100000352E+00 0.  1.
</event>
<event>
 5   0  0.1513292E-05  0.2098711E+04  0.7818609E-02  0.8561811E-01
       -1   -1    0    0    0  501  0.00000000000E+00  0.00000000000E+00  0.88115378675E+03  0.88115378676E+03  0.50400001928E-02 0. -1.
        1   -1    0    0  501    0  0.00000000000E+00  0.00000000000E+00 -0.12496653429E+04  0.12496653429E+04  0.50400001928E-02 0.  1.
    10030    2    1    2    0    0  0.00000000000E+00  0.00000000000E+00 -0.36851155615E+03  0.21308191297E+04  0.20987113657E+04 0.  0.
        1    1    3    3  502    0 -0.79306021098E+03 -0.37582533930E+03 -0.76834665466E+03  0.11664243506E+04  0.50400001928E-02 0. -1.
       -1    1    3    3    0  502  0.79306021098E+03  0.37582533930E+03  0.39983509851E+03  0.96439477908E+03  0.50400001928E-02 0.  1.
</event>
<event>
 5   0  0.1453430E-05  0.2099665E+04  0.7818609E-02  0.8561391E-01
        1   -1    0    0  501    0  0.00000000000E+00  0.00000000000E+00  0.93868043315E+03  0.93868043316E+03  0.50400001928E-02 0.  1.
       -1   -1    0    0    0  501  0.00000000000E+00  0.00000000000E+00 -0.11741466440E+04  0.11741466441E+04  0.50400001928E-02 0. -1.
    10030    2    1    2    0    0  0.00000000000E+00  0.00000000000E+00 -0.23546621089E+03  0.21128270772E+04  0.20996651928E+04 0.  0.
        5    1    3    3  502    0  0.31081655769E+03  0.11806387043E+03  0.88429030419E+03  0.94474199765E+03  0.46999998093E+01 0.  1.
       -5    1    3    3    0  502 -0.31081655769E+03 -0.11806387043E+03 -0.11197565151E+04  0.11680850796E+04  0.46999998093E+01 0. -1.
</event>
<event>
 5   0  0.3257130E-05  0.2107005E+04  0.7818609E-02  0.8558164E-01
       -2   -1    0    0    0  501  0.00000000000E+00  0.00000000000E+00  0.70380763182E+03  0.70380763182E+03  0.25500000920E-02 0. -1.
        2   -1    0    0  501    0  0.00000000000E+00  0.00000000000E+00 -0.15769476308E+04  0.15769476308E+04  0.25500000920E-02 0.  1.
    10030    2    1    2    0    0  0.00000000000E+00  0.00000000000E+00 -0.87313999894E+03  0.22807552626E+04  0.21070052468E+04 0.  0.
        3    1    3    3  502    0  0.28460301100E+03 -0.19902809644E+03  0.64006271214E+03  0.72821105643E+03  0.10100000352E+00 0. -1.
       -3    1    3    3    0  502 -0.28460301100E+03  0.19902809644E+03 -0.15132027111E+04  0.15525442062E+04  0.10100000352E+00 0.  1.
</event>
<event>
 5   0  0.3279789E-05  0.2117474E+04  0.7818609E-02  0.8553585E-01
        2   -1    0    0  501    0  0.00000000000E+00  0.00000000000E+00  0.22122367086E+04  0.22122367086E+04  0.25500000920E-02 0. -1.
       -2   -1    0    0    0  501  0.00000000000E+00  0.00000000000E+00 -0.50669245216E+03  0.50669245217E+03  0.25500000920E-02 0.  1.
    10030    2    1    2    0    0  0.00000000000E+00  0.00000000000E+00  0.17055442564E+04  0.27189291607E+04  0.21174736292E+04 0.  0.
        2    1    3    3  502    0  0.57829689953E+03 -0.96193161971E+02  0.19848032111E+04  0.20695710221E+04  0.25500000920E-02 0. -1.
       -2    1    3    3    0  502 -0.57829689953E+03  0.96193161971E+02 -0.27925895476E+03  0.64935813865E+03  0.25500000920E-02 0.  1.
</event>
<event>
 5   0  0.1453430E-05  0.2098251E+04  0.7818609E-02  0.8562014E-01
       -1   -1    0    0    0  501  0.00000000000E+00  0.00000000000E+00  0.15796550595E+04  0.15796550595E+04  0.50400001928E-02 0.  1.
        1   -1    0    0  501    0  0.00000000000E+00  0.00000000000E+00 -0.69677534819E+03  0.69677534821E+03  0.50400001928E-02 0. -1.
    10030    2    1    2    0    0  0.00000000000E+00  0.00000000000E+00  0.88287971126E+03  0.22764304077E+04  0.20982513711E+04 0.  0.
        5    1    3    3  502    0 -0.42185943162E+03  0.48745920226E+03 -0.45652927782E+03  0.78995121711E+03  0.46999998093E+01 0. -1.
       -5    1    3    3    0  502  0.42185943162E+03 -0.48745920226E+03  0.13394089891E+04  0.14864791906E+04  0.46999998093E+01 0.  1.
</event>
<event>
 5   0  0.3257130E-05  0.2102993E+04  0.7818609E-02  0.8559926E-01
        2   -1    0    0  501    0  0.00000000000E+00  0.00000000000E+00  0.12122520058E+04  0.12122520058E+04  0.25500000920E-02 0. -1.
       -2   -1    0    0    0  501  0.00000000000E+00  0.00000000000E+00 -0.91205886545E+03  0.91205886546E+03  0.25500000920E-02 0.  1.
    10030    2    1    2    0    0  0.00000000000E+00  0.00000000000E+00  0.30019314035E+03  0.21243108713E+04  0.21029932849E+04 0.  0.
        3    1    3    3  502    0 -0.46056147269E+03 -0.67599690048E+03  0.81751841150E+03  0.11564709434E+04  0.10100000352E+00 0. -1.
       -3    1    3    3    0  502  0.46056147269E+03  0.67599690048E+03 -0.51732527115E+03  0.96783992786E+03  0.10100000352E+00 0.  1.
</event>
<event>
 5   0  0.3130517E-05  0.2099527E+04  0.7818609E-02  0.8561452E-01
       -2   -1    0    0    0  501  0.00000000000E+00  0.00000000000E+00  0.52833295531E+03  0.52833295531E+03  0.25500000920E-02 0.  1.
        2   -1    0    0  501    0  0.00000000000E+00  0.00000000000E+00 -0.20858116326E+04  0.20858116326E+04  0.25500000920E-02 0. -1.
    10030    2    1    2    0    0  0.00000000000E+00  0.00000000000E+00 -0.15574786773E+04  0.26141445879E+04  0.20995266362E+04 0.  0.
        1    1    3    3  502    0 -0.24550293045E+03  0.78796524565E+03  0.28993628872E+02  0.82583384997E+03  0.50400001928E-02 0.  1.
       -1    1    3    3    0  502  0.24550293045E+03 -0.78796524565E+03 -0.15864723062E+04  0.17883107380E+04  0.50400001928E-02 0. -1.
</event>
<event>
 5   0  0.3242231E-05  0.2088350E+04  0.7818609E-02  0.8566393E-01
       -2   -1    0    0    0  501  0.00000000000E+00  0.00000000000E+00  0.42917201663E+03  0.42917201664E+03  0.25500000920E-02 0. -1.
        2   -1    0    0  501    0  0.00000000000E+00  0.00000000000E+00 -0.25404776997E+04  0.25404776997E+04  0.25500000920E-02 0.  1.
    10030    2    1    2    0    0  0.00000000000E+00  0.00000000000E+00 -0.21113056831E+04  0.29696497163E+04  0.20883504855E+04 0.  0.
        4    1    3    3  502    0 -0.10218287958E+03  0.96014643631E+03 -0.49045580650E+03  0.10829917041E+04  0.12699999809E+01 0. -1.
       -4    1    3    3    0  502  0.10218287958E+03 -0.96014643631E+03 -0.16208498766E+04  0.18866580123E+04  0.12699999809E+01 0.  1.
</event>
<event>
 5   0  0.3279789E-05  0.2104777E+04  0.7818609E-02  0.8559142E-01
        2   -1    0    0  501    0  0.00000000000E+00  0.00000000000E+00  0.16590995283E+04  0.16590995283E+04  0.25500000920E-02 0.  1.
       -2   -1    0    0    0  501  0.00000000000E+00  0.00000000000E+00 -0.66754383469E+03  0.66754383469E+03  0.25500000920E-02 0. -1.
    10030    2    1    2    0    0  0.00000000000E+00  0.00000000000E+00  0.99155569365E+03  0.23266433630E+04  0.21047771011E+04 0.  0.
        2    1    3    3  502    0 -0.39224793282E+02  0.36233325817E+03 -0.59555864068E+03  0.69822207705E+03  0.25500000920E-02 0. -1.
       -2    1    3    3    0  502  0.39224793282E+02 -0.36233325817E+03  0.15871143343E+04  0.16284212860E+04  0.25500000920E-02 0.  1.
</event>
<event>
 5   0  0.1453430E-05  0.2102291E+04  0.7818609E-02  0.8560235E-01
       -1   -1    0    0    0  501  0.00000000000E+00  0.00000000000E+00  0.19807198019E+04  0.19807198019E+04  0.50400001928E-02 0.  1.
        1   -1    0    0  501    0  0.00000000000E+00  0.00000000000E+00 -0.55783089384E+03  0.55783089387E+03  0.50400001928E-02 0. -1.
    10030    2    1    2    0    0  0.00000000000E+00  0.00000000000E+00  0.14228889080E+04  0.25385506958E+04  0.21022908434E+04 0.  0.
        5    1    3    3  502    0 -0.81520535667E+03  0.19599590140E+03  0.14769664717E+04  0.16983598604E+04  0.46999998093E+01 0.  1.
       -5    1    3    3    0  502  0.81520535667E+03 -0.19599590140E+03 -0.54077563668E+02  0.84019083535E+03  0.46999998093E+01 0. -1.
</event>
<event>
 5   0  0.3279789E-05  0.2093422E+04  0.7818609E-02  0.8564147E-01
       -2   -1    0    0    0  501  0.00000000000E+00  0.00000000000E+00  0.40078815067E+03  0.40078815068E+03  0.25500000920E-02 0.  1.
        2   -1    0    0  501    0  0.00000000000E+00  0.00000000000E+00 -0.27336232095E+04  0.27336232095E+04  0.25500000920E-02 0. -1.
    10030    2    1    2    0    0  0.00000000000E+00  0.00000000000E+00 -0.23328350588E+04  0.31344113602E+04  0.20934218789E+04 0.  0.
        2    1    3    3  502    0  0.10940312570E+02 -0.73671881873E+03 -0.22795722928E+04  0.23956886581E+04  0.25500000920E-02 0. -1.
       -2    1    3    3    0  502 -0.10940312570E+02  0.73671881873E+03 -0.53262766003E+02  0.73872270207E+03  0.25500000920E-02 0.  1.
</event>
<event>
 5   0  0.1453430E-05  0.2101689E+04  0.7818609E-02  0.8560500E-01
       -1   -1    0    0    0  501  0.00000000000E+00  0.00000000000E+00  0.80282745064E+03  0.80282745066E+03  0.50400001928E-02 0.  1.
        1   -1    0    0  501    0  0.00000000000E+00  0.00000000000E+00 -0.13754812191E+04  0.13754812191E+04  0.50400001928E-02 0. -1.
    10030    2    1    2    0    0  0.00000000000E+00  0.00000000000E+00 -0.57265376847E+03  0.21783086698E+04  0.21016889214E+04 0.  0.
        5    1    3    3  502    0  0.95072792365E+03  0.35341187681E+03 -0.57105719582E+03  0.11640068515E+04  0.46999998093E+01 0.  1.
       -5    1    3    3    0  502 -0.95072792365E+03 -0.35341187681E+03 -0.15965726471E+01  0.10143018183E+04  0.46999998093E+01 0. -1.
</event>
<event>
 5   0  0.1492552E-05  0.2051048E+04  0.7818609E-02  0.8583119E-01
       -1   -1    0    0    0  501  0.00000000000E+00  0.00000000000E+00  0.12165236670E+04  0.12165236671E+04  0.50400001928E-02 0.  1.
        1   -1    0    0  501    0  0.00000000000E+00  0.00000000000E+00 -0.86451186624E+03  0.86451186625E+03  0.50400001928E-02 0. -1.
    10030    2    1    2    0    0  0.00000000000E+00  0.00000000000E+00  0.35201180081E+03  0.20810355333E+04  0.20510476794E+04 0.  0.
        4    1    3    3  502    0 -0.49093847964E+03 -0.85126390089E+03  0.47359731950E+03  0.10908560188E+04  0.12699999809E+01 0. -1.
       -4    1    3    3    0  502  0.49093847964E+03  0.85126390089E+03 -0.12158551870E+03  0.99017951453E+03  0.12699999809E+01 0.  1.
</event>
<event>
 5   0  0.1435410E-05  0.2066779E+04  0.7818609E-02  0.8576020E-01
        1   -1    0    0  501    0  0.00000000000E+00  0.00000000000E+00  0.85094169616E+03  0.85094169617E+03  0.50400001928E-02 0. -1.
       -1   -1    0    0    0  501  0.00000000000E+00  0.00000000000E+00 -0.12549556580E+04  0.12549556580E+04  0.50400001928E-02 0.  1.
    10030    2    1    2    0    0  0.00000000000E+00  0.00000000000E+00 -0.40401396184E+03  0.21058973542E+04  0.20667792299E+04 0.  0.
        2    1    3    3  502    0 -0.18909265429E+02 -0.93632053676E+03 -0.64712815757E+03  0.11383446579E+04  0.25500000920E-02 0.  1.
       -2    1    3    3    0  502  0.18909265429E+02  0.93632053676E+03  0.24311419573E+03  0.96755269626E+03  0.25500000920E-02 0. -1.
</event>
<event>
 5   0  0.1492552E-05  0.2096190E+04  0.7818609E-02  0.8562924E-01
        1   -1    0    0  501    0  0.00000000000E+00  0.00000000000E+00  0.14434152027E+04  0.14434152028E+04  0.50400001928E-02 0. -1.
       -1   -1    0    0    0  501  0.00000000000E+00  0.00000000000E+00 -0.76104440571E+03  0.76104440573E+03  0.50400001928E-02 0.  1.
    10030    2    1    2    0    0  0.00000000000E+00  0.00000000000E+00  0.68237079704E+03  0.22044596085E+04  0.20961899391E+04 0.  0.
        4    1    3    3  502    0 -0.71480470752E+03 -0.14441782895E+03  0.11328619887E+04  0.13472862270E+04  0.12699999809E+01 0. -1.
       -4    1    3    3    0  502  0.71480470752E+03  0.14441782895E+03 -0.45049119166E+03  0.85717338145E+03  0.12699999809E+01 0.  1.
</event>
<event>
 5   0  0.3130517E-05  0.2096755E+04  0.7818609E-02  0.8562674E-01
        2   -1    0    0  501    0  0.00000000000E+00  0.00000000000E+00  0.17475951573E+04  0.17475951573E+04  0.25500000920E-02 0. -1.
       -2   -1    0    0    0  501  0.00000000000E+00  0.00000000000E+00 -0.62891850191E+03  0.62891850192E+03  0.25500000920E-02 0.  1.
    10030    2    1    2    0    0  0.00000000000E+00  0.00000000000E+00  0.11186766554E+04  0.23765136593E+04  0.20967545668E+04 0.  0.
        1    1    3    3  502    0 -0.39543231170E+03  0.16791014233E+03 -0.52457046677E+03  0.67803739105E+03  0.50400001928E-02 0.  1.
       -1    1    3    3    0  502  0.39543231170E+03 -0.16791014233E+03  0.16432471222E+04  0.16984762682E+04  0.50400001928E-02 0. -1.
</event>
<event>
 5   0  0.3242231E-05  0.2091617E+04  0.7818609E-02  0.8564945E-01
       -2   -1    0    0    0  501  0.00000000000E+00  0.00000000000E+00  0.15220620269E+04  0.15220620269E+04  0.25500000920E-02 0. -1.
        2   -1    0    0  501    0  0.00000000000E+00  0.00000000000E+00 -0.71857452462E+03  0.71857452462E+03  0.25500000920E-02 0.  1.
    10030    2    1    2    0    0  0.00000000000E+00  0.00000000000E+00  0.80348750226E+03  0.22406365515E+04  0.20916165972E+04 0.  0.
        4    1    3    3  502    0 -0.11803678769E+03  0.11707762923E+03 -0.70432702312E+03  0.72368364836E+03  0.12699999809E+01 0.  1.
       -4    1    3    3    0  502  0.11803678769E+03 -0.11707762923E+03  0.15078145254E+04  0.15169529031E+04  0.12699999809E+01 0. -1.
</event>
<event>
 5   0  0.1466480E-05  0.2090954E+04  0.7818609E-02  0.8565238E-01
       -1   -1    0    0    0  501  0.00000000000E+00  0.00000000000E+00  0.81959111047E+03  0.81959111048E+03  0.50400001928E-02 0.  1.
        1   -1    0    0  501    0  0.00000000000E+00  0.00000000000E+00 -0.13336194474E+04  0.13336194474E+04  0.50400001928E-02 0. -1.
    10030    2    1    2    0    0  0.00000000000E+00  0.00000000000E+00 -0.51402833697E+03  0.21532105579E+04  0.20909544652E+04 0.  0.
        3    1    3    3  502    0  0.24795646875E+03  0.90267101728E+03 -0.73641268914E+03  0.11910503914E+04  0.10100000352E+00 0. -1.
       -3    1    3    3    0  502 -0.24795646875E+03 -0.90267101728E+03  0.22238435218E+03  0.96216016656E+03  0.10100000352E+00 0.  1.
</event>
<event>
 5   0  0.3257130E-05  0.2087279E+04  0.7818609E-02  0.8566868E-01
       -2   -1    0    0    0  501  0.00000000000E+00  0.00000000000E+00  0.54740655156E+03  0.54740655157E+03  0.25500000920E-02 0.  1.
        2   -1    0    0  501    0  0.00000000000E+00  0.00000000000E+00 -0.19897160860E+04  0.19897160860E+04  0.25500000920E-02 0. -1.
    10030    2    1    2    0    0  0.00000000000E+00  0.00000000000E+00 -0.14423095345E+04  0.25371226376E+04  0.20872792063E+04 0.  0.
        3    1    3    3  502    0  0.60988186786E+03 -0.73122485916E+03 -0.20183187539E+03  0.97333540135E+03  0.10100000352E+00 0.  1.
       -3    1    3    3    0  502 -0.60988186786E+03  0.73122485916E+03 -0.12404776591E+04  0.15637872363E+04  0.10100000352E+00 0. -1.
</event>
<event>
 5   0  0.1466480E-05  0.2112598E+04  0.7818609E-02  0.8555714E-01
       -1   -1    0    0    0  501  0.00000000000E+00  0.00000000000E+00  0.93990565073E+03  0.93990565075E+03  0.50400001928E-02 0. -1.
        1   -1    0    0  501    0  0.00000000000E+00  0.00000000000E+00 -0.11871057206E+04  0.11871057206E+04  0.50400001928E-02 0.  1.
    10030    2    1    2    0    0  0.00000000000E+00  0.00000000000E+00 -0.24720006987E+03  0.21270113714E+04  0.21125978082E+04 0.  0.
        3    1    3    3  502    0 -0.94919783387E+03 -0.36012971211E+03  0.17010487178E+03  0.10293714660E+04  0.10100000352E+00 0.  1.
       -3    1    3    3    0  502  0.94919783387E+03  0.36012971211E+03 -0.41730494165E+03  0.10976399054E+04  0.10100000352E+00 0. -1.
</event>
<event>
 5   0  0.1435410E-05  0.2101644E+04  0.7818609E-02  0.8560519E-01
        1   -1    0    0  501    0  0.00000000000E+00  0.00000000000E+00  0.10761627360E+04  0.10761627360E+04  0.50400001928E-02 0.  1.
       -1   -1    0    0    0  501  0.00000000000E+00  0.00000000000E+00 -0.10260783932E+04  0.10260783932E+04  0.50400001928E-02 0. -1.
    10030    2    1    2    0    0  0.00000000000E+00  0.00000000000E+00  0.50084342810E+02  0.21022411293E+04  0.21016444333E+04 0.  0.
        2    1    3    3  502    0  0.61173562295E+03  0.55384156882E+03 -0.62573179535E+03  0.10356163553E+04  0.25500000920E-02 0. -1.
       -2    1    3    3    0  502 -0.61173562295E+03 -0.55384156882E+03  0.67581613816E+03  0.10666247739E+04  0.25500000920E-02 0.  1.
</event>
<event>
 5   0  0.3279789E-05  0.2097504E+04  0.7818609E-02  0.8562344E-01
        2   -1    0    0  501    0  0.00000000000E+00  0.00000000000E+00  0.13523618866E+04  0.13523618866E+04  0.25500000920E-02 0. -1.
       -2   -1    0    0    0  501  0.00000000000E+00  0.00000000000E+00 -0.81330376975E+03  0.81330376975E+03  0.25500000920E-02 0.  1.
    10030    2    1    2    0    0  0.00000000000E+00  0.00000000000E+00  0.53905811680E+03  0.21656656563E+04  0.20975042507E+04 0.  0.
        2    1    3    3  502    0 -0.15087996693E+03  0.86926551774E+03 -0.31590071246E+03  0.93711288802E+03  0.25500000920E-02 0.  1.
       -2    1    3    3    0  502  0.15087996693E+03 -0.86926551774E+03  0.85495882926E+03  0.12285527683E+04  0.25500000920E-02 0. -1.
</event>
<event>
 5   0  0.1453430E-05  0.2098126E+04  0.7818609E-02  0.8562069E-01
       -1   -1    0    0    0  501  0.00000000000E+00  0.00000000000E+00  0.52477550707E+03  0.52477550709E+03  0.50400001928E-02 0. -1.
        1   -1    0    0  501    0  0.00000000000E+00  0.00000000000E+00 -0.20971497539E+04  0.20971497539E+04  0.50400001928E-02 0.  1.
    10030    2    1    2    0    0  0.00000000000E+00  0.00000000000E+00 -0.15723742469E+04  0.26219252610E+04  0.20981256641E+04 0.  0.
        5    1    3    3  502    0  0.86329267752E+03  0.52349066014E+03 -0.11422697842E+04  0.15245061719E+04  0.46999998093E+01 0.  1.
       -5    1    3    3    0  502 -0.86329267752E+03 -0.52349066014E+03 -0.43010446261E+03  0.10974190891E+04  0.46999998093E+01 0. -1.
</event>
<event>
 5   0  0.1513292E-05  0.2103376E+04  0.7818609E-02  0.8559758E-01
       -1   -1    0    0    0  501  0.00000000000E+00  0.00000000000E+00  0.13486188249E+04  0.13486188249E+04  0.50400001928E-02 0. -1.
        1   -1    0    0  501    0  0.00000000000E+00  0.00000000000E+00 -0.82013374111E+03  0.82013374113E+03  0.50400001928E-02 0.  1.
    10030    2    1    2    0    0  0.00000000000E+00  0.00000000000E+00  0.52848508377E+03  0.21687525660E+04  0.21033761454E+04 0.  0.
        1    1    3    3  502    0  0.96730662169E+03 -0.57613455551E+02 -0.15717403117E+03  0.98168482046E+03  0.50400001928E-02 0.  1.
       -1    1    3    3    0  502 -0.96730662169E+03  0.57613455551E+02  0.68565911494E+03  0.11870677456E+04  0.50400001928E-02 0. -1.
</event>
<event>
 5   0  0.3242231E-05  0.2102705E+04  0.7818609E-02  0.8560053E-01
        2   -1    0    0  501    0  0.00000000000E+00  0.00000000000E+00  0.10206496180E+04  0.10206496180E+04  0.25500000920E-02 0. -1.
       -2   -1    0    0    0  501  0.00000000000E+00  0.00000000000E+00 -0.10829784975E+04  0.10829784975E+04  0.25500000920E-02 0.  1.
    10030    2    1    2    0    0  0.00000000000E+00  0.00000000000E+00 -0.62328879536E+02  0.21036281155E+04  0.21027045345E+04 0.  0.
        4    1    3    3  502    0 -0.29577359396E+03  0.62489588276E+03 -0.82357489793E+03  0.10752925688E+04  0.12699999809E+01 0.  1.
       -4    1    3    3    0  502  0.29577359396E+03 -0.62489588276E+03  0.76124601839E+03  0.10283355467E+04  0.12699999809E+01 0. -1.
</event>
<event>
 5   0  0.1513292E-05  0.2100042E+04  0.7818609E-02  0.8561225E-01
       -1   -1    0    0    0  501  0.00000000000E+00  0.00000000000E+00  0.11841118488E+04  0.11841118488E+04  0.50400001928E-02 0. -1.
        1   -1    0    0  501    0  0.00000000000E+00  0.00000000000E+00 -0.93111517787E+03  0.93111517789E+03  0.50400001928E-02 0.  1.
    10030    2    1    2    0    0  0.00000000000E+00  0.00000000000E+00  0.25299667091E+03  0.21152270267E+04  0.21000423946E+04 0.  0.
        1    1    3    3  502    0 -0.10342120072E+04 -0.50401999880E+02  0.30214294674E+03  0.10786218975E+04  0.50400001928E-02 0.  1.
       -1    1    3    3    0  502  0.10342120072E+04  0.50401999880E+02 -0.49146275825E+02  0.10366051292E+04  0.50400001928E-02 0. -1.
</event>
<event>
 5   0  0.3242231E-05  0.1982316E+04  0.7818609E-02  0.8614933E-01
        2   -1    0    0  501    0  0.00000000000E+00  0.00000000000E+00  0.11437530083E+04  0.11437530083E+04  0.25500000920E-02 0.  1.
       -2   -1    0    0    0  501  0.00000000000E+00  0.00000000000E+00 -0.85892179254E+03  0.85892179255E+03  0.25500000920E-02 0. -1.
    10030    2    1    2    0    0  0.00000000000E+00  0.00000000000E+00  0.28483121579E+03  0.20026748009E+04  0.19823162050E+04 0.  0.
        4    1    3    3  502    0  0.10682787744E+03  0.29938636259E+03 -0.80602754968E+03  0.86644469716E+03  0.12699999809E+01 0. -1.
       -4    1    3    3    0  502 -0.10682787744E+03 -0.29938636259E+03  0.10908587655E+04  0.11362301037E+04  0.12699999809E+01 0.  1.
</event>
<event>
 5   0  0.3108326E-05  0.2102246E+04  0.7818609E-02  0.8560255E-01
        2   -1    0    0  501    0  0.00000000000E+00  0.00000000000E+00  0.10092483861E+04  0.10092483861E+04  0.25500000920E-02 0.  1.
       -2   -1    0    0    0  501  0.00000000000E+00  0.00000000000E+00 -0.10947350614E+04  0.10947350614E+04  0.25500000920E-02 0. -1.
    10030    2    1    2    0    0  0.00000000000E+00  0.00000000000E+00 -0.85486675294E+02  0.21039834475E+04  0.21022460312E+04 0.  0.
        5    1    3    3  502    0 -0.70534415449E+01  0.17604424632E+03 -0.10798411164E+04  0.10941299075E+04  0.46999998093E+01 0. -1.
       -5    1    3    3    0  502  0.70534415449E+01 -0.17604424632E+03  0.99435444114E+03  0.10098535400E+04  0.46999998093E+01 0.  1.
</event>
<event>
 5   0  0.1492552E-05  0.2096706E+04  0.7818609E-02  0.8562696E-01
        1   -1    0    0  501    0  0.00000000000E+00  0.00000000000E+00  0.85774510749E+03  0.85774510751E+03  0.50400001928E-02 0. -1.
       -1   -1    0    0    0  501  0.00000000000E+00  0.00000000000E+00 -0.12813174893E+04  0.12813174893E+04  0.50400001928E-02 0.  1.
    10030    2    1    2    0    0  0.00000000000E+00  0.00000000000E+00 -0.42357238178E+03  0.21390625968E+04  0.20967058044E+04 0.  0.
        4    1    3    3  502    0  0.12611851853E+03  0.50557381810E+03 -0.11398508707E+04  0.12533045865E+04  0.12699999809E+01 0.  1.
       -4    1    3    3    0  502 -0.12611851853E+03 -0.50557381810E+03  0.71627848889E+03  0.88575801030E+03  0.12699999809E+01 0. -1.
</event>
<event>
 5   0  0.3108326E-05  0.2099444E+04  0.7818609E-02  0.8561489E-01
       -2   -1    0    0    0  501  0.00000000000E+00  0.00000000000E+00  0.48601743904E+03  0.48601743905E+03  0.25500000920E-02 0. -1.
        2   -1    0    0  501    0  0.00000000000E+00  0.00000000000E+00 -0.22672350429E+04  0.22672350429E+04  0.25500000920E-02 0.  1.
    10030    2    1    2    0    0  0.00000000000E+00  0.00000000000E+00 -0.17812176038E+04  0.27532524819E+04  0.20994435160E+04 0.  0.
        5    1    3    3  502    0  0.32361101249E+03 -0.97852888081E+03 -0.62947208595E+03  0.12076837562E+04  0.46999998093E+01 0. -1.
       -5    1    3    3    0  502 -0.32361101249E+03  0.97852888081E+03 -0.11517455179E+04  0.15455687257E+04  0.46999998093E+01 0.  1.
</event>
<event>
 5   0  0.1435410E-05  0.2114142E+04  0.7818609E-02  0.8555039E-01
        1   -1    0    0  501    0  0.00000000000E+00  0.00000000000E+00  0.12996926056E+04  0.12996926056E+04  0.50400001928E-02 0.  1.
       -1   -1    0    0    0  501  0.00000000000E+00  0.00000000000E+00 -0.85974090329E+03  0.85974090330E+03  0.50400001928E-02 0. -1.
    10030    2    1    2    0    0  0.00000000000E+00  0.00000000000E+00  0.43995170229E+03  0.21594335089E+04  0.21141418067E+04 0.  0.
        2    1    3    3  502    0  0.49609078454E+03 -0.22879766843E+03 -0.70436669880E+03  0.89139603206E+03  0.25500000920E-02 0. -1.
       -2    1    3    3    0  502 -0.49609078454E+03  0.22879766843E+03  0.11443184011E+04  0.12680374768E+04  0.25500000920E-02 0.  1.
</event>
<event>
 5   0  0.3279789E-05  0.2116502E+04  0.7818609E-02  0.8554009E-01
        2   -1    0    0  501    0  0.00000000000E+00  0.00000000000E+00  0.29498977173E+04  0.29498977173E+04  0.25500000920E-02 0.  1.
       -2   -1    0    0    0  501  0.00000000000E+00  0.00000000000E+00 -0.37963867596E+03  0.37963867597E+03  0.25500000920E-02 0. -1.
    10030    2    1    2    0    0  0.00000000000E+00  0.00000000000E+00  0.25702590413E+04  0.33295363932E+04  0.21165020800E+04 0.  0.
        2    1    3    3  502    0  0.98927346841E+03  0.25705719971E+03  0.17163939255E+04  0.19976857878E+04  0.25500000920E-02 0.  1.
       -2    1    3    3    0  502 -0.98927346841E+03 -0.25705719971E+03  0.85386511575E+03  0.13318506054E+04  0.25500000920E-02 0. -1.
</event>
<event>
 5   0  0.1453430E-05  0.2088011E+04  0.7818609E-02  0.8566543E-01
       -1   -1    0    0    0  501  0.00000000000E+00  0.00000000000E+00  0.56749963383E+03  0.56749963385E+03  0.50400001928E-02 0. -1.
        1   -1    0    0  501    0  0.00000000000E+00  0.00000000000E+00 -0.19206132465E+04  0.19206132465E+04  0.50400001928E-02 0.  1.
    10030    2    1    2    0    0  0.00000000000E+00  0.00000000000E+00 -0.13531136127E+04  0.24881128804E+04  0.20880108373E+04 0.  0.
        5    1    3    3  502    0  0.12608509795E+03 -0.10362447261E+04 -0.69441678150E+03  0.12537692533E+04  0.46999998093E+01 0.  1.
       -5    1    3    3    0  502 -0.12608509795E+03  0.10362447261E+04 -0.65869683120E+03  0.12343436270E+04  0.46999998093E+01 0. -1.
</event>
</LesHouchesEvents>
