<LesHouchesEvents version="3.0">
<header>
<!--
#*********************************************************************
#                                                                    *
#                        MadGraph5_aMC@NLO                           *
#                                                                    *
#                           Going Beyond                             *
#                                                                    *
#                   http://madgraph.hep.uiuc.edu                     *
#                   http://madgraph.phys.ucl.ac.be                   *
#                   http://amcatnlo.cern.ch                          *
#                                                                    *
#                     The MadGraph5_aMC@NLO team                     *
#                                                                    *
#....................................................................*
#                                                                    *
# This file contains all the information necessary to reproduce      *
# the events generated:                                              *
#                                                                    *
# 1. software version                                                *
# 2. proc_card          : code generation info including model       *
# 3. param_card         : model primary parameters in the LH format  *
# 4. run_card           : running parameters (collider and cuts)     *
# 5. pythia_card        : present only if pythia has been run        *
# 6. pgs_card           : present only if pgs has been run           *
# 7. delphes_cards      : present only if delphes has been run       *
#                                                                    *
#                                                                    *
#*********************************************************************
-->
<MGVersion>
#5.2.2.3
</MGVersion>
<MG5ProcCard>
#************************************************************
#*                     MadGraph5_aMC@NLO                    *
#*                                                          *
#*                *                       *                 *
#*                  *        * *        *                   *
#*                    * * * * 5 * * * *                     *
#*                  *        * *        *                   *
#*                *                       *                 *
#*                                                          *
#*                                                          *
#*         VERSION 2.2.3                 2015-02-10         *
#*                                                          *
#*    The MadGraph5_aMC@NLO Development Team - Find us at   *
#*    https://server06.fynu.ucl.ac.be/projects/madgraph     *
#*                                                          *
#************************************************************
#*                                                          *
#*               Command File for MadGraph5_aMC@NLO         *
#*                                                          *
#*     run as ./bin/mg5_aMC  filename                       *
#*                                                          *
#************************************************************
set group_subprocesses Auto
set ignore_six_quark_processes False
set loop_optimized_output True
set gauge unitary
set complex_mass_scheme False
import model sm
define p = g u c d s u~ c~ d~ s~
define j = g u c d s u~ c~ d~ s~
define l+ = e+ mu+
define l- = e- mu-
define vl = ve vm vt
define vl~ = ve~ vm~ vt~
import model Zprime_UFO
generate p p > zph, zph > j j
add process p p > zph, zph > b b~
output Dijet_signal
</MG5ProcCard>
<MGProcCard>
#*********************************************************************
#                        MadGraph/MadEvent                           *
#                   http://madgraph.hep.uiuc.edu                     *
#                                                                    *
#                          proc_card.dat                             *
#*********************************************************************
#                                                                    *
#            This Files is generated by MADGRAPH 5                   *
#                                                                    *
# WARNING: This Files is generated for MADEVENT (compatibility issue)*
#          This files is NOT a valid MG4 proc_card.dat               *
#          Running this in MG4 will NEVER reproduce the result of MG5*
#                                                                    *
#*********************************************************************
#*********************************************************************
# Process(es) requested : mg2 input                                  *
#*********************************************************************
# Begin PROCESS # This is TAG. Do not modify this line
p p > zph , zph > j j           #Process
# Be carefull the coupling are here in MG5 convention
          
end_coup           # End the couplings input

done               # this tells MG there are no more procs
# End PROCESS  # This is TAG. Do not modify this line
#*********************************************************************
# Model information                                                  *
#*********************************************************************
# Begin MODEL  # This is TAG. Do not modify this line
Zprime_UFO
# End   MODEL  # This is TAG. Do not modify this line
#*********************************************************************
# Start multiparticle definitions                                    *
#*********************************************************************
# Begin MULTIPARTICLES # This is TAG. Do not modify this line

# End  MULTIPARTICLES # This is TAG. Do not modify this line
</MGProcCard>
<MGRunCard>
#*********************************************************************
#                       MadGraph5_aMC@NLO                            *
#                                                                    *
#                     run_card.dat MadEvent                          *
#                                                                    *
#  This file is used to set the parameters of the run.               *
#                                                                    *
#  Some notation/conventions:                                        *
#                                                                    *
#   Lines starting with a '# ' are info or comments                  *
#                                                                    *
#   mind the format:   value    = variable     ! comment             *
#*********************************************************************
#
#*******************                                                 
# Running parameters
#*******************                                                 
#                                                                    
#*********************************************************************
# Tag name for the run (one word)                                    *
#*********************************************************************
  tag_1     = run_tag ! name of the run 
#*********************************************************************
# Run to generate the grid pack                                      *
#*********************************************************************
  .false.     = gridpack  !True = setting up the grid pack
#*********************************************************************
# Number of events and rnd seed                                      *
# Warning: Do not generate more than 1M events in a single run       *
# If you want to run Pythia, avoid more than 50k events in a run.    *
#*********************************************************************
  2000 = nevents ! Number of unweighted events requested 
 1515 = iseed   ! rnd seed (0=assigned automatically=default))
#*********************************************************************
# Collider type and energy                                           *
# lpp: 0=No PDF, 1=proton, -1=antiproton, 2=photon from proton,      *
#                                         3=photon from electron     *
#*********************************************************************
        1     = lpp1    ! beam 1 type 
        1     = lpp2    ! beam 2 type
     4000     = ebeam1  ! beam 1 total energy in GeV
     4000     = ebeam2  ! beam 2 total energy in GeV
#*********************************************************************
# Beam polarization from -100 (left-handed) to 100 (right-handed)    *
#*********************************************************************
        0     = polbeam1 ! beam polarization for beam 1
        0     = polbeam2 ! beam polarization for beam 2
#*********************************************************************
# PDF CHOICE: this automatically fixes also alpha_s and its evol.    *
#*********************************************************************
 'nn23lo1'    = pdlabel     ! PDF set                                     
 230000    = lhaid     ! if pdlabel=lhapdf, this is the lhapdf number
#*********************************************************************
# Renormalization and factorization scales                           *
#*********************************************************************
 F        = fixed_ren_scale  ! if .true. use fixed ren scale
 F        = fixed_fac_scale  ! if .true. use fixed fac scale
 91.1880  = scale            ! fixed ren scale
 91.1880  = dsqrt_q2fact1    ! fixed fact scale for pdf1
 91.1880  = dsqrt_q2fact2    ! fixed fact scale for pdf2
 1        = scalefact        ! scale factor for event-by-event scales
#*********************************************************************
# Matching - Warning! ickkw > 1 is still beta
#*********************************************************************
 0        = ickkw            ! 0 no matching, 1 MLM, 2 CKKW matching
 1        = highestmult      ! for ickkw=2, highest mult group
 1        = ktscheme         ! for ickkw=1, 1 Durham kT, 2 Pythia pTE
 1        = alpsfact         ! scale factor for QCD emission vx
 F        = chcluster        ! cluster only according to channel diag
 T        = pdfwgt           ! for ickkw=1, perform pdf reweighting
 5        = asrwgtflavor     ! highest quark flavor for a_s reweight
 T        = clusinfo         ! include clustering tag in output
 3.0      = lhe_version       ! Change the way clustering information pass to shower.        
#*********************************************************************
#**********************************************************
#
#**********************************************************
# Automatic ptj and mjj cuts if xqcut > 0
# (turn off for VBF and single top processes)
#**********************************************************
   T  = auto_ptj_mjj  ! Automatic setting of ptj and mjj
#**********************************************************
#                                                                    
#**********************************
# BW cutoff (M+/-bwcutoff*Gamma)
#**********************************
  15  = bwcutoff      ! (M+/-bwcutoff*Gamma)
#**********************************************************
# Apply pt/E/eta/dr/mij cuts on decay products or not
# (note that etmiss/ptll/ptheavy/ht/sorted cuts always apply)
#**********************************************************
   T  = cut_decays    ! Cut decay products 
#*************************************************************
# Number of helicities to sum per event (0 = all helicities)
# 0 gives more stable result, but longer run time (needed for
# long decay chains e.g.).
# Use >=2 if most helicities contribute, e.g. pure QCD.
#*************************************************************
   0  = nhel          ! Number of helicities used per event
#*******************                                                 
# Standard Cuts
#*******************                                                 
#                                                                    
#*********************************************************************
# Minimum and maximum pt's (for max, -1 means no cut)                *
#*********************************************************************
 20  = ptj       ! minimum pt for the jets 
  0  = ptb       ! minimum pt for the b 
 10  = pta       ! minimum pt for the photons 
 10  = ptl       ! minimum pt for the charged leptons 
  0  = misset    ! minimum missing Et (sum of neutrino's momenta)
  0  = ptheavy   ! minimum pt for one heavy final state
 1.0 = ptonium   ! minimum pt for the quarkonium states
 -1  = ptjmax    ! maximum pt for the jets
 -1  = ptbmax    ! maximum pt for the b
 -1  = ptamax    ! maximum pt for the photons
 -1  = ptlmax    ! maximum pt for the charged leptons
 -1  = missetmax ! maximum missing Et (sum of neutrino's momenta)
#*********************************************************************
# Minimum and maximum E's (in the center of mass frame)              *
#*********************************************************************
  0  = ej     ! minimum E for the jets 
  0  = eb     ! minimum E for the b 
  0  = ea     ! minimum E for the photons 
  0  = el     ! minimum E for the charged leptons 
 -1   = ejmax ! maximum E for the jets
 -1   = ebmax ! maximum E for the b
 -1   = eamax ! maximum E for the photons
 -1   = elmax ! maximum E for the charged leptons
#*********************************************************************
# Maximum and minimum absolute rapidity (for max, -1 means no cut)   *
#*********************************************************************
   5  = etaj    ! max rap for the jets 
  -1  = etab    ! max rap for the b
 2.5  = etaa    ! max rap for the photons 
 2.5  = etal    ! max rap for the charged leptons 
 0.6  = etaonium ! max rap for the quarkonium states
   0  = etajmin ! min rap for the jets
   0  = etabmin ! min rap for the b
   0  = etaamin ! min rap for the photons
   0  = etalmin ! main rap for the charged leptons
#*********************************************************************
# Minimum and maximum DeltaR distance                                *
#*********************************************************************
 0.4 = drjj    ! min distance between jets 
 0   = drbb    ! min distance between b's 
 0.4 = drll    ! min distance between leptons 
 0.4 = draa    ! min distance between gammas 
 0   = drbj    ! min distance between b and jet 
 0.4 = draj    ! min distance between gamma and jet 
 0.4 = drjl    ! min distance between jet and lepton 
 0   = drab    ! min distance between gamma and b 
 0   = drbl    ! min distance between b and lepton 
 0.4 = dral    ! min distance between gamma and lepton 
 -1  = drjjmax ! max distance between jets
 -1  = drbbmax ! max distance between b's
 -1  = drllmax ! max distance between leptons
 -1  = draamax ! max distance between gammas
 -1  = drbjmax ! max distance between b and jet
 -1  = drajmax ! max distance between gamma and jet
 -1  = drjlmax ! max distance between jet and lepton
 -1  = drabmax ! max distance between gamma and b
 -1  = drblmax ! max distance between b and lepton
 -1  = dralmax ! maxdistance between gamma and lepton
#*********************************************************************
# Minimum and maximum invariant mass for pairs                       *
# WARNING: for four lepton final state mmll cut require to have      *
#          different lepton masses for each flavor!                  *           
#*********************************************************************
 0   = mmjj    ! min invariant mass of a jet pair 
 0   = mmbb    ! min invariant mass of a b pair 
 0   = mmaa    ! min invariant mass of gamma gamma pair
 0   = mmll    ! min invariant mass of l+l- (same flavour) lepton pair
 -1  = mmjjmax ! max invariant mass of a jet pair
 -1  = mmbbmax ! max invariant mass of a b pair
 -1  = mmaamax ! max invariant mass of gamma gamma pair
 -1  = mmllmax ! max invariant mass of l+l- (same flavour) lepton pair
#*********************************************************************
# Minimum and maximum invariant mass for all letpons                 *
#*********************************************************************
 0   = mmnl    ! min invariant mass for all letpons (l+- and vl) 
 -1  = mmnlmax ! max invariant mass for all letpons (l+- and vl) 
#*********************************************************************
# Minimum and maximum pt for 4-momenta sum of leptons                *
#*********************************************************************
 0   = ptllmin  ! Minimum pt for 4-momenta sum of leptons(l and vl)
 -1  = ptllmax  ! Maximum pt for 4-momenta sum of leptons(l and vl)
#*********************************************************************
# Inclusive cuts                                                     *
#*********************************************************************
 0  = xptj ! minimum pt for at least one jet  
 0  = xptb ! minimum pt for at least one b 
 0  = xpta ! minimum pt for at least one photon 
 0  = xptl ! minimum pt for at least one charged lepton 
#*********************************************************************
# Control the pt's of the jets sorted by pt                          *
#*********************************************************************
 0   = ptj1min ! minimum pt for the leading jet in pt
 0   = ptj2min ! minimum pt for the second jet in pt
 0   = ptj3min ! minimum pt for the third jet in pt
 0   = ptj4min ! minimum pt for the fourth jet in pt
 -1  = ptj1max ! maximum pt for the leading jet in pt 
 -1  = ptj2max ! maximum pt for the second jet in pt
 -1  = ptj3max ! maximum pt for the third jet in pt
 -1  = ptj4max ! maximum pt for the fourth jet in pt
 0   = cutuse  ! reject event if fails any (0) / all (1) jet pt cuts
#*********************************************************************
# Control the pt's of leptons sorted by pt                           *
#*********************************************************************
 0   = ptl1min ! minimum pt for the leading lepton in pt
 0   = ptl2min ! minimum pt for the second lepton in pt
 0   = ptl3min ! minimum pt for the third lepton in pt
 0   = ptl4min ! minimum pt for the fourth lepton in pt
 -1  = ptl1max ! maximum pt for the leading lepton in pt 
 -1  = ptl2max ! maximum pt for the second lepton in pt
 -1  = ptl3max ! maximum pt for the third lepton in pt
 -1  = ptl4max ! maximum pt for the fourth lepton in pt
#*********************************************************************
# Control the Ht(k)=Sum of k leading jets                            *
#*********************************************************************
 0   = htjmin ! minimum jet HT=Sum(jet pt)
 -1  = htjmax ! maximum jet HT=Sum(jet pt)
 0   = ihtmin  !inclusive Ht for all partons (including b)
 -1  = ihtmax  !inclusive Ht for all partons (including b)
 0   = ht2min ! minimum Ht for the two leading jets
 0   = ht3min ! minimum Ht for the three leading jets
 0   = ht4min ! minimum Ht for the four leading jets
 -1  = ht2max ! maximum Ht for the two leading jets
 -1  = ht3max ! maximum Ht for the three leading jets
 -1  = ht4max ! maximum Ht for the four leading jets
#***********************************************************************
# Photon-isolation cuts, according to hep-ph/9801442                   *
# When ptgmin=0, all the other parameters are ignored                  *
# When ptgmin>0, pta and draj are not going to be used                 *
#***********************************************************************
   0 = ptgmin ! Min photon transverse momentum
 0.4 = R0gamma ! Radius of isolation code
 1.0 = xn ! n parameter of eq.(3.4) in hep-ph/9801442
 1.0 = epsgamma ! epsilon_gamma parameter of eq.(3.4) in hep-ph/9801442
 .true. = isoEM ! isolate photons from EM energy (photons and leptons)
#*********************************************************************
# WBF cuts                                                           *
#*********************************************************************
 0   = xetamin ! minimum rapidity for two jets in the WBF case  
 0   = deltaeta ! minimum rapidity for two jets in the WBF case 
#*********************************************************************
# KT DURHAM CUT                                                      *
#*********************************************************************
 -1    =  ktdurham        
 0.4  =  dparameter 
#*********************************************************************
# maximal pdg code for quark to be considered as a light jet         *
# (otherwise b cuts are applied)                                     *
#*********************************************************************
 4 = maxjetflavor    ! Maximum jet pdg code
#*********************************************************************
# Jet measure cuts                                                   *
#*********************************************************************
 0   = xqcut   ! minimum kt jet measure between partons
#*********************************************************************
#
#*********************************************************************
# Store info for systematics studies                                 *
# WARNING: If use_syst is T, matched Pythia output is                *
#          meaningful ONLY if plotted taking matchscale              *
#          reweighting into account!                                 *
#*********************************************************************
   F  = use_syst      ! Enable systematics studies
#
#**************************************
# Parameter of the systematics study
#  will be used by SysCalc (if installed)
#**************************************                                  
#
0.5 1 2 = sys_scalefact  # factorization/renormalization scale factor
0.5 1 2 = sys_alpsfact  # \alpha_s emission scale factors
30 50 = sys_matchscale # variation of merging scale
# PDF sets and number of members (0 or none for all members).
CT10nlo.LHgrid = sys_pdf # matching scales
# MSTW2008nlo68cl.LHgrid 1  = sys_pdf
</MGRunCard>
<slha>
######################################################################
## PARAM_CARD AUTOMATICALY GENERATED BY MG5 FOLLOWING UFO MODEL   ####
######################################################################
##                                                                  ##
##  Width set on Auto will be computed following the information    ##
##        present in the decay.py files of the model.               ##
##        See  arXiv:1402.1178 for more details.                    ##
##                                                                  ##
######################################################################

###################################
## INFORMATION FOR CKMBLOCK
###################################
Block ckmblock 
    1 2.277360e-01 # cabi 

###################################
## INFORMATION FOR FRBLOCK
###################################
Block frblock 
    1 8.000000e-01 # gz 

###################################
## INFORMATION FOR MASS
###################################
Block mass 
    1 5.040000e-03 # MD 
    2 2.550000e-03 # MU 
    3 1.010000e-01 # MS 
    4 1.270000e+00 # MC 
    5 4.700000e+00 # MB 
    6 1.720000e+02 # MT 
   11 5.110000e-04 # Me 
   13 1.056600e-01 # MM 
   15 1.777000e+00 # MTA 
   23 9.118760e+01 # MZ 
   25 1.200000e+02 # MH 
  10030 1.000000e+03 # MZph 
  10031 3.000000e+02 # MZpl 
## Dependent parameters, given by model restrictions.
## Those values should be edited following the 
## analytical expression. MG5 ignores those values 
## but they are important for interfacing the output of MG5
## to external program such as Pythia.
  12 0.000000 # ve : 0.0 
  14 0.000000 # vm : 0.0 
  16 0.000000 # vt : 0.0 
  21 0.000000 # g : 0.0 
  22 0.000000 # a : 0.0 
  24 79.824360 # w+ : cmath.sqrt(MZ__exp__2/2. + cmath.sqrt(MZ__exp__4/4. - (aEW*cmath.pi*MZ__exp__2)/(Gf*sqrt__2))) 

###################################
## INFORMATION FOR SMINPUTS
###################################
Block sminputs 
    1 1.279000e+02 # aEWM1 
    2 1.166370e-05 # Gf 
    3 1.184000e-01 # aS 

###################################
## INFORMATION FOR YUKAWA
###################################
Block yukawa 
    1 5.040000e-03 # ymdo 
    2 2.550000e-03 # ymup 
    3 1.010000e-01 # yms 
    4 1.270000e+00 # ymc 
    5 4.700000e+00 # ymb 
    6 1.720000e+02 # ymt 
   11 5.110000e-04 # yme 
   13 1.056600e-01 # ymm 
   15 1.777000e+00 # ymtau 

###################################
## INFORMATION FOR DECAY
###################################
DECAY   6 1.508336e+00 # WT 
DECAY  23 2.495200e+00 # WZ 
DECAY  24 2.085000e+00 # WW 
DECAY  25 5.753088e-03 # WH 
## Dependent parameters, given by model restrictions.
## Those values should be edited following the 
## analytical expression. MG5 ignores those values 
## but they are important for interfacing the output of MG5
## to external program such as Pythia.
DECAY  1 0.000000 # d : 0.0 
DECAY  2 0.000000 # u : 0.0 
DECAY  3 0.000000 # s : 0.0 
DECAY  4 0.000000 # c : 0.0 
DECAY  5 0.000000 # b : 0.0 
DECAY  11 0.000000 # e- : 0.0 
DECAY  12 0.000000 # ve : 0.0 
DECAY  13 0.000000 # mu- : 0.0 
DECAY  14 0.000000 # vm : 0.0 
DECAY  15 0.000000 # ta- : 0.0 
DECAY  16 0.000000 # vt : 0.0 
DECAY  21 0.000000 # g : 0.0 
DECAY  22 0.000000 # a : 0.0 
DECAY  10030 0.308725 # zph : (gz__exp__2*MZph*(5 + cmath.sqrt(1 - (4*MT__exp__2)/MZph__exp__2)))/(144.*cmath.pi) 
DECAY  10031 0.132629 # zpl : (5*gz__exp__2*MZpl)/(144.*cmath.pi) 
#===========================================================
# QUANTUM NUMBERS OF NEW STATE(S) (NON SM PDG CODE)
#===========================================================

Block QNUMBERS 10030  # zph 
        1 0  # 3 times electric charge
        2 3  # number of spin states (2S+1)
        3 1  # colour rep (1: singlet, 3: triplet, 8: octet)
        4 0  # Particle/Antiparticle distinction (0=own anti)
Block QNUMBERS 10031  # zpl 
        1 0  # 3 times electric charge
        2 3  # number of spin states (2S+1)
        3 1  # colour rep (1: singlet, 3: triplet, 8: octet)
        4 0  # Particle/Antiparticle distinction (0=own anti)
</slha>
## END BANNER##
<MGGenerationInfo>
#  Number of Events        :         4048
#  Integrated weight (pb)  :  0.12384E+01
#  Max wgt                 :  0.41409E-03
#  Average wgt             :  0.30593E-03
</MGGenerationInfo>
</header>
<init>
     2212     2212  0.40000000000E+04  0.40000000000E+04 0 0  247000  247000 2   1
  0.12391742052E+01  0.22085798657E-02  0.41408600000E-03   0
</init>
<event>
 5   0  0.4026829E-03  0.9986059E+03  0.7818609E-02  0.9310075E-01
       -2   -1    0    0    0  501  0.00000000000E+00  0.00000000000E+00  0.30151479210E+03  0.30151479211E+03  0.25500000920E-02 0.  1.
        2   -1    0    0  501    0  0.00000000000E+00  0.00000000000E+00 -0.82683652729E+03  0.82683652729E+03  0.25500000920E-02 0. -1.
    10030    2    1    2    0    0  0.00000000000E+00  0.00000000000E+00 -0.52532173519E+03  0.11283513194E+04  0.99860591554E+03 0.  0.
        1    1    3    3  502    0 -0.47571650295E+02 -0.10588118773E+03  0.28605727926E+03  0.30871128077E+03  0.50400001928E-02 0.  1.
       -1    1    3    3    0  502  0.47571650295E+02  0.10588118773E+03 -0.81137901445E+03  0.81964003864E+03  0.50400001928E-02 0. -1.
</event>
<event>
 5   0  0.4026829E-03  0.1005855E+04  0.7818609E-02  0.9302147E-01
        2   -1    0    0  501    0  0.00000000000E+00  0.00000000000E+00  0.93565200580E+03  0.93565200580E+03  0.25500000920E-02 0. -1.
       -2   -1    0    0    0  501  0.00000000000E+00  0.00000000000E+00 -0.27033123044E+03  0.27033123045E+03  0.25500000920E-02 0.  1.
    10030    2    1    2    0    0  0.00000000000E+00  0.00000000000E+00  0.66532077536E+03  0.12059832363E+04  0.10058547768E+04 0.  0.
        1    1    3    3  502    0 -0.22676919920E+03  0.44616308887E+03  0.39200831425E+03  0.63573287632E+03  0.50400001928E-02 0.  1.
       -1    1    3    3    0  502  0.22676919920E+03 -0.44616308887E+03  0.27331246111E+03  0.57025035993E+03  0.50400001928E-02 0. -1.
</event>
<event>
 5   0  0.4140860E-03  0.9825758E+03  0.7818609E-02  0.9327864E-01
       -2   -1    0    0    0  501  0.00000000000E+00  0.00000000000E+00  0.17561357537E+03  0.17561357539E+03  0.25500000920E-02 0.  1.
        2   -1    0    0  501    0  0.00000000000E+00  0.00000000000E+00 -0.13744029301E+04  0.13744029301E+04  0.25500000920E-02 0. -1.
    10030    2    1    2    0    0  0.00000000000E+00  0.00000000000E+00 -0.11987893548E+04  0.15500165055E+04  0.98257582422E+03 0.  0.
        3    1    3    3  502    0 -0.16808313089E+02  0.17952968932E+03  0.12152665518E+03  0.21744462941E+03  0.10100000352E+00 0.  1.
       -3    1    3    3    0  502  0.16808313089E+02 -0.17952968932E+03 -0.13203160099E+04  0.13325718761E+04  0.10100000352E+00 0. -1.
</event>
<event>
 5   0  0.4026829E-03  0.9933020E+03  0.7818609E-02  0.9315922E-01
        2   -1    0    0  501    0  0.00000000000E+00  0.00000000000E+00  0.14412082664E+04  0.14412082664E+04  0.25500000920E-02 0. -1.
       -2   -1    0    0    0  501  0.00000000000E+00  0.00000000000E+00 -0.17114961130E+03  0.17114961132E+03  0.25500000920E-02 0.  1.
    10030    2    1    2    0    0  0.00000000000E+00  0.00000000000E+00  0.12700586551E+04  0.16123578778E+04  0.99330203790E+03 0.  0.
        1    1    3    3  502    0  0.34562549916E+03  0.23360489792E+02  0.12127249339E+04  0.12612313283E+04  0.50400001928E-02 0. -1.
       -1    1    3    3    0  502 -0.34562549916E+03 -0.23360489792E+02  0.57333721285E+02  0.35112654951E+03  0.50400001928E-02 0.  1.
</event>
<event>
 5   0  0.4140860E-03  0.9970526E+03  0.7818609E-02  0.9311783E-01
        2   -1    0    0  501    0  0.00000000000E+00  0.00000000000E+00  0.12034771132E+04  0.12034771132E+04  0.25500000920E-02 0.  1.
       -2   -1    0    0    0  501  0.00000000000E+00  0.00000000000E+00 -0.20650869991E+03  0.20650869993E+03  0.25500000920E-02 0. -1.
    10030    2    1    2    0    0  0.00000000000E+00  0.00000000000E+00  0.99696841326E+03  0.14099858131E+04  0.99705264461E+03 0.  0.
        3    1    3    3  502    0  0.46889876121E+03 -0.40944768961E+02  0.73079297431E+03  0.86925307240E+03  0.10100000352E+00 0. -1.
       -3    1    3    3    0  502 -0.46889876121E+03  0.40944768961E+02  0.26617543895E+03  0.54073274071E+03  0.10100000352E+00 0.  1.
</event>
<event>
 5   0  0.2378609E-03  0.9943602E+03  0.7818609E-02  0.9314752E-01
       -1   -1    0    0    0  501  0.00000000000E+00  0.00000000000E+00  0.45427829105E+03  0.45427829108E+03  0.50400001928E-02 0.  1.
        1   -1    0    0  501    0  0.00000000000E+00  0.00000000000E+00 -0.54413350674E+03  0.54413350676E+03  0.50400001928E-02 0. -1.
    10030    2    1    2    0    0  0.00000000000E+00  0.00000000000E+00 -0.89855215690E+02  0.99841179784E+03  0.99436017533E+03 0.  0.
        1    1    3    3  502    0 -0.32192125851E+03  0.21782621769E+01  0.33549610289E+03  0.46496846838E+03  0.50400001928E-02 0.  1.
       -1    1    3    3    0  502  0.32192125851E+03 -0.21782621769E+01 -0.42535131858E+03  0.53344332946E+03  0.50400001928E-02 0. -1.
</event>
<event>
 5   0  0.2313036E-03  0.1009339E+04  0.7818609E-02  0.9298360E-01
        1   -1    0    0  501    0  0.00000000000E+00  0.00000000000E+00  0.54228308695E+03  0.54228308697E+03  0.50400001928E-02 0.  1.
       -1   -1    0    0    0  501  0.00000000000E+00  0.00000000000E+00 -0.46966517534E+03  0.46966517537E+03  0.50400001928E-02 0. -1.
    10030    2    1    2    0    0  0.00000000000E+00  0.00000000000E+00  0.72617911609E+02  0.10119482623E+04  0.10093393505E+04 0.  0.
        3    1    3    3  502    0 -0.20233441592E+03  0.44564551475E+03  0.15972192967E+03  0.51483030768E+03  0.10100000352E+00 0.  1.
       -3    1    3    3    0  502  0.20233441592E+03 -0.44564551475E+03 -0.87104018060E+02  0.49711795466E+03  0.10100000352E+00 0. -1.
</event>
<event>
 5   0  0.4026829E-03  0.1004934E+04  0.7818609E-02  0.9303149E-01
       -2   -1    0    0    0  501  0.00000000000E+00  0.00000000000E+00  0.28501682711E+03  0.28501682712E+03  0.25500000920E-02 0. -1.
        2   -1    0    0  501    0  0.00000000000E+00  0.00000000000E+00 -0.88581878700E+03  0.88581878701E+03  0.25500000920E-02 0.  1.
    10030    2    1    2    0    0  0.00000000000E+00  0.00000000000E+00 -0.60080195990E+03  0.11708356141E+04  0.10049343463E+04 0.  0.
        1    1    3    3  502    0 -0.21087340296E+03 -0.20367025076E+03  0.17504018145E+03  0.34145018416E+03  0.50400001928E-02 0. -1.
       -1    1    3    3    0  502  0.21087340296E+03  0.20367025076E+03 -0.77584214135E+03  0.82938542996E+03  0.50400001928E-02 0.  1.
</event>
<event>
 5   0  0.1548000E-03  0.1003455E+04  0.7818609E-02  0.9304763E-01
       -4   -1    0    0    0  501  0.00000000000E+00  0.00000000000E+00  0.65489596583E+03  0.65489719724E+03  0.12699999809E+01 0.  1.
        4   -1    0    0  501    0  0.00000000000E+00  0.00000000000E+00 -0.38437978666E+03  0.38438188470E+03  0.12699999809E+01 0. -1.
    10030    2    1    2    0    0  0.00000000000E+00  0.00000000000E+00  0.27051617917E+03  0.10392790819E+04  0.10034550349E+04 0.  0.
        5    1    3    3  502    0 -0.27551952995E+03 -0.36708563804E+02 -0.29732507099E+03  0.40704154318E+03  0.46999998093E+01 0. -1.
       -5    1    3    3    0  502  0.27551952995E+03  0.36708563804E+02  0.56784125016E+03  0.63223753876E+03  0.46999998093E+01 0.  1.
</event>
<event>
 5   0  0.4026829E-03  0.1011062E+04  0.7818609E-02  0.9296494E-01
       -2   -1    0    0    0  501  0.00000000000E+00  0.00000000000E+00  0.13143799841E+03  0.13143799844E+03  0.25500000920E-02 0.  1.
        2   -1    0    0  501    0  0.00000000000E+00  0.00000000000E+00 -0.19443526774E+04  0.19443526774E+04  0.25500000920E-02 0. -1.
    10030    2    1    2    0    0  0.00000000000E+00  0.00000000000E+00 -0.18129146790E+04  0.20757906758E+04  0.10110624593E+04 0.  0.
        1    1    3    3  502    0  0.27312507442E+03  0.31455466282E+03 -0.31847383632E+03  0.52437346102E+03  0.50400001928E-02 0.  1.
       -1    1    3    3    0  502 -0.27312507442E+03 -0.31455466282E+03 -0.14944408427E+04  0.15514172148E+04  0.50400001928E-02 0. -1.
</event>
<event>
 5   0  0.1548000E-03  0.1007174E+04  0.7818609E-02  0.9300711E-01
        4   -1    0    0  501    0  0.00000000000E+00  0.00000000000E+00  0.14412910455E+04  0.14412916050E+04  0.12699999809E+01 0. -1.
       -4   -1    0    0    0  501  0.00000000000E+00  0.00000000000E+00 -0.17595041228E+03  0.17595499561E+03  0.12699999809E+01 0.  1.
    10030    2    1    2    0    0  0.00000000000E+00  0.00000000000E+00  0.12653406332E+04  0.16172466006E+04  0.10071740908E+04 0.  0.
        2    1    3    3  502    0  0.40929483206E+03 -0.24925910918E+03  0.88115649631E+03  0.10030399464E+04  0.25500000920E-02 0. -1.
       -2    1    3    3    0  502 -0.40929483206E+03  0.24925910918E+03  0.38418413690E+03  0.61420665424E+03  0.25500000920E-02 0.  1.
</event>
<event>
 5   0  0.3873874E-03  0.1004254E+04  0.7818609E-02  0.9303891E-01
       -2   -1    0    0    0  501  0.00000000000E+00  0.00000000000E+00  0.18665229036E+03  0.18665229038E+03  0.25500000920E-02 0. -1.
        2   -1    0    0  501    0  0.00000000000E+00  0.00000000000E+00 -0.13508098788E+04  0.13508098788E+04  0.25500000920E-02 0.  1.
    10030    2    1    2    0    0  0.00000000000E+00  0.00000000000E+00 -0.11641575884E+04  0.15374621691E+04  0.10042544652E+04 0.  0.
        5    1    3    3  502    0  0.11420839460E+03  0.31175383173E+03 -0.11587318694E+04  0.12053695052E+04  0.46999998093E+01 0.  1.
       -5    1    3    3    0  502 -0.11420839460E+03 -0.31175383173E+03 -0.54257190013E+01  0.33209266390E+03  0.46999998093E+01 0. -1.
</event>
<event>
 5   0  0.2327595E-03  0.1008519E+04  0.7818609E-02  0.9299251E-01
       -1   -1    0    0    0  501  0.00000000000E+00  0.00000000000E+00  0.29646509107E+03  0.29646509111E+03  0.50400001928E-02 0.  1.
        1   -1    0    0  501    0  0.00000000000E+00  0.00000000000E+00 -0.85769772078E+03  0.85769772079E+03  0.50400001928E-02 0. -1.
    10030    2    1    2    0    0  0.00000000000E+00  0.00000000000E+00 -0.56123262971E+03  0.11541628119E+04  0.10085185827E+04 0.  0.
        5    1    3    3  502    0  0.25669208109E+03  0.15698301610E+03 -0.74367407727E+03  0.80225165319E+03  0.46999998093E+01 0. -1.
       -5    1    3    3    0  502 -0.25669208109E+03 -0.15698301610E+03  0.18244144756E+03  0.35191115872E+03  0.46999998093E+01 0.  1.
</event>
<event>
 5   0  0.1548000E-03  0.9667361E+03  0.7818609E-02  0.9345800E-01
       -3   -1    0    0    0  501  0.00000000000E+00  0.00000000000E+00  0.11738094028E+04  0.11738094071E+04  0.10100000352E+00 0.  1.
        3   -1    0    0  501    0  0.00000000000E+00  0.00000000000E+00 -0.19904818477E+03  0.19904821039E+03  0.10100000352E+00 0. -1.
    10030    2    1    2    0    0  0.00000000000E+00  0.00000000000E+00  0.97476121802E+03  0.13728576175E+04  0.96673605800E+03 0.  0.
        1    1    3    3  502    0  0.11331400106E+03 -0.46625483298E+02 -0.17662707658E+03  0.21496772487E+03  0.50400001928E-02 0. -1.
       -1    1    3    3    0  502 -0.11331400106E+03  0.46625483298E+02  0.11513882946E+04  0.11578898927E+04  0.50400001928E-02 0.  1.
</event>
<event>
 5   0  0.2378609E-03  0.1000899E+04  0.7818609E-02  0.9307559E-01
        1   -1    0    0  501    0  0.00000000000E+00  0.00000000000E+00  0.37449638314E+03  0.37449638317E+03  0.50400001928E-02 0.  1.
       -1   -1    0    0    0  501  0.00000000000E+00  0.00000000000E+00 -0.66876438160E+03  0.66876438162E+03  0.50400001928E-02 0. -1.
    10030    2    1    2    0    0  0.00000000000E+00  0.00000000000E+00 -0.29426799846E+03  0.10432607648E+04  0.10008992799E+04 0.  0.
        1    1    3    3  502    0  0.29553071464E+03 -0.38810513590E+03 -0.30664711350E+02  0.48877840005E+03  0.50400001928E-02 0. -1.
       -1    1    3    3    0  502 -0.29553071464E+03  0.38810513590E+03 -0.26360328711E+03  0.55448236474E+03  0.50400001928E-02 0.  1.
</event>
<event>
 5   0  0.2313036E-03  0.9930821E+03  0.7818609E-02  0.9316165E-01
       -1   -1    0    0    0  501  0.00000000000E+00  0.00000000000E+00  0.27113028321E+03  0.27113028325E+03  0.50400001928E-02 0. -1.
        1   -1    0    0  501    0  0.00000000000E+00  0.00000000000E+00 -0.90935255183E+03  0.90935255184E+03  0.50400001928E-02 0.  1.
    10030    2    1    2    0    0  0.00000000000E+00  0.00000000000E+00 -0.63822226862E+03  0.11804828351E+04  0.99308210124E+03 0.  0.
        3    1    3    3  502    0  0.75125211138E+02 -0.68183944963E+02  0.25867852664E+03  0.27786226452E+03  0.10100000352E+00 0. -1.
       -3    1    3    3    0  502 -0.75125211138E+02  0.68183944963E+02 -0.89690079526E+03  0.90262057058E+03  0.10100000352E+00 0.  1.
</event>
<event>
 5   0  0.2313036E-03  0.9957300E+03  0.7818609E-02  0.9313240E-01
       -1   -1    0    0    0  501  0.00000000000E+00  0.00000000000E+00  0.21453197481E+03  0.21453197486E+03  0.50400001928E-02 0. -1.
        1   -1    0    0  501    0  0.00000000000E+00  0.00000000000E+00 -0.11553968713E+04  0.11553968713E+04  0.50400001928E-02 0.  1.
    10030    2    1    2    0    0  0.00000000000E+00  0.00000000000E+00 -0.94086489645E+03  0.13699288461E+04  0.99573002872E+03 0.  0.
        3    1    3    3  502    0 -0.36619759297E+03 -0.10249999059E+03 -0.28324816312E+02  0.38132562278E+03  0.10100000352E+00 0. -1.
       -3    1    3    3    0  502  0.36619759297E+03  0.10249999059E+03 -0.91254008014E+03  0.98860322335E+03  0.10100000352E+00 0.  1.
</event>
<event>
 5   0  0.4026829E-03  0.1002404E+04  0.7818609E-02  0.9305912E-01
        2   -1    0    0  501    0  0.00000000000E+00  0.00000000000E+00  0.31160585684E+04  0.31160585684E+04  0.25500000920E-02 0. -1.
       -2   -1    0    0    0  501  0.00000000000E+00  0.00000000000E+00 -0.80615821138E+02  0.80615821178E+02  0.25500000920E-02 0.  1.
    10030    2    1    2    0    0  0.00000000000E+00  0.00000000000E+00  0.30354427472E+04  0.31966743896E+04  0.10024043501E+04 0.  0.
        1    1    3    3  502    0 -0.22544008436E+03  0.40841160972E+03  0.93333774594E+03  0.10434283026E+04  0.50400001928E-02 0.  1.
       -1    1    3    3    0  502  0.22544008436E+03 -0.40841160972E+03  0.21021050013E+04  0.21532460870E+04  0.50400001928E-02 0. -1.
</event>
<event>
 5   0  0.2405022E-03  0.9976451E+03  0.7818609E-02  0.9311131E-01
        1   -1    0    0  501    0  0.00000000000E+00  0.00000000000E+00  0.39779789750E+03  0.39779789754E+03  0.50400001928E-02 0.  1.
       -1   -1    0    0    0  501  0.00000000000E+00  0.00000000000E+00 -0.62550334239E+03  0.62550334241E+03  0.50400001928E-02 0. -1.
    10030    2    1    2    0    0  0.00000000000E+00  0.00000000000E+00 -0.22770544488E+03  0.10233012399E+04  0.99764505614E+03 0.  0.
        4    1    3    3  502    0  0.24400230278E+03 -0.37427744020E+02  0.33075063657E+03  0.41271728372E+03  0.12699999809E+01 0.  1.
       -4    1    3    3    0  502 -0.24400230278E+03  0.37427744020E+02 -0.55845608145E+03  0.61058395622E+03  0.12699999809E+01 0. -1.
</event>
<event>
 5   0  0.2378609E-03  0.1014944E+04  0.7818609E-02  0.9292305E-01
       -1   -1    0    0    0  501  0.00000000000E+00  0.00000000000E+00  0.43253226224E+03  0.43253226227E+03  0.50400001928E-02 0. -1.
        1   -1    0    0  501    0  0.00000000000E+00  0.00000000000E+00 -0.59539534462E+03  0.59539534464E+03  0.50400001928E-02 0.  1.
    10030    2    1    2    0    0  0.00000000000E+00  0.00000000000E+00 -0.16286308237E+03  0.10279276069E+04  0.10149437331E+04 0.  0.
        1    1    3    3  502    0 -0.32326448862E+03 -0.39116240515E+03 -0.76931898569E+02  0.51325088782E+03  0.50400001928E-02 0. -1.
       -1    1    3    3    0  502  0.32326448862E+03  0.39116240515E+03 -0.85931183806E+02  0.51467671910E+03  0.50400001928E-02 0.  1.
</event>
<event>
 5   0  0.3895011E-03  0.9903277E+03  0.7818609E-02  0.9319217E-01
        2   -1    0    0  501    0  0.00000000000E+00  0.00000000000E+00  0.93386062409E+03  0.93386062410E+03  0.25500000920E-02 0.  1.
       -2   -1    0    0    0  501  0.00000000000E+00  0.00000000000E+00 -0.26255226506E+03  0.26255226507E+03  0.25500000920E-02 0. -1.
    10030    2    1    2    0    0  0.00000000000E+00  0.00000000000E+00  0.67130835903E+03  0.11964128892E+04  0.99032766722E+03 0.  0.
        2    1    3    3  502    0 -0.64176325132E+02  0.46863425565E+03  0.51259231476E+03  0.69748659301E+03  0.25500000920E-02 0.  1.
       -2    1    3    3    0  502  0.64176325132E+02 -0.46863425565E+03  0.15871604427E+03  0.49892629616E+03  0.25500000920E-02 0. -1.
</event>
<event>
 5   0  0.2313036E-03  0.9945076E+03  0.7818609E-02  0.9314589E-01
       -1   -1    0    0    0  501  0.00000000000E+00  0.00000000000E+00  0.24903565095E+03  0.24903565100E+03  0.50400001928E-02 0. -1.
        1   -1    0    0  501    0  0.00000000000E+00  0.00000000000E+00 -0.99287521384E+03  0.99287521386E+03  0.50400001928E-02 0.  1.
    10030    2    1    2    0    0  0.00000000000E+00  0.00000000000E+00 -0.74383956290E+03  0.12419108649E+04  0.99450756705E+03 0.  0.
        3    1    3    3  502    0 -0.17360723377E+03 -0.19668108448E+03 -0.89942466910E+03  0.93690323203E+03  0.10100000352E+00 0.  1.
       -3    1    3    3    0  502  0.17360723377E+03  0.19668108448E+03  0.15558510620E+03  0.30500763283E+03  0.10100000352E+00 0. -1.
</event>
<event>
 5   0  0.1548000E-03  0.9973397E+03  0.7818609E-02  0.9311467E-01
       -3   -1    0    0    0  501  0.00000000000E+00  0.00000000000E+00  0.14064349419E+04  0.14064349455E+04  0.10100000352E+00 0. -1.
        3   -1    0    0  501    0  0.00000000000E+00  0.00000000000E+00 -0.17680989371E+03  0.17680992255E+03  0.10100000352E+00 0.  1.
    10030    2    1    2    0    0  0.00000000000E+00  0.00000000000E+00  0.12296250482E+04  0.15832448681E+04  0.99733973808E+03 0.  0.
        1    1    3    3  502    0  0.18829058746E+03 -0.34369495842E+03  0.11043400452E+04  0.11718133407E+04  0.50400001928E-02 0. -1.
       -1    1    3    3    0  502 -0.18829058746E+03  0.34369495842E+03  0.12528500293E+03  0.41143152742E+03  0.50400001928E-02 0.  1.
</event>
<event>
 5   0  0.4140860E-03  0.9947863E+03  0.7818609E-02  0.9314282E-01
       -2   -1    0    0    0  501  0.00000000000E+00  0.00000000000E+00  0.42509585292E+03  0.42509585293E+03  0.25500000920E-02 0.  1.
        2   -1    0    0  501    0  0.00000000000E+00  0.00000000000E+00 -0.58198630311E+03  0.58198630312E+03  0.25500000920E-02 0. -1.
    10030    2    1    2    0    0  0.00000000000E+00  0.00000000000E+00 -0.15689045019E+03  0.10070821560E+04  0.99478633669E+03 0.  0.
        3    1    3    3  502    0 -0.23222425058E+03 -0.89479463035E+02  0.35753460264E+03  0.43562102698E+03  0.10100000352E+00 0.  1.
       -3    1    3    3    0  502  0.23222425058E+03  0.89479463035E+02 -0.51442505283E+03  0.57146112907E+03  0.10100000352E+00 0. -1.
</event>
<event>
 5   0  0.2378609E-03  0.1003211E+04  0.7818609E-02  0.9305030E-01
        1   -1    0    0  501    0  0.00000000000E+00  0.00000000000E+00  0.90025437682E+03  0.90025437684E+03  0.50400001928E-02 0.  1.
       -1   -1    0    0    0  501  0.00000000000E+00  0.00000000000E+00 -0.27948557316E+03  0.27948557320E+03  0.50400001928E-02 0. -1.
    10030    2    1    2    0    0  0.00000000000E+00  0.00000000000E+00  0.62076880367E+03  0.11797399500E+04  0.10032110656E+04 0.  0.
        1    1    3    3  502    0 -0.49357997310E+03  0.58205966816E+02  0.23063544328E+03  0.54790677322E+03  0.50400001928E-02 0. -1.
       -1    1    3    3    0  502  0.49357997310E+03 -0.58205966816E+02  0.39013336039E+03  0.63183317682E+03  0.50400001928E-02 0.  1.
</event>
<event>
 5   0  0.3895011E-03  0.9872451E+03  0.7818609E-02  0.9322646E-01
       -2   -1    0    0    0  501  0.00000000000E+00  0.00000000000E+00  0.16606135582E+03  0.16606135584E+03  0.25500000920E-02 0. -1.
        2   -1    0    0  501    0  0.00000000000E+00  0.00000000000E+00 -0.14673083813E+04  0.14673083813E+04  0.25500000920E-02 0.  1.
    10030    2    1    2    0    0  0.00000000000E+00  0.00000000000E+00 -0.13012470255E+04  0.16333697372E+04  0.98724509466E+03 0.  0.
        2    1    3    3  502    0 -0.10354687290E+03 -0.48132295073E+03 -0.70957200445E+03  0.86364701545E+03  0.25500000920E-02 0.  1.
       -2    1    3    3    0  502  0.10354687290E+03  0.48132295073E+03 -0.59167502108E+03  0.76972272174E+03  0.25500000920E-02 0. -1.
</event>
<event>
 5   0  0.2350769E-03  0.1000270E+04  0.7818609E-02  0.9308249E-01
        1   -1    0    0  501    0  0.00000000000E+00  0.00000000000E+00  0.62024670493E+03  0.62024670495E+03  0.50400001928E-02 0. -1.
       -1   -1    0    0    0  501  0.00000000000E+00  0.00000000000E+00 -0.40328273826E+03  0.40328273829E+03  0.50400001928E-02 0.  1.
    10030    2    1    2    0    0  0.00000000000E+00  0.00000000000E+00  0.21696396666E+03  0.10235294432E+04  0.10002695428E+04 0.  0.
        2    1    3    3  502    0  0.11958274025E+03 -0.65301682990E+02  0.60088971443E+03  0.61614348206E+03  0.25500000920E-02 0. -1.
       -2    1    3    3    0  502 -0.11958274025E+03  0.65301682990E+02 -0.38392574776E+03  0.40738596118E+03  0.25500000920E-02 0.  1.
</event>
<event>
 5   0  0.4140860E-03  0.1005391E+04  0.7818609E-02  0.9302652E-01
        2   -1    0    0  501    0  0.00000000000E+00  0.00000000000E+00  0.12557524885E+04  0.12557524885E+04  0.25500000920E-02 0. -1.
       -2   -1    0    0    0  501  0.00000000000E+00  0.00000000000E+00 -0.20123601454E+03  0.20123601456E+03  0.25500000920E-02 0.  1.
    10030    2    1    2    0    0  0.00000000000E+00  0.00000000000E+00  0.10545164740E+04  0.14569885031E+04  0.10053907222E+04 0.  0.
        3    1    3    3  502    0  0.35694081572E+03 -0.10234524483E+03  0.36200542216E+02  0.37308415207E+03  0.10100000352E+00 0.  1.
       -3    1    3    3    0  502 -0.35694081572E+03  0.10234524483E+03  0.10183159318E+04  0.10839043510E+04  0.10100000352E+00 0. -1.
</event>
<event>
 5   0  0.3873874E-03  0.1008198E+04  0.7818609E-02  0.9299599E-01
       -2   -1    0    0    0  501  0.00000000000E+00  0.00000000000E+00  0.27281723096E+03  0.27281723097E+03  0.25500000920E-02 0. -1.
        2   -1    0    0  501    0  0.00000000000E+00  0.00000000000E+00 -0.93145026324E+03  0.93145026325E+03  0.25500000920E-02 0.  1.
    10030    2    1    2    0    0  0.00000000000E+00  0.00000000000E+00 -0.65863303229E+03  0.12042674942E+04  0.10081977616E+04 0.  0.
        5    1    3    3  502    0 -0.18050659259E+03  0.23909758475E+03  0.15491521571E+03  0.33729971695E+03  0.46999998093E+01 0. -1.
       -5    1    3    3    0  502  0.18050659259E+03 -0.23909758475E+03 -0.81354824799E+03  0.86696777726E+03  0.46999998093E+01 0.  1.
</event>
<event>
 5   0  0.2350769E-03  0.1002706E+04  0.7818609E-02  0.9305582E-01
        1   -1    0    0  501    0  0.00000000000E+00  0.00000000000E+00  0.54275635943E+03  0.54275635945E+03  0.50400001928E-02 0. -1.
       -1   -1    0    0    0  501  0.00000000000E+00  0.00000000000E+00 -0.46310791453E+03  0.46310791455E+03  0.50400001928E-02 0.  1.
    10030    2    1    2    0    0  0.00000000000E+00  0.00000000000E+00  0.79648444903E+02  0.10058642740E+04  0.10027058706E+04 0.  0.
        2    1    3    3  502    0  0.61335102642E+02 -0.45518453074E+03  0.24145438853E+03  0.51889803776E+03  0.25500000920E-02 0. -1.
       -2    1    3    3    0  502 -0.61335102642E+02  0.45518453074E+03 -0.16180594363E+03  0.48696623625E+03  0.25500000920E-02 0.  1.
</event>
<event>
 5   0  0.4140860E-03  0.1006493E+04  0.7818609E-02  0.9301452E-01
       -2   -1    0    0    0  501  0.00000000000E+00  0.00000000000E+00  0.12242430455E+03  0.12242430458E+03  0.25500000920E-02 0. -1.
        2   -1    0    0  501    0  0.00000000000E+00  0.00000000000E+00 -0.20686809749E+04  0.20686809749E+04  0.25500000920E-02 0.  1.
    10030    2    1    2    0    0  0.00000000000E+00  0.00000000000E+00 -0.19462566704E+04  0.21911052795E+04  0.10064925826E+04 0.  0.
        3    1    3    3  502    0 -0.43561846014E+03  0.15698922993E+03 -0.14022057434E+04  0.14766820979E+04  0.10100000352E+00 0.  1.
       -3    1    3    3    0  502  0.43561846014E+03 -0.15698922993E+03 -0.54405092698E+03  0.71442318165E+03  0.10100000352E+00 0. -1.
</event>
<event>
 5   0  0.4026829E-03  0.1008686E+04  0.7818609E-02  0.9299069E-01
        2   -1    0    0  501    0  0.00000000000E+00  0.00000000000E+00  0.81703765607E+03  0.81703765608E+03  0.25500000920E-02 0.  1.
       -2   -1    0    0    0  501  0.00000000000E+00  0.00000000000E+00 -0.31132212320E+03  0.31132212321E+03  0.25500000920E-02 0. -1.
    10030    2    1    2    0    0  0.00000000000E+00  0.00000000000E+00  0.50571553287E+03  0.11283597793E+04  0.10086860717E+04 0.  0.
        1    1    3    3  502    0  0.82423024013E+02 -0.33584902161E+03 -0.15781345882E+03  0.38012262233E+03  0.50400001928E-02 0.  1.
       -1    1    3    3    0  502 -0.82423024013E+02  0.33584902161E+03  0.66352899169E+03  0.74823715695E+03  0.50400001928E-02 0. -1.
</event>
<event>
 5   0  0.2313036E-03  0.1073111E+04  0.7818609E-02  0.9231804E-01
       -1   -1    0    0    0  501  0.00000000000E+00  0.00000000000E+00  0.11981752925E+04  0.11981752925E+04  0.50400001928E-02 0. -1.
        1   -1    0    0  501    0  0.00000000000E+00  0.00000000000E+00 -0.24027504340E+03  0.24027504345E+03  0.50400001928E-02 0.  1.
    10030    2    1    2    0    0  0.00000000000E+00  0.00000000000E+00  0.95790024906E+03  0.14384503359E+04  0.10731106568E+04 0.  0.
        3    1    3    3  502    0  0.48480536381E+03  0.12445956789E+03  0.73805998178E+03  0.89177293732E+03  0.10100000352E+00 0. -1.
       -3    1    3    3    0  502 -0.48480536381E+03 -0.12445956789E+03  0.21984026728E+03  0.54667739860E+03  0.10100000352E+00 0.  1.
</event>
<event>
 5   0  0.4140860E-03  0.9986705E+03  0.7818609E-02  0.9310004E-01
       -2   -1    0    0    0  501  0.00000000000E+00  0.00000000000E+00  0.17394614729E+03  0.17394614731E+03  0.25500000920E-02 0.  1.
        2   -1    0    0  501    0  0.00000000000E+00  0.00000000000E+00 -0.14334072459E+04  0.14334072459E+04  0.25500000920E-02 0. -1.
    10030    2    1    2    0    0  0.00000000000E+00  0.00000000000E+00 -0.12594610986E+04  0.16073533932E+04  0.99867045202E+03 0.  0.
        3    1    3    3  502    0  0.36307772416E+03 -0.20643045425E+03 -0.10702047617E+04  0.11488155676E+04  0.10100000352E+00 0. -1.
       -3    1    3    3    0  502 -0.36307772416E+03  0.20643045425E+03 -0.18925633689E+03  0.45853782557E+03  0.10100000352E+00 0.  1.
</event>
<event>
 5   0  0.2405022E-03  0.9970221E+03  0.7818609E-02  0.9311817E-01
       -1   -1    0    0    0  501  0.00000000000E+00  0.00000000000E+00  0.16845663686E+03  0.16845663694E+03  0.50400001928E-02 0.  1.
        1   -1    0    0  501    0  0.00000000000E+00  0.00000000000E+00 -0.14752359354E+04  0.14752359354E+04  0.50400001928E-02 0. -1.
    10030    2    1    2    0    0  0.00000000000E+00  0.00000000000E+00 -0.13067792985E+04  0.16436925723E+04  0.99702213479E+03 0.  0.
        4    1    3    3  502    0 -0.44665737270E+03 -0.16423152993E+03 -0.40865767042E+03  0.62727785590E+03  0.12699999809E+01 0.  1.
       -4    1    3    3    0  502  0.44665737270E+03  0.16423152993E+03 -0.89812162809E+03  0.10164147164E+04  0.12699999809E+01 0. -1.
</event>
<event>
 5   0  0.2378609E-03  0.1018909E+04  0.7818609E-02  0.9288046E-01
        1   -1    0    0  501    0  0.00000000000E+00  0.00000000000E+00  0.88545151988E+03  0.88545151990E+03  0.50400001928E-02 0.  1.
       -1   -1    0    0    0  501  0.00000000000E+00  0.00000000000E+00 -0.29312035911E+03  0.29312035915E+03  0.50400001928E-02 0. -1.
    10030    2    1    2    0    0  0.00000000000E+00  0.00000000000E+00  0.59233116078E+03  0.11785718790E+04  0.10189089606E+04 0.  0.
        1    1    3    3  502    0 -0.32429767590E+03  0.37622038220E+03  0.42720037519E+03  0.65514190765E+03  0.50400001928E-02 0. -1.
       -1    1    3    3    0  502  0.32429767590E+03 -0.37622038220E+03  0.16513078559E+03  0.52342997139E+03  0.50400001928E-02 0.  1.
</event>
<event>
 5   0  0.2313036E-03  0.1027241E+04  0.7818609E-02  0.9279162E-01
        1   -1    0    0  501    0  0.00000000000E+00  0.00000000000E+00  0.15637694519E+04  0.15637694519E+04  0.50400001928E-02 0. -1.
       -1   -1    0    0    0  501  0.00000000000E+00  0.00000000000E+00 -0.16869878979E+03  0.16869878986E+03  0.50400001928E-02 0.  1.
    10030    2    1    2    0    0  0.00000000000E+00  0.00000000000E+00  0.13950706621E+04  0.17324682418E+04  0.10272409924E+04 0.  0.
        3    1    3    3  502    0 -0.34380975703E+03 -0.93971114154E+02  0.13212541039E+04  0.13684838825E+04  0.10100000352E+00 0. -1.
       -3    1    3    3    0  502  0.34380975703E+03  0.93971114154E+02  0.73816558189E+02  0.36398435927E+03  0.10100000352E+00 0.  1.
</event>
<event>
 5   0  0.3826483E-03  0.1004668E+04  0.7818609E-02  0.9303440E-01
        2   -1    0    0  501    0  0.00000000000E+00  0.00000000000E+00  0.14269688845E+04  0.14269688845E+04  0.25500000920E-02 0. -1.
       -2   -1    0    0    0  501  0.00000000000E+00  0.00000000000E+00 -0.17683587656E+03  0.17683587658E+03  0.25500000920E-02 0.  1.
    10030    2    1    2    0    0  0.00000000000E+00  0.00000000000E+00  0.12501330079E+04  0.16038047610E+04  0.10046676934E+04 0.  0.
        4    1    3    3  502    0 -0.17656171573E+03 -0.23572768308E+03 -0.24545608876E+02  0.29554302537E+03  0.12699999809E+01 0.  1.
       -4    1    3    3    0  502  0.17656171573E+03  0.23572768308E+03  0.12746786168E+04  0.13082617357E+04  0.12699999809E+01 0. -1.
</event>
<event>
 5   0  0.3826483E-03  0.9870418E+03  0.7818609E-02  0.9322872E-01
       -2   -1    0    0    0  501  0.00000000000E+00  0.00000000000E+00  0.76687352774E+03  0.76687352775E+03  0.25500000920E-02 0.  1.
        2   -1    0    0  501    0  0.00000000000E+00  0.00000000000E+00 -0.31760502210E+03  0.31760502211E+03  0.25500000920E-02 0. -1.
    10030    2    1    2    0    0  0.00000000000E+00  0.00000000000E+00  0.44926850564E+03  0.10844785499E+04  0.98704181013E+03 0.  0.
        4    1    3    3  502    0  0.15146279885E+03  0.46636674584E+03  0.16324021557E+03  0.51680547785E+03  0.12699999809E+01 0. -1.
       -4    1    3    3    0  502 -0.15146279885E+03 -0.46636674584E+03  0.28602829007E+03  0.56767307201E+03  0.12699999809E+01 0.  1.
</event>
<event>
 5   0  0.1548000E-03  0.9990313E+03  0.7818609E-02  0.9309608E-01
        4   -1    0    0  501    0  0.00000000000E+00  0.00000000000E+00  0.34658864345E+03  0.34659097026E+03  0.12699999809E+01 0. -1.
       -4   -1    0    0    0  501  0.00000000000E+00  0.00000000000E+00 -0.71991410443E+03  0.71991522463E+03  0.12699999809E+01 0.  1.
    10030    2    1    2    0    0  0.00000000000E+00  0.00000000000E+00 -0.37332546098E+03  0.10665061949E+04  0.99903131278E+03 0.  0.
        4    1    3    3  502    0 -0.42359141143E+01  0.13676462144E+03  0.32619209243E+03  0.35373068670E+03  0.12699999809E+01 0. -1.
       -4    1    3    3    0  502  0.42359141143E+01 -0.13676462144E+03 -0.69951755341E+03  0.71277550819E+03  0.12699999809E+01 0.  1.
</event>
<event>
 5   0  0.2313036E-03  0.9940557E+03  0.7818609E-02  0.9315089E-01
        1   -1    0    0  501    0  0.00000000000E+00  0.00000000000E+00  0.11486057011E+04  0.11486057011E+04  0.50400001928E-02 0.  1.
       -1   -1    0    0    0  501  0.00000000000E+00  0.00000000000E+00 -0.21507527255E+03  0.21507527261E+03  0.50400001928E-02 0. -1.
    10030    2    1    2    0    0  0.00000000000E+00  0.00000000000E+00  0.93353042851E+03  0.13636809737E+04  0.99405570117E+03 0.  0.
        3    1    3    3  502    0 -0.26477040495E+03  0.14334481786E+03  0.10092660347E+04  0.10532184214E+04  0.10100000352E+00 0.  1.
       -3    1    3    3    0  502  0.26477040495E+03 -0.14334481786E+03 -0.75735606178E+02  0.31046255231E+03  0.10100000352E+00 0. -1.
</event>
<event>
 5   0  0.2327595E-03  0.9986779E+03  0.7818609E-02  0.9309996E-01
       -1   -1    0    0    0  501  0.00000000000E+00  0.00000000000E+00  0.63686918162E+03  0.63686918164E+03  0.50400001928E-02 0.  1.
        1   -1    0    0  501    0  0.00000000000E+00  0.00000000000E+00 -0.39150802790E+03  0.39150802793E+03  0.50400001928E-02 0. -1.
    10030    2    1    2    0    0  0.00000000000E+00  0.00000000000E+00  0.24536115372E+03  0.10283772096E+04  0.99867792076E+03 0.  0.
        5    1    3    3  502    0  0.14744713219E+03 -0.24310978355E+02 -0.36791787562E+03  0.39713641694E+03  0.46999998093E+01 0. -1.
       -5    1    3    3    0  502 -0.14744713219E+03  0.24310978355E+02  0.61327902934E+03  0.63124079264E+03  0.46999998093E+01 0.  1.
</event>
<event>
 5   0  0.3895011E-03  0.1003732E+04  0.7818609E-02  0.9304461E-01
       -2   -1    0    0    0  501  0.00000000000E+00  0.00000000000E+00  0.22901799238E+03  0.22901799239E+03  0.25500000920E-02 0. -1.
        2   -1    0    0  501    0  0.00000000000E+00  0.00000000000E+00 -0.10997812418E+04  0.10997812418E+04  0.25500000920E-02 0.  1.
    10030    2    1    2    0    0  0.00000000000E+00  0.00000000000E+00 -0.87076324940E+03  0.13287992342E+04  0.10037324186E+04 0.  0.
        2    1    3    3  502    0  0.10711228058E+03  0.19113860763E+03  0.16235557799E+03  0.27270192829E+03  0.25500000920E-02 0. -1.
       -2    1    3    3    0  502 -0.10711228058E+03 -0.19113860763E+03 -0.10331188274E+04  0.10560973059E+04  0.25500000920E-02 0.  1.
</event>
<event>
 5   0  0.4140860E-03  0.1002581E+04  0.7818609E-02  0.9305719E-01
       -2   -1    0    0    0  501  0.00000000000E+00  0.00000000000E+00  0.18349687987E+03  0.18349687988E+03  0.25500000920E-02 0. -1.
        2   -1    0    0  501    0  0.00000000000E+00  0.00000000000E+00 -0.13694629231E+04  0.13694629231E+04  0.25500000920E-02 0.  1.
    10030    2    1    2    0    0  0.00000000000E+00  0.00000000000E+00 -0.11859660433E+04  0.15529598030E+04  0.10025810162E+04 0.  0.
        3    1    3    3  502    0 -0.29349027548E+03  0.39477665123E+03 -0.44355020084E+03  0.66236088126E+03  0.10100000352E+00 0.  1.
       -3    1    3    3    0  502  0.29349027548E+03 -0.39477665123E+03 -0.74241584243E+03  0.89059892177E+03  0.10100000352E+00 0. -1.
</event>
<event>
 5   0  0.4026829E-03  0.9985733E+03  0.7818609E-02  0.9310111E-01
       -2   -1    0    0    0  501  0.00000000000E+00  0.00000000000E+00  0.65437831844E+03  0.65437831844E+03  0.25500000920E-02 0.  1.
        2   -1    0    0  501    0  0.00000000000E+00  0.00000000000E+00 -0.38095266775E+03  0.38095266776E+03  0.25500000920E-02 0. -1.
    10030    2    1    2    0    0  0.00000000000E+00  0.00000000000E+00  0.27342565069E+03  0.10353309862E+04  0.99857331455E+03 0.  0.
        1    1    3    3  502    0 -0.40660387635E+03 -0.12762833931E+03 -0.13300026930E+03  0.44643563580E+03  0.50400001928E-02 0. -1.
       -1    1    3    3    0  502  0.40660387635E+03  0.12762833931E+03  0.40642591999E+03  0.58889535040E+03  0.50400001928E-02 0.  1.
</event>
<event>
 5   0  0.3895011E-03  0.9883701E+03  0.7818609E-02  0.9321393E-01
       -2   -1    0    0    0  501  0.00000000000E+00  0.00000000000E+00  0.14750346042E+03  0.14750346044E+03  0.25500000920E-02 0. -1.
        2   -1    0    0  501    0  0.00000000000E+00  0.00000000000E+00 -0.16556822737E+04  0.16556822737E+04  0.25500000920E-02 0.  1.
    10030    2    1    2    0    0  0.00000000000E+00  0.00000000000E+00 -0.15081788133E+04  0.18031857341E+04  0.98837010223E+03 0.  0.
        2    1    3    3  502    0 -0.41582315352E+03  0.24188718251E+03 -0.54767720825E+03  0.72895036080E+03  0.25500000920E-02 0. -1.
       -2    1    3    3    0  502  0.41582315352E+03 -0.24188718251E+03 -0.96050160502E+03  0.10742353733E+04  0.25500000920E-02 0.  1.
</event>
<event>
 5   0  0.4140860E-03  0.9986883E+03  0.7818609E-02  0.9309985E-01
        2   -1    0    0  501    0  0.00000000000E+00  0.00000000000E+00  0.40156605036E+03  0.40156605037E+03  0.25500000920E-02 0. -1.
       -2   -1    0    0    0  501  0.00000000000E+00  0.00000000000E+00 -0.62093048089E+03  0.62093048089E+03  0.25500000920E-02 0.  1.
    10030    2    1    2    0    0  0.00000000000E+00  0.00000000000E+00 -0.21936443053E+03  0.10224965313E+04  0.99868834131E+03 0.  0.
        3    1    3    3  502    0 -0.17951877205E+03  0.14806042244E+03 -0.56202430526E+03  0.60829286377E+03  0.10100000352E+00 0.  1.
       -3    1    3    3    0  502  0.17951877205E+03 -0.14806042244E+03  0.34265987473E+03  0.41420366749E+03  0.10100000352E+00 0. -1.
</event>
<event>
 5   0  0.2313036E-03  0.9986496E+03  0.7818609E-02  0.9310027E-01
       -1   -1    0    0    0  501  0.00000000000E+00  0.00000000000E+00  0.80357496770E+03  0.80357496772E+03  0.50400001928E-02 0. -1.
        1   -1    0    0  501    0  0.00000000000E+00  0.00000000000E+00 -0.31027008929E+03  0.31027008933E+03  0.50400001928E-02 0.  1.
    10030    2    1    2    0    0  0.00000000000E+00  0.00000000000E+00  0.49330487842E+03  0.11138450570E+04  0.99864964229E+03 0.  0.
        3    1    3    3  502    0 -0.39594787381E+03 -0.18962674564E+03 -0.18679843799E+02  0.43941093319E+03  0.10100000352E+00 0.  1.
       -3    1    3    3    0  502  0.39594787381E+03  0.18962674564E+03  0.51198472222E+03  0.67443412386E+03  0.10100000352E+00 0. -1.
</event>
<event>
 5   0  0.3873874E-03  0.9955441E+03  0.7818609E-02  0.9313445E-01
       -2   -1    0    0    0  501  0.00000000000E+00  0.00000000000E+00  0.15396833007E+03  0.15396833009E+03  0.25500000920E-02 0. -1.
        2   -1    0    0  501    0  0.00000000000E+00  0.00000000000E+00 -0.16092725799E+04  0.16092725799E+04  0.25500000920E-02 0.  1.
    10030    2    1    2    0    0  0.00000000000E+00  0.00000000000E+00 -0.14553042499E+04  0.17632409100E+04  0.99554409602E+03 0.  0.
        5    1    3    3  502    0  0.31919243378E+03 -0.16083531264E+03 -0.11410572700E+03  0.37522528501E+03  0.46999998093E+01 0. -1.
       -5    1    3    3    0  502 -0.31919243378E+03  0.16083531264E+03 -0.13411985229E+04  0.13880156250E+04  0.46999998093E+01 0.  1.
</event>
<event>
 5   0  0.2327595E-03  0.9965834E+03  0.7818609E-02  0.9312300E-01
       -1   -1    0    0    0  501  0.00000000000E+00  0.00000000000E+00  0.18835907446E+03  0.18835907453E+03  0.50400001928E-02 0. -1.
        1   -1    0    0  501    0  0.00000000000E+00  0.00000000000E+00 -0.13181984458E+04  0.13181984458E+04  0.50400001928E-02 0.  1.
    10030    2    1    2    0    0  0.00000000000E+00  0.00000000000E+00 -0.11298393713E+04  0.15065575203E+04  0.99658344210E+03 0.  0.
        5    1    3    3  502    0 -0.37854151001E+02 -0.25436799628E+03  0.80244997204E+02  0.26943897983E+03  0.46999998093E+01 0. -1.
       -5    1    3    3    0  502  0.37854151001E+02  0.25436799628E+03 -0.12100843685E+04  0.12371185405E+04  0.46999998093E+01 0.  1.
</event>
<event>
 5   0  0.2313036E-03  0.9982680E+03  0.7818609E-02  0.9310446E-01
       -1   -1    0    0    0  501  0.00000000000E+00  0.00000000000E+00  0.40370024848E+03  0.40370024851E+03  0.50400001928E-02 0.  1.
        1   -1    0    0  501    0  0.00000000000E+00  0.00000000000E+00 -0.61712808253E+03  0.61712808255E+03  0.50400001928E-02 0. -1.
    10030    2    1    2    0    0  0.00000000000E+00  0.00000000000E+00 -0.21342783405E+03  0.10208283311E+04  0.99826802070E+03 0.  0.
        3    1    3    3  502    0 -0.34685434206E+03 -0.27725821482E+03  0.12637303735E+03  0.46168193279E+03  0.10100000352E+00 0.  1.
       -3    1    3    3    0  502  0.34685434206E+03  0.27725821482E+03 -0.33980087140E+03  0.55914639827E+03  0.10100000352E+00 0. -1.
</event>
<event>
 5   0  0.4140860E-03  0.9991412E+03  0.7818609E-02  0.9309487E-01
        2   -1    0    0  501    0  0.00000000000E+00  0.00000000000E+00  0.14229241197E+04  0.14229241197E+04  0.25500000920E-02 0. -1.
       -2   -1    0    0    0  501  0.00000000000E+00  0.00000000000E+00 -0.17539291306E+03  0.17539291308E+03  0.25500000920E-02 0.  1.
    10030    2    1    2    0    0  0.00000000000E+00  0.00000000000E+00  0.12475312067E+04  0.15983170328E+04  0.99914124416E+03 0.  0.
        3    1    3    3  502    0 -0.30861081332E+03 -0.24195312749E+03  0.12866493572E+03  0.41271857952E+03  0.10100000352E+00 0.  1.
       -3    1    3    3    0  502  0.30861081332E+03  0.24195312749E+03  0.11188662710E+04  0.11855984533E+04  0.10100000352E+00 0. -1.
</event>
<event>
 5   0  0.2378609E-03  0.1003186E+04  0.7818609E-02  0.9305058E-01
        1   -1    0    0  501    0  0.00000000000E+00  0.00000000000E+00  0.55777043123E+03  0.55777043126E+03  0.50400001928E-02 0. -1.
       -1   -1    0    0    0  501  0.00000000000E+00  0.00000000000E+00 -0.45107318899E+03  0.45107318902E+03  0.50400001928E-02 0.  1.
    10030    2    1    2    0    0  0.00000000000E+00  0.00000000000E+00  0.10669724225E+03  0.10088436203E+04  0.10031855006E+04 0.  0.
        1    1    3    3  502    0 -0.73911391340E+02  0.46482021033E+02 -0.44337227924E+03  0.45188765205E+03  0.50400001928E-02 0.  1.
       -1    1    3    3    0  502  0.73911391340E+02 -0.46482021033E+02  0.55006952148E+03  0.55695596822E+03  0.50400001928E-02 0. -1.
</event>
<event>
 5   0  0.2313036E-03  0.1000132E+04  0.7818609E-02  0.9308400E-01
        1   -1    0    0  501    0  0.00000000000E+00  0.00000000000E+00  0.55707025464E+03  0.55707025467E+03  0.50400001928E-02 0.  1.
       -1   -1    0    0    0  501  0.00000000000E+00  0.00000000000E+00 -0.44889459801E+03  0.44889459804E+03  0.50400001928E-02 0. -1.
    10030    2    1    2    0    0  0.00000000000E+00  0.00000000000E+00  0.10817565663E+03  0.10059648527E+04  0.10001316474E+04 0.  0.
        3    1    3    3  502    0 -0.17602861783E+03  0.21745532991E+03  0.47098435018E+03  0.54781307315E+03  0.10100000352E+00 0.  1.
       -3    1    3    3    0  502  0.17602861783E+03 -0.21745532991E+03 -0.36280869354E+03  0.45815177956E+03  0.10100000352E+00 0. -1.
</event>
<event>
 5   0  0.2350769E-03  0.9807153E+03  0.7818609E-02  0.9329952E-01
        1   -1    0    0  501    0  0.00000000000E+00  0.00000000000E+00  0.62532264280E+03  0.62532264282E+03  0.50400001928E-02 0.  1.
       -1   -1    0    0    0  501  0.00000000000E+00  0.00000000000E+00 -0.38452250921E+03  0.38452250924E+03  0.50400001928E-02 0. -1.
    10030    2    1    2    0    0  0.00000000000E+00  0.00000000000E+00  0.24080013358E+03  0.10098451521E+04  0.98071531384E+03 0.  0.
        2    1    3    3  502    0 -0.15994550007E+03 -0.29203151982E+03  0.49107251015E+03  0.59331035875E+03  0.25500000920E-02 0.  1.
       -2    1    3    3    0  502  0.15994550007E+03  0.29203151982E+03 -0.25027237657E+03  0.41653479331E+03  0.25500000920E-02 0. -1.
</event>
<event>
 5   0  0.2327595E-03  0.9854491E+03  0.7818609E-02  0.9324649E-01
        1   -1    0    0  501    0  0.00000000000E+00  0.00000000000E+00  0.41199068655E+03  0.41199068658E+03  0.50400001928E-02 0.  1.
       -1   -1    0    0    0  501  0.00000000000E+00  0.00000000000E+00 -0.58927911397E+03  0.58927911399E+03  0.50400001928E-02 0. -1.
    10030    2    1    2    0    0  0.00000000000E+00  0.00000000000E+00 -0.17728842742E+03  0.10012698006E+04  0.98544914989E+03 0.  0.
        5    1    3    3  502    0 -0.47833735263E+02  0.10378677310E+03 -0.57560421462E+03  0.58685778719E+03  0.46999998093E+01 0. -1.
       -5    1    3    3    0  502  0.47833735263E+02 -0.10378677310E+03  0.39831578720E+03  0.41441201338E+03  0.46999998093E+01 0.  1.
</event>
<event>
 5   0  0.3826483E-03  0.9930557E+03  0.7818609E-02  0.9316194E-01
        2   -1    0    0  501    0  0.00000000000E+00  0.00000000000E+00  0.75185627784E+03  0.75185627784E+03  0.25500000920E-02 0. -1.
       -2   -1    0    0    0  501  0.00000000000E+00  0.00000000000E+00 -0.32790826348E+03  0.32790826349E+03  0.25500000920E-02 0.  1.
    10030    2    1    2    0    0  0.00000000000E+00  0.00000000000E+00  0.42394801436E+03  0.10797645413E+04  0.99305566101E+03 0.  0.
        4    1    3    3  502    0  0.89364532453E+02 -0.30007364014E+03 -0.20704187910E+03  0.37536403899E+03  0.12699999809E+01 0.  1.
       -4    1    3    3    0  502 -0.89364532453E+02  0.30007364014E+03  0.63098989346E+03  0.70440050235E+03  0.12699999809E+01 0. -1.
</event>
<event>
 5   0  0.4026829E-03  0.9956025E+03  0.7818609E-02  0.9313381E-01
        2   -1    0    0  501    0  0.00000000000E+00  0.00000000000E+00  0.77992743679E+03  0.77992743679E+03  0.25500000920E-02 0. -1.
       -2   -1    0    0    0  501  0.00000000000E+00  0.00000000000E+00 -0.31772964165E+03  0.31772964166E+03  0.25500000920E-02 0.  1.
    10030    2    1    2    0    0  0.00000000000E+00  0.00000000000E+00  0.46219779514E+03  0.10976570784E+04  0.99560246084E+03 0.  0.
        1    1    3    3  502    0 -0.36465178758E+03 -0.97661592644E+02  0.58885697344E+03  0.69947212100E+03  0.50400001928E-02 0. -1.
       -1    1    3    3    0  502  0.36465178758E+03  0.97661592644E+02 -0.12665917830E+03  0.39818495745E+03  0.50400001928E-02 0.  1.
</event>
<event>
 5   0  0.2405022E-03  0.1001918E+04  0.7818609E-02  0.9306444E-01
       -1   -1    0    0    0  501  0.00000000000E+00  0.00000000000E+00  0.21120685060E+03  0.21120685066E+03  0.50400001928E-02 0. -1.
        1   -1    0    0  501    0  0.00000000000E+00  0.00000000000E+00 -0.11882178674E+04  0.11882178674E+04  0.50400001928E-02 0.  1.
    10030    2    1    2    0    0  0.00000000000E+00  0.00000000000E+00 -0.97701101683E+03  0.13994247181E+04  0.10019176686E+04 0.  0.
        4    1    3    3  502    0 -0.16845076631E+03 -0.35492904365E+03 -0.92263943160E+03  0.10028037796E+04  0.12699999809E+01 0.  1.
       -4    1    3    3    0  502  0.16845076631E+03  0.35492904365E+03 -0.54371585226E+02  0.39662093852E+03  0.12699999809E+01 0. -1.
</event>
<event>
 5   0  0.3895011E-03  0.1005693E+04  0.7818609E-02  0.9302323E-01
        2   -1    0    0  501    0  0.00000000000E+00  0.00000000000E+00  0.42795552649E+03  0.42795552650E+03  0.25500000920E-02 0. -1.
       -2   -1    0    0    0  501  0.00000000000E+00  0.00000000000E+00 -0.59084304558E+03  0.59084304559E+03  0.25500000920E-02 0.  1.
    10030    2    1    2    0    0  0.00000000000E+00  0.00000000000E+00 -0.16288751909E+03  0.10187985721E+04  0.10056928888E+04 0.  0.
        2    1    3    3  502    0  0.10074573575E+03 -0.49130270569E+03 -0.11833945637E+03  0.51529824260E+03  0.25500000920E-02 0.  1.
       -2    1    3    3    0  502 -0.10074573575E+03  0.49130270569E+03 -0.44548062720E+02  0.50350032948E+03  0.25500000920E-02 0. -1.
</event>
<event>
 5   0  0.2327595E-03  0.1001751E+04  0.7818609E-02  0.9306627E-01
        1   -1    0    0  501    0  0.00000000000E+00  0.00000000000E+00  0.22351121685E+03  0.22351121691E+03  0.50400001928E-02 0. -1.
       -1   -1    0    0    0  501  0.00000000000E+00  0.00000000000E+00 -0.11224321993E+04  0.11224321993E+04  0.50400001928E-02 0.  1.
    10030    2    1    2    0    0  0.00000000000E+00  0.00000000000E+00 -0.89892098243E+03  0.13459434162E+04  0.10017508408E+04 0.  0.
        5    1    3    3  502    0  0.61076153829E+02  0.33348040190E+03 -0.94479681562E+03  0.10037940963E+04  0.46999998093E+01 0.  1.
       -5    1    3    3    0  502 -0.61076153829E+02 -0.33348040190E+03  0.45875833190E+02  0.34214931987E+03  0.46999998093E+01 0. -1.
</event>
<event>
 5   0  0.3895011E-03  0.1005112E+04  0.7818609E-02  0.9302955E-01
        2   -1    0    0  501    0  0.00000000000E+00  0.00000000000E+00  0.13993719185E+04  0.13993719185E+04  0.25500000920E-02 0. -1.
       -2   -1    0    0    0  501  0.00000000000E+00  0.00000000000E+00 -0.18048291296E+03  0.18048291298E+03  0.25500000920E-02 0.  1.
    10030    2    1    2    0    0  0.00000000000E+00  0.00000000000E+00  0.12188890055E+04  0.15798548314E+04  0.10051123722E+04 0.  0.
        2    1    3    3  502    0  0.42485169036E+02 -0.13182499603E+03  0.13687810259E+04  0.13757704446E+04  0.25500000920E-02 0. -1.
       -2    1    3    3    0  502 -0.42485169036E+02  0.13182499603E+03 -0.14989202044E+03  0.20408438687E+03  0.25500000920E-02 0.  1.
</event>
<event>
 5   0  0.2350769E-03  0.1005164E+04  0.7818609E-02  0.9302899E-01
        1   -1    0    0  501    0  0.00000000000E+00  0.00000000000E+00  0.76996530479E+03  0.76996530481E+03  0.50400001928E-02 0. -1.
       -1   -1    0    0    0  501  0.00000000000E+00  0.00000000000E+00 -0.32805229695E+03  0.32805229699E+03  0.50400001928E-02 0.  1.
    10030    2    1    2    0    0  0.00000000000E+00  0.00000000000E+00  0.44191300784E+03  0.10980176018E+04  0.10051644380E+04 0.  0.
        2    1    3    3  502    0 -0.14933359688E+03  0.43417404982E+03  0.44424324944E+03  0.63887376951E+03  0.25500000920E-02 0. -1.
       -2    1    3    3    0  502  0.14933359688E+03 -0.43417404982E+03 -0.23302415936E+01  0.45914383229E+03  0.25500000920E-02 0.  1.
</event>
<event>
 5   0  0.2350769E-03  0.9979270E+03  0.7818609E-02  0.9310821E-01
       -1   -1    0    0    0  501  0.00000000000E+00  0.00000000000E+00  0.15104241437E+03  0.15104241446E+03  0.50400001928E-02 0.  1.
        1   -1    0    0  501    0  0.00000000000E+00  0.00000000000E+00 -0.16483089196E+04  0.16483089196E+04  0.50400001928E-02 0. -1.
    10030    2    1    2    0    0  0.00000000000E+00  0.00000000000E+00 -0.14972665052E+04  0.17993513341E+04  0.99792696913E+03 0.  0.
        2    1    3    3  502    0 -0.70059307354E+02  0.18523786667E+02  0.14150336464E+03  0.15897999695E+03  0.25500000920E-02 0.  1.
       -2    1    3    3    0  502  0.70059307354E+02 -0.18523786667E+02 -0.16387698699E+04  0.16403713371E+04  0.25500000920E-02 0. -1.
</event>
<event>
 5   0  0.2350769E-03  0.1002198E+04  0.7818609E-02  0.9306138E-01
        1   -1    0    0  501    0  0.00000000000E+00  0.00000000000E+00  0.87844834642E+03  0.87844834643E+03  0.50400001928E-02 0. -1.
       -1   -1    0    0    0  501  0.00000000000E+00  0.00000000000E+00 -0.28584500026E+03  0.28584500030E+03  0.50400001928E-02 0.  1.
    10030    2    1    2    0    0  0.00000000000E+00  0.00000000000E+00  0.59260334616E+03  0.11642933467E+04  0.10021977207E+04 0.  0.
        2    1    3    3  502    0  0.21400302098E+03  0.18855876468E+03 -0.18234143250E+03  0.33852636343E+03  0.25500000920E-02 0.  1.
       -2    1    3    3    0  502 -0.21400302098E+03 -0.18855876468E+03  0.77494477866E+03  0.82576698330E+03  0.25500000920E-02 0. -1.
</event>
<event>
 5   0  0.3895011E-03  0.9963909E+03  0.7818609E-02  0.9312512E-01
        2   -1    0    0  501    0  0.00000000000E+00  0.00000000000E+00  0.10890257288E+04  0.10890257288E+04  0.25500000920E-02 0.  1.
       -2   -1    0    0    0  501  0.00000000000E+00  0.00000000000E+00 -0.22790894720E+03  0.22790894721E+03  0.25500000920E-02 0. -1.
    10030    2    1    2    0    0  0.00000000000E+00  0.00000000000E+00  0.86111678159E+03  0.13169346760E+04  0.99639090187E+03 0.  0.
        2    1    3    3  502    0  0.34493419817E+03 -0.26862736354E+03  0.11484394866E+03  0.45202808990E+03  0.25500000920E-02 0. -1.
       -2    1    3    3    0  502 -0.34493419817E+03  0.26862736354E+03  0.74627283293E+03  0.86490658610E+03  0.25500000920E-02 0.  1.
</event>
<event>
 5   0  0.2327595E-03  0.1031599E+04  0.7818609E-02  0.9274551E-01
       -1   -1    0    0    0  501  0.00000000000E+00  0.00000000000E+00  0.11472761733E+03  0.11472761744E+03  0.50400001928E-02 0. -1.
        1   -1    0    0  501    0  0.00000000000E+00  0.00000000000E+00 -0.23189620020E+04  0.23189620020E+04  0.50400001928E-02 0.  1.
    10030    2    1    2    0    0  0.00000000000E+00  0.00000000000E+00 -0.22042343847E+04  0.24336896194E+04  0.10315987307E+04 0.  0.
        5    1    3    3  502    0 -0.32733305444E+03  0.37662473809E+03 -0.79421709664E+03  0.93797441781E+03  0.46999998093E+01 0. -1.
       -5    1    3    3    0  502  0.32733305444E+03 -0.37662473809E+03 -0.14100172880E+04  0.14957152016E+04  0.46999998093E+01 0.  1.
</event>
<event>
 5   0  0.3873874E-03  0.1002213E+04  0.7818609E-02  0.9306121E-01
       -2   -1    0    0    0  501  0.00000000000E+00  0.00000000000E+00  0.12339807976E+03  0.12339807979E+03  0.25500000920E-02 0. -1.
        2   -1    0    0  501    0  0.00000000000E+00  0.00000000000E+00 -0.20349404071E+04  0.20349404071E+04  0.25500000920E-02 0.  1.
    10030    2    1    2    0    0  0.00000000000E+00  0.00000000000E+00 -0.19115423273E+04  0.21583384869E+04  0.10022130286E+04 0.  0.
        5    1    3    3  502    0  0.41350783160E+03 -0.16972311426E+03 -0.46804052719E+03  0.64720838020E+03  0.46999998093E+01 0. -1.
       -5    1    3    3    0  502 -0.41350783160E+03  0.16972311426E+03 -0.14435018002E+04  0.15111301067E+04  0.46999998093E+01 0.  1.
</event>
<event>
 5   0  0.3873874E-03  0.9950757E+03  0.7818609E-02  0.9313962E-01
       -2   -1    0    0    0  501  0.00000000000E+00  0.00000000000E+00  0.22060631294E+03  0.22060631296E+03  0.25500000920E-02 0. -1.
        2   -1    0    0  501    0  0.00000000000E+00  0.00000000000E+00 -0.11221070682E+04  0.11221070682E+04  0.25500000920E-02 0.  1.
    10030    2    1    2    0    0  0.00000000000E+00  0.00000000000E+00 -0.90150075529E+03  0.13427133812E+04  0.99507568167E+03 0.  0.
        5    1    3    3  502    0  0.20945390738E+01  0.58151351173E+02 -0.11174696051E+04  0.11189934652E+04  0.46999998093E+01 0.  1.
       -5    1    3    3    0  502 -0.20945390738E+01 -0.58151351173E+02  0.21596884982E+03  0.22371991603E+03  0.46999998093E+01 0. -1.
</event>
<event>
 5   0  0.3826483E-03  0.1001535E+04  0.7818609E-02  0.9306863E-01
        2   -1    0    0  501    0  0.00000000000E+00  0.00000000000E+00  0.21649114284E+04  0.21649114284E+04  0.25500000920E-02 0.  1.
       -2   -1    0    0    0  501  0.00000000000E+00  0.00000000000E+00 -0.11583300685E+03  0.11583300687E+03  0.25500000920E-02 0. -1.
    10030    2    1    2    0    0  0.00000000000E+00  0.00000000000E+00  0.20490784215E+04  0.22807444352E+04  0.10015352222E+04 0.  0.
        4    1    3    3  502    0  0.31805710848E+03 -0.13677390754E+03  0.20063100402E+03  0.40015226940E+03  0.12699999809E+01 0. -1.
       -4    1    3    3    0  502 -0.31805710848E+03  0.13677390754E+03  0.18484474175E+04  0.18805921658E+04  0.12699999809E+01 0.  1.
</event>
<event>
 5   0  0.2405022E-03  0.9926123E+03  0.7818609E-02  0.9316685E-01
       -1   -1    0    0    0  501  0.00000000000E+00  0.00000000000E+00  0.22681932730E+03  0.22681932736E+03  0.50400001928E-02 0. -1.
        1   -1    0    0  501    0  0.00000000000E+00  0.00000000000E+00 -0.10859736734E+04  0.10859736734E+04  0.50400001928E-02 0.  1.
    10030    2    1    2    0    0  0.00000000000E+00  0.00000000000E+00 -0.85915434606E+03  0.13127930007E+04  0.99261234750E+03 0.  0.
        4    1    3    3  502    0 -0.39626943301E+03  0.20162647970E+03 -0.13790614577E+03  0.46551307049E+03  0.12699999809E+01 0. -1.
       -4    1    3    3    0  502  0.39626943301E+03 -0.20162647970E+03 -0.72124820029E+03  0.84727993023E+03  0.12699999809E+01 0.  1.
</event>
<event>
 5   0  0.2350769E-03  0.1001162E+04  0.7818609E-02  0.9307272E-01
        1   -1    0    0  501    0  0.00000000000E+00  0.00000000000E+00  0.45340999269E+03  0.45340999271E+03  0.50400001928E-02 0. -1.
       -1   -1    0    0    0  501  0.00000000000E+00  0.00000000000E+00 -0.55265896718E+03  0.55265896720E+03  0.50400001928E-02 0.  1.
    10030    2    1    2    0    0  0.00000000000E+00  0.00000000000E+00 -0.99248974492E+02  0.10060689599E+04  0.10011615220E+04 0.  0.
        2    1    3    3  502    0 -0.39088883942E+03  0.31225816905E+03 -0.32753825027E+02  0.50137018458E+03  0.25500000920E-02 0.  1.
       -2    1    3    3    0  502  0.39088883942E+03 -0.31225816905E+03 -0.66495149465E+02  0.50469877534E+03  0.25500000920E-02 0. -1.
</event>
<event>
 5   0  0.1548000E-03  0.1003864E+04  0.7818609E-02  0.9304317E-01
       -3   -1    0    0    0  501  0.00000000000E+00  0.00000000000E+00  0.23310825617E+03  0.23310827805E+03  0.10100000352E+00 0. -1.
        3   -1    0    0  501    0  0.00000000000E+00  0.00000000000E+00 -0.10807670166E+04  0.10807670213E+04  0.10100000352E+00 0.  1.
    10030    2    1    2    0    0  0.00000000000E+00  0.00000000000E+00 -0.84765876040E+03  0.13138752993E+04  0.10038639988E+04 0.  0.
        5    1    3    3  502    0 -0.25168587885E+03  0.41374794150E+03 -0.25128118623E+03  0.54561659181E+03  0.46999998093E+01 0. -1.
       -5    1    3    3    0  502  0.25168587885E+03 -0.41374794150E+03 -0.59637757417E+03  0.76825870752E+03  0.46999998093E+01 0.  1.
</event>
<event>
 5   0  0.3895011E-03  0.1005078E+04  0.7818609E-02  0.9302993E-01
       -2   -1    0    0    0  501  0.00000000000E+00  0.00000000000E+00  0.25114935737E+03  0.25114935739E+03  0.25500000920E-02 0. -1.
        2   -1    0    0  501    0  0.00000000000E+00  0.00000000000E+00 -0.10055589547E+04  0.10055589547E+04  0.25500000920E-02 0.  1.
    10030    2    1    2    0    0  0.00000000000E+00  0.00000000000E+00 -0.75440959733E+03  0.12567083121E+04  0.10050780771E+04 0.  0.
        2    1    3    3  502    0 -0.36661780043E+03  0.20069044371E+03 -0.28311603353E+02  0.41891146162E+03  0.25500000920E-02 0. -1.
       -2    1    3    3    0  502  0.36661780043E+03 -0.20069044371E+03 -0.72609799398E+03  0.83779685047E+03  0.25500000920E-02 0.  1.
</event>
<event>
 5   0  0.2350769E-03  0.1011785E+04  0.7818609E-02  0.9295713E-01
        1   -1    0    0  501    0  0.00000000000E+00  0.00000000000E+00  0.24847835807E+03  0.24847835812E+03  0.50400001928E-02 0. -1.
       -1   -1    0    0    0  501  0.00000000000E+00  0.00000000000E+00 -0.10299773364E+04  0.10299773364E+04  0.50400001928E-02 0.  1.
    10030    2    1    2    0    0  0.00000000000E+00  0.00000000000E+00 -0.78149897828E+03  0.12784556945E+04  0.10117847151E+04 0.  0.
        2    1    3    3  502    0 -0.25079385399E+03  0.21339215517E+03 -0.87601980501E+03  0.93586562490E+03  0.25500000920E-02 0.  1.
       -2    1    3    3    0  502  0.25079385399E+03 -0.21339215517E+03  0.94520826729E+02  0.34259006959E+03  0.25500000920E-02 0. -1.
</event>
<event>
 5   0  0.4140860E-03  0.9833303E+03  0.7818609E-02  0.9327019E-01
       -2   -1    0    0    0  501  0.00000000000E+00  0.00000000000E+00  0.39771180847E+03  0.39771180848E+03  0.25500000920E-02 0. -1.
        2   -1    0    0  501    0  0.00000000000E+00  0.00000000000E+00 -0.60781357859E+03  0.60781357859E+03  0.25500000920E-02 0.  1.
    10030    2    1    2    0    0  0.00000000000E+00  0.00000000000E+00 -0.21010177011E+03  0.10055253871E+04  0.98333033627E+03 0.  0.
        3    1    3    3  502    0 -0.25888562768E+03 -0.15565874265E+03 -0.50172844479E+03  0.58564738102E+03  0.10100000352E+00 0.  1.
       -3    1    3    3    0  502  0.25888562768E+03  0.15565874265E+03  0.29162667467E+03  0.41987800605E+03  0.10100000352E+00 0. -1.
</event>
<event>
 5   0  0.3873874E-03  0.1003736E+04  0.7818609E-02  0.9304457E-01
        2   -1    0    0  501    0  0.00000000000E+00  0.00000000000E+00  0.90829268499E+03  0.90829268499E+03  0.25500000920E-02 0.  1.
       -2   -1    0    0    0  501  0.00000000000E+00  0.00000000000E+00 -0.27730212643E+03  0.27730212644E+03  0.25500000920E-02 0. -1.
    10030    2    1    2    0    0  0.00000000000E+00  0.00000000000E+00  0.63099055856E+03  0.11855948114E+04  0.10037360071E+04 0.  0.
        5    1    3    3  502    0 -0.49184295918E+03 -0.43574932453E+02  0.20957591271E+03  0.53642560008E+03  0.46999998093E+01 0. -1.
       -5    1    3    3    0  502  0.49184295918E+03  0.43574932453E+02  0.42141464585E+03  0.64916921136E+03  0.46999998093E+01 0.  1.
</event>
<event>
 5   0  0.2327595E-03  0.9966585E+03  0.7818609E-02  0.9312217E-01
       -1   -1    0    0    0  501  0.00000000000E+00  0.00000000000E+00  0.35669807814E+03  0.35669807818E+03  0.50400001928E-02 0. -1.
        1   -1    0    0  501    0  0.00000000000E+00  0.00000000000E+00 -0.69619676144E+03  0.69619676145E+03  0.50400001928E-02 0.  1.
    10030    2    1    2    0    0  0.00000000000E+00  0.00000000000E+00 -0.33949868329E+03  0.10528948396E+04  0.99665851091E+03 0.  0.
        5    1    3    3  502    0  0.33688653575E+03 -0.30058055657E+03  0.53025461180E+02  0.45461522026E+03  0.46999998093E+01 0.  1.
       -5    1    3    3    0  502 -0.33688653575E+03  0.30058055657E+03 -0.39252414447E+03  0.59827961937E+03  0.46999998093E+01 0. -1.
</event>
<event>
 5   0  0.2313036E-03  0.1014648E+04  0.7818609E-02  0.9292623E-01
       -1   -1    0    0    0  501  0.00000000000E+00  0.00000000000E+00  0.22541792500E+03  0.22541792505E+03  0.50400001928E-02 0.  1.
        1   -1    0    0  501    0  0.00000000000E+00  0.00000000000E+00 -0.11417799879E+04  0.11417799879E+04  0.50400001928E-02 0. -1.
    10030    2    1    2    0    0  0.00000000000E+00  0.00000000000E+00 -0.91636206292E+03  0.13671979130E+04  0.10146480685E+04 0.  0.
        3    1    3    3  502    0 -0.28391884771E+03 -0.99547716005E+02 -0.10085950394E+04  0.10525130039E+04  0.10100000352E+00 0. -1.
       -3    1    3    3    0  502  0.28391884771E+03  0.99547716005E+02  0.92232976425E+02  0.31468490905E+03  0.10100000352E+00 0.  1.
</event>
<event>
 5   0  0.4140860E-03  0.1002163E+04  0.7818609E-02  0.9306176E-01
       -2   -1    0    0    0  501  0.00000000000E+00  0.00000000000E+00  0.44156174756E+03  0.44156174757E+03  0.25500000920E-02 0.  1.
        2   -1    0    0  501    0  0.00000000000E+00  0.00000000000E+00 -0.56862422663E+03  0.56862422664E+03  0.25500000920E-02 0. -1.
    10030    2    1    2    0    0  0.00000000000E+00  0.00000000000E+00 -0.12706247907E+03  0.10101859742E+04  0.10021630750E+04 0.  0.
        3    1    3    3  502    0  0.18854726749E+03  0.29949445653E+03  0.29404188064E+03  0.46011698441E+03  0.10100000352E+00 0.  1.
       -3    1    3    3    0  502 -0.18854726749E+03 -0.29949445653E+03 -0.42110435970E+03  0.55006898980E+03  0.10100000352E+00 0. -1.
</event>
<event>
 5   0  0.3826483E-03  0.9987048E+03  0.7818609E-02  0.9309967E-01
       -2   -1    0    0    0  501  0.00000000000E+00  0.00000000000E+00  0.66546817409E+03  0.66546817410E+03  0.25500000920E-02 0. -1.
        2   -1    0    0  501    0  0.00000000000E+00  0.00000000000E+00 -0.37470283161E+03  0.37470283162E+03  0.25500000920E-02 0.  1.
    10030    2    1    2    0    0  0.00000000000E+00  0.00000000000E+00  0.29076534248E+03  0.10401710057E+04  0.99870477958E+03 0.  0.
        4    1    3    3  502    0  0.17211715552E+03 -0.27142190101E+03 -0.25265928518E+03  0.40881840818E+03  0.12699999809E+01 0.  1.
       -4    1    3    3    0  502 -0.17211715552E+03  0.27142190101E+03  0.54342462766E+03  0.63135259754E+03  0.12699999809E+01 0. -1.
</event>
<event>
 5   0  0.4026829E-03  0.9418656E+03  0.7818609E-02  0.9374709E-01
        2   -1    0    0  501    0  0.00000000000E+00  0.00000000000E+00  0.60153290619E+03  0.60153290620E+03  0.25500000920E-02 0. -1.
       -2   -1    0    0    0  501  0.00000000000E+00  0.00000000000E+00 -0.36868757032E+03  0.36868757033E+03  0.25500000920E-02 0.  1.
    10030    2    1    2    0    0  0.00000000000E+00  0.00000000000E+00  0.23284533587E+03  0.97022047652E+03  0.94186560752E+03 0.  0.
        1    1    3    3  502    0  0.31059727182E+02 -0.27838854539E+03  0.50638621622E+03  0.57869844380E+03  0.50400001928E-02 0. -1.
       -1    1    3    3    0  502 -0.31059727182E+02  0.27838854539E+03 -0.27354088035E+03  0.39152203272E+03  0.50400001928E-02 0.  1.
</event>
<event>
 5   0  0.3895011E-03  0.1003465E+04  0.7818609E-02  0.9304753E-01
        2   -1    0    0  501    0  0.00000000000E+00  0.00000000000E+00  0.18973504192E+03  0.18973504194E+03  0.25500000920E-02 0. -1.
       -2   -1    0    0    0  501  0.00000000000E+00  0.00000000000E+00 -0.13267729155E+04  0.13267729155E+04  0.25500000920E-02 0.  1.
    10030    2    1    2    0    0  0.00000000000E+00  0.00000000000E+00 -0.11370378736E+04  0.15165079575E+04  0.10034646277E+04 0.  0.
        2    1    3    3  502    0 -0.22407145427E+03 -0.44306367308E+03 -0.45931053339E+03  0.67637238346E+03  0.25500000920E-02 0. -1.
       -2    1    3    3    0  502  0.22407145427E+03  0.44306367308E+03 -0.67772734023E+03  0.84013557401E+03  0.25500000920E-02 0.  1.
</event>
<event>
 5   0  0.2378609E-03  0.1006127E+04  0.7818609E-02  0.9301850E-01
        1   -1    0    0  501    0  0.00000000000E+00  0.00000000000E+00  0.64655511907E+03  0.64655511909E+03  0.50400001928E-02 0.  1.
       -1   -1    0    0    0  501  0.00000000000E+00  0.00000000000E+00 -0.39141728882E+03  0.39141728885E+03  0.50400001928E-02 0. -1.
    10030    2    1    2    0    0  0.00000000000E+00  0.00000000000E+00  0.25513783025E+03  0.10379724079E+04  0.10061269339E+04 0.  0.
        1    1    3    3  502    0 -0.10695792158E+03  0.97534590634E+02 -0.36946861473E+03  0.39681236202E+03  0.50400001928E-02 0. -1.
       -1    1    3    3    0  502  0.10695792158E+03 -0.97534590634E+02  0.62460644497E+03  0.64116004592E+03  0.50400001928E-02 0.  1.
</event>
<event>
 5   0  0.4026829E-03  0.1005040E+04  0.7818609E-02  0.9303034E-01
       -2   -1    0    0    0  501  0.00000000000E+00  0.00000000000E+00  0.12497784577E+03  0.12497784579E+03  0.25500000920E-02 0. -1.
        2   -1    0    0  501    0  0.00000000000E+00  0.00000000000E+00 -0.20205703547E+04  0.20205703547E+04  0.25500000920E-02 0.  1.
    10030    2    1    2    0    0  0.00000000000E+00  0.00000000000E+00 -0.18955925090E+04  0.21455482005E+04  0.10050403578E+04 0.  0.
        1    1    3    3  502    0 -0.32098073489E+03 -0.28753867505E+03 -0.39596526327E+03  0.58523124623E+03  0.50400001928E-02 0. -1.
       -1    1    3    3    0  502  0.32098073489E+03  0.28753867505E+03 -0.14996272457E+04  0.15603169543E+04  0.50400001928E-02 0.  1.
</event>
<event>
 5   0  0.3826483E-03  0.1010295E+04  0.7818609E-02  0.9297325E-01
       -2   -1    0    0    0  501  0.00000000000E+00  0.00000000000E+00  0.17619579276E+03  0.17619579278E+03  0.25500000920E-02 0. -1.
        2   -1    0    0  501    0  0.00000000000E+00  0.00000000000E+00 -0.14482399088E+04  0.14482399088E+04  0.25500000920E-02 0.  1.
    10030    2    1    2    0    0  0.00000000000E+00  0.00000000000E+00 -0.12720441160E+04  0.16244357015E+04  0.10102945686E+04 0.  0.
        4    1    3    3  502    0 -0.19105921306E+03 -0.46363157491E+03 -0.53802944557E+03  0.73548294158E+03  0.12699999809E+01 0. -1.
       -4    1    3    3    0  502  0.19105921306E+03  0.46363157491E+03 -0.73401467042E+03  0.88895275996E+03  0.12699999809E+01 0.  1.
</event>
<event>
 5   0  0.4140860E-03  0.1009159E+04  0.7818609E-02  0.9298556E-01
       -2   -1    0    0    0  501  0.00000000000E+00  0.00000000000E+00  0.40916799977E+03  0.40916799978E+03  0.25500000920E-02 0.  1.
        2   -1    0    0  501    0  0.00000000000E+00  0.00000000000E+00 -0.62223911685E+03  0.62223911686E+03  0.25500000920E-02 0. -1.
    10030    2    1    2    0    0  0.00000000000E+00  0.00000000000E+00 -0.21307111708E+03  0.10314071166E+04  0.10091587285E+04 0.  0.
        3    1    3    3  502    0 -0.16811418601E+03  0.35376387029E+03  0.21857976785E+03  0.44854027754E+03  0.10100000352E+00 0.  1.
       -3    1    3    3    0  502  0.16811418601E+03 -0.35376387029E+03 -0.43165088493E+03  0.58286683910E+03  0.10100000352E+00 0. -1.
</event>
<event>
 5   0  0.2313036E-03  0.1002529E+04  0.7818609E-02  0.9305775E-01
       -1   -1    0    0    0  501  0.00000000000E+00  0.00000000000E+00  0.32635861341E+03  0.32635861345E+03  0.50400001928E-02 0.  1.
        1   -1    0    0  501    0  0.00000000000E+00  0.00000000000E+00 -0.76990795961E+03  0.76990795962E+03  0.50400001928E-02 0. -1.
    10030    2    1    2    0    0  0.00000000000E+00  0.00000000000E+00 -0.44354934620E+03  0.10962665731E+04  0.10025289905E+04 0.  0.
        3    1    3    3  502    0 -0.15161515339E+03 -0.47219705423E+03 -0.14209999327E+03  0.51589691902E+03  0.10100000352E+00 0.  1.
       -3    1    3    3    0  502  0.15161515339E+03  0.47219705423E+03 -0.30144935293E+03  0.58036965405E+03  0.10100000352E+00 0. -1.
</event>
<event>
 5   0  0.1548000E-03  0.1014136E+04  0.7818609E-02  0.9293175E-01
       -4   -1    0    0    0  501  0.00000000000E+00  0.00000000000E+00  0.43758687701E+03  0.43758871996E+03  0.12699999809E+01 0.  1.
        4   -1    0    0  501    0  0.00000000000E+00  0.00000000000E+00 -0.58757805864E+03  0.58757943114E+03  0.12699999809E+01 0. -1.
    10030    2    1    2    0    0  0.00000000000E+00  0.00000000000E+00 -0.14999118163E+03  0.10251681511E+04  0.10141362746E+04 0.  0.
        1    1    3    3  502    0  0.15054260098E+03 -0.92669725843E+02 -0.55542049235E+03  0.58287449433E+03  0.50400001928E-02 0. -1.
       -1    1    3    3    0  502 -0.15054260098E+03  0.92669725843E+02  0.40542931072E+03  0.44229365676E+03  0.50400001928E-02 0.  1.
</event>
<event>
 5   0  0.4026829E-03  0.1018689E+04  0.7818609E-02  0.9288282E-01
       -2   -1    0    0    0  501  0.00000000000E+00  0.00000000000E+00  0.54740237562E+03  0.54740237563E+03  0.25500000920E-02 0.  1.
        2   -1    0    0  501    0  0.00000000000E+00  0.00000000000E+00 -0.47393214928E+03  0.47393214928E+03  0.25500000920E-02 0. -1.
    10030    2    1    2    0    0  0.00000000000E+00  0.00000000000E+00  0.73470226350E+02  0.10213345249E+04  0.10186885381E+04 0.  0.
        1    1    3    3  502    0 -0.23606343137E+02 -0.36711282105E+03  0.38993199529E+03  0.53607466252E+03  0.50400001928E-02 0.  1.
       -1    1    3    3    0  502  0.23606343137E+02  0.36711282105E+03 -0.31646176894E+03  0.48525986239E+03  0.50400001928E-02 0. -1.
</event>
<event>
 5   0  0.3826483E-03  0.1010877E+04  0.7818609E-02  0.9296695E-01
        2   -1    0    0  501    0  0.00000000000E+00  0.00000000000E+00  0.18865126982E+04  0.18865126982E+04  0.25500000920E-02 0. -1.
       -2   -1    0    0    0  501  0.00000000000E+00  0.00000000000E+00 -0.13541814918E+03  0.13541814920E+03  0.25500000920E-02 0.  1.
    10030    2    1    2    0    0  0.00000000000E+00  0.00000000000E+00  0.17510945490E+04  0.20219308474E+04  0.10108769619E+04 0.  0.
        4    1    3    3  502    0  0.28687095393E+03  0.23160405433E+03  0.18402147122E+03  0.41206904393E+03  0.12699999809E+01 0.  1.
       -4    1    3    3    0  502 -0.28687095393E+03 -0.23160405433E+03  0.15670730778E+04  0.16098618035E+04  0.12699999809E+01 0. -1.
</event>
<event>
 5   0  0.4140860E-03  0.9952287E+03  0.7818609E-02  0.9313793E-01
       -2   -1    0    0    0  501  0.00000000000E+00  0.00000000000E+00  0.66101388279E+03  0.66101388279E+03  0.25500000920E-02 0. -1.
        2   -1    0    0  501    0  0.00000000000E+00  0.00000000000E+00 -0.37460644410E+03  0.37460644411E+03  0.25500000920E-02 0.  1.
    10030    2    1    2    0    0  0.00000000000E+00  0.00000000000E+00  0.28640743869E+03  0.10356203269E+04  0.99522873780E+03 0.  0.
        3    1    3    3  502    0 -0.11771730641E+03  0.20884448238E+03  0.59695934001E+03  0.64329918846E+03  0.10100000352E+00 0. -1.
       -3    1    3    3    0  502  0.11771730641E+03 -0.20884448238E+03 -0.31055190132E+03  0.39232113844E+03  0.10100000352E+00 0.  1.
</event>
<event>
 5   0  0.2378609E-03  0.9968178E+03  0.7818609E-02  0.9312042E-01
       -1   -1    0    0    0  501  0.00000000000E+00  0.00000000000E+00  0.32194699502E+03  0.32194699506E+03  0.50400001928E-02 0. -1.
        1   -1    0    0  501    0  0.00000000000E+00  0.00000000000E+00 -0.77159104309E+03  0.77159104311E+03  0.50400001928E-02 0.  1.
    10030    2    1    2    0    0  0.00000000000E+00  0.00000000000E+00 -0.44964404807E+03  0.10935380382E+04  0.99681777219E+03 0.  0.
        1    1    3    3  502    0 -0.36822171043E+03 -0.28126980456E+03 -0.42624410334E+03  0.62959031651E+03  0.50400001928E-02 0.  1.
       -1    1    3    3    0  502  0.36822171043E+03  0.28126980456E+03 -0.23399944729E+02  0.46394772166E+03  0.50400001928E-02 0. -1.
</event>
<event>
 5   0  0.3895011E-03  0.9913469E+03  0.7818609E-02  0.9318087E-01
        2   -1    0    0  501    0  0.00000000000E+00  0.00000000000E+00  0.44231727317E+03  0.44231727317E+03  0.25500000920E-02 0.  1.
       -2   -1    0    0    0  501  0.00000000000E+00  0.00000000000E+00 -0.55546594004E+03  0.55546594004E+03  0.25500000920E-02 0. -1.
    10030    2    1    2    0    0  0.00000000000E+00  0.00000000000E+00 -0.11314866687E+03  0.99778321322E+03  0.99134692200E+03 0.  0.
        2    1    3    3  502    0 -0.44992559349E+03 -0.20044293803E+03 -0.11244843602E+03  0.50522773267E+03  0.25500000920E-02 0.  1.
       -2    1    3    3    0  502  0.44992559349E+03  0.20044293803E+03 -0.70023084720E+00  0.49255548055E+03  0.25500000920E-02 0. -1.
</event>
<event>
 5   0  0.2378609E-03  0.1014036E+04  0.7818609E-02  0.9293283E-01
       -1   -1    0    0    0  501  0.00000000000E+00  0.00000000000E+00  0.59692338756E+03  0.59692338758E+03  0.50400001928E-02 0.  1.
        1   -1    0    0  501    0  0.00000000000E+00  0.00000000000E+00 -0.43065361701E+03  0.43065361704E+03  0.50400001928E-02 0. -1.
    10030    2    1    2    0    0  0.00000000000E+00  0.00000000000E+00  0.16626977055E+03  0.10275770046E+04  0.10140359283E+04 0.  0.
        1    1    3    3  502    0  0.21129971910E+03 -0.19627332229E+02  0.54975580977E+03  0.58929131494E+03  0.50400001928E-02 0.  1.
       -1    1    3    3    0  502 -0.21129971910E+03  0.19627332229E+02 -0.38348603922E+03  0.43828568967E+03  0.50400001928E-02 0. -1.
</event>
<event>
 5   0  0.2350769E-03  0.1007588E+04  0.7818609E-02  0.9300261E-01
        1   -1    0    0  501    0  0.00000000000E+00  0.00000000000E+00  0.19463885170E+03  0.19463885176E+03  0.50400001928E-02 0.  1.
       -1   -1    0    0    0  501  0.00000000000E+00  0.00000000000E+00 -0.13039963671E+04  0.13039963671E+04  0.50400001928E-02 0. -1.
    10030    2    1    2    0    0  0.00000000000E+00  0.00000000000E+00 -0.11093575154E+04  0.14986352188E+04  0.10075879228E+04 0.  0.
        2    1    3    3  502    0  0.55442477899E+02  0.21048273901E+03  0.12109445005E+03  0.24907974148E+03  0.25500000920E-02 0.  1.
       -2    1    3    3    0  502 -0.55442477899E+02 -0.21048273901E+03 -0.12304519654E+04  0.12495554774E+04  0.25500000920E-02 0. -1.
</event>
<event>
 5   0  0.3873874E-03  0.1002387E+04  0.7818609E-02  0.9305931E-01
        2   -1    0    0  501    0  0.00000000000E+00  0.00000000000E+00  0.12353512748E+04  0.12353512748E+04  0.25500000920E-02 0.  1.
       -2   -1    0    0    0  501  0.00000000000E+00  0.00000000000E+00 -0.20333885964E+03  0.20333885965E+03  0.25500000920E-02 0. -1.
    10030    2    1    2    0    0  0.00000000000E+00  0.00000000000E+00  0.10320124151E+04  0.14386901344E+04  0.10023869901E+04 0.  0.
        5    1    3    3  502    0  0.45380661319E+02 -0.33872735328E+03  0.10421381220E+04  0.10967541109E+04  0.46999998093E+01 0.  1.
       -5    1    3    3    0  502 -0.45380661319E+02  0.33872735328E+03 -0.10125706890E+02  0.34193602358E+03  0.46999998093E+01 0. -1.
</event>
<event>
 5   0  0.2378609E-03  0.9735493E+03  0.7818609E-02  0.9338041E-01
       -1   -1    0    0    0  501  0.00000000000E+00  0.00000000000E+00  0.33189598292E+03  0.33189598295E+03  0.50400001928E-02 0.  1.
        1   -1    0    0  501    0  0.00000000000E+00  0.00000000000E+00 -0.71392717552E+03  0.71392717554E+03  0.50400001928E-02 0. -1.
    10030    2    1    2    0    0  0.00000000000E+00  0.00000000000E+00 -0.38203119261E+03  0.10458231585E+04  0.97354930369E+03 0.  0.
        1    1    3    3  502    0 -0.30493928676E+03  0.30773841914E+03  0.47403805396E+02  0.43581879723E+03  0.50400001928E-02 0.  1.
       -1    1    3    3    0  502  0.30493928676E+03 -0.30773841914E+03 -0.42943499800E+03  0.61000436127E+03  0.50400001928E-02 0. -1.
</event>
<event>
 5   0  0.3826483E-03  0.9905526E+03  0.7818609E-02  0.9318968E-01
        2   -1    0    0  501    0  0.00000000000E+00  0.00000000000E+00  0.97287022886E+03  0.97287022887E+03  0.25500000920E-02 0. -1.
       -2   -1    0    0    0  501  0.00000000000E+00  0.00000000000E+00 -0.25213907066E+03  0.25213907067E+03  0.25500000920E-02 0.  1.
    10030    2    1    2    0    0  0.00000000000E+00  0.00000000000E+00  0.72073115821E+03  0.12250092995E+04  0.99055256374E+03 0.  0.
        4    1    3    3  502    0 -0.36656838933E+03  0.28489807379E+03  0.14703091051E+03  0.48698973095E+03  0.12699999809E+01 0.  1.
       -4    1    3    3    0  502  0.36656838933E+03 -0.28489807379E+03  0.57370024770E+03  0.73801956858E+03  0.12699999809E+01 0. -1.
</event>
<event>
 5   0  0.2327595E-03  0.9970884E+03  0.7818609E-02  0.9311744E-01
       -1   -1    0    0    0  501  0.00000000000E+00  0.00000000000E+00  0.90312042047E+03  0.90312042049E+03  0.50400001928E-02 0.  1.
        1   -1    0    0  501    0  0.00000000000E+00  0.00000000000E+00 -0.27520840038E+03  0.27520840043E+03  0.50400001928E-02 0. -1.
    10030    2    1    2    0    0  0.00000000000E+00  0.00000000000E+00  0.62791202009E+03  0.11783288209E+04  0.99708841395E+03 0.  0.
        5    1    3    3  502    0 -0.18618821995E+02 -0.39838100220E+03  0.66744176759E+03  0.77753114829E+03  0.46999998093E+01 0.  1.
       -5    1    3    3    0  502  0.18618821995E+02  0.39838100220E+03 -0.39529747505E+02  0.40079767262E+03  0.46999998093E+01 0. -1.
</event>
<event>
 5   0  0.4140860E-03  0.9972959E+03  0.7818609E-02  0.9311516E-01
       -2   -1    0    0    0  501  0.00000000000E+00  0.00000000000E+00  0.18571253676E+03  0.18571253678E+03  0.25500000920E-02 0. -1.
        2   -1    0    0  501    0  0.00000000000E+00  0.00000000000E+00 -0.13388959454E+04  0.13388959454E+04  0.25500000920E-02 0.  1.
    10030    2    1    2    0    0  0.00000000000E+00  0.00000000000E+00 -0.11531834086E+04  0.15246084822E+04  0.99729586882E+03 0.  0.
        3    1    3    3  502    0  0.40259226334E+03 -0.25456776086E+02 -0.12848193340E+03  0.42336295937E+03  0.10100000352E+00 0. -1.
       -3    1    3    3    0  502 -0.40259226334E+03  0.25456776086E+02 -0.10247014752E+04  0.11012455228E+04  0.10100000352E+00 0.  1.
</event>
<event>
 5   0  0.4140860E-03  0.9959536E+03  0.7818609E-02  0.9312994E-01
       -2   -1    0    0    0  501  0.00000000000E+00  0.00000000000E+00  0.27038389842E+03  0.27038389844E+03  0.25500000920E-02 0. -1.
        2   -1    0    0  501    0  0.00000000000E+00  0.00000000000E+00 -0.91714369888E+03  0.91714369888E+03  0.25500000920E-02 0.  1.
    10030    2    1    2    0    0  0.00000000000E+00  0.00000000000E+00 -0.64675980045E+03  0.11875275973E+04  0.99595359074E+03 0.  0.
        3    1    3    3  502    0 -0.22874372810E+03 -0.36693665279E+03 -0.61790463393E+03  0.75416997232E+03  0.10100000352E+00 0.  1.
       -3    1    3    3    0  502  0.22874372810E+03  0.36693665279E+03 -0.28855166523E+02  0.43335762500E+03  0.10100000352E+00 0. -1.
</event>
<event>
 5   0  0.2313036E-03  0.9986755E+03  0.7818609E-02  0.9309999E-01
        1   -1    0    0  501    0  0.00000000000E+00  0.00000000000E+00  0.38280032618E+03  0.38280032622E+03  0.50400001928E-02 0.  1.
       -1   -1    0    0    0  501  0.00000000000E+00  0.00000000000E+00 -0.65135311356E+03  0.65135311358E+03  0.50400001928E-02 0. -1.
    10030    2    1    2    0    0  0.00000000000E+00  0.00000000000E+00 -0.26855278738E+03  0.10341534398E+04  0.99867549156E+03 0.  0.
        3    1    3    3  502    0  0.15168199472E+03  0.35981374541E+03 -0.45656400830E+03  0.60076955881E+03  0.10100000352E+00 0. -1.
       -3    1    3    3    0  502 -0.15168199472E+03 -0.35981374541E+03  0.18801122092E+03  0.43338388099E+03  0.10100000352E+00 0.  1.
</event>
<event>
 5   0  0.3895011E-03  0.1007092E+04  0.7818609E-02  0.9300801E-01
       -2   -1    0    0    0  501  0.00000000000E+00  0.00000000000E+00  0.98260911516E+03  0.98260911517E+03  0.25500000920E-02 0. -1.
        2   -1    0    0  501    0  0.00000000000E+00  0.00000000000E+00 -0.25804615964E+03  0.25804615965E+03  0.25500000920E-02 0.  1.
    10030    2    1    2    0    0  0.00000000000E+00  0.00000000000E+00  0.72456295553E+03  0.12406552748E+04  0.10070918699E+04 0.  0.
        2    1    3    3  502    0 -0.17063390958E+03  0.85124190317E+02 -0.21184608547E+03  0.28502775797E+03  0.25500000920E-02 0.  1.
       -2    1    3    3    0  502  0.17063390958E+03 -0.85124190317E+02  0.93640904100E+03  0.95562751684E+03  0.25500000920E-02 0. -1.
</event>
<event>
 5   0  0.3826483E-03  0.1000317E+04  0.7818609E-02  0.9308197E-01
       -2   -1    0    0    0  501  0.00000000000E+00  0.00000000000E+00  0.59452218875E+03  0.59452218876E+03  0.25500000920E-02 0. -1.
        2   -1    0    0  501    0  0.00000000000E+00  0.00000000000E+00 -0.42077259939E+03  0.42077259940E+03  0.25500000920E-02 0.  1.
    10030    2    1    2    0    0  0.00000000000E+00  0.00000000000E+00  0.17374958936E+03  0.10152947882E+04  0.10003172432E+04 0.  0.
        4    1    3    3  502    0 -0.72739020227E+02  0.35743255921E+03  0.43420915435E+03  0.56708747303E+03  0.12699999809E+01 0. -1.
       -4    1    3    3    0  502  0.72739020227E+02 -0.35743255921E+03 -0.26045956498E+03  0.44820731513E+03  0.12699999809E+01 0.  1.
</event>
<event>
 5   0  0.3826483E-03  0.9975241E+03  0.7818609E-02  0.9311264E-01
        2   -1    0    0  501    0  0.00000000000E+00  0.00000000000E+00  0.66255218102E+03  0.66255218103E+03  0.25500000920E-02 0. -1.
       -2   -1    0    0    0  501  0.00000000000E+00  0.00000000000E+00 -0.37546264783E+03  0.37546264784E+03  0.25500000920E-02 0.  1.
    10030    2    1    2    0    0  0.00000000000E+00  0.00000000000E+00  0.28708953319E+03  0.10380148289E+04  0.99752412747E+03 0.  0.
        4    1    3    3  502    0 -0.18284865058E+02 -0.18178489337E+02 -0.37476700356E+03  0.37565504605E+03  0.12699999809E+01 0.  1.
       -4    1    3    3    0  502  0.18284865058E+02  0.18178489337E+02  0.66185653675E+03  0.66235978282E+03  0.12699999809E+01 0. -1.
</event>
<event>
 5   0  0.2405022E-03  0.1000967E+04  0.7818609E-02  0.9307484E-01
        1   -1    0    0  501    0  0.00000000000E+00  0.00000000000E+00  0.67775221408E+03  0.67775221410E+03  0.50400001928E-02 0. -1.
       -1   -1    0    0    0  501  0.00000000000E+00  0.00000000000E+00 -0.36958034485E+03  0.36958034488E+03  0.50400001928E-02 0.  1.
    10030    2    1    2    0    0  0.00000000000E+00  0.00000000000E+00  0.30817186924E+03  0.10473325590E+04  0.10009673262E+04 0.  0.
        4    1    3    3  502    0  0.41784162778E+03  0.26262694725E+03  0.67060345489E+02  0.49805947653E+03  0.12699999809E+01 0. -1.
       -4    1    3    3    0  502 -0.41784162778E+03 -0.26262694725E+03  0.24111152375E+03  0.54927308245E+03  0.12699999809E+01 0.  1.
</event>
<event>
 5   0  0.2313036E-03  0.9903235E+03  0.7818609E-02  0.9319222E-01
        1   -1    0    0  501    0  0.00000000000E+00  0.00000000000E+00  0.51019914587E+03  0.51019914589E+03  0.50400001928E-02 0. -1.
       -1   -1    0    0    0  501  0.00000000000E+00  0.00000000000E+00 -0.48056758827E+03  0.48056758830E+03  0.50400001928E-02 0.  1.
    10030    2    1    2    0    0  0.00000000000E+00  0.00000000000E+00  0.29631557597E+02  0.99076673419E+03  0.99032352914E+03 0.  0.
        3    1    3    3  502    0 -0.19036421516E+03  0.32219324510E+03  0.33921101377E+03  0.50508528356E+03  0.10100000352E+00 0. -1.
       -3    1    3    3    0  502  0.19036421516E+03 -0.32219324510E+03 -0.30957945617E+03  0.48568145063E+03  0.10100000352E+00 0.  1.
</event>
<event>
 5   0  0.2378609E-03  0.1021993E+04  0.7818609E-02  0.9284746E-01
        1   -1    0    0  501    0  0.00000000000E+00  0.00000000000E+00  0.46401381376E+03  0.46401381379E+03  0.50400001928E-02 0.  1.
       -1   -1    0    0    0  501  0.00000000000E+00  0.00000000000E+00 -0.56273680614E+03  0.56273680617E+03  0.50400001928E-02 0. -1.
    10030    2    1    2    0    0  0.00000000000E+00  0.00000000000E+00 -0.98722992380E+02  0.10267506200E+04  0.10219934473E+04 0.  0.
        1    1    3    3  502    0 -0.11334198325E+03 -0.13948093135E+03 -0.52993559168E+03  0.55958294000E+03  0.50400001928E-02 0. -1.
       -1    1    3    3    0  502  0.11334198325E+03  0.13948093135E+03  0.43121259930E+03  0.46716767996E+03  0.50400001928E-02 0.  1.
</event>
<event>
 5   0  0.2350769E-03  0.9950271E+03  0.7818609E-02  0.9314016E-01
        1   -1    0    0  501    0  0.00000000000E+00  0.00000000000E+00  0.37958073424E+03  0.37958073427E+03  0.50400001928E-02 0.  1.
       -1   -1    0    0    0  501  0.00000000000E+00  0.00000000000E+00 -0.65208714074E+03  0.65208714076E+03  0.50400001928E-02 0. -1.
    10030    2    1    2    0    0  0.00000000000E+00  0.00000000000E+00 -0.27250640650E+03  0.10316678750E+04  0.99502706636E+03 0.  0.
        2    1    3    3  502    0 -0.47528040579E+03 -0.80984486761E+02 -0.26353264013E+03  0.54945373203E+03  0.25500000920E-02 0.  1.
       -2    1    3    3    0  502  0.47528040579E+03  0.80984486761E+02 -0.89737663737E+01  0.48221414300E+03  0.25500000920E-02 0. -1.
</event>
<event>
 5   0  0.2378609E-03  0.1001597E+04  0.7818609E-02  0.9306794E-01
       -1   -1    0    0    0  501  0.00000000000E+00  0.00000000000E+00  0.52736701148E+03  0.52736701151E+03  0.50400001928E-02 0. -1.
        1   -1    0    0  501    0  0.00000000000E+00  0.00000000000E+00 -0.47556891239E+03  0.47556891241E+03  0.50400001928E-02 0.  1.
    10030    2    1    2    0    0  0.00000000000E+00  0.00000000000E+00  0.51798099094E+02  0.10029359239E+04  0.10015974363E+04 0.  0.
        1    1    3    3  502    0 -0.25355864592E+02  0.43467704771E+03  0.27364087522E+03  0.51426295248E+03  0.50400001928E-02 0. -1.
       -1    1    3    3    0  502  0.25355864592E+02 -0.43467704771E+03 -0.22184277613E+03  0.48867297144E+03  0.50400001928E-02 0.  1.
</event>
<event>
 5   0  0.3895011E-03  0.1006627E+04  0.7818609E-02  0.9301306E-01
       -2   -1    0    0    0  501  0.00000000000E+00  0.00000000000E+00  0.32862833322E+03  0.32862833323E+03  0.25500000920E-02 0. -1.
        2   -1    0    0  501    0  0.00000000000E+00  0.00000000000E+00 -0.77085369470E+03  0.77085369470E+03  0.25500000920E-02 0.  1.
    10030    2    1    2    0    0  0.00000000000E+00  0.00000000000E+00 -0.44222536148E+03  0.10994820279E+04  0.10066267727E+04 0.  0.
        2    1    3    3  502    0 -0.24568966887E+03 -0.61614215701E+02 -0.69616302473E+03  0.74081217725E+03  0.25500000920E-02 0.  1.
       -2    1    3    3    0  502  0.24568966887E+03  0.61614215701E+02  0.25393766325E+03  0.35866985068E+03  0.25500000920E-02 0. -1.
</event>
<event>
 5   0  0.2405022E-03  0.9361749E+03  0.7818609E-02  0.9381458E-01
        1   -1    0    0  501    0  0.00000000000E+00  0.00000000000E+00  0.18789255611E+03  0.18789255618E+03  0.50400001928E-02 0.  1.
       -1   -1    0    0    0  501  0.00000000000E+00  0.00000000000E+00 -0.11661232810E+04  0.11661232810E+04  0.50400001928E-02 0. -1.
    10030    2    1    2    0    0  0.00000000000E+00  0.00000000000E+00 -0.97823072491E+03  0.13540158372E+04  0.93617494960E+03 0.  0.
        4    1    3    3  502    0  0.24025445194E+03  0.16555878068E+03  0.40272928588E+02  0.29454275278E+03  0.12699999809E+01 0.  1.
       -4    1    3    3    0  502 -0.24025445194E+03 -0.16555878068E+03 -0.10185036535E+04  0.10594730844E+04  0.12699999809E+01 0. -1.
</event>
<event>
 5   0  0.3895011E-03  0.9978768E+03  0.7818609E-02  0.9310877E-01
        2   -1    0    0  501    0  0.00000000000E+00  0.00000000000E+00  0.12428880849E+04  0.12428880850E+04  0.25500000920E-02 0.  1.
       -2   -1    0    0    0  501  0.00000000000E+00  0.00000000000E+00 -0.20029116853E+03  0.20029116855E+03  0.25500000920E-02 0. -1.
    10030    2    1    2    0    0  0.00000000000E+00  0.00000000000E+00  0.10425969164E+04  0.14431792535E+04  0.99787675974E+03 0.  0.
        2    1    3    3  502    0 -0.72186250778E+02  0.31006265868E+03  0.10769103606E+04  0.11229806908E+04  0.25500000920E-02 0.  1.
       -2    1    3    3    0  502  0.72186250778E+02 -0.31006265868E+03 -0.34313444179E+02  0.32019856272E+03  0.25500000920E-02 0. -1.
</event>
<event>
 5   0  0.2378609E-03  0.9940340E+03  0.7818609E-02  0.9315112E-01
        1   -1    0    0  501    0  0.00000000000E+00  0.00000000000E+00  0.33019532962E+03  0.33019532966E+03  0.50400001928E-02 0.  1.
       -1   -1    0    0    0  501  0.00000000000E+00  0.00000000000E+00 -0.74812058338E+03  0.74812058340E+03  0.50400001928E-02 0. -1.
    10030    2    1    2    0    0  0.00000000000E+00  0.00000000000E+00 -0.41792525377E+03  0.10783159131E+04  0.99403404902E+03 0.  0.
        1    1    3    3  502    0  0.26446433093E+03 -0.15559110530E+03  0.21518235728E+03  0.37477115857E+03  0.50400001928E-02 0.  1.
       -1    1    3    3    0  502 -0.26446433093E+03  0.15559110530E+03 -0.63310761105E+03  0.70354475449E+03  0.50400001928E-02 0. -1.
</event>
<event>
 5   0  0.2313036E-03  0.1025868E+04  0.7818609E-02  0.9280620E-01
        1   -1    0    0  501    0  0.00000000000E+00  0.00000000000E+00  0.54980802389E+03  0.54980802392E+03  0.50400001928E-02 0.  1.
       -1   -1    0    0    0  501  0.00000000000E+00  0.00000000000E+00 -0.47853303510E+03  0.47853303513E+03  0.50400001928E-02 0. -1.
    10030    2    1    2    0    0  0.00000000000E+00  0.00000000000E+00  0.71274988792E+02  0.10283410590E+04  0.10258680274E+04 0.  0.
        3    1    3    3  502    0  0.33681116310E+03 -0.20837982701E+03  0.36236399275E+03  0.53681615599E+03  0.10100000352E+00 0.  1.
       -3    1    3    3    0  502 -0.33681116310E+03  0.20837982701E+03 -0.29108900396E+03  0.49152490305E+03  0.10100000352E+00 0. -1.
</event>
<event>
 5   0  0.3895011E-03  0.9598280E+03  0.7818609E-02  0.9353736E-01
        2   -1    0    0  501    0  0.00000000000E+00  0.00000000000E+00  0.18173361024E+04  0.18173361024E+04  0.25500000920E-02 0. -1.
       -2   -1    0    0    0  501  0.00000000000E+00  0.00000000000E+00 -0.12673353478E+03  0.12673353481E+03  0.25500000920E-02 0.  1.
    10030    2    1    2    0    0  0.00000000000E+00  0.00000000000E+00  0.16906025677E+04  0.19440696372E+04  0.95982795995E+03 0.  0.
        2    1    3    3  502    0  0.94178754502E+02  0.41899558149E+03  0.12791914253E+04  0.13493545263E+04  0.25500000920E-02 0. -1.
       -2    1    3    3    0  502 -0.94178754502E+02 -0.41899558149E+03  0.41141114232E+03  0.59471511091E+03  0.25500000920E-02 0.  1.
</event>
<event>
 5   0  0.4026829E-03  0.1000991E+04  0.7818609E-02  0.9307458E-01
       -2   -1    0    0    0  501  0.00000000000E+00  0.00000000000E+00  0.68179778569E+03  0.68179778570E+03  0.25500000920E-02 0.  1.
        2   -1    0    0  501    0  0.00000000000E+00  0.00000000000E+00 -0.36740502763E+03  0.36740502763E+03  0.25500000920E-02 0. -1.
    10030    2    1    2    0    0  0.00000000000E+00  0.00000000000E+00  0.31439275807E+03  0.10492028133E+04  0.10009913772E+04 0.  0.
        1    1    3    3  502    0  0.50745065064E+02 -0.69155656293E+02 -0.35964331247E+03  0.36973081918E+03  0.50400001928E-02 0. -1.
       -1    1    3    3    0  502 -0.50745065064E+02  0.69155656293E+02  0.67403607054E+03  0.67947199415E+03  0.50400001928E-02 0.  1.
</event>
<event>
 5   0  0.3873874E-03  0.1002827E+04  0.7818609E-02  0.9305450E-01
       -2   -1    0    0    0  501  0.00000000000E+00  0.00000000000E+00  0.65439731553E+03  0.65439731554E+03  0.25500000920E-02 0. -1.
        2   -1    0    0  501    0  0.00000000000E+00  0.00000000000E+00 -0.38419392070E+03  0.38419392071E+03  0.25500000920E-02 0.  1.
    10030    2    1    2    0    0  0.00000000000E+00  0.00000000000E+00  0.27020339483E+03  0.10385912362E+04  0.10028269449E+04 0.  0.
        5    1    3    3  502    0  0.41810613266E+03 -0.26376455718E+03  0.48396804020E+02  0.49673818097E+03  0.46999998093E+01 0.  1.
       -5    1    3    3    0  502 -0.41810613266E+03  0.26376455718E+03  0.22180659082E+03  0.54185305528E+03  0.46999998093E+01 0. -1.
</event>
<event>
 5   0  0.2405022E-03  0.9950422E+03  0.7818609E-02  0.9313999E-01
        1   -1    0    0  501    0  0.00000000000E+00  0.00000000000E+00  0.46776180196E+03  0.46776180198E+03  0.50400001928E-02 0.  1.
       -1   -1    0    0    0  501  0.00000000000E+00  0.00000000000E+00 -0.52917371088E+03  0.52917371090E+03  0.50400001928E-02 0. -1.
    10030    2    1    2    0    0  0.00000000000E+00  0.00000000000E+00 -0.61411908925E+02  0.99693551289E+03  0.99504220729E+03 0.  0.
        4    1    3    3  502    0 -0.74763539725E+02 -0.47187437899E+03 -0.16978874614E+03  0.50703535146E+03  0.12699999809E+01 0. -1.
       -4    1    3    3    0  502  0.74763539725E+02  0.47187437899E+03  0.10837683721E+03  0.48990016142E+03  0.12699999809E+01 0.  1.
</event>
<event>
 5   0  0.2378609E-03  0.9814437E+03  0.7818609E-02  0.9329134E-01
        1   -1    0    0  501    0  0.00000000000E+00  0.00000000000E+00  0.68459799827E+03  0.68459799829E+03  0.50400001928E-02 0. -1.
       -1   -1    0    0    0  501  0.00000000000E+00  0.00000000000E+00 -0.35175084059E+03  0.35175084062E+03  0.50400001928E-02 0.  1.
    10030    2    1    2    0    0  0.00000000000E+00  0.00000000000E+00  0.33284715768E+03  0.10363488389E+04  0.98144367415E+03 0.  0.
        1    1    3    3  502    0  0.10295610978E+02  0.47607958818E+03  0.41259119900E+02  0.47797498772E+03  0.50400001928E-02 0.  1.
       -1    1    3    3    0  502 -0.10295610978E+02 -0.47607958818E+03  0.29158803778E+03  0.55837385119E+03  0.50400001928E-02 0. -1.
</event>
<event>
 5   0  0.2313036E-03  0.1002873E+04  0.7818609E-02  0.9305399E-01
       -1   -1    0    0    0  501  0.00000000000E+00  0.00000000000E+00  0.63123390949E+03  0.63123390951E+03  0.50400001928E-02 0. -1.
        1   -1    0    0  501    0  0.00000000000E+00  0.00000000000E+00 -0.39832893908E+03  0.39832893912E+03  0.50400001928E-02 0.  1.
    10030    2    1    2    0    0  0.00000000000E+00  0.00000000000E+00  0.23290497041E+03  0.10295628486E+04  0.10028733390E+04 0.  0.
        3    1    3    3  502    0 -0.83145780668E+02 -0.47447791111E+03 -0.26524213216E+02  0.48243761572E+03  0.10100000352E+00 0. -1.
       -3    1    3    3    0  502  0.83145780668E+02  0.47447791111E+03  0.25942918363E+03  0.54712523291E+03  0.10100000352E+00 0.  1.
</event>
<event>
 5   0  0.4140860E-03  0.9904019E+03  0.7818609E-02  0.9319135E-01
        2   -1    0    0  501    0  0.00000000000E+00  0.00000000000E+00  0.44029070105E+03  0.44029070106E+03  0.25500000920E-02 0. -1.
       -2   -1    0    0    0  501  0.00000000000E+00  0.00000000000E+00 -0.55695925823E+03  0.55695925823E+03  0.25500000920E-02 0.  1.
    10030    2    1    2    0    0  0.00000000000E+00  0.00000000000E+00 -0.11666855717E+03  0.99724995929E+03  0.99040190281E+03 0.  0.
        3    1    3    3  502    0 -0.15250899566E+01  0.35657750309E+03 -0.40432937128E+03  0.53910304423E+03  0.10100000352E+00 0.  1.
       -3    1    3    3    0  502  0.15250899566E+01 -0.35657750309E+03  0.28766081411E+03  0.45814691507E+03  0.10100000352E+00 0. -1.
</event>
<event>
 5   0  0.3895011E-03  0.9961623E+03  0.7818609E-02  0.9312764E-01
        2   -1    0    0  501    0  0.00000000000E+00  0.00000000000E+00  0.13455166339E+04  0.13455166339E+04  0.25500000920E-02 0. -1.
       -2   -1    0    0    0  501  0.00000000000E+00  0.00000000000E+00 -0.18437886321E+03  0.18437886323E+03  0.25500000920E-02 0.  1.
    10030    2    1    2    0    0  0.00000000000E+00  0.00000000000E+00  0.11611377706E+04  0.15298954971E+04  0.99616229079E+03 0.  0.
        2    1    3    3  502    0 -0.15978431633E+03  0.43224828084E+03  0.87080961278E+03  0.98523042267E+03  0.25500000920E-02 0. -1.
       -2    1    3    3    0  502  0.15978431633E+03 -0.43224828084E+03  0.29032815786E+03  0.54466507442E+03  0.25500000920E-02 0.  1.
</event>
<event>
 5   0  0.1548000E-03  0.1009161E+04  0.7818609E-02  0.9298553E-01
        4   -1    0    0  501    0  0.00000000000E+00  0.00000000000E+00  0.32182158643E+03  0.32182409231E+03  0.12699999809E+01 0. -1.
       -4   -1    0    0    0  501  0.00000000000E+00  0.00000000000E+00 -0.79112071643E+03  0.79112173580E+03  0.12699999809E+01 0.  1.
    10030    2    1    2    0    0  0.00000000000E+00  0.00000000000E+00 -0.46929912999E+03  0.11129458281E+04  0.10091614058E+04 0.  0.
        1    1    3    3  502    0  0.37635660967E+03 -0.20232652541E+03  0.61317964529E+02  0.43167141824E+03  0.50400001928E-02 0. -1.
       -1    1    3    3    0  502 -0.37635660967E+03  0.20232652541E+03 -0.53061709452E+03  0.68127440988E+03  0.50400001928E-02 0.  1.
</event>
<event>
 5   0  0.2350769E-03  0.1000287E+04  0.7818609E-02  0.9308230E-01
       -1   -1    0    0    0  501  0.00000000000E+00  0.00000000000E+00  0.13525793314E+03  0.13525793324E+03  0.50400001928E-02 0.  1.
        1   -1    0    0  501    0  0.00000000000E+00  0.00000000000E+00 -0.18493802142E+04  0.18493802143E+04  0.50400001928E-02 0. -1.
    10030    2    1    2    0    0  0.00000000000E+00  0.00000000000E+00 -0.17141222811E+04  0.19846381475E+04  0.10002866499E+04 0.  0.
        2    1    3    3  502    0  0.20905356907E+02  0.73145937284E+02 -0.18378338009E+04  0.18394076334E+04  0.25500000920E-02 0. -1.
       -2    1    3    3    0  502 -0.20905356907E+02 -0.73145937284E+02  0.12371151979E+03  0.14523051409E+03  0.25500000920E-02 0.  1.
</event>
<event>
 5   0  0.3826483E-03  0.9988970E+03  0.7818609E-02  0.9309755E-01
       -2   -1    0    0    0  501  0.00000000000E+00  0.00000000000E+00  0.15591638404E+03  0.15591638407E+03  0.25500000920E-02 0. -1.
        2   -1    0    0  501    0  0.00000000000E+00  0.00000000000E+00 -0.15998882711E+04  0.15998882711E+04  0.25500000920E-02 0.  1.
    10030    2    1    2    0    0  0.00000000000E+00  0.00000000000E+00 -0.14439718870E+04  0.17558046552E+04  0.99889697992E+03 0.  0.
        4    1    3    3  502    0  0.48049094238E+03 -0.20957400101E+01 -0.48244707880E+03  0.68090581917E+03  0.12699999809E+01 0.  1.
       -4    1    3    3    0  502 -0.48049094238E+03  0.20957400101E+01 -0.96152480824E+03  0.10748988360E+04  0.12699999809E+01 0. -1.
</event>
<event>
 5   0  0.2313036E-03  0.9950553E+03  0.7818609E-02  0.9313985E-01
       -1   -1    0    0    0  501  0.00000000000E+00  0.00000000000E+00  0.20132994473E+03  0.20132994479E+03  0.50400001928E-02 0.  1.
        1   -1    0    0  501    0  0.00000000000E+00  0.00000000000E+00 -0.12294929977E+04  0.12294929977E+04  0.50400001928E-02 0. -1.
    10030    2    1    2    0    0  0.00000000000E+00  0.00000000000E+00 -0.10281630529E+04  0.14308229425E+04  0.99505528955E+03 0.  0.
        3    1    3    3  502    0 -0.79868400883E+02 -0.48168999718E+03 -0.37668905156E+03  0.61668376548E+03  0.10100000352E+00 0.  1.
       -3    1    3    3    0  502  0.79868400883E+02  0.48168999718E+03 -0.65147400137E+03  0.81413917698E+03  0.10100000352E+00 0. -1.
</event>
<event>
 5   0  0.4026829E-03  0.9908087E+03  0.7818609E-02  0.9318683E-01
       -2   -1    0    0    0  501  0.00000000000E+00  0.00000000000E+00  0.14168965412E+03  0.14168965415E+03  0.25500000920E-02 0.  1.
        2   -1    0    0  501    0  0.00000000000E+00  0.00000000000E+00 -0.17321341768E+04  0.17321341768E+04  0.25500000920E-02 0. -1.
    10030    2    1    2    0    0  0.00000000000E+00  0.00000000000E+00 -0.15904445227E+04  0.18738238310E+04  0.99080874529E+03 0.  0.
        1    1    3    3  502    0 -0.44799961927E+03  0.13566638849E+03 -0.11020203849E+04  0.11973128065E+04  0.50400001928E-02 0.  1.
       -1    1    3    3    0  502  0.44799961927E+03 -0.13566638849E+03 -0.48842413778E+03  0.67651102447E+03  0.50400001928E-02 0. -1.
</event>
<event>
 5   0  0.1548000E-03  0.9993492E+03  0.7818609E-02  0.9309259E-01
        4   -1    0    0  501    0  0.00000000000E+00  0.00000000000E+00  0.57549786575E+03  0.57549926706E+03  0.12699999809E+01 0. -1.
       -4   -1    0    0    0  501  0.00000000000E+00  0.00000000000E+00 -0.43383833929E+03  0.43384019815E+03  0.12699999809E+01 0.  1.
    10030    2    1    2    0    0  0.00000000000E+00  0.00000000000E+00  0.14165952647E+03  0.10093394652E+04  0.99934915550E+03 0.  0.
        3    1    3    3  502    0 -0.52316361059E+02  0.40174923603E+03  0.36621752708E+03  0.54612703433E+03  0.10100000352E+00 0. -1.
       -3    1    3    3    0  502  0.52316361059E+02 -0.40174923603E+03 -0.22455800062E+03  0.46321243088E+03  0.10100000352E+00 0.  1.
</event>
<event>
 5   0  0.2405022E-03  0.9999631E+03  0.7818609E-02  0.9308585E-01
        1   -1    0    0  501    0  0.00000000000E+00  0.00000000000E+00  0.25898582233E+04  0.25898582233E+04  0.50400001928E-02 0.  1.
       -1   -1    0    0    0  501  0.00000000000E+00  0.00000000000E+00 -0.96523259908E+02  0.96523260040E+02  0.50400001928E-02 0. -1.
    10030    2    1    2    0    0  0.00000000000E+00  0.00000000000E+00  0.24933349633E+04  0.26863814833E+04  0.99996311650E+03 0.  0.
        4    1    3    3  502    0 -0.44426696941E+03  0.35641799209E+02  0.63797674083E+03  0.77824123040E+03  0.12699999809E+01 0. -1.
       -4    1    3    3    0  502  0.44426696941E+03 -0.35641799209E+02  0.18553582225E+04  0.19081402529E+04  0.12699999809E+01 0.  1.
</event>
<event>
 5   0  0.3826483E-03  0.1010246E+04  0.7818609E-02  0.9297378E-01
        2   -1    0    0  501    0  0.00000000000E+00  0.00000000000E+00  0.21022739177E+04  0.21022739177E+04  0.25500000920E-02 0.  1.
       -2   -1    0    0    0  501  0.00000000000E+00  0.00000000000E+00 -0.12136817635E+03  0.12136817638E+03  0.25500000920E-02 0. -1.
    10030    2    1    2    0    0  0.00000000000E+00  0.00000000000E+00  0.19809057413E+04  0.22236420940E+04  0.10102458148E+04 0.  0.
        4    1    3    3  502    0 -0.49232367566E+03  0.71548702290E+02  0.79798996877E+03  0.94036770552E+03  0.12699999809E+01 0. -1.
       -4    1    3    3    0  502  0.49232367566E+03 -0.71548702290E+02  0.11829157725E+04  0.12832743885E+04  0.12699999809E+01 0.  1.
</event>
<event>
 5   0  0.3895011E-03  0.9995571E+03  0.7818609E-02  0.9309031E-01
       -2   -1    0    0    0  501  0.00000000000E+00  0.00000000000E+00  0.59345245031E+03  0.59345245031E+03  0.25500000920E-02 0. -1.
        2   -1    0    0  501    0  0.00000000000E+00  0.00000000000E+00 -0.42089067815E+03  0.42089067815E+03  0.25500000920E-02 0.  1.
    10030    2    1    2    0    0  0.00000000000E+00  0.00000000000E+00  0.17256177216E+03  0.10143431285E+04  0.99955711045E+03 0.  0.
        2    1    3    3  502    0  0.29398448365E+03  0.30116106949E+03  0.35981170132E+03  0.55370509011E+03  0.25500000920E-02 0. -1.
       -2    1    3    3    0  502 -0.29398448365E+03 -0.30116106949E+03 -0.18724992916E+03  0.46063803835E+03  0.25500000920E-02 0.  1.
</event>
<event>
 5   0  0.2327595E-03  0.9974942E+03  0.7818609E-02  0.9311297E-01
       -1   -1    0    0    0  501  0.00000000000E+00  0.00000000000E+00  0.47753608625E+03  0.47753608628E+03  0.50400001928E-02 0.  1.
        1   -1    0    0  501    0  0.00000000000E+00  0.00000000000E+00 -0.52090021040E+03  0.52090021043E+03  0.50400001928E-02 0. -1.
    10030    2    1    2    0    0  0.00000000000E+00  0.00000000000E+00 -0.43364124150E+02  0.99843629671E+03  0.99749415603E+03 0.  0.
        5    1    3    3  502    0  0.41794379223E+03 -0.23187727785E+03  0.12086899674E+03  0.49302686521E+03  0.46999998093E+01 0.  1.
       -5    1    3    3    0  502 -0.41794379223E+03  0.23187727785E+03 -0.16423312089E+03  0.50540943150E+03  0.46999998093E+01 0. -1.
</event>
<event>
 5   0  0.3873874E-03  0.9967268E+03  0.7818609E-02  0.9312142E-01
        2   -1    0    0  501    0  0.00000000000E+00  0.00000000000E+00  0.69052041632E+03  0.69052041632E+03  0.25500000920E-02 0.  1.
       -2   -1    0    0    0  501  0.00000000000E+00  0.00000000000E+00 -0.35967952888E+03  0.35967952889E+03  0.25500000920E-02 0. -1.
    10030    2    1    2    0    0  0.00000000000E+00  0.00000000000E+00  0.33084088743E+03  0.10501999452E+04  0.99672675901E+03 0.  0.
        5    1    3    3  502    0  0.48532913103E+03 -0.52513790533E+02  0.27100585474E+03  0.55836218257E+03  0.46999998093E+01 0.  1.
       -5    1    3    3    0  502 -0.48532913103E+03  0.52513790533E+02  0.59835032695E+02  0.49183776264E+03  0.46999998093E+01 0. -1.
</event>
<event>
 5   0  0.3895011E-03  0.1002968E+04  0.7818609E-02  0.9305295E-01
        2   -1    0    0  501    0  0.00000000000E+00  0.00000000000E+00  0.11154859886E+04  0.11154859886E+04  0.25500000920E-02 0. -1.
       -2   -1    0    0    0  501  0.00000000000E+00  0.00000000000E+00 -0.22545004181E+03  0.22545004182E+03  0.25500000920E-02 0.  1.
    10030    2    1    2    0    0  0.00000000000E+00  0.00000000000E+00  0.89003594682E+03  0.13409360304E+04  0.10029683201E+04 0.  0.
        2    1    3    3  502    0  0.26514388796E+03 -0.41612318876E+03  0.32523752602E+03  0.59096466720E+03  0.25500000920E-02 0. -1.
       -2    1    3    3    0  502 -0.26514388796E+03  0.41612318876E+03  0.56479842080E+03  0.74997136324E+03  0.25500000920E-02 0.  1.
</event>
<event>
 5   0  0.3873874E-03  0.9977128E+03  0.7818609E-02  0.9311057E-01
       -2   -1    0    0    0  501  0.00000000000E+00  0.00000000000E+00  0.29572116280E+03  0.29572116281E+03  0.25500000920E-02 0. -1.
        2   -1    0    0  501    0  0.00000000000E+00  0.00000000000E+00 -0.84152827764E+03  0.84152827765E+03  0.25500000920E-02 0.  1.
    10030    2    1    2    0    0  0.00000000000E+00  0.00000000000E+00 -0.54580711485E+03  0.11372494405E+04  0.99771282602E+03 0.  0.
        5    1    3    3  502    0 -0.11319342008E+03 -0.14810503687E+03 -0.80031083032E+03  0.82174653478E+03  0.46999998093E+01 0.  1.
       -5    1    3    3    0  502  0.11319342008E+03  0.14810503687E+03  0.25450371548E+03  0.31550290567E+03  0.46999998093E+01 0. -1.
</event>
<event>
 5   0  0.2313036E-03  0.9993895E+03  0.7818609E-02  0.9309215E-01
       -1   -1    0    0    0  501  0.00000000000E+00  0.00000000000E+00  0.15805304183E+03  0.15805304191E+03  0.50400001928E-02 0.  1.
        1   -1    0    0  501    0  0.00000000000E+00  0.00000000000E+00 -0.15798167790E+04  0.15798167790E+04  0.50400001928E-02 0. -1.
    10030    2    1    2    0    0  0.00000000000E+00  0.00000000000E+00 -0.14217637372E+04  0.17378698209E+04  0.99938950871E+03 0.  0.
        3    1    3    3  502    0  0.50330552068E+02  0.42761583989E+03 -0.11518522706E+04  0.12296959521E+04  0.10100000352E+00 0. -1.
       -3    1    3    3    0  502 -0.50330552068E+02 -0.42761583989E+03 -0.26991146653E+03  0.50817386883E+03  0.10100000352E+00 0.  1.
</event>
<event>
 5   0  0.4026829E-03  0.9806304E+03  0.7818609E-02  0.9330048E-01
        2   -1    0    0  501    0  0.00000000000E+00  0.00000000000E+00  0.18802225003E+04  0.18802225003E+04  0.25500000920E-02 0. -1.
       -2   -1    0    0    0  501  0.00000000000E+00  0.00000000000E+00 -0.12786200437E+03  0.12786200440E+03  0.25500000920E-02 0.  1.
    10030    2    1    2    0    0  0.00000000000E+00  0.00000000000E+00  0.17523604960E+04  0.20080845047E+04  0.98063044535E+03 0.  0.
        1    1    3    3  502    0  0.56181824788E+02  0.33846090583E+03  0.15889269755E+03  0.37809928798E+03  0.50400001928E-02 0.  1.
       -1    1    3    3    0  502 -0.56181824788E+02 -0.33846090583E+03  0.15934677984E+04  0.16299852167E+04  0.50400001928E-02 0. -1.
</event>
<event>
 5   0  0.2313036E-03  0.9741507E+03  0.7818609E-02  0.9337359E-01
       -1   -1    0    0    0  501  0.00000000000E+00  0.00000000000E+00  0.57501480301E+03  0.57501480303E+03  0.50400001928E-02 0. -1.
        1   -1    0    0  501    0  0.00000000000E+00  0.00000000000E+00 -0.41258483615E+03  0.41258483618E+03  0.50400001928E-02 0.  1.
    10030    2    1    2    0    0  0.00000000000E+00  0.00000000000E+00  0.16242996686E+03  0.98759963921E+03  0.97415068303E+03 0.  0.
        3    1    3    3  502    0  0.32795874334E+03 -0.35910867009E+03  0.10853895663E+03  0.49829377838E+03  0.10100000352E+00 0. -1.
       -3    1    3    3    0  502 -0.32795874334E+03  0.35910867009E+03  0.53891010226E+02  0.48930586084E+03  0.10100000352E+00 0.  1.
</event>
<event>
 5   0  0.3895011E-03  0.1000245E+04  0.7818609E-02  0.9308276E-01
        2   -1    0    0  501    0  0.00000000000E+00  0.00000000000E+00  0.45455322307E+03  0.45455322307E+03  0.25500000920E-02 0.  1.
       -2   -1    0    0    0  501  0.00000000000E+00  0.00000000000E+00 -0.55026046604E+03  0.55026046604E+03  0.25500000920E-02 0. -1.
    10030    2    1    2    0    0  0.00000000000E+00  0.00000000000E+00 -0.95707242972E+02  0.10048136891E+04  0.10002453067E+04 0.  0.
        2    1    3    3  502    0  0.33262747173E+03  0.10776218009E+03 -0.40707449402E+03  0.53662218189E+03  0.25500000920E-02 0. -1.
       -2    1    3    3    0  502 -0.33262747173E+03 -0.10776218009E+03  0.31136725105E+03  0.46819150723E+03  0.25500000920E-02 0.  1.
</event>
<event>
 5   0  0.4140860E-03  0.9955689E+03  0.7818609E-02  0.9313418E-01
       -2   -1    0    0    0  501  0.00000000000E+00  0.00000000000E+00  0.43675305246E+03  0.43675305246E+03  0.25500000920E-02 0. -1.
        2   -1    0    0  501    0  0.00000000000E+00  0.00000000000E+00 -0.56734426362E+03  0.56734426363E+03  0.25500000920E-02 0.  1.
    10030    2    1    2    0    0  0.00000000000E+00  0.00000000000E+00 -0.13059121116E+03  0.10040973161E+04  0.99556886037E+03 0.  0.
        3    1    3    3  502    0 -0.31987056190E+03 -0.59032407135E+02 -0.44533559222E+03  0.55147602066E+03  0.10100000352E+00 0.  1.
       -3    1    3    3    0  502  0.31987056190E+03  0.59032407135E+02  0.31474438106E+03  0.45262129543E+03  0.10100000352E+00 0. -1.
</event>
<event>
 5   0  0.4026829E-03  0.9894580E+03  0.7818609E-02  0.9320183E-01
        2   -1    0    0  501    0  0.00000000000E+00  0.00000000000E+00  0.10843014675E+04  0.10843014675E+04  0.25500000920E-02 0. -1.
       -2   -1    0    0    0  501  0.00000000000E+00  0.00000000000E+00 -0.22572762150E+03  0.22572762151E+03  0.25500000920E-02 0.  1.
    10030    2    1    2    0    0  0.00000000000E+00  0.00000000000E+00  0.85857384597E+03  0.13100290890E+04  0.98945801579E+03 0.  0.
        1    1    3    3  502    0 -0.29241481203E+03  0.20163733424E+03 -0.26658274893E+02  0.35619475081E+03  0.50400001928E-02 0.  1.
       -1    1    3    3    0  502  0.29241481203E+03 -0.20163733424E+03  0.88523212087E+03  0.95383433818E+03  0.50400001928E-02 0. -1.
</event>
<event>
 5   0  0.3873874E-03  0.9990549E+03  0.7818609E-02  0.9309582E-01
        2   -1    0    0  501    0  0.00000000000E+00  0.00000000000E+00  0.10748034152E+04  0.10748034152E+04  0.25500000920E-02 0. -1.
       -2   -1    0    0    0  501  0.00000000000E+00  0.00000000000E+00 -0.23216122954E+03  0.23216122956E+03  0.25500000920E-02 0.  1.
    10030    2    1    2    0    0  0.00000000000E+00  0.00000000000E+00  0.84264218563E+03  0.13069646447E+04  0.99905491820E+03 0.  0.
        5    1    3    3  502    0 -0.27267817372E+03 -0.31510975138E+03  0.61011921972E+02  0.42117939937E+03  0.46999998093E+01 0.  1.
       -5    1    3    3    0  502  0.27267817372E+03  0.31510975138E+03  0.78163026365E+03  0.88578524536E+03  0.46999998093E+01 0. -1.
</event>
<event>
 5   0  0.2405022E-03  0.1001663E+04  0.7818609E-02  0.9306722E-01
        1   -1    0    0  501    0  0.00000000000E+00  0.00000000000E+00  0.57398283350E+03  0.57398283353E+03  0.50400001928E-02 0. -1.
       -1   -1    0    0    0  501  0.00000000000E+00  0.00000000000E+00 -0.43700336790E+03  0.43700336793E+03  0.50400001928E-02 0.  1.
    10030    2    1    2    0    0  0.00000000000E+00  0.00000000000E+00  0.13697946560E+03  0.10109862015E+04  0.10016634792E+04 0.  0.
        4    1    3    3  502    0 -0.30138398829E+03 -0.39817907535E+03  0.10694863051E+03  0.51070393274E+03  0.12699999809E+01 0. -1.
       -4    1    3    3    0  502  0.30138398829E+03  0.39817907535E+03  0.30030835090E+02  0.50028226872E+03  0.12699999809E+01 0.  1.
</event>
<event>
 5   0  0.2327595E-03  0.9833110E+03  0.7818609E-02  0.9327041E-01
       -1   -1    0    0    0  501  0.00000000000E+00  0.00000000000E+00  0.34698979142E+03  0.34698979146E+03  0.50400001928E-02 0. -1.
        1   -1    0    0  501    0  0.00000000000E+00  0.00000000000E+00 -0.69663467448E+03  0.69663467450E+03  0.50400001928E-02 0.  1.
    10030    2    1    2    0    0  0.00000000000E+00  0.00000000000E+00 -0.34964488306E+03  0.10436244660E+04  0.98331097914E+03 0.  0.
        5    1    3    3  502    0  0.71796084348E+02 -0.44026210121E+02  0.33925277299E+03  0.34958192014E+03  0.46999998093E+01 0. -1.
       -5    1    3    3    0  502 -0.71796084348E+02  0.44026210121E+02 -0.68889765605E+03  0.69404254582E+03  0.46999998093E+01 0.  1.
</event>
<event>
 5   0  0.1548000E-03  0.1001394E+04  0.7818609E-02  0.9307017E-01
        3   -1    0    0  501    0  0.00000000000E+00  0.00000000000E+00  0.11663314383E+04  0.11663314427E+04  0.10100000352E+00 0.  1.
       -3   -1    0    0    0  501  0.00000000000E+00  0.00000000000E+00 -0.21494531569E+03  0.21494533941E+03  0.10100000352E+00 0. -1.
    10030    2    1    2    0    0  0.00000000000E+00  0.00000000000E+00  0.95138612261E+03  0.13812767821E+04  0.10013940256E+04 0.  0.
        3    1    3    3  502    0  0.39111240512E+02  0.44069460904E+03  0.79905098952E+03  0.91335859421E+03  0.10100000352E+00 0.  1.
       -3    1    3    3    0  502 -0.39111240512E+02 -0.44069460904E+03  0.15233513309E+03  0.46791818787E+03  0.10100000352E+00 0. -1.
</event>
<event>
 5   0  0.3826483E-03  0.9951635E+03  0.7818609E-02  0.9313865E-01
        2   -1    0    0  501    0  0.00000000000E+00  0.00000000000E+00  0.48408362941E+03  0.48408362942E+03  0.25500000920E-02 0. -1.
       -2   -1    0    0    0  501  0.00000000000E+00  0.00000000000E+00 -0.51145622640E+03  0.51145622641E+03  0.25500000920E-02 0.  1.
    10030    2    1    2    0    0  0.00000000000E+00  0.00000000000E+00 -0.27372596988E+02  0.99553985583E+03  0.99516347676E+03 0.  0.
        4    1    3    3  502    0 -0.39607680223E+03  0.30098980663E+03 -0.24380360458E+02  0.49806396360E+03  0.12699999809E+01 0. -1.
       -4    1    3    3    0  502  0.39607680223E+03 -0.30098980663E+03 -0.29922365304E+01  0.49747589222E+03  0.12699999809E+01 0.  1.
</event>
<event>
 5   0  0.2405022E-03  0.1010788E+04  0.7818609E-02  0.9296792E-01
        1   -1    0    0  501    0  0.00000000000E+00  0.00000000000E+00  0.11381304453E+04  0.11381304453E+04  0.50400001928E-02 0.  1.
       -1   -1    0    0    0  501  0.00000000000E+00  0.00000000000E+00 -0.22442327201E+03  0.22442327207E+03  0.50400001928E-02 0. -1.
    10030    2    1    2    0    0  0.00000000000E+00  0.00000000000E+00  0.91370717326E+03  0.13625537174E+04  0.10107877296E+04 0.  0.
        4    1    3    3  502    0  0.15127623225E+03  0.42806254416E+03  0.75615865584E+03  0.88198614833E+03  0.12699999809E+01 0.  1.
       -4    1    3    3    0  502 -0.15127623225E+03 -0.42806254416E+03  0.15754851743E+03  0.48056756902E+03  0.12699999809E+01 0. -1.
</event>
<event>
 5   0  0.1548000E-03  0.9969728E+03  0.7818609E-02  0.9311871E-01
       -3   -1    0    0    0  501  0.00000000000E+00  0.00000000000E+00  0.28381329554E+03  0.28381331351E+03  0.10100000352E+00 0. -1.
        3   -1    0    0  501    0  0.00000000000E+00  0.00000000000E+00 -0.87553580014E+03  0.87553580596E+03  0.10100000352E+00 0.  1.
    10030    2    1    2    0    0  0.00000000000E+00  0.00000000000E+00 -0.59172250460E+03  0.11593491195E+04  0.99697284737E+03 0.  0.
        3    1    3    3  502    0 -0.15223278056E+03 -0.44147354246E+03 -0.49866444582E+03  0.68318368533E+03  0.10100000352E+00 0.  1.
       -3    1    3    3    0  502  0.15223278056E+03  0.44147354246E+03 -0.93058058772E+02  0.47616543415E+03  0.10100000352E+00 0. -1.
</event>
<event>
 5   0  0.2378609E-03  0.9992852E+03  0.7818609E-02  0.9309329E-01
        1   -1    0    0  501    0  0.00000000000E+00  0.00000000000E+00  0.67427329533E+03  0.67427329535E+03  0.50400001928E-02 0.  1.
       -1   -1    0    0    0  501  0.00000000000E+00  0.00000000000E+00 -0.37023968433E+03  0.37023968436E+03  0.50400001928E-02 0. -1.
    10030    2    1    2    0    0  0.00000000000E+00  0.00000000000E+00  0.30403361101E+03  0.10445129797E+04  0.99928520862E+03 0.  0.
        1    1    3    3  502    0  0.86775581731E+02 -0.51895544246E+02 -0.35943441231E+03  0.37338484955E+03  0.50400001928E-02 0. -1.
       -1    1    3    3    0  502 -0.86775581731E+02  0.51895544246E+02  0.66346802332E+03  0.67112813016E+03  0.50400001928E-02 0.  1.
</event>
<event>
 5   0  0.4026829E-03  0.1000021E+04  0.7818609E-02  0.9308522E-01
        2   -1    0    0  501    0  0.00000000000E+00  0.00000000000E+00  0.15393528380E+04  0.15393528380E+04  0.25500000920E-02 0. -1.
       -2   -1    0    0    0  501  0.00000000000E+00  0.00000000000E+00 -0.16241278721E+03  0.16241278723E+03  0.25500000920E-02 0.  1.
    10030    2    1    2    0    0  0.00000000000E+00  0.00000000000E+00  0.13769400508E+04  0.17017656253E+04  0.10000211697E+04 0.  0.
        1    1    3    3  502    0 -0.24800716135E+03  0.46648826127E+01 -0.50326177699E+02  0.25310479529E+03  0.50400001928E-02 0.  1.
       -1    1    3    3    0  502  0.24800716135E+03 -0.46648826127E+01  0.14272662285E+04  0.14486608300E+04  0.50400001928E-02 0. -1.
</event>
<event>
 5   0  0.2327595E-03  0.9911082E+03  0.7818609E-02  0.9318351E-01
       -1   -1    0    0    0  501  0.00000000000E+00  0.00000000000E+00  0.62249139897E+03  0.62249139899E+03  0.50400001928E-02 0.  1.
        1   -1    0    0  501    0  0.00000000000E+00  0.00000000000E+00 -0.39450158933E+03  0.39450158936E+03  0.50400001928E-02 0. -1.
    10030    2    1    2    0    0  0.00000000000E+00  0.00000000000E+00  0.22798980965E+03  0.10169929884E+04  0.99110816012E+03 0.  0.
        5    1    3    3  502    0  0.44317836472E+03 -0.14744386520E+03  0.28386299711E+03  0.54657757681E+03  0.46999998093E+01 0.  1.
       -5    1    3    3    0  502 -0.44317836472E+03  0.14744386520E+03 -0.55873187464E+02  0.47041541155E+03  0.46999998093E+01 0. -1.
</event>
<event>
 5   0  0.3826483E-03  0.1009531E+04  0.7818609E-02  0.9298153E-01
       -2   -1    0    0    0  501  0.00000000000E+00  0.00000000000E+00  0.24160192825E+03  0.24160192827E+03  0.25500000920E-02 0.  1.
        2   -1    0    0  501    0  0.00000000000E+00  0.00000000000E+00 -0.10545786085E+04  0.10545786085E+04  0.25500000920E-02 0. -1.
    10030    2    1    2    0    0  0.00000000000E+00  0.00000000000E+00 -0.81297668020E+03  0.12961805367E+04  0.10095310303E+04 0.  0.
        4    1    3    3  502    0  0.46330896983E+03 -0.19522281156E+03 -0.34878991492E+03  0.61190127090E+03  0.12699999809E+01 0.  1.
       -4    1    3    3    0  502 -0.46330896983E+03  0.19522281156E+03 -0.46418676528E+03  0.68427926583E+03  0.12699999809E+01 0. -1.
</event>
<event>
 5   0  0.4026829E-03  0.1000820E+04  0.7818609E-02  0.9307646E-01
       -2   -1    0    0    0  501  0.00000000000E+00  0.00000000000E+00  0.23189658722E+03  0.23189658723E+03  0.25500000920E-02 0.  1.
        2   -1    0    0  501    0  0.00000000000E+00  0.00000000000E+00 -0.10798359951E+04  0.10798359951E+04  0.25500000920E-02 0. -1.
    10030    2    1    2    0    0  0.00000000000E+00  0.00000000000E+00 -0.84793940787E+03  0.13117325823E+04  0.10008202277E+04 0.  0.
        1    1    3    3  502    0  0.41119201727E+03  0.22744252574E+03 -0.19847068515E+03  0.51009762837E+03  0.50400001928E-02 0.  1.
       -1    1    3    3    0  502 -0.41119201727E+03 -0.22744252574E+03 -0.64946872272E+03  0.80163495395E+03  0.50400001928E-02 0. -1.
</event>
<event>
 5   0  0.4140860E-03  0.9966493E+03  0.7818609E-02  0.9312227E-01
       -2   -1    0    0    0  501  0.00000000000E+00  0.00000000000E+00  0.88160752530E+02  0.88160752567E+02  0.25500000920E-02 0.  1.
        2   -1    0    0  501    0  0.00000000000E+00  0.00000000000E+00 -0.28167577340E+04  0.28167577340E+04  0.25500000920E-02 0. -1.
    10030    2    1    2    0    0  0.00000000000E+00  0.00000000000E+00 -0.27285969815E+04  0.29049184866E+04  0.99664934973E+03 0.  0.
        3    1    3    3  502    0  0.81247262027E+02  0.45793383909E+03 -0.18858800764E+04  0.19423820920E+04  0.10100000352E+00 0. -1.
       -3    1    3    3    0  502 -0.81247262027E+02 -0.45793383909E+03 -0.84271690507E+03  0.96253639456E+03  0.10100000352E+00 0.  1.
</event>
<event>
 5   0  0.3895011E-03  0.1008044E+04  0.7818609E-02  0.9299766E-01
        2   -1    0    0  501    0  0.00000000000E+00  0.00000000000E+00  0.12031193051E+04  0.12031193051E+04  0.25500000920E-02 0.  1.
       -2   -1    0    0    0  501  0.00000000000E+00  0.00000000000E+00 -0.21114980997E+03  0.21114980999E+03  0.25500000920E-02 0. -1.
    10030    2    1    2    0    0  0.00000000000E+00  0.00000000000E+00  0.99196949514E+03  0.14142691151E+04  0.10080444686E+04 0.  0.
        2    1    3    3  502    0  0.10096846885E+03  0.97286887986E+02 -0.18323726798E+03  0.23072768940E+03  0.25500000920E-02 0. -1.
       -2    1    3    3    0  502 -0.10096846885E+03 -0.97286887986E+02  0.11752067631E+04  0.11835414257E+04  0.25500000920E-02 0.  1.
</event>
<event>
 5   0  0.4026829E-03  0.1008608E+04  0.7818609E-02  0.9299154E-01
        2   -1    0    0  501    0  0.00000000000E+00  0.00000000000E+00  0.10002560626E+04  0.10002560626E+04  0.25500000920E-02 0. -1.
       -2   -1    0    0    0  501  0.00000000000E+00  0.00000000000E+00 -0.25425736315E+03  0.25425736316E+03  0.25500000920E-02 0.  1.
    10030    2    1    2    0    0  0.00000000000E+00  0.00000000000E+00  0.74599869950E+03  0.12545134258E+04  0.10086078901E+04 0.  0.
        1    1    3    3  502    0  0.40401470368E+03  0.25838814579E+03  0.56700991619E+03  0.74262545052E+03  0.50400001928E-02 0.  1.
       -1    1    3    3    0  502 -0.40401470368E+03 -0.25838814579E+03  0.17898878330E+03  0.51188797529E+03  0.50400001928E-02 0. -1.
</event>
<event>
 5   0  0.3873874E-03  0.9937688E+03  0.7818609E-02  0.9315406E-01
       -2   -1    0    0    0  501  0.00000000000E+00  0.00000000000E+00  0.10741547865E+04  0.10741547865E+04  0.25500000920E-02 0.  1.
        2   -1    0    0  501    0  0.00000000000E+00  0.00000000000E+00 -0.22984967575E+03  0.22984967576E+03  0.25500000920E-02 0. -1.
    10030    2    1    2    0    0  0.00000000000E+00  0.00000000000E+00  0.84430511071E+03  0.13040044622E+04  0.99376884512E+03 0.  0.
        5    1    3    3  502    0 -0.20309774828E+03  0.19865811767E+03 -0.11272542009E+03  0.30568423808E+03  0.46999998093E+01 0. -1.
       -5    1    3    3    0  502  0.20309774828E+03 -0.19865811767E+03  0.95703053080E+03  0.99832022415E+03  0.46999998093E+01 0.  1.
</event>
<event>
 5   0  0.3895011E-03  0.1000796E+04  0.7818609E-02  0.9307672E-01
       -2   -1    0    0    0  501  0.00000000000E+00  0.00000000000E+00  0.55194777511E+03  0.55194777511E+03  0.25500000920E-02 0.  1.
        2   -1    0    0  501    0  0.00000000000E+00  0.00000000000E+00 -0.45366270097E+03  0.45366270097E+03  0.25500000920E-02 0. -1.
    10030    2    1    2    0    0  0.00000000000E+00  0.00000000000E+00  0.98285074140E+02  0.10056104761E+04  0.10007959202E+04 0.  0.
        2    1    3    3  502    0  0.16857071920E+03  0.82081122169E+01 -0.42420187815E+03  0.45654210530E+03  0.25500000920E-02 0. -1.
       -2    1    3    3    0  502 -0.16857071920E+03 -0.82081122169E+01  0.52248695229E+03  0.54906837079E+03  0.25500000920E-02 0.  1.
</event>
<event>
 5   0  0.2313036E-03  0.9984893E+03  0.7818609E-02  0.9310203E-01
       -1   -1    0    0    0  501  0.00000000000E+00  0.00000000000E+00  0.41246572882E+03  0.41246572885E+03  0.50400001928E-02 0. -1.
        1   -1    0    0  501    0  0.00000000000E+00  0.00000000000E+00 -0.60428100325E+03  0.60428100327E+03  0.50400001928E-02 0.  1.
    10030    2    1    2    0    0  0.00000000000E+00  0.00000000000E+00 -0.19181527443E+03  0.10167467321E+04  0.99848926774E+03 0.  0.
        3    1    3    3  502    0 -0.14552893171E+03  0.33488412539E+03  0.25078687879E+03  0.44296739855E+03  0.10100000352E+00 0.  1.
       -3    1    3    3    0  502  0.14552893171E+03 -0.33488412539E+03 -0.44260215322E+03  0.57377933358E+03  0.10100000352E+00 0. -1.
</event>
<event>
 5   0  0.2378609E-03  0.9937448E+03  0.7818609E-02  0.9315432E-01
       -1   -1    0    0    0  501  0.00000000000E+00  0.00000000000E+00  0.28122883575E+03  0.28122883579E+03  0.50400001928E-02 0.  1.
        1   -1    0    0  501    0  0.00000000000E+00  0.00000000000E+00 -0.87786934145E+03  0.87786934146E+03  0.50400001928E-02 0. -1.
    10030    2    1    2    0    0  0.00000000000E+00  0.00000000000E+00 -0.59664050570E+03  0.11590981773E+04  0.99374478186E+03 0.  0.
        1    1    3    3  502    0 -0.24529270955E+03 -0.20515631962E+02  0.20511469434E+03  0.32040824329E+03  0.50400001928E-02 0.  1.
       -1    1    3    3    0  502  0.24529270955E+03  0.20515631962E+02 -0.80175520004E+03  0.83868993396E+03  0.50400001928E-02 0. -1.
</event>
<event>
 5   0  0.3895011E-03  0.1004547E+04  0.7818609E-02  0.9303571E-01
        2   -1    0    0  501    0  0.00000000000E+00  0.00000000000E+00  0.64909494938E+03  0.64909494939E+03  0.25500000920E-02 0.  1.
       -2   -1    0    0    0  501  0.00000000000E+00  0.00000000000E+00 -0.38866238502E+03  0.38866238503E+03  0.25500000920E-02 0. -1.
    10030    2    1    2    0    0  0.00000000000E+00  0.00000000000E+00  0.26043256436E+03  0.10377573344E+04  0.10045472436E+04 0.  0.
        2    1    3    3  502    0 -0.49025594820E+03  0.26241874497E+02  0.20696061048E+02  0.49139379084E+03  0.25500000920E-02 0. -1.
       -2    1    3    3    0  502  0.49025594820E+03 -0.26241874497E+02  0.23973650331E+03  0.54636354358E+03  0.25500000920E-02 0.  1.
</event>
<event>
 5   0  0.3873874E-03  0.9945130E+03  0.7818609E-02  0.9314583E-01
       -2   -1    0    0    0  501  0.00000000000E+00  0.00000000000E+00  0.40073973842E+03  0.40073973843E+03  0.25500000920E-02 0. -1.
        2   -1    0    0  501    0  0.00000000000E+00  0.00000000000E+00 -0.61701895866E+03  0.61701895866E+03  0.25500000920E-02 0.  1.
    10030    2    1    2    0    0  0.00000000000E+00  0.00000000000E+00 -0.21627922024E+03  0.10177586971E+04  0.99451297850E+03 0.  0.
        5    1    3    3  502    0  0.47858385704E+03 -0.57432894254E+02  0.16782794012E+02  0.48233266294E+03  0.46999998093E+01 0.  1.
       -5    1    3    3    0  502 -0.47858385704E+03  0.57432894254E+02 -0.23306201425E+03  0.53542603415E+03  0.46999998093E+01 0. -1.
</event>
<event>
 5   0  0.3873874E-03  0.1000712E+04  0.7818609E-02  0.9307764E-01
       -2   -1    0    0    0  501  0.00000000000E+00  0.00000000000E+00  0.75546556700E+02  0.75546556743E+02  0.25500000920E-02 0. -1.
        2   -1    0    0  501    0  0.00000000000E+00  0.00000000000E+00 -0.33139327035E+04  0.33139327035E+04  0.25500000920E-02 0.  1.
    10030    2    1    2    0    0  0.00000000000E+00  0.00000000000E+00 -0.32383861468E+04  0.33894792603E+04  0.10007121563E+04 0.  0.
        5    1    3    3  502    0 -0.97090987721E+02  0.31259541071E+03 -0.33750447156E+03  0.47018497319E+03  0.46999998093E+01 0. -1.
       -5    1    3    3    0  502  0.97090987721E+02 -0.31259541071E+03 -0.29008816753E+04  0.29192942871E+04  0.46999998093E+01 0.  1.
</event>
<event>
 5   0  0.2405022E-03  0.1007405E+04  0.7818609E-02  0.9300460E-01
       -1   -1    0    0    0  501  0.00000000000E+00  0.00000000000E+00  0.57335789854E+03  0.57335789856E+03  0.50400001928E-02 0.  1.
        1   -1    0    0  501    0  0.00000000000E+00  0.00000000000E+00 -0.44250912900E+03  0.44250912903E+03  0.50400001928E-02 0. -1.
    10030    2    1    2    0    0  0.00000000000E+00  0.00000000000E+00  0.13084876954E+03  0.10158670276E+04  0.10074047931E+04 0.  0.
        4    1    3    3  502    0 -0.42749148885E+03 -0.13770396974E+03  0.29538190403E+03  0.53755319592E+03  0.12699999809E+01 0.  1.
       -4    1    3    3    0  502  0.42749148885E+03  0.13770396974E+03 -0.16453313450E+03  0.47831383167E+03  0.12699999809E+01 0. -1.
</event>
<event>
 5   0  0.2327595E-03  0.1005616E+04  0.7818609E-02  0.9302406E-01
       -1   -1    0    0    0  501  0.00000000000E+00  0.00000000000E+00  0.31983829246E+03  0.31983829250E+03  0.50400001928E-02 0.  1.
        1   -1    0    0  501    0  0.00000000000E+00  0.00000000000E+00 -0.79044966086E+03  0.79044966087E+03  0.50400001928E-02 0. -1.
    10030    2    1    2    0    0  0.00000000000E+00  0.00000000000E+00 -0.47061136840E+03  0.11102879534E+04  0.10056163679E+04 0.  0.
        5    1    3    3  502    0 -0.34474748217E+03 -0.41575771309E+02 -0.63676636440E+03  0.72530880599E+03  0.46999998093E+01 0. -1.
       -5    1    3    3    0  502  0.34474748217E+03  0.41575771309E+02  0.16615499600E+03  0.38497914738E+03  0.46999998093E+01 0.  1.
</event>
<event>
 5   0  0.4026829E-03  0.1003894E+04  0.7818609E-02  0.9304284E-01
        2   -1    0    0  501    0  0.00000000000E+00  0.00000000000E+00  0.10946987683E+04  0.10946987683E+04  0.25500000920E-02 0. -1.
       -2   -1    0    0    0  501  0.00000000000E+00  0.00000000000E+00 -0.23015536427E+03  0.23015536428E+03  0.25500000920E-02 0.  1.
    10030    2    1    2    0    0  0.00000000000E+00  0.00000000000E+00  0.86454340406E+03  0.13248541326E+04  0.10038940060E+04 0.  0.
        1    1    3    3  502    0  0.34892570302E+02  0.21088497315E+03  0.10316328459E+04  0.10535446323E+04  0.50400001928E-02 0. -1.
       -1    1    3    3    0  502 -0.34892570302E+02 -0.21088497315E+03 -0.16708944188E+03  0.27130950034E+03  0.50400001928E-02 0.  1.
</event>
<event>
 5   0  0.3826483E-03  0.9978591E+03  0.7818609E-02  0.9310896E-01
        2   -1    0    0  501    0  0.00000000000E+00  0.00000000000E+00  0.87710807203E+03  0.87710807204E+03  0.25500000920E-02 0.  1.
       -2   -1    0    0    0  501  0.00000000000E+00  0.00000000000E+00 -0.28380845030E+03  0.28380845031E+03  0.25500000920E-02 0. -1.
    10030    2    1    2    0    0  0.00000000000E+00  0.00000000000E+00  0.59329962174E+03  0.11609165223E+04  0.99785907357E+03 0.  0.
        4    1    3    3  502    0  0.37462579394E+03  0.29432252870E+03  0.12425014760E+03  0.49235144812E+03  0.12699999809E+01 0. -1.
       -4    1    3    3    0  502 -0.37462579394E+03 -0.29432252870E+03  0.46904947414E+03  0.66856507423E+03  0.12699999809E+01 0.  1.
</event>
<event>
 5   0  0.3895011E-03  0.1011212E+04  0.7818609E-02  0.9296332E-01
        2   -1    0    0  501    0  0.00000000000E+00  0.00000000000E+00  0.11403193842E+04  0.11403193842E+04  0.25500000920E-02 0.  1.
       -2   -1    0    0    0  501  0.00000000000E+00  0.00000000000E+00 -0.22418056526E+03  0.22418056528E+03  0.25500000920E-02 0. -1.
    10030    2    1    2    0    0  0.00000000000E+00  0.00000000000E+00  0.91613881893E+03  0.13644999495E+04  0.10112120334E+04 0.  0.
        2    1    3    3  502    0  0.38236842402E+03  0.16184434992E+03  0.84737687880E+03  0.94363487643E+03  0.25500000920E-02 0.  1.
       -2    1    3    3    0  502 -0.38236842402E+03 -0.16184434992E+03  0.68761940137E+02  0.42086507304E+03  0.25500000920E-02 0. -1.
</event>
<event>
 5   0  0.3895011E-03  0.9986882E+03  0.7818609E-02  0.9309985E-01
        2   -1    0    0  501    0  0.00000000000E+00  0.00000000000E+00  0.81139867591E+03  0.81139867591E+03  0.25500000920E-02 0.  1.
       -2   -1    0    0    0  501  0.00000000000E+00  0.00000000000E+00 -0.30730209661E+03  0.30730209662E+03  0.25500000920E-02 0. -1.
    10030    2    1    2    0    0  0.00000000000E+00  0.00000000000E+00  0.50409657930E+03  0.11187007725E+04  0.99868816815E+03 0.  0.
        2    1    3    3  502    0  0.31904869854E+02  0.89588250328E+02 -0.29706430604E+03  0.31191533666E+03  0.25500000920E-02 0. -1.
       -2    1    3    3    0  502 -0.31904869854E+02 -0.89588250328E+02  0.80116088534E+03  0.80678543586E+03  0.25500000920E-02 0.  1.
</event>
<event>
 5   0  0.1548000E-03  0.9690529E+03  0.7818609E-02  0.9343154E-01
       -4   -1    0    0    0  501  0.00000000000E+00  0.00000000000E+00  0.93585320231E+03  0.93585406403E+03  0.12699999809E+01 0.  1.
        4   -1    0    0  501    0  0.00000000000E+00  0.00000000000E+00 -0.25085503078E+03  0.25085824556E+03  0.12699999809E+01 0. -1.
    10030    2    1    2    0    0  0.00000000000E+00  0.00000000000E+00  0.68499817153E+03  0.11867123096E+04  0.96905294527E+03 0.  0.
        4    1    3    3  502    0  0.43584581478E+03 -0.19342438954E+03  0.44777086524E+03  0.65412149436E+03  0.12699999809E+01 0. -1.
       -4    1    3    3    0  502 -0.43584581478E+03  0.19342438954E+03  0.23722730629E+03  0.53259081524E+03  0.12699999809E+01 0.  1.
</event>
<event>
 5   0  0.2313036E-03  0.9993614E+03  0.7818609E-02  0.9309246E-01
        1   -1    0    0  501    0  0.00000000000E+00  0.00000000000E+00  0.20498324574E+04  0.20498324574E+04  0.50400001928E-02 0.  1.
       -1   -1    0    0    0  501  0.00000000000E+00  0.00000000000E+00 -0.12180546181E+03  0.12180546192E+03  0.50400001928E-02 0. -1.
    10030    2    1    2    0    0  0.00000000000E+00  0.00000000000E+00  0.19280269956E+04  0.21716379193E+04  0.99936137454E+03 0.  0.
        3    1    3    3  502    0  0.16022299295E+03 -0.10858059316E+03  0.19650677834E+04  0.19745765511E+04  0.10100000352E+00 0.  1.
       -3    1    3    3    0  502 -0.16022299295E+03  0.10858059316E+03 -0.37040787798E+02  0.19706136822E+03  0.10100000352E+00 0. -1.
</event>
<event>
 5   0  0.3873874E-03  0.1075624E+04  0.7818609E-02  0.9229281E-01
        2   -1    0    0  501    0  0.00000000000E+00  0.00000000000E+00  0.11950871462E+04  0.11950871462E+04  0.25500000920E-02 0. -1.
       -2   -1    0    0    0  501  0.00000000000E+00  0.00000000000E+00 -0.24202577648E+03  0.24202577649E+03  0.25500000920E-02 0.  1.
    10030    2    1    2    0    0  0.00000000000E+00  0.00000000000E+00  0.95306136976E+03  0.14371129227E+04  0.10756242737E+04 0.  0.
        5    1    3    3  502    0  0.47590001046E+03  0.87717317968E+01  0.81098173929E+03  0.94035697195E+03  0.46999998093E+01 0. -1.
       -5    1    3    3    0  502 -0.47590001046E+03 -0.87717317968E+01  0.14207963047E+03  0.49675595078E+03  0.46999998093E+01 0.  1.
</event>
<event>
 5   0  0.4026829E-03  0.1013720E+04  0.7818609E-02  0.9293624E-01
       -2   -1    0    0    0  501  0.00000000000E+00  0.00000000000E+00  0.41222776925E+03  0.41222776925E+03  0.25500000920E-02 0.  1.
        2   -1    0    0  501    0  0.00000000000E+00  0.00000000000E+00 -0.62321587682E+03  0.62321587682E+03  0.25500000920E-02 0. -1.
    10030    2    1    2    0    0  0.00000000000E+00  0.00000000000E+00 -0.21098810757E+03  0.10354436461E+04  0.10137196667E+04 0.  0.
        1    1    3    3  502    0 -0.48291635196E+03  0.77218898071E+02  0.30536219764E+02  0.49000349177E+03  0.50400001928E-02 0.  1.
       -1    1    3    3    0  502  0.48291635196E+03 -0.77218898071E+02 -0.24152432733E+03  0.54544015430E+03  0.50400001928E-02 0. -1.
</event>
<event>
 5   0  0.2405022E-03  0.9943034E+03  0.7818609E-02  0.9314815E-01
        1   -1    0    0  501    0  0.00000000000E+00  0.00000000000E+00  0.34547249673E+03  0.34547249677E+03  0.50400001928E-02 0. -1.
       -1   -1    0    0    0  501  0.00000000000E+00  0.00000000000E+00 -0.71542545136E+03  0.71542545138E+03  0.50400001928E-02 0.  1.
    10030    2    1    2    0    0  0.00000000000E+00  0.00000000000E+00 -0.36995295463E+03  0.10608979481E+04  0.99430340829E+03 0.  0.
        4    1    3    3  502    0 -0.36340598202E+02 -0.46126028012E+03 -0.37902689408E+03  0.59811761756E+03  0.12699999809E+01 0.  1.
       -4    1    3    3    0  502  0.36340598202E+02  0.46126028012E+03  0.90739394522E+01  0.46278033058E+03  0.12699999809E+01 0. -1.
</event>
<event>
 5   0  0.2313036E-03  0.1013546E+04  0.7818609E-02  0.9293811E-01
        1   -1    0    0  501    0  0.00000000000E+00  0.00000000000E+00  0.13496439225E+04  0.13496439225E+04  0.50400001928E-02 0. -1.
       -1   -1    0    0    0  501  0.00000000000E+00  0.00000000000E+00 -0.19028641255E+03  0.19028641262E+03  0.50400001928E-02 0.  1.
    10030    2    1    2    0    0  0.00000000000E+00  0.00000000000E+00  0.11593575099E+04  0.15399303351E+04  0.10135460528E+04 0.  0.
        3    1    3    3  502    0  0.11340862160E+03 -0.29025207761E+03 -0.27511994234E+02  0.31283334866E+03  0.10100000352E+00 0.  1.
       -3    1    3    3    0  502 -0.11340862160E+03  0.29025207761E+03  0.11868695041E+04  0.12270969864E+04  0.10100000352E+00 0. -1.
</event>
<event>
 5   0  0.3873874E-03  0.9980562E+03  0.7818609E-02  0.9310679E-01
       -2   -1    0    0    0  501  0.00000000000E+00  0.00000000000E+00  0.19162703604E+03  0.19162703606E+03  0.25500000920E-02 0. -1.
        2   -1    0    0  501    0  0.00000000000E+00  0.00000000000E+00 -0.12995505974E+04  0.12995505974E+04  0.25500000920E-02 0.  1.
    10030    2    1    2    0    0  0.00000000000E+00  0.00000000000E+00 -0.11079235613E+04  0.14911776334E+04  0.99805616911E+03 0.  0.
        5    1    3    3  502    0 -0.38852824541E+02 -0.23801887973E+03 -0.12066625423E+04  0.12305361067E+04  0.46999998093E+01 0.  1.
       -5    1    3    3    0  502  0.38852824541E+02  0.23801887973E+03  0.98738980933E+02  0.26064152669E+03  0.46999998093E+01 0. -1.
</event>
<event>
 5   0  0.3873874E-03  0.9389115E+03  0.7818609E-02  0.9378206E-01
       -2   -1    0    0    0  501  0.00000000000E+00  0.00000000000E+00  0.17052010364E+03  0.17052010366E+03  0.25500000920E-02 0.  1.
        2   -1    0    0  501    0  0.00000000000E+00  0.00000000000E+00 -0.12924500106E+04  0.12924500106E+04  0.25500000920E-02 0. -1.
    10030    2    1    2    0    0  0.00000000000E+00  0.00000000000E+00 -0.11219299070E+04  0.14629701143E+04  0.93891151825E+03 0.  0.
        5    1    3    3  502    0 -0.59259976948E+02  0.13837710553E+03 -0.12537865675E+04  0.12627995942E+04  0.46999998093E+01 0. -1.
       -5    1    3    3    0  502  0.59259976948E+02 -0.13837710553E+03  0.13185666051E+03  0.20017052011E+03  0.46999998093E+01 0.  1.
</event>
<event>
 5   0  0.3895011E-03  0.9616656E+03  0.7818609E-02  0.9351618E-01
        2   -1    0    0  501    0  0.00000000000E+00  0.00000000000E+00  0.62576105751E+03  0.62576105752E+03  0.25500000920E-02 0.  1.
       -2   -1    0    0    0  501  0.00000000000E+00  0.00000000000E+00 -0.36947040267E+03  0.36947040268E+03  0.25500000920E-02 0. -1.
    10030    2    1    2    0    0  0.00000000000E+00  0.00000000000E+00  0.25629065484E+03  0.99523146020E+03  0.96166561736E+03 0.  0.
        2    1    3    3  502    0  0.22015241798E+03 -0.15922172358E+03 -0.28241493285E+03  0.39188880911E+03  0.25500000920E-02 0. -1.
       -2    1    3    3    0  502 -0.22015241798E+03  0.15922172358E+03  0.53870558769E+03  0.60334265109E+03  0.25500000920E-02 0.  1.
</event>
<event>
 5   0  0.3826483E-03  0.1001917E+04  0.7818609E-02  0.9306445E-01
       -2   -1    0    0    0  501  0.00000000000E+00  0.00000000000E+00  0.44213995306E+03  0.44213995307E+03  0.25500000920E-02 0. -1.
        2   -1    0    0  501    0  0.00000000000E+00  0.00000000000E+00 -0.56760195940E+03  0.56760195941E+03  0.25500000920E-02 0.  1.
    10030    2    1    2    0    0  0.00000000000E+00  0.00000000000E+00 -0.12546200634E+03  0.10097419125E+04  0.10019171696E+04 0.  0.
        4    1    3    3  502    0 -0.35048988763E+03  0.35784381487E+03 -0.70700581959E+02  0.50586118882E+03  0.12699999809E+01 0. -1.
       -4    1    3    3    0  502  0.35048988763E+03 -0.35784381487E+03 -0.54761424383E+02  0.50388072365E+03  0.12699999809E+01 0.  1.
</event>
<event>
 5   0  0.2378609E-03  0.1004283E+04  0.7818609E-02  0.9303860E-01
        1   -1    0    0  501    0  0.00000000000E+00  0.00000000000E+00  0.51356697930E+03  0.51356697932E+03  0.50400001928E-02 0. -1.
       -1   -1    0    0    0  501  0.00000000000E+00  0.00000000000E+00 -0.49097039269E+03  0.49097039272E+03  0.50400001928E-02 0.  1.
    10030    2    1    2    0    0  0.00000000000E+00  0.00000000000E+00  0.22596586606E+02  0.10045373720E+04  0.10042831902E+04 0.  0.
        1    1    3    3  502    0  0.44961891713E+03  0.21792943301E+03 -0.38672063889E+02  0.50114462679E+03  0.50400001928E-02 0. -1.
       -1    1    3    3    0  502 -0.44961891713E+03 -0.21792943301E+03  0.61268650495E+02  0.50339274525E+03  0.50400001928E-02 0.  1.
</event>
<event>
 5   0  0.2378609E-03  0.1001256E+04  0.7818609E-02  0.9307168E-01
        1   -1    0    0  501    0  0.00000000000E+00  0.00000000000E+00  0.52691727585E+03  0.52691727587E+03  0.50400001928E-02 0. -1.
       -1   -1    0    0    0  501  0.00000000000E+00  0.00000000000E+00 -0.47565043051E+03  0.47565043053E+03  0.50400001928E-02 0.  1.
    10030    2    1    2    0    0  0.00000000000E+00  0.00000000000E+00  0.51266845340E+02  0.10025677064E+04  0.10012560694E+04 0.  0.
        1    1    3    3  502    0  0.79986359540E+02  0.49395441568E+03  0.10132619674E+02  0.50049121120E+03  0.50400001928E-02 0.  1.
       -1    1    3    3    0  502 -0.79986359540E+02 -0.49395441568E+03  0.41134225666E+02  0.50207649520E+03  0.50400001928E-02 0. -1.
</event>
<event>
 5   0  0.2313036E-03  0.1004966E+04  0.7818609E-02  0.9303115E-01
        1   -1    0    0  501    0  0.00000000000E+00  0.00000000000E+00  0.10307430468E+04  0.10307430469E+04  0.50400001928E-02 0.  1.
       -1   -1    0    0    0  501  0.00000000000E+00  0.00000000000E+00 -0.24495823095E+03  0.24495823101E+03  0.50400001928E-02 0. -1.
    10030    2    1    2    0    0  0.00000000000E+00  0.00000000000E+00  0.78578481589E+03  0.12757012779E+04  0.10049656578E+04 0.  0.
        3    1    3    3  502    0  0.12796392978E+03 -0.26607691254E+03 -0.12323498732E+03  0.31993524815E+03  0.10100000352E+00 0. -1.
       -3    1    3    3    0  502 -0.12796392978E+03  0.26607691254E+03  0.90901980321E+03  0.95576602970E+03  0.10100000352E+00 0.  1.
</event>
<event>
 5   0  0.4026829E-03  0.1002754E+04  0.7818609E-02  0.9305529E-01
        2   -1    0    0  501    0  0.00000000000E+00  0.00000000000E+00  0.73122995979E+03  0.73122995979E+03  0.25500000920E-02 0. -1.
       -2   -1    0    0    0  501  0.00000000000E+00  0.00000000000E+00 -0.34377563325E+03  0.34377563326E+03  0.25500000920E-02 0.  1.
    10030    2    1    2    0    0  0.00000000000E+00  0.00000000000E+00  0.38745432654E+03  0.10750055930E+04  0.10027542919E+04 0.  0.
        1    1    3    3  502    0  0.16528497135E+03  0.32518745077E+03 -0.17502324156E+03  0.40459749753E+03  0.50400001928E-02 0.  1.
       -1    1    3    3    0  502 -0.16528497135E+03 -0.32518745077E+03  0.56247756810E+03  0.67040809552E+03  0.50400001928E-02 0. -1.
</event>
<event>
 5   0  0.1548000E-03  0.1008870E+04  0.7818609E-02  0.9298869E-01
        3   -1    0    0  501    0  0.00000000000E+00  0.00000000000E+00  0.18706009070E+03  0.18706011797E+03  0.10100000352E+00 0. -1.
       -3   -1    0    0    0  501  0.00000000000E+00  0.00000000000E+00 -0.13602835139E+04  0.13602835177E+04  0.10100000352E+00 0.  1.
    10030    2    1    2    0    0  0.00000000000E+00  0.00000000000E+00 -0.11732234232E+04  0.15473436357E+04  0.10088702226E+04 0.  0.
        4    1    3    3  502    0  0.24062902461E+03  0.22781240503E+03 -0.32818425270E+01  0.33138075195E+03  0.12699999809E+01 0. -1.
       -4    1    3    3    0  502 -0.24062902461E+03 -0.22781240503E+03 -0.11699415807E+04  0.12159628837E+04  0.12699999809E+01 0.  1.
</event>
<event>
 5   0  0.3826483E-03  0.1003740E+04  0.7818609E-02  0.9304453E-01
        2   -1    0    0  501    0  0.00000000000E+00  0.00000000000E+00  0.10389911797E+04  0.10389911797E+04  0.25500000920E-02 0.  1.
       -2   -1    0    0    0  501  0.00000000000E+00  0.00000000000E+00 -0.24242106720E+03  0.24242106721E+03  0.25500000920E-02 0. -1.
    10030    2    1    2    0    0  0.00000000000E+00  0.00000000000E+00  0.79657011254E+03  0.12814122469E+04  0.10037397085E+04 0.  0.
        4    1    3    3  502    0 -0.34439704070E+03  0.36485509040E+03  0.41356098220E+03  0.65020216666E+03  0.12699999809E+01 0. -1.
       -4    1    3    3    0  502  0.34439704070E+03 -0.36485509040E+03  0.38300913033E+03  0.63121008028E+03  0.12699999809E+01 0.  1.
</event>
<event>
 5   0  0.2405022E-03  0.9935419E+03  0.7818609E-02  0.9315656E-01
        1   -1    0    0  501    0  0.00000000000E+00  0.00000000000E+00  0.48526036084E+03  0.48526036087E+03  0.50400001928E-02 0.  1.
       -1   -1    0    0    0  501  0.00000000000E+00  0.00000000000E+00 -0.50855460437E+03  0.50855460439E+03  0.50400001928E-02 0. -1.
    10030    2    1    2    0    0  0.00000000000E+00  0.00000000000E+00 -0.23294243527E+02  0.99381496526E+03  0.99354192835E+03 0.  0.
        4    1    3    3  502    0  0.12936055121E+03 -0.14200025626E+03  0.44660709219E+03  0.48616636317E+03  0.12699999809E+01 0.  1.
       -4    1    3    3    0  502 -0.12936055121E+03  0.14200025626E+03 -0.46990133572E+03  0.50764860208E+03  0.12699999809E+01 0. -1.
</event>
<event>
 5   0  0.2327595E-03  0.1002252E+04  0.7818609E-02  0.9306078E-01
        1   -1    0    0  501    0  0.00000000000E+00  0.00000000000E+00  0.11447601272E+04  0.11447601272E+04  0.50400001928E-02 0.  1.
       -1   -1    0    0    0  501  0.00000000000E+00  0.00000000000E+00 -0.21937114949E+03  0.21937114955E+03  0.50400001928E-02 0. -1.
    10030    2    1    2    0    0  0.00000000000E+00  0.00000000000E+00  0.92538897772E+03  0.13641312768E+04  0.10022521540E+04 0.  0.
        5    1    3    3  502    0 -0.11571169825E+03  0.38161012062E+03  0.49661375194E+02  0.40187538300E+03  0.46999998093E+01 0. -1.
       -5    1    3    3    0  502  0.11571169825E+03 -0.38161012062E+03  0.87572760253E+03  0.96225589378E+03  0.46999998093E+01 0.  1.
</event>
<event>
 5   0  0.4026829E-03  0.1037631E+04  0.7818609E-02  0.9268209E-01
       -2   -1    0    0    0  501  0.00000000000E+00  0.00000000000E+00  0.15477109623E+03  0.15477109625E+03  0.25500000920E-02 0.  1.
        2   -1    0    0  501    0  0.00000000000E+00  0.00000000000E+00 -0.17391449539E+04  0.17391449539E+04  0.25500000920E-02 0. -1.
    10030    2    1    2    0    0  0.00000000000E+00  0.00000000000E+00 -0.15843738577E+04  0.18939160502E+04  0.10376307070E+04 0.  0.
        1    1    3    3  502    0  0.43456671549E+03 -0.27780184662E+03 -0.89458345955E+03  0.10326188369E+04  0.50400001928E-02 0.  1.
       -1    1    3    3    0  502 -0.43456671549E+03  0.27780184662E+03 -0.68979039816E+03  0.86129721329E+03  0.50400001928E-02 0. -1.
</event>
<event>
 5   0  0.2313036E-03  0.1003065E+04  0.7818609E-02  0.9305189E-01
        1   -1    0    0  501    0  0.00000000000E+00  0.00000000000E+00  0.13503739789E+04  0.13503739789E+04  0.50400001928E-02 0. -1.
       -1   -1    0    0    0  501  0.00000000000E+00  0.00000000000E+00 -0.18627064208E+03  0.18627064215E+03  0.50400001928E-02 0.  1.
    10030    2    1    2    0    0  0.00000000000E+00  0.00000000000E+00  0.11641033368E+04  0.15366446211E+04  0.10030653581E+04 0.  0.
        3    1    3    3  502    0 -0.38517106163E+03  0.65915679094E+02  0.10044103836E+03  0.40347247224E+03  0.10100000352E+00 0.  1.
       -3    1    3    3    0  502  0.38517106163E+03 -0.65915679094E+02  0.10636622985E+04  0.11331721488E+04  0.10100000352E+00 0. -1.
</event>
<event>
 5   0  0.3895011E-03  0.1001073E+04  0.7818609E-02  0.9307368E-01
       -2   -1    0    0    0  501  0.00000000000E+00  0.00000000000E+00  0.50132941259E+03  0.50132941259E+03  0.25500000920E-02 0. -1.
        2   -1    0    0  501    0  0.00000000000E+00  0.00000000000E+00 -0.49974513405E+03  0.49974513406E+03  0.25500000920E-02 0.  1.
    10030    2    1    2    0    0  0.00000000000E+00  0.00000000000E+00  0.15842785316E+01  0.10010745467E+04  0.10010732930E+04 0.  0.
        2    1    3    3  502    0  0.24688063316E+03  0.40826097548E+02  0.43429022217E+03  0.50122331785E+03  0.25500000920E-02 0. -1.
       -2    1    3    3    0  502 -0.24688063316E+03 -0.40826097548E+02 -0.43270594364E+03  0.49985122881E+03  0.25500000920E-02 0.  1.
</event>
<event>
 5   0  0.3895011E-03  0.1011742E+04  0.7818609E-02  0.9295760E-01
        2   -1    0    0  501    0  0.00000000000E+00  0.00000000000E+00  0.11588191408E+04  0.11588191408E+04  0.25500000920E-02 0.  1.
       -2   -1    0    0    0  501  0.00000000000E+00  0.00000000000E+00 -0.22083279832E+03  0.22083279833E+03  0.25500000920E-02 0. -1.
    10030    2    1    2    0    0  0.00000000000E+00  0.00000000000E+00  0.93798634245E+03  0.13796519391E+04  0.10117416145E+04 0.  0.
        2    1    3    3  502    0  0.30148573485E+03 -0.40423548218E+03  0.52362906560E+03  0.72697136926E+03  0.25500000920E-02 0. -1.
       -2    1    3    3    0  502 -0.30148573485E+03  0.40423548218E+03  0.41435727685E+03  0.65268056985E+03  0.25500000920E-02 0.  1.
</event>
<event>
 5   0  0.3826483E-03  0.9997241E+03  0.7818609E-02  0.9308847E-01
       -2   -1    0    0    0  501  0.00000000000E+00  0.00000000000E+00  0.27324492982E+03  0.27324492983E+03  0.25500000920E-02 0.  1.
        2   -1    0    0  501    0  0.00000000000E+00  0.00000000000E+00 -0.91442532135E+03  0.91442532135E+03  0.25500000920E-02 0. -1.
    10030    2    1    2    0    0  0.00000000000E+00  0.00000000000E+00 -0.64118039153E+03  0.11876702512E+04  0.99972412748E+03 0.  0.
        4    1    3    3  502    0 -0.21419266653E+03  0.99656708107E+02 -0.84391714689E+03  0.87636049750E+03  0.12699999809E+01 0. -1.
       -4    1    3    3    0  502  0.21419266653E+03 -0.99656708107E+02  0.20273675536E+03  0.31130975368E+03  0.12699999809E+01 0.  1.
</event>
<event>
 5   0  0.4140860E-03  0.9745913E+03  0.7818609E-02  0.9336860E-01
       -2   -1    0    0    0  501  0.00000000000E+00  0.00000000000E+00  0.11435617569E+03  0.11435617572E+03  0.25500000920E-02 0. -1.
        2   -1    0    0  501    0  0.00000000000E+00  0.00000000000E+00 -0.20764690090E+04  0.20764690090E+04  0.25500000920E-02 0.  1.
    10030    2    1    2    0    0  0.00000000000E+00  0.00000000000E+00 -0.19621128333E+04  0.21908251847E+04  0.97459130887E+03 0.  0.
        3    1    3    3  502    0 -0.19798216161E+03  0.44317877411E+03 -0.88429868260E+03  0.10087559330E+04  0.10100000352E+00 0. -1.
       -3    1    3    3    0  502  0.19798216161E+03 -0.44317877411E+03 -0.10778141507E+04  0.11820692517E+04  0.10100000352E+00 0.  1.
</event>
<event>
 5   0  0.4026829E-03  0.1004071E+04  0.7818609E-02  0.9304091E-01
       -2   -1    0    0    0  501  0.00000000000E+00  0.00000000000E+00  0.16391470021E+03  0.16391470023E+03  0.25500000920E-02 0. -1.
        2   -1    0    0  501    0  0.00000000000E+00  0.00000000000E+00 -0.15376276115E+04  0.15376276115E+04  0.25500000920E-02 0.  1.
    10030    2    1    2    0    0  0.00000000000E+00  0.00000000000E+00 -0.13737129113E+04  0.17015423117E+04  0.10040712504E+04 0.  0.
        1    1    3    3  502    0  0.19127454729E+03  0.34645154029E+02 -0.14712648159E+04  0.14840506722E+04  0.50400001928E-02 0.  1.
       -1    1    3    3    0  502 -0.19127454729E+03 -0.34645154029E+02  0.97551904620E+02  0.21749163952E+03  0.50400001928E-02 0. -1.
</event>
<event>
 5   0  0.3873874E-03  0.9968153E+03  0.7818609E-02  0.9312045E-01
        2   -1    0    0  501    0  0.00000000000E+00  0.00000000000E+00  0.15973807157E+04  0.15973807157E+04  0.25500000920E-02 0.  1.
       -2   -1    0    0    0  501  0.00000000000E+00  0.00000000000E+00 -0.15551093113E+03  0.15551093115E+03  0.25500000920E-02 0. -1.
    10030    2    1    2    0    0  0.00000000000E+00  0.00000000000E+00  0.14418697846E+04  0.17528916469E+04  0.99681525368E+03 0.  0.
        5    1    3    3  502    0  0.18479266728E+03  0.37260128712E+02  0.15322296651E+04  0.15437896501E+04  0.46999998093E+01 0.  1.
       -5    1    3    3    0  502 -0.18479266728E+03 -0.37260128712E+02 -0.90359880493E+02  0.20910199682E+03  0.46999998093E+01 0. -1.
</event>
<event>
 5   0  0.2405022E-03  0.9934198E+03  0.7818609E-02  0.9315791E-01
       -1   -1    0    0    0  501  0.00000000000E+00  0.00000000000E+00  0.11427663974E+04  0.11427663974E+04  0.50400001928E-02 0.  1.
        1   -1    0    0  501    0  0.00000000000E+00  0.00000000000E+00 -0.21589777635E+03  0.21589777641E+03  0.50400001928E-02 0. -1.
    10030    2    1    2    0    0  0.00000000000E+00  0.00000000000E+00  0.92686862102E+03  0.13586641738E+04  0.99341979872E+03 0.  0.
        4    1    3    3  502    0 -0.23956922741E+02  0.49484921545E+03  0.51216290338E+03  0.71257429976E+03  0.12699999809E+01 0. -1.
       -4    1    3    3    0  502  0.23956922741E+02 -0.49484921545E+03  0.41470571765E+03  0.64608987403E+03  0.12699999809E+01 0.  1.
</event>
<event>
 5   0  0.2327595E-03  0.1003186E+04  0.7818609E-02  0.9305058E-01
       -1   -1    0    0    0  501  0.00000000000E+00  0.00000000000E+00  0.17532403550E+03  0.17532403558E+03  0.50400001928E-02 0. -1.
        1   -1    0    0  501    0  0.00000000000E+00  0.00000000000E+00 -0.14350308353E+04  0.14350308353E+04  0.50400001928E-02 0.  1.
    10030    2    1    2    0    0  0.00000000000E+00  0.00000000000E+00 -0.12597067998E+04  0.16103548709E+04  0.10031857200E+04 0.  0.
        5    1    3    3  502    0  0.46094694287E+03 -0.10148324761E+03 -0.35742373972E+03  0.59206819996E+03  0.46999998093E+01 0.  1.
       -5    1    3    3    0  502 -0.46094694287E+03  0.10148324761E+03 -0.90228306006E+03  0.10182866709E+04  0.46999998093E+01 0. -1.
</event>
<event>
 5   0  0.3826483E-03  0.9937399E+03  0.7818609E-02  0.9315438E-01
       -2   -1    0    0    0  501  0.00000000000E+00  0.00000000000E+00  0.25212611593E+03  0.25212611594E+03  0.25500000920E-02 0.  1.
        2   -1    0    0  501    0  0.00000000000E+00  0.00000000000E+00 -0.97919147201E+03  0.97919147201E+03  0.25500000920E-02 0. -1.
    10030    2    1    2    0    0  0.00000000000E+00  0.00000000000E+00 -0.72706535608E+03  0.12313175880E+04  0.99373989072E+03 0.  0.
        4    1    3    3  502    0 -0.15396594432E+03 -0.33491158050E+03 -0.77636362962E+03  0.85942619059E+03  0.12699999809E+01 0. -1.
       -4    1    3    3    0  502  0.15396594432E+03  0.33491158050E+03  0.49298273540E+02  0.37189139737E+03  0.12699999809E+01 0.  1.
</event>
<event>
 5   0  0.3895011E-03  0.1002670E+04  0.7818609E-02  0.9305621E-01
       -2   -1    0    0    0  501  0.00000000000E+00  0.00000000000E+00  0.35518904587E+03  0.35518904588E+03  0.25500000920E-02 0. -1.
        2   -1    0    0  501    0  0.00000000000E+00  0.00000000000E+00 -0.70761472772E+03  0.70761472773E+03  0.25500000920E-02 0.  1.
    10030    2    1    2    0    0  0.00000000000E+00  0.00000000000E+00 -0.35242568185E+03  0.10628037736E+04  0.10026704344E+04 0.  0.
        2    1    3    3  502    0  0.18428640682E+03  0.45802835575E+03 -0.83894436529E+02  0.50078910820E+03  0.25500000920E-02 0. -1.
       -2    1    3    3    0  502 -0.18428640682E+03 -0.45802835575E+03 -0.26853124532E+03  0.56201466540E+03  0.25500000920E-02 0.  1.
</event>
<event>
 5   0  0.2327595E-03  0.9951891E+03  0.7818609E-02  0.9313837E-01
        1   -1    0    0  501    0  0.00000000000E+00  0.00000000000E+00  0.21168719599E+03  0.21168719605E+03  0.50400001928E-02 0. -1.
       -1   -1    0    0    0  501  0.00000000000E+00  0.00000000000E+00 -0.11696518714E+04  0.11696518715E+04  0.50400001928E-02 0.  1.
    10030    2    1    2    0    0  0.00000000000E+00  0.00000000000E+00 -0.95796467546E+03  0.13813390675E+04  0.99518907752E+03 0.  0.
        5    1    3    3  502    0 -0.44161943639E+03 -0.64626323872E+02 -0.17370086036E+03  0.47895549608E+03  0.46999998093E+01 0. -1.
       -5    1    3    3    0  502  0.44161943639E+03  0.64626323872E+02 -0.78426381509E+03  0.90238357144E+03  0.46999998093E+01 0.  1.
</event>
<event>
 5   0  0.2350769E-03  0.9950789E+03  0.7818609E-02  0.9313959E-01
       -1   -1    0    0    0  501  0.00000000000E+00  0.00000000000E+00  0.25541114532E+03  0.25541114537E+03  0.50400001928E-02 0.  1.
        1   -1    0    0  501    0  0.00000000000E+00  0.00000000000E+00 -0.96920403110E+03  0.96920403112E+03  0.50400001928E-02 0. -1.
    10030    2    1    2    0    0  0.00000000000E+00  0.00000000000E+00 -0.71379288578E+03  0.12246151765E+04  0.99507891481E+03 0.  0.
        2    1    3    3  502    0  0.43208144155E+03 -0.10701983256E+03 -0.63042100702E+03  0.77173717209E+03  0.25500000920E-02 0.  1.
       -2    1    3    3    0  502 -0.43208144155E+03  0.10701983256E+03 -0.83371878763E+02  0.45287800440E+03  0.25500000920E-02 0. -1.
</event>
<event>
 5   0  0.3873874E-03  0.9999908E+03  0.7818609E-02  0.9308555E-01
        2   -1    0    0  501    0  0.00000000000E+00  0.00000000000E+00  0.27374321433E+03  0.27374321434E+03  0.25500000920E-02 0. -1.
       -2   -1    0    0    0  501  0.00000000000E+00  0.00000000000E+00 -0.91324793187E+03  0.91324793188E+03  0.25500000920E-02 0.  1.
    10030    2    1    2    0    0  0.00000000000E+00  0.00000000000E+00 -0.63950471754E+03  0.11869911462E+04  0.99999084868E+03 0.  0.
        5    1    3    3  502    0 -0.44041304963E+03  0.29181365972E+02 -0.59852889192E+03  0.74368953930E+03  0.46999998093E+01 0.  1.
       -5    1    3    3    0  502  0.44041304963E+03 -0.29181365972E+02 -0.40975825620E+02  0.44330160691E+03  0.46999998093E+01 0. -1.
</event>
<event>
 5   0  0.2350769E-03  0.9993749E+03  0.7818609E-02  0.9309231E-01
        1   -1    0    0  501    0  0.00000000000E+00  0.00000000000E+00  0.18269234173E+04  0.18269234173E+04  0.50400001928E-02 0. -1.
       -1   -1    0    0    0  501  0.00000000000E+00  0.00000000000E+00 -0.13667104509E+03  0.13667104518E+03  0.50400001928E-02 0.  1.
    10030    2    1    2    0    0  0.00000000000E+00  0.00000000000E+00  0.16902523722E+04  0.19635944625E+04  0.99937487029E+03 0.  0.
        2    1    3    3  502    0  0.14966830953E+03 -0.27466051909E+02 -0.90039745456E+02  0.17681103657E+03  0.25500000920E-02 0.  1.
       -2    1    3    3    0  502 -0.14966830953E+03  0.27466051909E+02  0.17802921177E+04  0.17867834259E+04  0.25500000920E-02 0. -1.
</event>
<event>
 5   0  0.2313036E-03  0.1013433E+04  0.7818609E-02  0.9293933E-01
       -1   -1    0    0    0  501  0.00000000000E+00  0.00000000000E+00  0.46633578649E+03  0.46633578652E+03  0.50400001928E-02 0.  1.
        1   -1    0    0  501    0  0.00000000000E+00  0.00000000000E+00 -0.55059411887E+03  0.55059411889E+03  0.50400001928E-02 0. -1.
    10030    2    1    2    0    0  0.00000000000E+00  0.00000000000E+00 -0.84258332375E+02  0.10169299054E+04  0.10134332568E+04 0.  0.
        3    1    3    3  502    0 -0.19994775043E+03 -0.16821487140E+03  0.39351896978E+03  0.47236906719E+03  0.10100000352E+00 0.  1.
       -3    1    3    3    0  502  0.19994775043E+03  0.16821487140E+03 -0.47777730215E+03  0.54456083821E+03  0.10100000352E+00 0. -1.
</event>
<event>
 5   0  0.2378609E-03  0.9916961E+03  0.7818609E-02  0.9317700E-01
       -1   -1    0    0    0  501  0.00000000000E+00  0.00000000000E+00  0.51525412486E+03  0.51525412488E+03  0.50400001928E-02 0.  1.
        1   -1    0    0  501    0  0.00000000000E+00  0.00000000000E+00 -0.47717286312E+03  0.47717286314E+03  0.50400001928E-02 0. -1.
    10030    2    1    2    0    0  0.00000000000E+00  0.00000000000E+00  0.38081261744E+02  0.99242698803E+03  0.99169609461E+03 0.  0.
        1    1    3    3  502    0  0.43081452137E+03  0.18077102647E+03 -0.14717202691E+03  0.48983560647E+03  0.50400001928E-02 0. -1.
       -1    1    3    3    0  502 -0.43081452137E+03 -0.18077102647E+03  0.18525328865E+03  0.50259138156E+03  0.50400001928E-02 0.  1.
</event>
<event>
 5   0  0.4026829E-03  0.9991985E+03  0.7818609E-02  0.9309424E-01
       -2   -1    0    0    0  501  0.00000000000E+00  0.00000000000E+00  0.29584598870E+03  0.29584598871E+03  0.25500000920E-02 0. -1.
        2   -1    0    0  501    0  0.00000000000E+00  0.00000000000E+00 -0.84368023944E+03  0.84368023944E+03  0.25500000920E-02 0.  1.
    10030    2    1    2    0    0  0.00000000000E+00  0.00000000000E+00 -0.54783425075E+03  0.11395262282E+04  0.99919850798E+03 0.  0.
        1    1    3    3  502    0 -0.16602197003E+03  0.59487723683E+02 -0.80700108723E+03  0.82604651117E+03  0.50400001928E-02 0.  1.
       -1    1    3    3    0  502  0.16602197003E+03 -0.59487723683E+02  0.25916683648E+03  0.31347971698E+03  0.50400001928E-02 0. -1.
</event>
<event>
 5   0  0.1548000E-03  0.9690402E+03  0.7818609E-02  0.9343168E-01
       -3   -1    0    0    0  501  0.00000000000E+00  0.00000000000E+00  0.23726765817E+03  0.23726767967E+03  0.10100000352E+00 0. -1.
        3   -1    0    0  501    0  0.00000000000E+00  0.00000000000E+00 -0.98942998321E+03  0.98942998837E+03  0.10100000352E+00 0.  1.
    10030    2    1    2    0    0  0.00000000000E+00  0.00000000000E+00 -0.75216232504E+03  0.12266976680E+04  0.96904024971E+03 0.  0.
        1    1    3    3  502    0 -0.40608696536E+03  0.15891850692E+03 -0.64341478964E+03  0.77726720427E+03  0.50400001928E-02 0.  1.
       -1    1    3    3    0  502  0.40608696536E+03 -0.15891850692E+03 -0.10874753540E+03  0.44943046377E+03  0.50400001928E-02 0. -1.
</event>
<event>
 5   0  0.4140860E-03  0.9992038E+03  0.7818609E-02  0.9309419E-01
        2   -1    0    0  501    0  0.00000000000E+00  0.00000000000E+00  0.11009536959E+04  0.11009536959E+04  0.25500000920E-02 0.  1.
       -2   -1    0    0    0  501  0.00000000000E+00  0.00000000000E+00 -0.22671439054E+03  0.22671439055E+03  0.25500000920E-02 0. -1.
    10030    2    1    2    0    0  0.00000000000E+00  0.00000000000E+00  0.87423930536E+03  0.13276680865E+04  0.99920377539E+03 0.  0.
        3    1    3    3  502    0  0.19700735073E+03 -0.19923920214E+02  0.10465881688E+04  0.10651552301E+04  0.10100000352E+00 0.  1.
       -3    1    3    3    0  502 -0.19700735073E+03  0.19923920214E+02 -0.17234886345E+03  0.26251285639E+03  0.10100000352E+00 0. -1.
</event>
<event>
 5   0  0.3873874E-03  0.9253931E+03  0.7818609E-02  0.9394384E-01
        2   -1    0    0  501    0  0.00000000000E+00  0.00000000000E+00  0.27785233978E+04  0.27785233978E+04  0.25500000920E-02 0. -1.
       -2   -1    0    0    0  501  0.00000000000E+00  0.00000000000E+00 -0.77051032852E+02  0.77051032895E+02  0.25500000920E-02 0.  1.
    10030    2    1    2    0    0  0.00000000000E+00  0.00000000000E+00  0.27014723649E+04  0.28555744307E+04  0.92539310061E+03 0.  0.
        5    1    3    3  502    0  0.36775039282E+03 -0.22385913861E+03  0.82785313226E+03  0.93312173051E+03  0.46999998093E+01 0.  1.
       -5    1    3    3    0  502 -0.36775039282E+03  0.22385913861E+03  0.18736192327E+04  0.19224527002E+04  0.46999998093E+01 0. -1.
</event>
<event>
 5   0  0.3826483E-03  0.9933592E+03  0.7818609E-02  0.9315858E-01
        2   -1    0    0  501    0  0.00000000000E+00  0.00000000000E+00  0.33002770426E+03  0.33002770427E+03  0.25500000920E-02 0. -1.
       -2   -1    0    0    0  501  0.00000000000E+00  0.00000000000E+00 -0.74748454526E+03  0.74748454527E+03  0.25500000920E-02 0.  1.
    10030    2    1    2    0    0  0.00000000000E+00  0.00000000000E+00 -0.41745684100E+03  0.10775122495E+04  0.99335916657E+03 0.  0.
        4    1    3    3  502    0  0.27234725912E+03  0.30473688194E+02  0.24059443302E+03  0.36467652697E+03  0.12699999809E+01 0. -1.
       -4    1    3    3    0  502 -0.27234725912E+03 -0.30473688194E+02 -0.65805127402E+03  0.71283572257E+03  0.12699999809E+01 0.  1.
</event>
<event>
 5   0  0.4026829E-03  0.1000442E+04  0.7818609E-02  0.9308060E-01
        2   -1    0    0  501    0  0.00000000000E+00  0.00000000000E+00  0.54964887437E+03  0.54964887438E+03  0.25500000920E-02 0.  1.
       -2   -1    0    0    0  501  0.00000000000E+00  0.00000000000E+00 -0.45523819802E+03  0.45523819803E+03  0.25500000920E-02 0. -1.
    10030    2    1    2    0    0  0.00000000000E+00  0.00000000000E+00  0.94410676347E+02  0.10048870724E+04  0.10004422285E+04 0.  0.
        1    1    3    3  502    0 -0.42059905793E+03  0.20678423496E+03  0.22279010068E+03  0.51893999301E+03  0.50400001928E-02 0. -1.
       -1    1    3    3    0  502  0.42059905793E+03 -0.20678423496E+03 -0.12837942434E+03  0.48594707940E+03  0.50400001928E-02 0.  1.
</event>
<event>
 5   0  0.2350769E-03  0.9297732E+03  0.7818609E-02  0.9389110E-01
        1   -1    0    0  501    0  0.00000000000E+00  0.00000000000E+00  0.10838796475E+04  0.10838796475E+04  0.50400001928E-02 0.  1.
       -1   -1    0    0    0  501  0.00000000000E+00  0.00000000000E+00 -0.19939440390E+03  0.19939440397E+03  0.50400001928E-02 0. -1.
    10030    2    1    2    0    0  0.00000000000E+00  0.00000000000E+00  0.88448524357E+03  0.12832740515E+04  0.92977316860E+03 0.  0.
        2    1    3    3  502    0 -0.36313883596E+03  0.90593289577E+02  0.61640838029E+02  0.37931062629E+03  0.25500000920E-02 0. -1.
       -2    1    3    3    0  502  0.36313883596E+03 -0.90593289577E+02  0.82284440554E+03  0.90396342517E+03  0.25500000920E-02 0.  1.
</event>
<event>
 5   0  0.2313036E-03  0.1002264E+04  0.7818609E-02  0.9306066E-01
        1   -1    0    0  501    0  0.00000000000E+00  0.00000000000E+00  0.50163770582E+03  0.50163770584E+03  0.50400001928E-02 0. -1.
       -1   -1    0    0    0  501  0.00000000000E+00  0.00000000000E+00 -0.50062633473E+03  0.50062633476E+03  0.50400001928E-02 0.  1.
    10030    2    1    2    0    0  0.00000000000E+00  0.00000000000E+00  0.10113710811E+01  0.10022640406E+04  0.10022635303E+04 0.  0.
        3    1    3    3  502    0 -0.90102986760E+02 -0.59044212644E+02 -0.48891081651E+03  0.50063815673E+03  0.10100000352E+00 0.  1.
       -3    1    3    3    0  502  0.90102986760E+02  0.59044212644E+02  0.48992218759E+03  0.50162588387E+03  0.10100000352E+00 0. -1.
</event>
<event>
 5   0  0.1548000E-03  0.1006563E+04  0.7818609E-02  0.9301375E-01
        3   -1    0    0  501    0  0.00000000000E+00  0.00000000000E+00  0.73770903603E+03  0.73770904294E+03  0.10100000352E+00 0. -1.
       -3   -1    0    0    0  501  0.00000000000E+00  0.00000000000E+00 -0.34335000183E+03  0.34335001669E+03  0.10100000352E+00 0.  1.
    10030    2    1    2    0    0  0.00000000000E+00  0.00000000000E+00  0.39435903420E+03  0.10810590596E+04  0.10065632829E+04 0.  0.
        5    1    3    3  502    0  0.11286450042E+02 -0.16784801655E+03  0.70659321790E+03  0.72635831804E+03  0.46999998093E+01 0. -1.
       -5    1    3    3    0  502 -0.11286450042E+02  0.16784801655E+03 -0.31223418370E+03  0.35470074159E+03  0.46999998093E+01 0.  1.
</event>
<event>
 5   0  0.4140860E-03  0.9987782E+03  0.7818609E-02  0.9309886E-01
        2   -1    0    0  501    0  0.00000000000E+00  0.00000000000E+00  0.50469161356E+03  0.50469161357E+03  0.25500000920E-02 0.  1.
       -2   -1    0    0    0  501  0.00000000000E+00  0.00000000000E+00 -0.49414232951E+03  0.49414232952E+03  0.25500000920E-02 0. -1.
    10030    2    1    2    0    0  0.00000000000E+00  0.00000000000E+00  0.10549284049E+02  0.99883394308E+03  0.99877823287E+03 0.  0.
        3    1    3    3  502    0 -0.32278873897E+02 -0.42796532979E+03  0.26061853398E+03  0.50211381146E+03  0.10100000352E+00 0.  1.
       -3    1    3    3    0  502  0.32278873897E+02  0.42796532979E+03 -0.25006924993E+03  0.49672013163E+03  0.10100000352E+00 0. -1.
</event>
<event>
 5   0  0.4140860E-03  0.1001042E+04  0.7818609E-02  0.9307402E-01
        2   -1    0    0  501    0  0.00000000000E+00  0.00000000000E+00  0.11374281227E+04  0.11374281227E+04  0.25500000920E-02 0. -1.
       -2   -1    0    0    0  501  0.00000000000E+00  0.00000000000E+00 -0.22025259744E+03  0.22025259746E+03  0.25500000920E-02 0.  1.
    10030    2    1    2    0    0  0.00000000000E+00  0.00000000000E+00  0.91717552528E+03  0.13576807202E+04  0.10010424535E+04 0.  0.
        3    1    3    3  502    0 -0.44303839150E+03 -0.13422411708E+03  0.20046071397E+03  0.50446371326E+03  0.10100000352E+00 0.  1.
       -3    1    3    3    0  502  0.44303839150E+03  0.13422411708E+03  0.71671481131E+03  0.85321700692E+03  0.10100000352E+00 0. -1.
</event>
<event>
 5   0  0.2350769E-03  0.1005073E+04  0.7818609E-02  0.9302998E-01
        1   -1    0    0  501    0  0.00000000000E+00  0.00000000000E+00  0.72371474761E+03  0.72371474763E+03  0.50400001928E-02 0.  1.
       -1   -1    0    0    0  501  0.00000000000E+00  0.00000000000E+00 -0.34895384710E+03  0.34895384714E+03  0.50400001928E-02 0. -1.
    10030    2    1    2    0    0  0.00000000000E+00  0.00000000000E+00  0.37476090051E+03  0.10726685948E+04  0.10050732220E+04 0.  0.
        2    1    3    3  502    0 -0.78618479570E+01 -0.18402308805E+03 -0.31162991888E+03  0.36199380097E+03  0.25500000920E-02 0. -1.
       -2    1    3    3    0  502  0.78618479570E+01  0.18402308805E+03  0.68639081939E+03  0.71067479380E+03  0.25500000920E-02 0.  1.
</event>
<event>
 5   0  0.2378609E-03  0.9957745E+03  0.7818609E-02  0.9313191E-01
        1   -1    0    0  501    0  0.00000000000E+00  0.00000000000E+00  0.33445642082E+03  0.33445642086E+03  0.50400001928E-02 0. -1.
       -1   -1    0    0    0  501  0.00000000000E+00  0.00000000000E+00 -0.74117786583E+03  0.74117786585E+03  0.50400001928E-02 0.  1.
    10030    2    1    2    0    0  0.00000000000E+00  0.00000000000E+00 -0.40672144501E+03  0.10756342867E+04  0.99577446488E+03 0.  0.
        1    1    3    3  502    0  0.17422129981E+02  0.42239777828E+03 -0.48745150823E+03  0.64523824020E+03  0.50400001928E-02 0.  1.
       -1    1    3    3    0  502 -0.17422129981E+02 -0.42239777828E+03  0.80730063222E+02  0.43039604650E+03  0.50400001928E-02 0. -1.
</event>
<event>
 5   0  0.3873874E-03  0.1002786E+04  0.7818609E-02  0.9305495E-01
        2   -1    0    0  501    0  0.00000000000E+00  0.00000000000E+00  0.84914197402E+03  0.84914197402E+03  0.25500000920E-02 0.  1.
       -2   -1    0    0    0  501  0.00000000000E+00  0.00000000000E+00 -0.29605750328E+03  0.29605750329E+03  0.25500000920E-02 0. -1.
    10030    2    1    2    0    0  0.00000000000E+00  0.00000000000E+00  0.55308447074E+03  0.11451994773E+04  0.10027858251E+04 0.  0.
        5    1    3    3  502    0 -0.49610709649E+03 -0.16519821299E+02  0.35711407147E+03  0.61151263742E+03  0.46999998093E+01 0. -1.
       -5    1    3    3    0  502  0.49610709649E+03  0.16519821299E+02  0.19597039927E+03  0.53368683989E+03  0.46999998093E+01 0.  1.
</event>
<event>
 5   0  0.2405022E-03  0.9959897E+03  0.7818609E-02  0.9312954E-01
       -1   -1    0    0    0  501  0.00000000000E+00  0.00000000000E+00  0.55164903329E+03  0.55164903332E+03  0.50400001928E-02 0.  1.
        1   -1    0    0  501    0  0.00000000000E+00  0.00000000000E+00 -0.44955918717E+03  0.44955918720E+03  0.50400001928E-02 0. -1.
    10030    2    1    2    0    0  0.00000000000E+00  0.00000000000E+00  0.10208984612E+03  0.10012082205E+04  0.99598974098E+03 0.  0.
        4    1    3    3  502    0  0.27107408465E+03  0.87451326092E+02 -0.35959065275E+03  0.45873297707E+03  0.12699999809E+01 0. -1.
       -4    1    3    3    0  502 -0.27107408465E+03 -0.87451326092E+02  0.46168049888E+03  0.54247524344E+03  0.12699999809E+01 0.  1.
</event>
<event>
 5   0  0.2378609E-03  0.9995636E+03  0.7818609E-02  0.9309024E-01
        1   -1    0    0  501    0  0.00000000000E+00  0.00000000000E+00  0.20300835037E+03  0.20300835043E+03  0.50400001928E-02 0.  1.
       -1   -1    0    0    0  501  0.00000000000E+00  0.00000000000E+00 -0.12304019504E+04  0.12304019504E+04  0.50400001928E-02 0. -1.
    10030    2    1    2    0    0  0.00000000000E+00  0.00000000000E+00 -0.10273936000E+04  0.14334103008E+04  0.99956364539E+03 0.  0.
        1    1    3    3  502    0 -0.45901281150E+03 -0.19407233776E+03 -0.45956242605E+03  0.67790445998E+03  0.50400001928E-02 0.  1.
       -1    1    3    3    0  502  0.45901281150E+03  0.19407233776E+03 -0.56783117398E+03  0.75550584086E+03  0.50400001928E-02 0. -1.
</event>
<event>
 5   0  0.3826483E-03  0.1000941E+04  0.7818609E-02  0.9307513E-01
        2   -1    0    0  501    0  0.00000000000E+00  0.00000000000E+00  0.71365005308E+03  0.71365005309E+03  0.25500000920E-02 0.  1.
       -2   -1    0    0    0  501  0.00000000000E+00  0.00000000000E+00 -0.35097125894E+03  0.35097125895E+03  0.25500000920E-02 0. -1.
    10030    2    1    2    0    0  0.00000000000E+00  0.00000000000E+00  0.36267879414E+03  0.10646213120E+04  0.10009408725E+04 0.  0.
        4    1    3    3  502    0 -0.15161647441E+03 -0.47654367471E+03  0.16039888590E+03  0.52517696515E+03  0.12699999809E+01 0.  1.
       -4    1    3    3    0  502  0.15161647441E+03  0.47654367471E+03  0.20227990824E+03  0.53944434690E+03  0.12699999809E+01 0. -1.
</event>
<event>
 5   0  0.2378609E-03  0.9971098E+03  0.7818609E-02  0.9311720E-01
       -1   -1    0    0    0  501  0.00000000000E+00  0.00000000000E+00  0.68879576921E+03  0.68879576923E+03  0.50400001928E-02 0. -1.
        1   -1    0    0  501    0  0.00000000000E+00  0.00000000000E+00 -0.36085731331E+03  0.36085731335E+03  0.50400001928E-02 0.  1.
    10030    2    1    2    0    0  0.00000000000E+00  0.00000000000E+00  0.32793845590E+03  0.10496530826E+04  0.99710980484E+03 0.  0.
        1    1    3    3  502    0  0.31780050508E+03 -0.26377281915E+03 -0.13000198167E+03  0.43298242044E+03  0.50400001928E-02 0.  1.
       -1    1    3    3    0  502 -0.31780050508E+03  0.26377281915E+03  0.45794043757E+03  0.61667066213E+03  0.50400001928E-02 0. -1.
</event>
<event>
 5   0  0.2378609E-03  0.9791351E+03  0.7818609E-02  0.9331730E-01
       -1   -1    0    0    0  501  0.00000000000E+00  0.00000000000E+00  0.36963434801E+03  0.36963434805E+03  0.50400001928E-02 0. -1.
        1   -1    0    0  501    0  0.00000000000E+00  0.00000000000E+00 -0.64841483760E+03  0.64841483762E+03  0.50400001928E-02 0.  1.
    10030    2    1    2    0    0  0.00000000000E+00  0.00000000000E+00 -0.27878048959E+03  0.10180491857E+04  0.97913511992E+03 0.  0.
        1    1    3    3  502    0  0.24584842681E+03  0.14409540222E+03  0.27451570057E+03  0.39568144231E+03  0.50400001928E-02 0. -1.
       -1    1    3    3    0  502 -0.24584842681E+03 -0.14409540222E+03 -0.55329619016E+03  0.62236774336E+03  0.50400001928E-02 0.  1.
</event>
<event>
 5   0  0.2378609E-03  0.9939973E+03  0.7818609E-02  0.9315153E-01
        1   -1    0    0  501    0  0.00000000000E+00  0.00000000000E+00  0.33307568286E+03  0.33307568289E+03  0.50400001928E-02 0.  1.
       -1   -1    0    0    0  501  0.00000000000E+00  0.00000000000E+00 -0.74159626002E+03  0.74159626004E+03  0.50400001928E-02 0. -1.
    10030    2    1    2    0    0  0.00000000000E+00  0.00000000000E+00 -0.40852057717E+03  0.10746719429E+04  0.99399734555E+03 0.  0.
        1    1    3    3  502    0 -0.78722295792E+02  0.11677106546E+03 -0.71957311635E+03  0.73322448908E+03  0.50400001928E-02 0. -1.
       -1    1    3    3    0  502  0.78722295792E+02 -0.11677106546E+03  0.31105253919E+03  0.34144745385E+03  0.50400001928E-02 0.  1.
</event>
<event>
 5   0  0.2327595E-03  0.1001608E+04  0.7818609E-02  0.9306783E-01
       -1   -1    0    0    0  501  0.00000000000E+00  0.00000000000E+00  0.48353049922E+03  0.48353049924E+03  0.50400001928E-02 0. -1.
        1   -1    0    0  501    0  0.00000000000E+00  0.00000000000E+00 -0.51869412587E+03  0.51869412590E+03  0.50400001928E-02 0.  1.
    10030    2    1    2    0    0  0.00000000000E+00  0.00000000000E+00 -0.35163626656E+02  0.10022246251E+04  0.10016075672E+04 0.  0.
        5    1    3    3  502    0 -0.27446994767E+03 -0.36624405539E+03 -0.22096519350E+03  0.50824813529E+03  0.46999998093E+01 0.  1.
       -5    1    3    3    0  502  0.27446994767E+03  0.36624405539E+03  0.18580156684E+03  0.49397648985E+03  0.46999998093E+01 0. -1.
</event>
<event>
 5   0  0.2327595E-03  0.1004145E+04  0.7818609E-02  0.9304011E-01
       -1   -1    0    0    0  501  0.00000000000E+00  0.00000000000E+00  0.47038910473E+03  0.47038910475E+03  0.50400001928E-02 0.  1.
        1   -1    0    0  501    0  0.00000000000E+00  0.00000000000E+00 -0.53588967674E+03  0.53588967677E+03  0.50400001928E-02 0. -1.
    10030    2    1    2    0    0  0.00000000000E+00  0.00000000000E+00 -0.65500572016E+02  0.10062787815E+04  0.10041447412E+04 0.  0.
        5    1    3    3  502    0  0.39536423266E+03  0.11668620867E+03 -0.31993571768E+03  0.52183282879E+03  0.46999998093E+01 0. -1.
       -5    1    3    3    0  502 -0.39536423266E+03 -0.11668620867E+03  0.25443514566E+03  0.48444595272E+03  0.46999998093E+01 0.  1.
</event>
<event>
 5   0  0.2350769E-03  0.1008473E+04  0.7818609E-02  0.9299301E-01
        1   -1    0    0  501    0  0.00000000000E+00  0.00000000000E+00  0.24338498126E+03  0.24338498132E+03  0.50400001928E-02 0. -1.
       -1   -1    0    0    0  501  0.00000000000E+00  0.00000000000E+00 -0.10446589375E+04  0.10446589375E+04  0.50400001928E-02 0.  1.
    10030    2    1    2    0    0  0.00000000000E+00  0.00000000000E+00 -0.80127395621E+03  0.12880439188E+04  0.10084726986E+04 0.  0.
        2    1    3    3  502    0  0.45160272187E+03 -0.10023730071E+03 -0.14435804351E+03  0.48459444857E+03  0.25500000920E-02 0.  1.
       -2    1    3    3    0  502 -0.45160272187E+03  0.10023730071E+03 -0.65691591270E+03  0.80344947023E+03  0.25500000920E-02 0. -1.
</event>
<event>
 5   0  0.2350769E-03  0.1004571E+04  0.7818609E-02  0.9303545E-01
       -1   -1    0    0    0  501  0.00000000000E+00  0.00000000000E+00  0.11526482466E+03  0.11526482477E+03  0.50400001928E-02 0. -1.
        1   -1    0    0  501    0  0.00000000000E+00  0.00000000000E+00 -0.21887941149E+04  0.21887941149E+04  0.50400001928E-02 0.  1.
    10030    2    1    2    0    0  0.00000000000E+00  0.00000000000E+00 -0.20735292902E+04  0.23040589397E+04  0.10045714907E+04 0.  0.
        2    1    3    3  502    0 -0.98355626578E+02  0.47084267051E+03 -0.70499364976E+03  0.85345339407E+03  0.25500000920E-02 0. -1.
       -2    1    3    3    0  502  0.98355626578E+02 -0.47084267051E+03 -0.13685356405E+04  0.14506055456E+04  0.25500000920E-02 0.  1.
</event>
<event>
 5   0  0.2350769E-03  0.1001241E+04  0.7818609E-02  0.9307184E-01
        1   -1    0    0  501    0  0.00000000000E+00  0.00000000000E+00  0.57267950238E+03  0.57267950240E+03  0.50400001928E-02 0. -1.
       -1   -1    0    0    0  501  0.00000000000E+00  0.00000000000E+00 -0.43762875943E+03  0.43762875946E+03  0.50400001928E-02 0.  1.
    10030    2    1    2    0    0  0.00000000000E+00  0.00000000000E+00  0.13505074295E+03  0.10103082619E+04  0.10012412700E+04 0.  0.
        2    1    3    3  502    0 -0.20289032409E+03  0.43696660708E+03  0.20483380169E+03  0.52350853445E+03  0.25500000920E-02 0. -1.
       -2    1    3    3    0  502  0.20289032409E+03 -0.43696660708E+03 -0.69783058741E+02  0.48679972741E+03  0.25500000920E-02 0.  1.
</event>
<event>
 5   0  0.3873874E-03  0.9915160E+03  0.7818609E-02  0.9317899E-01
       -2   -1    0    0    0  501  0.00000000000E+00  0.00000000000E+00  0.35992614541E+03  0.35992614542E+03  0.25500000920E-02 0.  1.
        2   -1    0    0  501    0  0.00000000000E+00  0.00000000000E+00 -0.68285125167E+03  0.68285125167E+03  0.25500000920E-02 0. -1.
    10030    2    1    2    0    0  0.00000000000E+00  0.00000000000E+00 -0.32292510626E+03  0.10427773971E+04  0.99151604910E+03 0.  0.
        5    1    3    3  502    0  0.51679994882E+02 -0.43469112663E+03 -0.40614215313E+03  0.59716056131E+03  0.46999998093E+01 0.  1.
       -5    1    3    3    0  502 -0.51679994882E+02  0.43469112663E+03  0.83217046872E+02  0.44561683578E+03  0.46999998093E+01 0. -1.
</event>
<event>
 5   0  0.2378609E-03  0.1000780E+04  0.7818609E-02  0.9307690E-01
        1   -1    0    0  501    0  0.00000000000E+00  0.00000000000E+00  0.52046371571E+03  0.52046371573E+03  0.50400001928E-02 0.  1.
       -1   -1    0    0    0  501  0.00000000000E+00  0.00000000000E+00 -0.48109033643E+03  0.48109033646E+03  0.50400001928E-02 0. -1.
    10030    2    1    2    0    0  0.00000000000E+00  0.00000000000E+00  0.39373379275E+02  0.10015540522E+04  0.10007798242E+04 0.  0.
        1    1    3    3  502    0  0.32735222192E+02  0.42217321464E+03 -0.24714336856E+03  0.49028732655E+03  0.50400001928E-02 0. -1.
       -1    1    3    3    0  502 -0.32735222192E+02 -0.42217321464E+03  0.28651674783E+03  0.51126672564E+03  0.50400001928E-02 0.  1.
</event>
<event>
 5   0  0.1548000E-03  0.1004002E+04  0.7818609E-02  0.9304166E-01
       -3   -1    0    0    0  501  0.00000000000E+00  0.00000000000E+00  0.18431443075E+03  0.18431445842E+03  0.10100000352E+00 0. -1.
        3   -1    0    0  501    0  0.00000000000E+00  0.00000000000E+00 -0.13672566468E+04  0.13672566505E+04  0.10100000352E+00 0.  1.
    10030    2    1    2    0    0  0.00000000000E+00  0.00000000000E+00 -0.11829422161E+04  0.15515711090E+04  0.10040023006E+04 0.  0.
        2    1    3    3  502    0  0.45732272148E+03  0.75509762154E+02 -0.88937150641E+03  0.10029095035E+04  0.25500000920E-02 0.  1.
       -2    1    3    3    0  502 -0.45732272148E+03 -0.75509762154E+02 -0.29357070966E+03  0.54866160548E+03  0.25500000920E-02 0. -1.
</event>
<event>
 5   0  0.4140860E-03  0.9979163E+03  0.7818609E-02  0.9310833E-01
       -2   -1    0    0    0  501  0.00000000000E+00  0.00000000000E+00  0.27373669410E+03  0.27373669411E+03  0.25500000920E-02 0.  1.
        2   -1    0    0  501    0  0.00000000000E+00  0.00000000000E+00 -0.90948439301E+03  0.90948439301E+03  0.25500000920E-02 0. -1.
    10030    2    1    2    0    0  0.00000000000E+00  0.00000000000E+00 -0.63574769891E+03  0.11832210871E+04  0.99791633134E+03 0.  0.
        3    1    3    3  502    0  0.26837457278E+03  0.35789973107E+03 -0.55833005936E+02  0.45081533200E+03  0.10100000352E+00 0.  1.
       -3    1    3    3    0  502 -0.26837457278E+03 -0.35789973107E+03 -0.57991469297E+03  0.73240575513E+03  0.10100000352E+00 0. -1.
</event>
<event>
 5   0  0.2405022E-03  0.9965398E+03  0.7818609E-02  0.9312348E-01
       -1   -1    0    0    0  501  0.00000000000E+00  0.00000000000E+00  0.22045485444E+03  0.22045485450E+03  0.50400001928E-02 0. -1.
        1   -1    0    0  501    0  0.00000000000E+00  0.00000000000E+00 -0.11261848393E+04  0.11261848393E+04  0.50400001928E-02 0.  1.
    10030    2    1    2    0    0  0.00000000000E+00  0.00000000000E+00 -0.90572998486E+03  0.13466396938E+04  0.99653984340E+03 0.  0.
        4    1    3    3  502    0 -0.49976723845E+02  0.16849846293E+03  0.17717545557E+03  0.24956393948E+03  0.12699999809E+01 0. -1.
       -4    1    3    3    0  502  0.49976723845E+02 -0.16849846293E+03 -0.10829054404E+04  0.10970757543E+04  0.12699999809E+01 0.  1.
</event>
<event>
 5   0  0.3826483E-03  0.1010441E+04  0.7818609E-02  0.9297167E-01
       -2   -1    0    0    0  501  0.00000000000E+00  0.00000000000E+00  0.19924088534E+03  0.19924088535E+03  0.25500000920E-02 0.  1.
        2   -1    0    0  501    0  0.00000000000E+00  0.00000000000E+00 -0.12811002718E+04  0.12811002718E+04  0.25500000920E-02 0. -1.
    10030    2    1    2    0    0  0.00000000000E+00  0.00000000000E+00 -0.10818593865E+04  0.14803411572E+04  0.10104406017E+04 0.  0.
        4    1    3    3  502    0  0.92862849439E+02  0.11048751667E+03 -0.12502520820E+04  0.12585558714E+04  0.12699999809E+01 0. -1.
       -4    1    3    3    0  502 -0.92862849439E+02 -0.11048751667E+03  0.16839269553E+03  0.22178528570E+03  0.12699999809E+01 0.  1.
</event>
<event>
 5   0  0.4026829E-03  0.1002394E+04  0.7818609E-02  0.9305923E-01
       -2   -1    0    0    0  501  0.00000000000E+00  0.00000000000E+00  0.43651614517E+03  0.43651614518E+03  0.25500000920E-02 0.  1.
        2   -1    0    0  501    0  0.00000000000E+00  0.00000000000E+00 -0.57546195019E+03  0.57546195020E+03  0.25500000920E-02 0. -1.
    10030    2    1    2    0    0  0.00000000000E+00  0.00000000000E+00 -0.13894580502E+03  0.10119780954E+04  0.10023939988E+04 0.  0.
        1    1    3    3  502    0 -0.30379743746E+03  0.23308434670E+03 -0.39594888298E+03  0.55081459098E+03  0.50400001928E-02 0. -1.
       -1    1    3    3    0  502  0.30379743746E+03 -0.23308434670E+03  0.25700307795E+03  0.46116350439E+03  0.50400001928E-02 0.  1.
</event>
<event>
 5   0  0.2313036E-03  0.1040176E+04  0.7818609E-02  0.9265546E-01
        1   -1    0    0  501    0  0.00000000000E+00  0.00000000000E+00  0.87006007969E+03  0.87006007971E+03  0.50400001928E-02 0.  1.
       -1   -1    0    0    0  501  0.00000000000E+00  0.00000000000E+00 -0.31088820867E+03  0.31088820871E+03  0.50400001928E-02 0. -1.
    10030    2    1    2    0    0  0.00000000000E+00  0.00000000000E+00  0.55917187102E+03  0.11809482884E+04  0.10401757922E+04 0.  0.
        3    1    3    3  502    0 -0.34132849108E+03  0.36663961979E+02 -0.16398307554E+03  0.38044690062E+03  0.10100000352E+00 0. -1.
       -3    1    3    3    0  502  0.34132849108E+03 -0.36663961979E+02  0.72315494656E+03  0.80050138780E+03  0.10100000352E+00 0.  1.
</event>
<event>
 5   0  0.4140860E-03  0.9970833E+03  0.7818609E-02  0.9311750E-01
       -2   -1    0    0    0  501  0.00000000000E+00  0.00000000000E+00  0.32173687177E+03  0.32173687178E+03  0.25500000920E-02 0.  1.
        2   -1    0    0  501    0  0.00000000000E+00  0.00000000000E+00 -0.77250638579E+03  0.77250638580E+03  0.25500000920E-02 0. -1.
    10030    2    1    2    0    0  0.00000000000E+00  0.00000000000E+00 -0.45076951402E+03  0.10942432576E+04  0.99708332249E+03 0.  0.
        3    1    3    3  502    0  0.18689103075E+03  0.16993709426E+03  0.24630805490E+03  0.35280949745E+03  0.10100000352E+00 0.  1.
       -3    1    3    3    0  502 -0.18689103075E+03 -0.16993709426E+03 -0.69707756892E+03  0.74143376014E+03  0.10100000352E+00 0. -1.
</event>
<event>
 5   0  0.2405022E-03  0.1003789E+04  0.7818609E-02  0.9304399E-01
        1   -1    0    0  501    0  0.00000000000E+00  0.00000000000E+00  0.75986148105E+03  0.75986148106E+03  0.50400001928E-02 0. -1.
       -1   -1    0    0    0  501  0.00000000000E+00  0.00000000000E+00 -0.33150516401E+03  0.33150516405E+03  0.50400001928E-02 0.  1.
    10030    2    1    2    0    0  0.00000000000E+00  0.00000000000E+00  0.42835631703E+03  0.10913666451E+04  0.10037888322E+04 0.  0.
        4    1    3    3  502    0  0.38484746662E+03 -0.14448678499E+03  0.52724569073E+03  0.66856086851E+03  0.12699999809E+01 0. -1.
       -4    1    3    3    0  502 -0.38484746662E+03  0.14448678499E+03 -0.98889373698E+02  0.42280577661E+03  0.12699999809E+01 0.  1.
</event>
<event>
 5   0  0.3895011E-03  0.9905324E+03  0.7818609E-02  0.9318990E-01
        2   -1    0    0  501    0  0.00000000000E+00  0.00000000000E+00  0.38933847611E+03  0.38933847612E+03  0.25500000920E-02 0. -1.
       -2   -1    0    0    0  501  0.00000000000E+00  0.00000000000E+00 -0.63001377974E+03  0.63001377975E+03  0.25500000920E-02 0.  1.
    10030    2    1    2    0    0  0.00000000000E+00  0.00000000000E+00 -0.24067530363E+03  0.10193522559E+04  0.99053239208E+03 0.  0.
        2    1    3    3  502    0  0.25020777159E+03 -0.57132917608E+02  0.31556714114E+03  0.40675633961E+03  0.25500000920E-02 0. -1.
       -2    1    3    3    0  502 -0.25020777159E+03  0.57132917608E+02 -0.55624244477E+03  0.61259591626E+03  0.25500000920E-02 0.  1.
</event>
<event>
 5   0  0.2405022E-03  0.1001943E+04  0.7818609E-02  0.9306416E-01
        1   -1    0    0  501    0  0.00000000000E+00  0.00000000000E+00  0.61863162858E+03  0.61863162860E+03  0.50400001928E-02 0. -1.
       -1   -1    0    0    0  501  0.00000000000E+00  0.00000000000E+00 -0.40568987602E+03  0.40568987606E+03  0.50400001928E-02 0.  1.
    10030    2    1    2    0    0  0.00000000000E+00  0.00000000000E+00  0.21294175255E+03  0.10243215047E+04  0.10019432893E+04 0.  0.
        4    1    3    3  502    0 -0.26572691630E+03  0.60397557817E+02 -0.32328968674E+03  0.42281969383E+03  0.12699999809E+01 0.  1.
       -4    1    3    3    0  502  0.26572691630E+03 -0.60397557817E+02  0.53623143929E+03  0.60150181082E+03  0.12699999809E+01 0. -1.
</event>
<event>
 5   0  0.2405022E-03  0.9748511E+03  0.7818609E-02  0.9336566E-01
        1   -1    0    0  501    0  0.00000000000E+00  0.00000000000E+00  0.10248487325E+04  0.10248487325E+04  0.50400001928E-02 0.  1.
       -1   -1    0    0    0  501  0.00000000000E+00  0.00000000000E+00 -0.23182313938E+03  0.23182313943E+03  0.50400001928E-02 0. -1.
    10030    2    1    2    0    0  0.00000000000E+00  0.00000000000E+00  0.79302559314E+03  0.12566718720E+04  0.97485106678E+03 0.  0.
        4    1    3    3  502    0  0.17883318348E+03 -0.41368448138E+03  0.63583241915E+03  0.77935911863E+03  0.12699999809E+01 0.  1.
       -4    1    3    3    0  502 -0.17883318348E+03  0.41368448138E+03  0.15719317399E+03  0.47731275334E+03  0.12699999809E+01 0. -1.
</event>
<event>
 5   0  0.2350769E-03  0.9972841E+03  0.7818609E-02  0.9311529E-01
        1   -1    0    0  501    0  0.00000000000E+00  0.00000000000E+00  0.69642535779E+03  0.69642535781E+03  0.50400001928E-02 0.  1.
       -1   -1    0    0    0  501  0.00000000000E+00  0.00000000000E+00 -0.35702879943E+03  0.35702879947E+03  0.50400001928E-02 0. -1.
    10030    2    1    2    0    0  0.00000000000E+00  0.00000000000E+00  0.33939655836E+03  0.10534541573E+04  0.99728413086E+03 0.  0.
        2    1    3    3  502    0  0.16145370395E+03 -0.35730444954E+03 -0.15572831628E+03  0.42188277599E+03  0.25500000920E-02 0. -1.
       -2    1    3    3    0  502 -0.16145370395E+03  0.35730444954E+03  0.49512487464E+03  0.63157138129E+03  0.25500000920E-02 0.  1.
</event>
<event>
 5   0  0.3895011E-03  0.9972154E+03  0.7818609E-02  0.9311604E-01
        2   -1    0    0  501    0  0.00000000000E+00  0.00000000000E+00  0.10734751721E+04  0.10734751721E+04  0.25500000920E-02 0.  1.
       -2   -1    0    0    0  501  0.00000000000E+00  0.00000000000E+00 -0.23159329908E+03  0.23159329909E+03  0.25500000920E-02 0. -1.
    10030    2    1    2    0    0  0.00000000000E+00  0.00000000000E+00  0.84188187303E+03  0.13050684712E+04  0.99721543630E+03 0.  0.
        2    1    3    3  502    0 -0.20824172891E+03  0.42431904870E+03  0.21319590355E+03  0.51852074794E+03  0.25500000920E-02 0. -1.
       -2    1    3    3    0  502  0.20824172891E+03 -0.42431904870E+03  0.62868596949E+03  0.78654772327E+03  0.25500000920E-02 0.  1.
</event>
<event>
 5   0  0.4026829E-03  0.9931317E+03  0.7818609E-02  0.9316110E-01
        2   -1    0    0  501    0  0.00000000000E+00  0.00000000000E+00  0.11824077908E+04  0.11824077908E+04  0.25500000920E-02 0. -1.
       -2   -1    0    0    0  501  0.00000000000E+00  0.00000000000E+00 -0.20853856748E+03  0.20853856750E+03  0.25500000920E-02 0.  1.
    10030    2    1    2    0    0  0.00000000000E+00  0.00000000000E+00  0.97386922331E+03  0.13909463583E+04  0.99313166677E+03 0.  0.
        1    1    3    3  502    0 -0.19699500521E+03 -0.37893242220E+03  0.13211618734E+03  0.44704753624E+03  0.50400001928E-02 0.  1.
       -1    1    3    3    0  502  0.19699500521E+03  0.37893242220E+03  0.84175303598E+03  0.94389882206E+03  0.50400001928E-02 0. -1.
</event>
<event>
 5   0  0.3873874E-03  0.1002483E+04  0.7818609E-02  0.9305825E-01
       -2   -1    0    0    0  501  0.00000000000E+00  0.00000000000E+00  0.23346711160E+03  0.23346711161E+03  0.25500000920E-02 0.  1.
        2   -1    0    0  501    0  0.00000000000E+00  0.00000000000E+00 -0.10761397235E+04  0.10761397235E+04  0.25500000920E-02 0. -1.
    10030    2    1    2    0    0  0.00000000000E+00  0.00000000000E+00 -0.84267261191E+03  0.13096068351E+04  0.10024833823E+04 0.  0.
        5    1    3    3  502    0 -0.24872860955E+03 -0.83317637158E+02  0.13660962120E+03  0.29579051450E+03  0.46999998093E+01 0.  1.
       -5    1    3    3    0  502  0.24872860955E+03  0.83317637158E+02 -0.97928223311E+03  0.10138163206E+04  0.46999998093E+01 0. -1.
</event>
<event>
 5   0  0.4026829E-03  0.9977130E+03  0.7818609E-02  0.9311057E-01
       -2   -1    0    0    0  501  0.00000000000E+00  0.00000000000E+00  0.22855837393E+03  0.22855837394E+03  0.25500000920E-02 0.  1.
        2   -1    0    0  501    0  0.00000000000E+00  0.00000000000E+00 -0.10888152039E+04  0.10888152039E+04  0.25500000920E-02 0. -1.
    10030    2    1    2    0    0  0.00000000000E+00  0.00000000000E+00 -0.86025682995E+03  0.13173735778E+04  0.99771304997E+03 0.  0.
        1    1    3    3  502    0  0.21846679820E+03  0.43139265958E+03 -0.59200703276E+03  0.76439498659E+03  0.50400001928E-02 0.  1.
       -1    1    3    3    0  502 -0.21846679820E+03 -0.43139265958E+03 -0.26824979719E+03  0.55297859124E+03  0.50400001928E-02 0. -1.
</event>
<event>
 5   0  0.2378609E-03  0.1003372E+04  0.7818609E-02  0.9304854E-01
       -1   -1    0    0    0  501  0.00000000000E+00  0.00000000000E+00  0.18360401163E+03  0.18360401170E+03  0.50400001928E-02 0.  1.
        1   -1    0    0  501    0  0.00000000000E+00  0.00000000000E+00 -0.13708238487E+04  0.13708238487E+04  0.50400001928E-02 0. -1.
    10030    2    1    2    0    0  0.00000000000E+00  0.00000000000E+00 -0.11872198371E+04  0.15544278604E+04  0.10033718312E+04 0.  0.
        1    1    3    3  502    0  0.18518805386E+03 -0.20216430932E+02  0.12803567197E+03  0.22604524479E+03  0.50400001928E-02 0.  1.
       -1    1    3    3    0  502 -0.18518805386E+03  0.20216430932E+02 -0.13152555091E+04  0.13283826156E+04  0.50400001928E-02 0. -1.
</event>
<event>
 5   0  0.3873874E-03  0.1080318E+04  0.7818609E-02  0.9224590E-01
       -2   -1    0    0    0  501  0.00000000000E+00  0.00000000000E+00  0.20910090724E+03  0.20910090726E+03  0.25500000920E-02 0.  1.
        2   -1    0    0  501    0  0.00000000000E+00  0.00000000000E+00 -0.13953634033E+04  0.13953634033E+04  0.25500000920E-02 0. -1.
    10030    2    1    2    0    0  0.00000000000E+00  0.00000000000E+00 -0.11862624960E+04  0.16044643105E+04  0.10803180153E+04 0.  0.
        5    1    3    3  502    0 -0.36600238428E+02 -0.46096483920E+03 -0.17855243519E+03  0.49571284283E+03  0.46999998093E+01 0.  1.
       -5    1    3    3    0  502  0.36600238428E+02  0.46096483920E+03 -0.10077100608E+04  0.11087514677E+04  0.46999998093E+01 0. -1.
</event>
<event>
 5   0  0.1548000E-03  0.1001009E+04  0.7818609E-02  0.9307438E-01
        3   -1    0    0  501    0  0.00000000000E+00  0.00000000000E+00  0.62634402085E+03  0.62634402899E+03  0.10100000352E+00 0. -1.
       -3   -1    0    0    0  501  0.00000000000E+00  0.00000000000E+00 -0.39994782157E+03  0.39994783432E+03  0.10100000352E+00 0.  1.
    10030    2    1    2    0    0  0.00000000000E+00  0.00000000000E+00  0.22639619928E+03  0.10262918633E+04  0.10010093654E+04 0.  0.
        4    1    3    3  502    0 -0.10748464110E+03  0.37462834678E+03  0.43514182380E+03  0.58416552963E+03  0.12699999809E+01 0. -1.
       -4    1    3    3    0  502  0.10748464110E+03 -0.37462834678E+03 -0.20874562451E+03  0.44212633369E+03  0.12699999809E+01 0.  1.
</event>
<event>
 5   0  0.3826483E-03  0.9999830E+03  0.7818609E-02  0.9308563E-01
       -2   -1    0    0    0  501  0.00000000000E+00  0.00000000000E+00  0.13631098275E+03  0.13631098277E+03  0.25500000920E-02 0.  1.
        2   -1    0    0  501    0  0.00000000000E+00  0.00000000000E+00 -0.18339791637E+04  0.18339791637E+04  0.25500000920E-02 0. -1.
    10030    2    1    2    0    0  0.00000000000E+00  0.00000000000E+00 -0.16976681810E+04  0.19702901465E+04  0.99998300420E+03 0.  0.
        4    1    3    3  502    0  0.37919514882E+03 -0.12903493914E+03 -0.14384545913E+04  0.14931819047E+04  0.12699999809E+01 0. -1.
       -4    1    3    3    0  502 -0.37919514882E+03  0.12903493914E+03 -0.25921358967E+03  0.47710824179E+03  0.12699999809E+01 0.  1.
</event>
<event>
 5   0  0.3826483E-03  0.9655648E+03  0.7818609E-02  0.9347140E-01
       -2   -1    0    0    0  501  0.00000000000E+00  0.00000000000E+00  0.10165528501E+03  0.10165528504E+03  0.25500000920E-02 0. -1.
        2   -1    0    0  501    0  0.00000000000E+00  0.00000000000E+00 -0.22928354194E+04  0.22928354194E+04  0.25500000920E-02 0.  1.
    10030    2    1    2    0    0  0.00000000000E+00  0.00000000000E+00 -0.21911801344E+04  0.23944907044E+04  0.96556478409E+03 0.  0.
        4    1    3    3  502    0 -0.17270489496E+03  0.33713874260E+03 -0.35333023045E+03  0.51800905123E+03  0.12699999809E+01 0. -1.
       -4    1    3    3    0  502  0.17270489496E+03 -0.33713874260E+03 -0.18378499039E+04  0.18764816532E+04  0.12699999809E+01 0.  1.
</event>
<event>
 5   0  0.2350769E-03  0.1007867E+04  0.7818609E-02  0.9299958E-01
        1   -1    0    0  501    0  0.00000000000E+00  0.00000000000E+00  0.43170435957E+03  0.43170435960E+03  0.50400001928E-02 0. -1.
       -1   -1    0    0    0  501  0.00000000000E+00  0.00000000000E+00 -0.58824755587E+03  0.58824755589E+03  0.50400001928E-02 0.  1.
    10030    2    1    2    0    0  0.00000000000E+00  0.00000000000E+00 -0.15654319630E+03  0.10199519155E+04  0.10078671230E+04 0.  0.
        2    1    3    3  502    0 -0.89123527589E+02  0.36664347455E+03  0.25976744305E+03  0.45809340213E+03  0.25500000920E-02 0. -1.
       -2    1    3    3    0  502  0.89123527589E+02 -0.36664347455E+03 -0.41631063935E+03  0.56185851337E+03  0.25500000920E-02 0.  1.
</event>
<event>
 5   0  0.2378609E-03  0.9974565E+03  0.7818609E-02  0.9311339E-01
        1   -1    0    0  501    0  0.00000000000E+00  0.00000000000E+00  0.19613402624E+03  0.19613402630E+03  0.50400001928E-02 0.  1.
       -1   -1    0    0    0  501  0.00000000000E+00  0.00000000000E+00 -0.12681627831E+04  0.12681627831E+04  0.50400001928E-02 0. -1.
    10030    2    1    2    0    0  0.00000000000E+00  0.00000000000E+00 -0.10720287569E+04  0.14642968094E+04  0.99745651059E+03 0.  0.
        1    1    3    3  502    0 -0.29982569171E+03 -0.12153614110E+03 -0.10932154811E+04  0.11400818247E+04  0.50400001928E-02 0. -1.
       -1    1    3    3    0  502  0.29982569171E+03  0.12153614110E+03  0.21186724180E+02  0.32421498471E+03  0.50400001928E-02 0.  1.
</event>
<event>
 5   0  0.2327595E-03  0.1001156E+04  0.7818609E-02  0.9307278E-01
        1   -1    0    0  501    0  0.00000000000E+00  0.00000000000E+00  0.45031111038E+03  0.45031111041E+03  0.50400001928E-02 0. -1.
       -1   -1    0    0    0  501  0.00000000000E+00  0.00000000000E+00 -0.55645553790E+03  0.55645553793E+03  0.50400001928E-02 0.  1.
    10030    2    1    2    0    0  0.00000000000E+00  0.00000000000E+00 -0.10614442753E+03  0.10067666483E+04  0.10011555547E+04 0.  0.
        5    1    3    3  502    0  0.48547583149E+03 -0.11132602631E+03 -0.30363949873E+01  0.49810799711E+03  0.46999998093E+01 0. -1.
       -5    1    3    3    0  502 -0.48547583149E+03  0.11132602631E+03 -0.10310803254E+03  0.50865865122E+03  0.46999998093E+01 0.  1.
</event>
<event>
 5   0  0.3826483E-03  0.9998920E+03  0.7818609E-02  0.9308663E-01
        2   -1    0    0  501    0  0.00000000000E+00  0.00000000000E+00  0.68371940024E+03  0.68371940025E+03  0.25500000920E-02 0.  1.
       -2   -1    0    0    0  501  0.00000000000E+00  0.00000000000E+00 -0.36556813003E+03  0.36556813004E+03  0.25500000920E-02 0. -1.
    10030    2    1    2    0    0  0.00000000000E+00  0.00000000000E+00  0.31815127021E+03  0.10492875303E+04  0.99989203941E+03 0.  0.
        4    1    3    3  502    0  0.17780275933E+03  0.53463364360E+00  0.64941686199E+03  0.67331863230E+03  0.12699999809E+01 0.  1.
       -4    1    3    3    0  502 -0.17780275933E+03 -0.53463364360E+00 -0.33126559178E+03  0.37596889799E+03  0.12699999809E+01 0. -1.
</event>
<event>
 5   0  0.3873874E-03  0.9877277E+03  0.7818609E-02  0.9322108E-01
        2   -1    0    0  501    0  0.00000000000E+00  0.00000000000E+00  0.97089691817E+03  0.97089691818E+03  0.25500000920E-02 0.  1.
       -2   -1    0    0    0  501  0.00000000000E+00  0.00000000000E+00 -0.25121255824E+03  0.25121255825E+03  0.25500000920E-02 0. -1.
    10030    2    1    2    0    0  0.00000000000E+00  0.00000000000E+00  0.71968435993E+03  0.12221094764E+04  0.98772769246E+03 0.  0.
        5    1    3    3  502    0 -0.13493961674E+03 -0.47492425441E+03  0.34642104682E+03  0.60315120764E+03  0.46999998093E+01 0. -1.
       -5    1    3    3    0  502  0.13493961674E+03  0.47492425441E+03  0.37326331311E+03  0.61895826879E+03  0.46999998093E+01 0.  1.
</event>
<event>
 5   0  0.4026829E-03  0.9732146E+03  0.7818609E-02  0.9338420E-01
       -2   -1    0    0    0  501  0.00000000000E+00  0.00000000000E+00  0.12857160867E+03  0.12857160870E+03  0.25500000920E-02 0. -1.
        2   -1    0    0  501    0  0.00000000000E+00  0.00000000000E+00 -0.18416715235E+04  0.18416715235E+04  0.25500000920E-02 0.  1.
    10030    2    1    2    0    0  0.00000000000E+00  0.00000000000E+00 -0.17130999148E+04  0.19702431322E+04  0.97321461239E+03 0.  0.
        1    1    3    3  502    0  0.16171243944E+03 -0.45232085343E+03 -0.10139074004E+04  0.11219417472E+04  0.50400001928E-02 0.  1.
       -1    1    3    3    0  502 -0.16171243944E+03  0.45232085343E+03 -0.69919251445E+03  0.84830138500E+03  0.50400001928E-02 0. -1.
</event>
<event>
 5   0  0.4026829E-03  0.9994606E+03  0.7818609E-02  0.9309137E-01
       -2   -1    0    0    0  501  0.00000000000E+00  0.00000000000E+00  0.66628257157E+03  0.66628257157E+03  0.25500000920E-02 0. -1.
        2   -1    0    0  501    0  0.00000000000E+00  0.00000000000E+00 -0.37481153383E+03  0.37481153384E+03  0.25500000920E-02 0.  1.
    10030    2    1    2    0    0  0.00000000000E+00  0.00000000000E+00  0.29147103774E+03  0.10410941054E+04  0.99946063979E+03 0.  0.
        1    1    3    3  502    0 -0.24192375095E+03  0.20974802802E+03 -0.25392528342E+03  0.40865558374E+03  0.50400001928E-02 0.  1.
       -1    1    3    3    0  502  0.24192375095E+03 -0.20974802802E+03  0.54539632116E+03  0.63243852167E+03  0.50400001928E-02 0. -1.
</event>
<event>
 5   0  0.2327595E-03  0.9997343E+03  0.7818609E-02  0.9308836E-01
        1   -1    0    0  501    0  0.00000000000E+00  0.00000000000E+00  0.10195149433E+04  0.10195149433E+04  0.50400001928E-02 0. -1.
       -1   -1    0    0    0  501  0.00000000000E+00  0.00000000000E+00 -0.24508434483E+03  0.24508434488E+03  0.50400001928E-02 0.  1.
    10030    2    1    2    0    0  0.00000000000E+00  0.00000000000E+00  0.77443059849E+03  0.12645992882E+04  0.99973426863E+03 0.  0.
        5    1    3    3  502    0  0.17943969156E+03  0.29711585801E+03  0.84218537875E+03  0.91091972104E+03  0.46999998093E+01 0. -1.
       -5    1    3    3    0  502 -0.17943969156E+03 -0.29711585801E+03 -0.67754780262E+02  0.35367956718E+03  0.46999998093E+01 0.  1.
</event>
<event>
 5   0  0.2327595E-03  0.9876375E+03  0.7818609E-02  0.9322209E-01
        1   -1    0    0  501    0  0.00000000000E+00  0.00000000000E+00  0.57666673492E+03  0.57666673494E+03  0.50400001928E-02 0. -1.
       -1   -1    0    0    0  501  0.00000000000E+00  0.00000000000E+00 -0.42287329597E+03  0.42287329600E+03  0.50400001928E-02 0.  1.
    10030    2    1    2    0    0  0.00000000000E+00  0.00000000000E+00  0.15379343895E+03  0.99954003094E+03  0.98763751022E+03 0.  0.
        5    1    3    3  502    0 -0.66643785114E+02  0.10853352395E+03  0.55973540250E+03  0.57406160883E+03  0.46999998093E+01 0. -1.
       -5    1    3    3    0  502  0.66643785114E+02 -0.10853352395E+03 -0.40594196356E+03  0.42547842212E+03  0.46999998093E+01 0.  1.
</event>
<event>
 5   0  0.3826483E-03  0.9788900E+03  0.7818609E-02  0.9332006E-01
        2   -1    0    0  501    0  0.00000000000E+00  0.00000000000E+00  0.58855539493E+03  0.58855539493E+03  0.25500000920E-02 0.  1.
       -2   -1    0    0    0  501  0.00000000000E+00  0.00000000000E+00 -0.40702441582E+03  0.40702441583E+03  0.25500000920E-02 0. -1.
    10030    2    1    2    0    0  0.00000000000E+00  0.00000000000E+00  0.18153097910E+03  0.99557981076E+03  0.97889001590E+03 0.  0.
        4    1    3    3  502    0 -0.12238153970E+03  0.88845731629E+02 -0.38266432202E+03  0.41146616086E+03  0.12699999809E+01 0. -1.
       -4    1    3    3    0  502  0.12238153970E+03 -0.88845731629E+02  0.56419530112E+03  0.58411364990E+03  0.12699999809E+01 0.  1.
</event>
<event>
 5   0  0.2405022E-03  0.1002244E+04  0.7818609E-02  0.9306087E-01
        1   -1    0    0  501    0  0.00000000000E+00  0.00000000000E+00  0.46244727354E+03  0.46244727357E+03  0.50400001928E-02 0. -1.
       -1   -1    0    0    0  501  0.00000000000E+00  0.00000000000E+00 -0.54303066424E+03  0.54303066426E+03  0.50400001928E-02 0.  1.
    10030    2    1    2    0    0  0.00000000000E+00  0.00000000000E+00 -0.80583390698E+02  0.10054779378E+04  0.10022435835E+04 0.  0.
        4    1    3    3  502    0  0.16157256555E+02  0.76974287910E+02 -0.53679824988E+03  0.54253117137E+03  0.12699999809E+01 0.  1.
       -4    1    3    3    0  502 -0.16157256555E+02 -0.76974287910E+02  0.45621485918E+03  0.46294676646E+03  0.12699999809E+01 0. -1.
</event>
<event>
 5   0  0.3826483E-03  0.1007304E+04  0.7818609E-02  0.9300570E-01
       -2   -1    0    0    0  501  0.00000000000E+00  0.00000000000E+00  0.19613324233E+03  0.19613324235E+03  0.25500000920E-02 0.  1.
        2   -1    0    0  501    0  0.00000000000E+00  0.00000000000E+00 -0.12933315765E+04  0.12933315765E+04  0.25500000920E-02 0. -1.
    10030    2    1    2    0    0  0.00000000000E+00  0.00000000000E+00 -0.10971983341E+04  0.14894648188E+04  0.10073039571E+04 0.  0.
        4    1    3    3  502    0  0.24564925154E+03  0.37038105569E+03 -0.19825228201E+03  0.48665312228E+03  0.12699999809E+01 0.  1.
       -4    1    3    3    0  502 -0.24564925154E+03 -0.37038105569E+03 -0.89894605214E+03  0.10028116966E+04  0.12699999809E+01 0. -1.
</event>
<event>
 5   0  0.2313036E-03  0.9938157E+03  0.7818609E-02  0.9315354E-01
       -1   -1    0    0    0  501  0.00000000000E+00  0.00000000000E+00  0.17276545853E+03  0.17276545860E+03  0.50400001928E-02 0. -1.
        1   -1    0    0  501    0  0.00000000000E+00  0.00000000000E+00 -0.14292060227E+04  0.14292060227E+04  0.50400001928E-02 0.  1.
    10030    2    1    2    0    0  0.00000000000E+00  0.00000000000E+00 -0.12564405642E+04  0.16019714813E+04  0.99381574531E+03 0.  0.
        3    1    3    3  502    0 -0.47314465377E+03 -0.51991728129E+02 -0.39828042377E+03  0.62064185271E+03  0.10100000352E+00 0. -1.
       -3    1    3    3    0  502  0.47314465377E+03  0.51991728129E+02 -0.85816014040E+03  0.98132962859E+03  0.10100000352E+00 0.  1.
</event>
<event>
 5   0  0.2405022E-03  0.9954131E+03  0.7818609E-02  0.9313590E-01
       -1   -1    0    0    0  501  0.00000000000E+00  0.00000000000E+00  0.11424405312E+04  0.11424405312E+04  0.50400001928E-02 0. -1.
        1   -1    0    0  501    0  0.00000000000E+00  0.00000000000E+00 -0.21682685847E+03  0.21682685853E+03  0.50400001928E-02 0.  1.
    10030    2    1    2    0    0  0.00000000000E+00  0.00000000000E+00  0.92561367269E+03  0.13592673897E+04  0.99541306283E+03 0.  0.
        4    1    3    3  502    0  0.42268878673E+03 -0.25433551708E+03  0.37266303899E+03  0.61824891363E+03  0.12699999809E+01 0.  1.
       -4    1    3    3    0  502 -0.42268878673E+03  0.25433551708E+03  0.55295063371E+03  0.74101847608E+03  0.12699999809E+01 0. -1.
</event>
<event>
 5   0  0.2350769E-03  0.9558706E+03  0.7818609E-02  0.9358315E-01
       -1   -1    0    0    0  501  0.00000000000E+00  0.00000000000E+00  0.23021944585E+03  0.23021944591E+03  0.50400001928E-02 0. -1.
        1   -1    0    0  501    0  0.00000000000E+00  0.00000000000E+00 -0.99219317523E+03  0.99219317525E+03  0.50400001928E-02 0.  1.
    10030    2    1    2    0    0  0.00000000000E+00  0.00000000000E+00 -0.76197372938E+03  0.12224126212E+04  0.95587062519E+03 0.  0.
        2    1    3    3  502    0  0.32389777336E+03  0.20589285427E+03 -0.74522389301E+03  0.83824834372E+03  0.25500000920E-02 0. -1.
       -2    1    3    3    0  502 -0.32389777336E+03 -0.20589285427E+03 -0.16749836365E+02  0.38416427743E+03  0.25500000920E-02 0.  1.
</event>
<event>
 5   0  0.4026829E-03  0.1002281E+04  0.7818609E-02  0.9306047E-01
       -2   -1    0    0    0  501  0.00000000000E+00  0.00000000000E+00  0.64560796623E+03  0.64560796624E+03  0.25500000920E-02 0.  1.
        2   -1    0    0  501    0  0.00000000000E+00  0.00000000000E+00 -0.38900017266E+03  0.38900017267E+03  0.25500000920E-02 0. -1.
    10030    2    1    2    0    0  0.00000000000E+00  0.00000000000E+00  0.25660779357E+03  0.10346081389E+04  0.10022806201E+04 0.  0.
        1    1    3    3  502    0  0.32115758161E+03  0.35605474293E+03 -0.22081151138E+02  0.48000494732E+03  0.50400001928E-02 0. -1.
       -1    1    3    3    0  502 -0.32115758161E+03 -0.35605474293E+03  0.27868894471E+03  0.55460319159E+03  0.50400001928E-02 0.  1.
</event>
<event>
 5   0  0.2378609E-03  0.9984666E+03  0.7818609E-02  0.9310228E-01
       -1   -1    0    0    0  501  0.00000000000E+00  0.00000000000E+00  0.52273313251E+03  0.52273313253E+03  0.50400001928E-02 0. -1.
        1   -1    0    0  501    0  0.00000000000E+00  0.00000000000E+00 -0.47678995771E+03  0.47678995774E+03  0.50400001928E-02 0.  1.
    10030    2    1    2    0    0  0.00000000000E+00  0.00000000000E+00  0.45943174790E+02  0.99952309027E+03  0.99846664074E+03 0.  0.
        1    1    3    3  502    0 -0.28120427689E+03  0.11539737863E+03 -0.37347964869E+03  0.48153862601E+03  0.50400001928E-02 0.  1.
       -1    1    3    3    0  502  0.28120427689E+03 -0.11539737863E+03  0.41942282348E+03  0.51798446426E+03  0.50400001928E-02 0. -1.
</event>
<event>
 5   0  0.4026829E-03  0.1002099E+04  0.7818609E-02  0.9306246E-01
       -2   -1    0    0    0  501  0.00000000000E+00  0.00000000000E+00  0.19771826371E+03  0.19771826373E+03  0.25500000920E-02 0. -1.
        2   -1    0    0  501    0  0.00000000000E+00  0.00000000000E+00 -0.12697384799E+04  0.12697384799E+04  0.25500000920E-02 0.  1.
    10030    2    1    2    0    0  0.00000000000E+00  0.00000000000E+00 -0.10720202162E+04  0.14674567436E+04  0.10020987728E+04 0.  0.
        1    1    3    3  502    0  0.46861324737E+03 -0.17598513106E+03 -0.56813807887E+03  0.75719879731E+03  0.50400001928E-02 0. -1.
       -1    1    3    3    0  502 -0.46861324737E+03  0.17598513106E+03 -0.50388213729E+03  0.71025794629E+03  0.50400001928E-02 0.  1.
</event>
<event>
 5   0  0.3895011E-03  0.1020787E+04  0.7818609E-02  0.9286036E-01
       -2   -1    0    0    0  501  0.00000000000E+00  0.00000000000E+00  0.34159430066E+03  0.34159430067E+03  0.25500000920E-02 0.  1.
        2   -1    0    0  501    0  0.00000000000E+00  0.00000000000E+00 -0.76260456549E+03  0.76260456550E+03  0.25500000920E-02 0. -1.
    10030    2    1    2    0    0  0.00000000000E+00  0.00000000000E+00 -0.42101026483E+03  0.11041988662E+04  0.10207867030E+04 0.  0.
        2    1    3    3  502    0 -0.13133987744E+03  0.42828741467E+03  0.54064193579E+02  0.45122412392E+03  0.25500000920E-02 0.  1.
       -2    1    3    3    0  502  0.13133987744E+03 -0.42828741467E+03 -0.47507445841E+03  0.65297474225E+03  0.25500000920E-02 0. -1.
</event>
<event>
 5   0  0.3826483E-03  0.1001165E+04  0.7818609E-02  0.9307268E-01
       -2   -1    0    0    0  501  0.00000000000E+00  0.00000000000E+00  0.12397784454E+03  0.12397784457E+03  0.25500000920E-02 0. -1.
        2   -1    0    0  501    0  0.00000000000E+00  0.00000000000E+00 -0.20211888384E+04  0.20211888384E+04  0.25500000920E-02 0.  1.
    10030    2    1    2    0    0  0.00000000000E+00  0.00000000000E+00 -0.18972109938E+04  0.21451666829E+04  0.10011645931E+04 0.  0.
        4    1    3    3  502    0  0.34558490270E+03  0.33426867864E+03 -0.65003865521E+03  0.80852726649E+03  0.12699999809E+01 0. -1.
       -4    1    3    3    0  502 -0.34558490270E+03 -0.33426867864E+03 -0.12471723386E+04  0.13366394165E+04  0.12699999809E+01 0.  1.
</event>
<event>
 5   0  0.2350769E-03  0.9972353E+03  0.7818609E-02  0.9311582E-01
        1   -1    0    0  501    0  0.00000000000E+00  0.00000000000E+00  0.31917048007E+03  0.31917048011E+03  0.50400001928E-02 0. -1.
       -1   -1    0    0    0  501  0.00000000000E+00  0.00000000000E+00 -0.77895539785E+03  0.77895539787E+03  0.50400001928E-02 0.  1.
    10030    2    1    2    0    0  0.00000000000E+00  0.00000000000E+00 -0.45978491778E+03  0.10981258780E+04  0.99723531489E+03 0.  0.
        2    1    3    3  502    0  0.39672123636E+02 -0.40864904280E+03 -0.54145097185E+03  0.67951237847E+03  0.25500000920E-02 0.  1.
       -2    1    3    3    0  502 -0.39672123636E+02  0.40864904280E+03  0.81666054068E+02  0.41861349950E+03  0.25500000920E-02 0. -1.
</event>
<event>
 5   0  0.2378609E-03  0.1002677E+04  0.7818609E-02  0.9305614E-01
        1   -1    0    0  501    0  0.00000000000E+00  0.00000000000E+00  0.50083679463E+03  0.50083679466E+03  0.50400001928E-02 0.  1.
       -1   -1    0    0    0  501  0.00000000000E+00  0.00000000000E+00 -0.50184038767E+03  0.50184038769E+03  0.50400001928E-02 0. -1.
    10030    2    1    2    0    0  0.00000000000E+00  0.00000000000E+00 -0.10035930365E+01  0.10026771824E+04  0.10026766801E+04 0.  0.
        1    1    3    3  502    0 -0.59370066170E+02 -0.35230649517E+03  0.35120203315E+03  0.50098656610E+03  0.50400001928E-02 0.  1.
       -1    1    3    3    0  502  0.59370066170E+02  0.35230649517E+03 -0.35220562618E+03  0.50169061625E+03  0.50400001928E-02 0. -1.
</event>
<event>
 5   0  0.3826483E-03  0.9953112E+03  0.7818609E-02  0.9313702E-01
        2   -1    0    0  501    0  0.00000000000E+00  0.00000000000E+00  0.10016088596E+04  0.10016088596E+04  0.25500000920E-02 0. -1.
       -2   -1    0    0    0  501  0.00000000000E+00  0.00000000000E+00 -0.24726328023E+03  0.24726328025E+03  0.25500000920E-02 0.  1.
    10030    2    1    2    0    0  0.00000000000E+00  0.00000000000E+00  0.75434557935E+03  0.12488721398E+04  0.99531119182E+03 0.  0.
        4    1    3    3  502    0 -0.13353756700E+03  0.11215803889E+03  0.96201236782E+03  0.97769172862E+03  0.12699999809E+01 0. -1.
       -4    1    3    3    0  502  0.13353756700E+03 -0.11215803889E+03 -0.20766678847E+03  0.27118041120E+03  0.12699999809E+01 0.  1.
</event>
<event>
 5   0  0.3873874E-03  0.9998732E+03  0.7818609E-02  0.9308684E-01
       -2   -1    0    0    0  501  0.00000000000E+00  0.00000000000E+00  0.30527015282E+03  0.30527015283E+03  0.25500000920E-02 0. -1.
        2   -1    0    0  501    0  0.00000000000E+00  0.00000000000E+00 -0.81873912264E+03  0.81873912264E+03  0.25500000920E-02 0.  1.
    10030    2    1    2    0    0  0.00000000000E+00  0.00000000000E+00 -0.51346896982E+03  0.11240092755E+04  0.99987322616E+03 0.  0.
        5    1    3    3  502    0  0.89706708994E+02 -0.58346895799E+02  0.29221874155E+03  0.31123228753E+03  0.46999998093E+01 0. -1.
       -5    1    3    3    0  502 -0.89706708994E+02  0.58346895799E+02 -0.80568771137E+03  0.81277698795E+03  0.46999998093E+01 0.  1.
</event>
<event>
 5   0  0.1548000E-03  0.9993386E+03  0.7818609E-02  0.9309271E-01
        4   -1    0    0  501    0  0.00000000000E+00  0.00000000000E+00  0.39488094184E+03  0.39488298409E+03  0.12699999809E+01 0.  1.
       -4   -1    0    0    0  501  0.00000000000E+00  0.00000000000E+00 -0.63226070058E+03  0.63226197608E+03  0.12699999809E+01 0. -1.
    10030    2    1    2    0    0  0.00000000000E+00  0.00000000000E+00 -0.23737975874E+03  0.10271449602E+04  0.99933859094E+03 0.  0.
        5    1    3    3  502    0  0.13821988990E+03 -0.47243822407E+03 -0.20677572956E+03  0.53392968250E+03  0.46999998093E+01 0.  1.
       -5    1    3    3    0  502 -0.13821988990E+03  0.47243822407E+03 -0.30604029182E+02  0.49321527767E+03  0.46999998093E+01 0. -1.
</event>
<event>
 5   0  0.1548000E-03  0.9979401E+03  0.7818609E-02  0.9310807E-01
       -3   -1    0    0    0  501  0.00000000000E+00  0.00000000000E+00  0.11076705223E+04  0.11076705269E+04  0.10100000352E+00 0. -1.
        3   -1    0    0  501    0  0.00000000000E+00  0.00000000000E+00 -0.22476998944E+03  0.22477001213E+03  0.10100000352E+00 0.  1.
    10030    2    1    2    0    0  0.00000000000E+00  0.00000000000E+00  0.88290053282E+03  0.13324405390E+04  0.99794009796E+03 0.  0.
        1    1    3    3  502    0  0.19125897260E+03 -0.40980196712E+03  0.15993875195E+03  0.47968536694E+03  0.50400001928E-02 0.  1.
       -1    1    3    3    0  502 -0.19125897260E+03  0.40980196712E+03  0.72296178088E+03  0.85275517207E+03  0.50400001928E-02 0. -1.
</event>
<event>
 5   0  0.2313036E-03  0.1012638E+04  0.7818609E-02  0.9294792E-01
        1   -1    0    0  501    0  0.00000000000E+00  0.00000000000E+00  0.18156665124E+03  0.18156665131E+03  0.50400001928E-02 0.  1.
       -1   -1    0    0    0  501  0.00000000000E+00  0.00000000000E+00 -0.14119260341E+04  0.14119260341E+04  0.50400001928E-02 0. -1.
    10030    2    1    2    0    0  0.00000000000E+00  0.00000000000E+00 -0.12303593829E+04  0.15934926854E+04  0.10126375104E+04 0.  0.
        3    1    3    3  502    0  0.19511451333E+03  0.46386215045E+03 -0.70308928068E+03  0.86462264298E+03  0.10100000352E+00 0.  1.
       -3    1    3    3    0  502 -0.19511451333E+03 -0.46386215045E+03 -0.52727010217E+03  0.72887004244E+03  0.10100000352E+00 0. -1.
</event>
<event>
 5   0  0.3895011E-03  0.9943561E+03  0.7818609E-02  0.9314757E-01
        2   -1    0    0  501    0  0.00000000000E+00  0.00000000000E+00  0.54860184301E+03  0.54860184302E+03  0.25500000920E-02 0.  1.
       -2   -1    0    0    0  501  0.00000000000E+00  0.00000000000E+00 -0.45057447713E+03  0.45057447714E+03  0.25500000920E-02 0. -1.
    10030    2    1    2    0    0  0.00000000000E+00  0.00000000000E+00  0.98027365880E+02  0.99917632016E+03  0.99435605007E+03 0.  0.
        2    1    3    3  502    0  0.14094326002E+03  0.34930970366E+03 -0.27706474080E+03  0.46759720082E+03  0.25500000920E-02 0. -1.
       -2    1    3    3    0  502 -0.14094326002E+03 -0.34930970366E+03  0.37509210668E+03  0.53157911934E+03  0.25500000920E-02 0.  1.
</event>
<event>
 5   0  0.3826483E-03  0.9893240E+03  0.7818609E-02  0.9320332E-01
        2   -1    0    0  501    0  0.00000000000E+00  0.00000000000E+00  0.40326599732E+03  0.40326599733E+03  0.25500000920E-02 0.  1.
       -2   -1    0    0    0  501  0.00000000000E+00  0.00000000000E+00 -0.60677191347E+03  0.60677191348E+03  0.25500000920E-02 0. -1.
    10030    2    1    2    0    0  0.00000000000E+00  0.00000000000E+00 -0.20350591615E+03  0.10100379108E+04  0.98932397290E+03 0.  0.
        4    1    3    3  502    0 -0.44752121446E+03 -0.16638379398E+03 -0.23380585671E+03  0.53162542812E+03  0.12699999809E+01 0.  1.
       -4    1    3    3    0  502  0.44752121446E+03  0.16638379398E+03  0.30299940560E+02  0.47841248269E+03  0.12699999809E+01 0. -1.
</event>
<event>
 5   0  0.2378609E-03  0.1000708E+04  0.7818609E-02  0.9307769E-01
       -1   -1    0    0    0  501  0.00000000000E+00  0.00000000000E+00  0.20208653087E+03  0.20208653093E+03  0.50400001928E-02 0. -1.
        1   -1    0    0  501    0  0.00000000000E+00  0.00000000000E+00 -0.12388457579E+04  0.12388457579E+04  0.50400001928E-02 0.  1.
    10030    2    1    2    0    0  0.00000000000E+00  0.00000000000E+00 -0.10367592270E+04  0.14409322889E+04  0.10007078326E+04 0.  0.
        1    1    3    3  502    0 -0.38504209496E+03 -0.29532504587E+03 -0.34273533697E+03  0.59408905801E+03  0.50400001928E-02 0. -1.
       -1    1    3    3    0  502  0.38504209496E+03  0.29532504587E+03 -0.69402389007E+03  0.84684323084E+03  0.50400001928E-02 0.  1.
</event>
<event>
 5   0  0.2378609E-03  0.9900317E+03  0.7818609E-02  0.9319546E-01
       -1   -1    0    0    0  501  0.00000000000E+00  0.00000000000E+00  0.22781390513E+03  0.22781390518E+03  0.50400001928E-02 0. -1.
        1   -1    0    0  501    0  0.00000000000E+00  0.00000000000E+00 -0.10756178884E+04  0.10756178884E+04  0.50400001928E-02 0.  1.
    10030    2    1    2    0    0  0.00000000000E+00  0.00000000000E+00 -0.84780398330E+03  0.13034317936E+04  0.99003174016E+03 0.  0.
        1    1    3    3  502    0 -0.38538079410E+03  0.17883085750E+03 -0.89429815139E+02  0.43416186373E+03  0.50400001928E-02 0. -1.
       -1    1    3    3    0  502  0.38538079410E+03 -0.17883085750E+03 -0.75837416816E+03  0.86926992990E+03  0.50400001928E-02 0.  1.
</event>
<event>
 5   0  0.4140860E-03  0.9502501E+03  0.7818609E-02  0.9364858E-01
       -2   -1    0    0    0  501  0.00000000000E+00  0.00000000000E+00  0.43004704602E+03  0.43004704603E+03  0.25500000920E-02 0.  1.
        2   -1    0    0  501    0  0.00000000000E+00  0.00000000000E+00 -0.52492820994E+03  0.52492820995E+03  0.25500000920E-02 0. -1.
    10030    2    1    2    0    0  0.00000000000E+00  0.00000000000E+00 -0.94881163922E+02  0.95497525598E+03  0.95025012721E+03 0.  0.
        3    1    3    3  502    0  0.35491779178E+02 -0.34674912769E+03  0.27704135896E+03  0.44524886156E+03  0.10100000352E+00 0.  1.
       -3    1    3    3    0  502 -0.35491779178E+02  0.34674912769E+03 -0.37192252288E+03  0.50972639442E+03  0.10100000352E+00 0. -1.
</event>
<event>
 5   0  0.2405022E-03  0.9995478E+03  0.7818609E-02  0.9309041E-01
        1   -1    0    0  501    0  0.00000000000E+00  0.00000000000E+00  0.19349771163E+04  0.19349771163E+04  0.50400001928E-02 0.  1.
       -1   -1    0    0    0  501  0.00000000000E+00  0.00000000000E+00 -0.12908367015E+03  0.12908367025E+03  0.50400001928E-02 0. -1.
    10030    2    1    2    0    0  0.00000000000E+00  0.00000000000E+00  0.18058934462E+04  0.20640607866E+04  0.99954779362E+03 0.  0.
        4    1    3    3  502    0  0.31278806378E+03 -0.31641137710E+03  0.13730213343E+04  0.14433092980E+04  0.12699999809E+01 0.  1.
       -4    1    3    3    0  502 -0.31278806378E+03  0.31641137710E+03  0.43287211188E+03  0.62075148856E+03  0.12699999809E+01 0. -1.
</event>
<event>
 5   0  0.2378609E-03  0.9602694E+03  0.7818609E-02  0.9353227E-01
       -1   -1    0    0    0  501  0.00000000000E+00  0.00000000000E+00  0.37630468525E+03  0.37630468529E+03  0.50400001928E-02 0.  1.
        1   -1    0    0  501    0  0.00000000000E+00  0.00000000000E+00 -0.61261355310E+03  0.61261355312E+03  0.50400001928E-02 0. -1.
    10030    2    1    2    0    0  0.00000000000E+00  0.00000000000E+00 -0.23630886784E+03  0.98891823841E+03  0.96026944200E+03 0.  0.
        1    1    3    3  502    0  0.27896800902E+02 -0.14982717668E+03 -0.58704339041E+03  0.60650338550E+03  0.50400001928E-02 0. -1.
       -1    1    3    3    0  502 -0.27896800902E+02  0.14982717668E+03  0.35073452257E+03  0.38241485290E+03  0.50400001928E-02 0.  1.
</event>
<event>
 5   0  0.1548000E-03  0.1000647E+04  0.7818609E-02  0.9307836E-01
        3   -1    0    0  501    0  0.00000000000E+00  0.00000000000E+00  0.51912911244E+03  0.51912912227E+03  0.10100000352E+00 0.  1.
       -3   -1    0    0    0  501  0.00000000000E+00  0.00000000000E+00 -0.48219882485E+03  0.48219883543E+03  0.10100000352E+00 0. -1.
    10030    2    1    2    0    0  0.00000000000E+00  0.00000000000E+00  0.36930287592E+02  0.10013279577E+04  0.10006467072E+04 0.  0.
        3    1    3    3  502    0 -0.38737868194E+03 -0.11252994069E+03  0.31463660312E+03  0.51158717048E+03  0.10100000352E+00 0.  1.
       -3    1    3    3    0  502  0.38737868194E+03  0.11252994069E+03 -0.27770631553E+03  0.48974078721E+03  0.10100000352E+00 0. -1.
</event>
<event>
 5   0  0.2378609E-03  0.8885845E+03  0.7818609E-02  0.9439965E-01
       -1   -1    0    0    0  501  0.00000000000E+00  0.00000000000E+00  0.46580635783E+03  0.46580635786E+03  0.50400001928E-02 0. -1.
        1   -1    0    0  501    0  0.00000000000E+00  0.00000000000E+00 -0.42377178520E+03  0.42377178523E+03  0.50400001928E-02 0.  1.
    10030    2    1    2    0    0  0.00000000000E+00  0.00000000000E+00  0.42034572635E+02  0.88957814309E+03  0.88858447396E+03 0.  0.
        1    1    3    3  502    0  0.24296431636E+02  0.39915428139E+03 -0.17279966111E+03  0.43563078386E+03  0.50400001928E-02 0. -1.
       -1    1    3    3    0  502 -0.24296431636E+02 -0.39915428139E+03  0.21483423374E+03  0.45394735923E+03  0.50400001928E-02 0.  1.
</event>
<event>
 5   0  0.2313036E-03  0.1000759E+04  0.7818609E-02  0.9307713E-01
       -1   -1    0    0    0  501  0.00000000000E+00  0.00000000000E+00  0.53062893232E+03  0.53062893234E+03  0.50400001928E-02 0.  1.
        1   -1    0    0  501    0  0.00000000000E+00  0.00000000000E+00 -0.47185465546E+03  0.47185465549E+03  0.50400001928E-02 0. -1.
    10030    2    1    2    0    0  0.00000000000E+00  0.00000000000E+00  0.58774276855E+02  0.10024835878E+04  0.10007591760E+04 0.  0.
        3    1    3    3  502    0 -0.25672977687E+03  0.85691799208E+02 -0.39220199747E+03  0.47652458468E+03  0.10100000352E+00 0. -1.
       -3    1    3    3    0  502  0.25672977687E+03 -0.85691799208E+02  0.45097627433E+03  0.52595900315E+03  0.10100000352E+00 0.  1.
</event>
<event>
 5   0  0.3873874E-03  0.9964580E+03  0.7818609E-02  0.9312438E-01
       -2   -1    0    0    0  501  0.00000000000E+00  0.00000000000E+00  0.85467950936E+03  0.85467950936E+03  0.25500000920E-02 0.  1.
        2   -1    0    0  501    0  0.00000000000E+00  0.00000000000E+00 -0.29043886486E+03  0.29043886487E+03  0.25500000920E-02 0. -1.
    10030    2    1    2    0    0  0.00000000000E+00  0.00000000000E+00  0.56424064450E+03  0.11451183742E+04  0.99645802023E+03 0.  0.
        5    1    3    3  502    0  0.83228978149E+02 -0.20454718058E+03  0.79533758903E+03  0.82543962978E+03  0.46999998093E+01 0.  1.
       -5    1    3    3    0  502 -0.83228978149E+02  0.20454718058E+03 -0.23109694452E+03  0.31967874445E+03  0.46999998093E+01 0. -1.
</event>
<event>
 5   0  0.2405022E-03  0.1004214E+04  0.7818609E-02  0.9303935E-01
       -1   -1    0    0    0  501  0.00000000000E+00  0.00000000000E+00  0.65085039378E+03  0.65085039380E+03  0.50400001928E-02 0.  1.
        1   -1    0    0  501    0  0.00000000000E+00  0.00000000000E+00 -0.38735682000E+03  0.38735682003E+03  0.50400001928E-02 0. -1.
    10030    2    1    2    0    0  0.00000000000E+00  0.00000000000E+00  0.26349357378E+03  0.10382072138E+04  0.10042137997E+04 0.  0.
        4    1    3    3  502    0  0.14633716031E+03  0.33331464938E+03 -0.22578701173E+03  0.42836270559E+03  0.12699999809E+01 0. -1.
       -4    1    3    3    0  502 -0.14633716031E+03 -0.33331464938E+03  0.48928058551E+03  0.60984450824E+03  0.12699999809E+01 0.  1.
</event>
<event>
 5   0  0.2378609E-03  0.1046332E+04  0.7818609E-02  0.9259139E-01
        1   -1    0    0  501    0  0.00000000000E+00  0.00000000000E+00  0.15788268476E+04  0.15788268476E+04  0.50400001928E-02 0. -1.
       -1   -1    0    0    0  501  0.00000000000E+00  0.00000000000E+00 -0.17335818560E+03  0.17335818567E+03  0.50400001928E-02 0.  1.
    10030    2    1    2    0    0  0.00000000000E+00  0.00000000000E+00  0.14054686620E+04  0.17521850333E+04  0.10463317977E+04 0.  0.
        1    1    3    3  502    0  0.37776147185E+03 -0.15225235025E+03  0.15286907493E+03  0.43503271356E+03  0.50400001928E-02 0.  1.
       -1    1    3    3    0  502 -0.37776147185E+03  0.15225235025E+03  0.12525995871E+04  0.13171523197E+04  0.50400001928E-02 0. -1.
</event>
<event>
 5   0  0.2378609E-03  0.1000910E+04  0.7818609E-02  0.9307547E-01
       -1   -1    0    0    0  501  0.00000000000E+00  0.00000000000E+00  0.20265831821E+03  0.20265831828E+03  0.50400001928E-02 0. -1.
        1   -1    0    0  501    0  0.00000000000E+00  0.00000000000E+00 -0.12358503102E+04  0.12358503103E+04  0.50400001928E-02 0.  1.
    10030    2    1    2    0    0  0.00000000000E+00  0.00000000000E+00 -0.10331919920E+04  0.14385086285E+04  0.10009102767E+04 0.  0.
        1    1    3    3  502    0 -0.26400975605E+03  0.20093488660E+03  0.21883238929E+02  0.33249790392E+03  0.50400001928E-02 0. -1.
       -1    1    3    3    0  502  0.26400975605E+03 -0.20093488660E+03 -0.10550752310E+04  0.11060107246E+04  0.50400001928E-02 0.  1.
</event>
<event>
 5   0  0.3873874E-03  0.9975401E+03  0.7818609E-02  0.9311247E-01
       -2   -1    0    0    0  501  0.00000000000E+00  0.00000000000E+00  0.12508459336E+03  0.12508459339E+03  0.25500000920E-02 0. -1.
        2   -1    0    0  501    0  0.00000000000E+00  0.00000000000E+00 -0.19888266060E+04  0.19888266060E+04  0.25500000920E-02 0.  1.
    10030    2    1    2    0    0  0.00000000000E+00  0.00000000000E+00 -0.18637420126E+04  0.21139111993E+04  0.99754010906E+03 0.  0.
        5    1    3    3  502    0  0.36039723420E+02  0.21868241599E+02 -0.19849976006E+04  0.19854507413E+04  0.46999998093E+01 0.  1.
       -5    1    3    3    0  502 -0.36039723420E+02 -0.21868241599E+02  0.12125558803E+03  0.12846045804E+03  0.46999998093E+01 0. -1.
</event>
<event>
 5   0  0.3826483E-03  0.9978748E+03  0.7818609E-02  0.9310879E-01
       -2   -1    0    0    0  501  0.00000000000E+00  0.00000000000E+00  0.16230869056E+03  0.16230869058E+03  0.25500000920E-02 0.  1.
        2   -1    0    0  501    0  0.00000000000E+00  0.00000000000E+00 -0.15337351833E+04  0.15337351833E+04  0.25500000920E-02 0. -1.
    10030    2    1    2    0    0  0.00000000000E+00  0.00000000000E+00 -0.13714264927E+04  0.16960438738E+04  0.99787484040E+03 0.  0.
        4    1    3    3  502    0 -0.42952037478E+03 -0.77642764060E+02 -0.10965267443E+04  0.11802070433E+04  0.12699999809E+01 0. -1.
       -4    1    3    3    0  502  0.42952037478E+03  0.77642764060E+02 -0.27489974835E+03  0.51583683051E+03  0.12699999809E+01 0.  1.
</event>
<event>
 5   0  0.2327595E-03  0.1000384E+04  0.7818609E-02  0.9308124E-01
       -1   -1    0    0    0  501  0.00000000000E+00  0.00000000000E+00  0.33934752372E+03  0.33934752375E+03  0.50400001928E-02 0.  1.
        1   -1    0    0  501    0  0.00000000000E+00  0.00000000000E+00 -0.73727388712E+03  0.73727388714E+03  0.50400001928E-02 0. -1.
    10030    2    1    2    0    0  0.00000000000E+00  0.00000000000E+00 -0.39792636341E+03  0.10766214109E+04  0.10003840621E+04 0.  0.
        5    1    3    3  502    0  0.27908218235E+03  0.36789087973E+03  0.78800189717E+01  0.46186009634E+03  0.46999998093E+01 0.  1.
       -5    1    3    3    0  502 -0.27908218235E+03 -0.36789087973E+03 -0.40580638238E+03  0.61476131455E+03  0.46999998093E+01 0. -1.
</event>
<event>
 5   0  0.3826483E-03  0.1002507E+04  0.7818609E-02  0.9305800E-01
       -2   -1    0    0    0  501  0.00000000000E+00  0.00000000000E+00  0.34404796325E+03  0.34404796326E+03  0.25500000920E-02 0. -1.
        2   -1    0    0  501    0  0.00000000000E+00  0.00000000000E+00 -0.73029039806E+03  0.73029039807E+03  0.25500000920E-02 0.  1.
    10030    2    1    2    0    0  0.00000000000E+00  0.00000000000E+00 -0.38624243481E+03  0.10743383613E+04  0.10025067063E+04 0.  0.
        4    1    3    3  502    0 -0.73662872587E+02 -0.33718664393E+03 -0.58266674955E+03  0.67721725139E+03  0.12699999809E+01 0.  1.
       -4    1    3    3    0  502  0.73662872587E+02  0.33718664393E+03  0.19642431474E+03  0.39712110994E+03  0.12699999809E+01 0. -1.
</event>
<event>
 5   0  0.2313036E-03  0.1001565E+04  0.7818609E-02  0.9306830E-01
       -1   -1    0    0    0  501  0.00000000000E+00  0.00000000000E+00  0.12733954873E+03  0.12733954883E+03  0.50400001928E-02 0. -1.
        1   -1    0    0  501    0  0.00000000000E+00  0.00000000000E+00 -0.19694034177E+04  0.19694034177E+04  0.50400001928E-02 0.  1.
    10030    2    1    2    0    0  0.00000000000E+00  0.00000000000E+00 -0.18420638689E+04  0.20967429665E+04  0.10015646611E+04 0.  0.
        3    1    3    3  502    0  0.41696004980E+03 -0.13636349570E+03 -0.41541623237E+03  0.60416996152E+03  0.10100000352E+00 0. -1.
       -3    1    3    3    0  502 -0.41696004980E+03  0.13636349570E+03 -0.14266476366E+04  0.14925730050E+04  0.10100000352E+00 0.  1.
</event>
<event>
 5   0  0.3895011E-03  0.1001804E+04  0.7818609E-02  0.9306569E-01
        2   -1    0    0  501    0  0.00000000000E+00  0.00000000000E+00  0.11887268242E+04  0.11887268242E+04  0.25500000920E-02 0. -1.
       -2   -1    0    0    0  501  0.00000000000E+00  0.00000000000E+00 -0.21106848339E+03  0.21106848340E+03  0.25500000920E-02 0.  1.
    10030    2    1    2    0    0  0.00000000000E+00  0.00000000000E+00  0.97765834077E+03  0.13997953076E+04  0.10018039089E+04 0.  0.
        2    1    3    3  502    0  0.35232596093E+03  0.25472359679E+03  0.14123317028E+03  0.45712635223E+03  0.25500000920E-02 0.  1.
       -2    1    3    3    0  502 -0.35232596093E+03 -0.25472359679E+03  0.83642517049E+03  0.94266895533E+03  0.25500000920E-02 0. -1.
</event>
<event>
 5   0  0.4026829E-03  0.9592851E+03  0.7818609E-02  0.9354363E-01
       -2   -1    0    0    0  501  0.00000000000E+00  0.00000000000E+00  0.96172276590E+02  0.96172276624E+02  0.25500000920E-02 0. -1.
        2   -1    0    0  501    0  0.00000000000E+00  0.00000000000E+00 -0.23921341772E+04  0.23921341772E+04  0.25500000920E-02 0.  1.
    10030    2    1    2    0    0  0.00000000000E+00  0.00000000000E+00 -0.22959619006E+04  0.24883064538E+04  0.95928512919E+03 0.  0.
        1    1    3    3  502    0  0.32407848387E+02 -0.28616362929E+03 -0.15306193997E+03  0.32614084206E+03  0.50400001928E-02 0. -1.
       -1    1    3    3    0  502 -0.32407848387E+02  0.28616362929E+03 -0.21428999606E+04  0.21621656117E+04  0.50400001928E-02 0.  1.
</event>
<event>
 5   0  0.2405022E-03  0.9397472E+03  0.7818609E-02  0.9377215E-01
       -1   -1    0    0    0  501  0.00000000000E+00  0.00000000000E+00  0.33456438211E+03  0.33456438215E+03  0.50400001928E-02 0. -1.
        1   -1    0    0  501    0  0.00000000000E+00  0.00000000000E+00 -0.65990643727E+03  0.65990643729E+03  0.50400001928E-02 0.  1.
    10030    2    1    2    0    0  0.00000000000E+00  0.00000000000E+00 -0.32534205516E+03  0.99447081944E+03  0.93974717763E+03 0.  0.
        4    1    3    3  502    0 -0.53817013368E+01 -0.39418233179E+03 -0.43323704976E+03  0.58575133597E+03  0.12699999809E+01 0.  1.
       -4    1    3    3    0  502  0.53817013368E+01  0.39418233179E+03  0.10789499461E+03  0.40871948347E+03  0.12699999809E+01 0. -1.
</event>
<event>
 5   0  0.4026829E-03  0.1008191E+04  0.7818609E-02  0.9299606E-01
        2   -1    0    0  501    0  0.00000000000E+00  0.00000000000E+00  0.48429633120E+03  0.48429633121E+03  0.25500000920E-02 0. -1.
       -2   -1    0    0    0  501  0.00000000000E+00  0.00000000000E+00 -0.52470427933E+03  0.52470427933E+03  0.25500000920E-02 0.  1.
    10030    2    1    2    0    0  0.00000000000E+00  0.00000000000E+00 -0.40407948125E+02  0.10090006105E+04  0.10081911673E+04 0.  0.
        1    1    3    3  502    0 -0.46282266645E+03  0.12032350415E+03  0.13939126729E+03  0.49810891545E+03  0.50400001928E-02 0. -1.
       -1    1    3    3    0  502  0.46282266645E+03 -0.12032350415E+03 -0.17979921541E+03  0.51089169509E+03  0.50400001928E-02 0.  1.
</event>
<event>
 5   0  0.1548000E-03  0.9917883E+03  0.7818609E-02  0.9317597E-01
        4   -1    0    0  501    0  0.00000000000E+00  0.00000000000E+00  0.29276493210E+03  0.29276768668E+03  0.12699999809E+01 0.  1.
       -4   -1    0    0    0  501  0.00000000000E+00  0.00000000000E+00 -0.83995337026E+03  0.83995433037E+03  0.12699999809E+01 0. -1.
    10030    2    1    2    0    0  0.00000000000E+00  0.00000000000E+00 -0.54718843816E+03  0.11327220171E+04  0.99178827432E+03 0.  0.
        1    1    3    3  502    0  0.18767951127E+03 -0.12606192560E+03  0.23047961331E+03  0.32285609831E+03  0.50400001928E-02 0.  1.
       -1    1    3    3    0  502 -0.18767951127E+03  0.12606192560E+03 -0.77766805148E+03  0.80986591875E+03  0.50400001928E-02 0. -1.
</event>
<event>
 5   0  0.3826483E-03  0.9997791E+03  0.7818609E-02  0.9308787E-01
        2   -1    0    0  501    0  0.00000000000E+00  0.00000000000E+00  0.51983404176E+03  0.51983404177E+03  0.25500000920E-02 0. -1.
       -2   -1    0    0    0  501  0.00000000000E+00  0.00000000000E+00 -0.48071025416E+03  0.48071025417E+03  0.25500000920E-02 0.  1.
    10030    2    1    2    0    0  0.00000000000E+00  0.00000000000E+00  0.39123787604E+02  0.10005442959E+04  0.99977908429E+03 0.  0.
        4    1    3    3  502    0  0.10876019628E+03 -0.22603637684E+03  0.45228932357E+03  0.51719287414E+03  0.12699999809E+01 0. -1.
       -4    1    3    3    0  502 -0.10876019628E+03  0.22603637684E+03 -0.41316553596E+03  0.48335142180E+03  0.12699999809E+01 0.  1.
</event>
<event>
 5   0  0.4140860E-03  0.1007702E+04  0.7818609E-02  0.9300137E-01
       -2   -1    0    0    0  501  0.00000000000E+00  0.00000000000E+00  0.14273139870E+03  0.14273139872E+03  0.25500000920E-02 0.  1.
        2   -1    0    0  501    0  0.00000000000E+00  0.00000000000E+00 -0.17786278241E+04  0.17786278241E+04  0.25500000920E-02 0. -1.
    10030    2    1    2    0    0  0.00000000000E+00  0.00000000000E+00 -0.16358964254E+04  0.19213592228E+04  0.10077024107E+04 0.  0.
        3    1    3    3  502    0  0.38539057455E+03  0.10882927733E+03 -0.14009548935E+04  0.14570670302E+04  0.10100000352E+00 0. -1.
       -3    1    3    3    0  502 -0.38539057455E+03 -0.10882927733E+03 -0.23494153189E+03  0.46429219265E+03  0.10100000352E+00 0.  1.
</event>
<event>
 5   0  0.2350769E-03  0.9968278E+03  0.7818609E-02  0.9312031E-01
       -1   -1    0    0    0  501  0.00000000000E+00  0.00000000000E+00  0.20890867099E+03  0.20890867106E+03  0.50400001928E-02 0. -1.
        1   -1    0    0  501    0  0.00000000000E+00  0.00000000000E+00 -0.11891148921E+04  0.11891148921E+04  0.50400001928E-02 0.  1.
    10030    2    1    2    0    0  0.00000000000E+00  0.00000000000E+00 -0.98020622106E+03  0.13980235631E+04  0.99682779217E+03 0.  0.
        2    1    3    3  502    0 -0.34131995442E+03  0.36317812052E+03 -0.48402969321E+03  0.69475348320E+03  0.25500000920E-02 0. -1.
       -2    1    3    3    0  502  0.34131995442E+03 -0.36317812052E+03 -0.49617652785E+03  0.70327007992E+03  0.25500000920E-02 0.  1.
</event>
<event>
 5   0  0.2405022E-03  0.9955583E+03  0.7818609E-02  0.9313430E-01
        1   -1    0    0  501    0  0.00000000000E+00  0.00000000000E+00  0.10870825369E+04  0.10870825369E+04  0.50400001928E-02 0. -1.
       -1   -1    0    0    0  501  0.00000000000E+00  0.00000000000E+00 -0.22793492562E+03  0.22793492568E+03  0.50400001928E-02 0.  1.
    10030    2    1    2    0    0  0.00000000000E+00  0.00000000000E+00  0.85914761131E+03  0.13150174626E+04  0.99555829009E+03 0.  0.
        4    1    3    3  502    0  0.43416197349E+03 -0.22212801104E+03  0.56129845226E+03  0.74356912115E+03  0.12699999809E+01 0. -1.
       -4    1    3    3    0  502 -0.43416197349E+03  0.22212801104E+03  0.29784915904E+03  0.57144834146E+03  0.12699999809E+01 0.  1.
</event>
<event>
 5   0  0.2313036E-03  0.1010825E+04  0.7818609E-02  0.9296752E-01
        1   -1    0    0  501    0  0.00000000000E+00  0.00000000000E+00  0.25237386983E+03  0.25237386988E+03  0.50400001928E-02 0.  1.
       -1   -1    0    0    0  501  0.00000000000E+00  0.00000000000E+00 -0.10121556132E+04  0.10121556132E+04  0.50400001928E-02 0. -1.
    10030    2    1    2    0    0  0.00000000000E+00  0.00000000000E+00 -0.75978174340E+03  0.12645294831E+04  0.10108246713E+04 0.  0.
        3    1    3    3  502    0 -0.45973029917E+03  0.20960462716E+03 -0.39549421316E+03  0.64163987606E+03  0.10100000352E+00 0. -1.
       -3    1    3    3    0  502  0.45973029917E+03 -0.20960462716E+03 -0.36428753024E+03  0.62288960707E+03  0.10100000352E+00 0.  1.
</event>
<event>
 5   0  0.2313036E-03  0.9905473E+03  0.7818609E-02  0.9318973E-01
        1   -1    0    0  501    0  0.00000000000E+00  0.00000000000E+00  0.23298847460E+04  0.23298847460E+04  0.50400001928E-02 0. -1.
       -1   -1    0    0    0  501  0.00000000000E+00  0.00000000000E+00 -0.10528246635E+03  0.10528246647E+03  0.50400001928E-02 0.  1.
    10030    2    1    2    0    0  0.00000000000E+00  0.00000000000E+00  0.22246022796E+04  0.24351672125E+04  0.99054734875E+03 0.  0.
        3    1    3    3  502    0  0.40318456865E+03 -0.78953683373E+02  0.17922826447E+04  0.18387682206E+04  0.10100000352E+00 0. -1.
       -3    1    3    3    0  502 -0.40318456865E+03  0.78953683373E+02  0.43231963494E+03  0.59639899184E+03  0.10100000352E+00 0.  1.
</event>
<event>
 5   0  0.4026829E-03  0.1003448E+04  0.7818609E-02  0.9304771E-01
       -2   -1    0    0    0  501  0.00000000000E+00  0.00000000000E+00  0.27744011419E+03  0.27744011420E+03  0.25500000920E-02 0. -1.
        2   -1    0    0  501    0  0.00000000000E+00  0.00000000000E+00 -0.90731956862E+03  0.90731956863E+03  0.25500000920E-02 0.  1.
    10030    2    1    2    0    0  0.00000000000E+00  0.00000000000E+00 -0.62987945443E+03  0.11847596828E+04  0.10034477460E+04 0.  0.
        1    1    3    3  502    0  0.27610104738E+03 -0.23330318415E+03 -0.72575278127E+03  0.81078928437E+03  0.50400001928E-02 0. -1.
       -1    1    3    3    0  502 -0.27610104738E+03  0.23330318415E+03  0.95873326837E+02  0.37397039846E+03  0.50400001928E-02 0.  1.
</event>
<event>
 5   0  0.3873874E-03  0.9985326E+03  0.7818609E-02  0.9310156E-01
       -2   -1    0    0    0  501  0.00000000000E+00  0.00000000000E+00  0.13860529667E+03  0.13860529670E+03  0.25500000920E-02 0.  1.
        2   -1    0    0  501    0  0.00000000000E+00  0.00000000000E+00 -0.17983933853E+04  0.17983933853E+04  0.25500000920E-02 0. -1.
    10030    2    1    2    0    0  0.00000000000E+00  0.00000000000E+00 -0.16597880886E+04  0.19369986820E+04  0.99853262086E+03 0.  0.
        5    1    3    3  502    0  0.21369871514E+03 -0.34968516432E+03 -0.13829979709E+04  0.14424466481E+04  0.46999998093E+01 0. -1.
       -5    1    3    3    0  502 -0.21369871514E+03  0.34968516432E+03 -0.27679011772E+03  0.49455203392E+03  0.46999998093E+01 0.  1.
</event>
<event>
 5   0  0.3895011E-03  0.9969421E+03  0.7818609E-02  0.9311905E-01
       -2   -1    0    0    0  501  0.00000000000E+00  0.00000000000E+00  0.41507247581E+03  0.41507247581E+03  0.25500000920E-02 0. -1.
        2   -1    0    0  501    0  0.00000000000E+00  0.00000000000E+00 -0.59862646009E+03  0.59862646009E+03  0.25500000920E-02 0.  1.
    10030    2    1    2    0    0  0.00000000000E+00  0.00000000000E+00 -0.18355398428E+03  0.10136989359E+04  0.99694205825E+03 0.  0.
        2    1    3    3  502    0 -0.38032097901E+03  0.31998590273E+03 -0.13033993166E+03  0.51383219324E+03  0.25500000920E-02 0.  1.
       -2    1    3    3    0  502  0.38032097901E+03 -0.31998590273E+03 -0.53214052625E+02  0.49986674267E+03  0.25500000920E-02 0. -1.
</event>
<event>
 5   0  0.2378609E-03  0.9973586E+03  0.7818609E-02  0.9311447E-01
        1   -1    0    0  501    0  0.00000000000E+00  0.00000000000E+00  0.46550294769E+03  0.46550294772E+03  0.50400001928E-02 0.  1.
       -1   -1    0    0    0  501  0.00000000000E+00  0.00000000000E+00 -0.53422010173E+03  0.53422010176E+03  0.50400001928E-02 0. -1.
    10030    2    1    2    0    0  0.00000000000E+00  0.00000000000E+00 -0.68717154040E+02  0.99972304947E+03  0.99735857563E+03 0.  0.
        1    1    3    3  502    0 -0.89069506979E+02  0.48965283628E+03 -0.28554996287E+01  0.49769612321E+03  0.50400001928E-02 0.  1.
       -1    1    3    3    0  502  0.89069506979E+02 -0.48965283628E+03 -0.65861654411E+02  0.50202692627E+03  0.50400001928E-02 0. -1.
</event>
<event>
 5   0  0.3895011E-03  0.1000518E+04  0.7818609E-02  0.9307977E-01
       -2   -1    0    0    0  501  0.00000000000E+00  0.00000000000E+00  0.22964438366E+03  0.22964438368E+03  0.25500000920E-02 0. -1.
        2   -1    0    0  501    0  0.00000000000E+00  0.00000000000E+00 -0.10897679259E+04  0.10897679259E+04  0.25500000920E-02 0.  1.
    10030    2    1    2    0    0  0.00000000000E+00  0.00000000000E+00 -0.86012354219E+03  0.13194123095E+04  0.10005180332E+04 0.  0.
        2    1    3    3  502    0 -0.23148061263E+03  0.28617517703E+03 -0.87683580267E+03  0.95095769140E+03  0.25500000920E-02 0.  1.
       -2    1    3    3    0  502  0.23148061263E+03 -0.28617517703E+03  0.16712260482E+02  0.36845461814E+03  0.25500000920E-02 0. -1.
</event>
<event>
 5   0  0.2378609E-03  0.9925970E+03  0.7818609E-02  0.9316702E-01
        1   -1    0    0  501    0  0.00000000000E+00  0.00000000000E+00  0.23557420185E+03  0.23557420190E+03  0.50400001928E-02 0. -1.
       -1   -1    0    0    0  501  0.00000000000E+00  0.00000000000E+00 -0.10455822467E+04  0.10455822467E+04  0.50400001928E-02 0.  1.
    10030    2    1    2    0    0  0.00000000000E+00  0.00000000000E+00 -0.81000804483E+03  0.12811564486E+04  0.99259700437E+03 0.  0.
        1    1    3    3  502    0  0.21631997090E+03 -0.16364140226E+03  0.13144056286E+03  0.30141244158E+03  0.50400001928E-02 0. -1.
       -1    1    3    3    0  502 -0.21631997090E+03  0.16364140226E+03 -0.94144860768E+03  0.97974400702E+03  0.50400001928E-02 0.  1.
</event>
<event>
 5   0  0.2327595E-03  0.1001619E+04  0.7818609E-02  0.9306771E-01
        1   -1    0    0  501    0  0.00000000000E+00  0.00000000000E+00  0.91889667146E+03  0.91889667148E+03  0.50400001928E-02 0.  1.
       -1   -1    0    0    0  501  0.00000000000E+00  0.00000000000E+00 -0.27294680637E+03  0.27294680642E+03  0.50400001928E-02 0. -1.
    10030    2    1    2    0    0  0.00000000000E+00  0.00000000000E+00  0.64594986509E+03  0.11918434779E+04  0.10016185140E+04 0.  0.
        5    1    3    3  502    0 -0.16785142914E+03 -0.30415950965E+03 -0.10622210726E+03  0.36330749462E+03  0.46999998093E+01 0. -1.
       -5    1    3    3    0  502  0.16785142914E+03  0.30415950965E+03  0.75217197236E+03  0.82853598327E+03  0.46999998093E+01 0.  1.
</event>
<event>
 5   0  0.3826483E-03  0.1007027E+04  0.7818609E-02  0.9300871E-01
        2   -1    0    0  501    0  0.00000000000E+00  0.00000000000E+00  0.10267624825E+04  0.10267624825E+04  0.25500000920E-02 0. -1.
       -2   -1    0    0    0  501  0.00000000000E+00  0.00000000000E+00 -0.24691795413E+03  0.24691795414E+03  0.25500000920E-02 0.  1.
    10030    2    1    2    0    0  0.00000000000E+00  0.00000000000E+00  0.77984452832E+03  0.12736804366E+04  0.10070274903E+04 0.  0.
        4    1    3    3  502    0 -0.36771392178E+03  0.78048198635E+01 -0.45008162820E+02  0.37054256314E+03  0.12699999809E+01 0.  1.
       -4    1    3    3    0  502  0.36771392178E+03 -0.78048198635E+01  0.82485269114E+03  0.90313787345E+03  0.12699999809E+01 0. -1.
</event>
<event>
 5   0  0.2378609E-03  0.9973008E+03  0.7818609E-02  0.9311510E-01
        1   -1    0    0  501    0  0.00000000000E+00  0.00000000000E+00  0.95708203899E+03  0.95708203900E+03  0.50400001928E-02 0.  1.
       -1   -1    0    0    0  501  0.00000000000E+00  0.00000000000E+00 -0.25980241231E+03  0.25980241236E+03  0.50400001928E-02 0. -1.
    10030    2    1    2    0    0  0.00000000000E+00  0.00000000000E+00  0.69727962668E+03  0.12168844514E+04  0.99730080225E+03 0.  0.
        1    1    3    3  502    0 -0.99388737107E+02 -0.43649276391E+03  0.80622043150E+02  0.45486697822E+03  0.50400001928E-02 0. -1.
       -1    1    3    3    0  502  0.99388737107E+02  0.43649276391E+03  0.61665758353E+03  0.76201747313E+03  0.50400001928E-02 0.  1.
</event>
<event>
 5   0  0.1548000E-03  0.9984213E+03  0.7818609E-02  0.9310278E-01
       -3   -1    0    0    0  501  0.00000000000E+00  0.00000000000E+00  0.16229958416E+04  0.16229958448E+04  0.10100000352E+00 0. -1.
        3   -1    0    0  501    0  0.00000000000E+00  0.00000000000E+00 -0.15355014683E+03  0.15355018005E+03  0.10100000352E+00 0.  1.
    10030    2    1    2    0    0  0.00000000000E+00  0.00000000000E+00  0.14694456948E+04  0.17765460248E+04  0.99842131806E+03 0.  0.
        2    1    3    3  502    0  0.19113563207E+03  0.46236252494E+02 -0.81729062015E+02  0.21295600596E+03  0.25500000920E-02 0.  1.
       -2    1    3    3    0  502 -0.19113563207E+03 -0.46236252494E+02  0.15511747568E+04  0.15635900189E+04  0.25500000920E-02 0. -1.
</event>
<event>
 5   0  0.2378609E-03  0.9889791E+03  0.7818609E-02  0.9320716E-01
       -1   -1    0    0    0  501  0.00000000000E+00  0.00000000000E+00  0.24636465431E+03  0.24636465436E+03  0.50400001928E-02 0.  1.
        1   -1    0    0  501    0  0.00000000000E+00  0.00000000000E+00 -0.99251210073E+03  0.99251210074E+03  0.50400001928E-02 0. -1.
    10030    2    1    2    0    0  0.00000000000E+00  0.00000000000E+00 -0.74614744642E+03  0.12388767551E+04  0.98897907083E+03 0.  0.
        1    1    3    3  502    0 -0.34237574459E+03  0.19223598190E+03  0.34487016928E+01  0.39266743791E+03  0.50400001928E-02 0.  1.
       -1    1    3    3    0  502  0.34237574459E+03 -0.19223598190E+03 -0.74959614811E+03  0.84620931720E+03  0.50400001928E-02 0. -1.
</event>
<event>
 5   0  0.2350769E-03  0.9972542E+03  0.7818609E-02  0.9311561E-01
       -1   -1    0    0    0  501  0.00000000000E+00  0.00000000000E+00  0.11645680578E+03  0.11645680589E+03  0.50400001928E-02 0.  1.
        1   -1    0    0  501    0  0.00000000000E+00  0.00000000000E+00 -0.21349460192E+04  0.21349460192E+04  0.50400001928E-02 0. -1.
    10030    2    1    2    0    0  0.00000000000E+00  0.00000000000E+00 -0.20184892134E+04  0.22514028251E+04  0.99725421840E+03 0.  0.
        2    1    3    3  502    0  0.29500377323E+03  0.86192768118E+02 -0.18956877540E+04  0.19204396580E+04  0.25500000920E-02 0. -1.
       -2    1    3    3    0  502 -0.29500377323E+03 -0.86192768118E+02 -0.12280145941E+03  0.33096316704E+03  0.25500000920E-02 0.  1.
</event>
<event>
 5   0  0.2350769E-03  0.9965128E+03  0.7818609E-02  0.9312378E-01
        1   -1    0    0  501    0  0.00000000000E+00  0.00000000000E+00  0.40408703990E+03  0.40408703993E+03  0.50400001928E-02 0.  1.
       -1   -1    0    0    0  501  0.00000000000E+00  0.00000000000E+00 -0.61437119121E+03  0.61437119123E+03  0.50400001928E-02 0. -1.
    10030    2    1    2    0    0  0.00000000000E+00  0.00000000000E+00 -0.21028415131E+03  0.10184582312E+04  0.99651279185E+03 0.  0.
        2    1    3    3  502    0 -0.27955652195E+03  0.37659443294E+01 -0.52664838698E+03  0.59625879852E+03  0.25500000920E-02 0. -1.
       -2    1    3    3    0  502  0.27955652195E+03 -0.37659443294E+01  0.31636423567E+03  0.42219943264E+03  0.25500000920E-02 0.  1.
</event>
<event>
 5   0  0.2327595E-03  0.1004912E+04  0.7818609E-02  0.9303174E-01
       -1   -1    0    0    0  501  0.00000000000E+00  0.00000000000E+00  0.31647810195E+03  0.31647810199E+03  0.50400001928E-02 0. -1.
        1   -1    0    0  501    0  0.00000000000E+00  0.00000000000E+00 -0.79772308039E+03  0.79772308041E+03  0.50400001928E-02 0.  1.
    10030    2    1    2    0    0  0.00000000000E+00  0.00000000000E+00 -0.48124497844E+03  0.11142011824E+04  0.10049117103E+04 0.  0.
        5    1    3    3  502    0 -0.17310691739E+03 -0.42678095587E+03 -0.46329138189E+03  0.65327558019E+03  0.46999998093E+01 0.  1.
       -5    1    3    3    0  502  0.17310691739E+03  0.42678095587E+03 -0.17953596553E+02  0.46092560221E+03  0.46999998093E+01 0. -1.
</event>
<event>
 5   0  0.4026829E-03  0.1002937E+04  0.7818609E-02  0.9305330E-01
        2   -1    0    0  501    0  0.00000000000E+00  0.00000000000E+00  0.43097922468E+03  0.43097922469E+03  0.25500000920E-02 0. -1.
       -2   -1    0    0    0  501  0.00000000000E+00  0.00000000000E+00 -0.58348653170E+03  0.58348653171E+03  0.25500000920E-02 0.  1.
    10030    2    1    2    0    0  0.00000000000E+00  0.00000000000E+00 -0.15250730702E+03  0.10144657564E+04  0.10029368336E+04 0.  0.
        1    1    3    3  502    0  0.92070526011E+02 -0.45800311336E+03  0.10812374087E+03  0.47951493926E+03  0.50400001928E-02 0. -1.
       -1    1    3    3    0  502 -0.92070526011E+02  0.45800311336E+03 -0.26063104790E+03  0.53495081714E+03  0.50400001928E-02 0.  1.
</event>
<event>
 5   0  0.2350769E-03  0.1001139E+04  0.7818609E-02  0.9307297E-01
        1   -1    0    0  501    0  0.00000000000E+00  0.00000000000E+00  0.82403560995E+03  0.82403560996E+03  0.50400001928E-02 0.  1.
       -1   -1    0    0    0  501  0.00000000000E+00  0.00000000000E+00 -0.30407636902E+03  0.30407636906E+03  0.50400001928E-02 0. -1.
    10030    2    1    2    0    0  0.00000000000E+00  0.00000000000E+00  0.51995924093E+03  0.11281119790E+04  0.10011388640E+04 0.  0.
        2    1    3    3  502    0  0.27895521817E+03  0.24492370922E+02  0.72751693744E+03  0.77954909034E+03  0.25500000920E-02 0.  1.
       -2    1    3    3    0  502 -0.27895521817E+03 -0.24492370922E+02 -0.20755769651E+03  0.34856288868E+03  0.25500000920E-02 0. -1.
</event>
<event>
 5   0  0.4140860E-03  0.1004888E+04  0.7818609E-02  0.9303200E-01
        2   -1    0    0  501    0  0.00000000000E+00  0.00000000000E+00  0.50992125266E+03  0.50992125266E+03  0.25500000920E-02 0.  1.
       -2   -1    0    0    0  501  0.00000000000E+00  0.00000000000E+00 -0.49507652536E+03  0.49507652536E+03  0.25500000920E-02 0. -1.
    10030    2    1    2    0    0  0.00000000000E+00  0.00000000000E+00  0.14844727303E+02  0.10049977780E+04  0.10048881370E+04 0.  0.
        3    1    3    3  502    0 -0.12984494215E+03  0.48373308007E+03  0.47334486758E+02  0.50308842722E+03  0.10100000352E+00 0. -1.
       -3    1    3    3    0  502  0.12984494215E+03 -0.48373308007E+03 -0.32489759455E+02  0.50190935081E+03  0.10100000352E+00 0.  1.
</event>
<event>
 5   0  0.2405022E-03  0.1005827E+04  0.7818609E-02  0.9302177E-01
        1   -1    0    0  501    0  0.00000000000E+00  0.00000000000E+00  0.91421676525E+03  0.91421676526E+03  0.50400001928E-02 0.  1.
       -1   -1    0    0    0  501  0.00000000000E+00  0.00000000000E+00 -0.27665420118E+03  0.27665420123E+03  0.50400001928E-02 0. -1.
    10030    2    1    2    0    0  0.00000000000E+00  0.00000000000E+00  0.63756256407E+03  0.11908709665E+04  0.10058268418E+04 0.  0.
        4    1    3    3  502    0 -0.45167517066E+03 -0.18150386377E+03  0.46838488285E+03  0.67552951359E+03  0.12699999809E+01 0.  1.
       -4    1    3    3    0  502  0.45167517066E+03  0.18150386377E+03  0.16917768122E+03  0.51534145290E+03  0.12699999809E+01 0. -1.
</event>
<event>
 5   0  0.4026829E-03  0.1002103E+04  0.7818609E-02  0.9306241E-01
        2   -1    0    0  501    0  0.00000000000E+00  0.00000000000E+00  0.53707244605E+03  0.53707244606E+03  0.25500000920E-02 0. -1.
       -2   -1    0    0    0  501  0.00000000000E+00  0.00000000000E+00 -0.46744660331E+03  0.46744660331E+03  0.25500000920E-02 0.  1.
    10030    2    1    2    0    0  0.00000000000E+00  0.00000000000E+00  0.69625842748E+02  0.10045190494E+04  0.10021031696E+04 0.  0.
        1    1    3    3  502    0  0.44928348760E+03 -0.15900211592E+03  0.18983167925E+03  0.51300428026E+03  0.50400001928E-02 0.  1.
       -1    1    3    3    0  502 -0.44928348760E+03  0.15900211592E+03 -0.12020583650E+03  0.49151476911E+03  0.50400001928E-02 0. -1.
</event>
<event>
 5   0  0.2313036E-03  0.9732542E+03  0.7818609E-02  0.9338376E-01
       -1   -1    0    0    0  501  0.00000000000E+00  0.00000000000E+00  0.37952052209E+03  0.37952052212E+03  0.50400001928E-02 0. -1.
        1   -1    0    0  501    0  0.00000000000E+00  0.00000000000E+00 -0.62396078468E+03  0.62396078470E+03  0.50400001928E-02 0.  1.
    10030    2    1    2    0    0  0.00000000000E+00  0.00000000000E+00 -0.24444026259E+03  0.10034813068E+04  0.97325417603E+03 0.  0.
        3    1    3    3  502    0  0.12157374573E+03 -0.36878880346E+03 -0.42462176422E+03  0.57540334554E+03  0.10100000352E+00 0.  1.
       -3    1    3    3    0  502 -0.12157374573E+03  0.36878880346E+03  0.18018150163E+03  0.42807796128E+03  0.10100000352E+00 0. -1.
</event>
<event>
 5   0  0.3826483E-03  0.9942839E+03  0.7818609E-02  0.9314836E-01
       -2   -1    0    0    0  501  0.00000000000E+00  0.00000000000E+00  0.30801449434E+03  0.30801449435E+03  0.25500000920E-02 0. -1.
        2   -1    0    0  501    0  0.00000000000E+00  0.00000000000E+00 -0.80239775289E+03  0.80239775289E+03  0.25500000920E-02 0.  1.
    10030    2    1    2    0    0  0.00000000000E+00  0.00000000000E+00 -0.49438325855E+03  0.11104122472E+04  0.99428393957E+03 0.  0.
        4    1    3    3  502    0 -0.19318127476E+03  0.39812882607E+03 -0.50019695255E+03  0.66785041088E+03  0.12699999809E+01 0.  1.
       -4    1    3    3    0  502  0.19318127476E+03 -0.39812882607E+03  0.58136939982E+01  0.44256183637E+03  0.12699999809E+01 0. -1.
</event>
<event>
 5   0  0.1548000E-03  0.1005801E+04  0.7818609E-02  0.9302205E-01
        3   -1    0    0  501    0  0.00000000000E+00  0.00000000000E+00  0.48950378238E+03  0.48950379280E+03  0.10100000352E+00 0. -1.
       -3   -1    0    0    0  501  0.00000000000E+00  0.00000000000E+00 -0.51666376458E+03  0.51666377446E+03  0.10100000352E+00 0.  1.
    10030    2    1    2    0    0  0.00000000000E+00  0.00000000000E+00 -0.27159982200E+02  0.10061675673E+04  0.10058009290E+04 0.  0.
        1    1    3    3  502    0  0.27633377804E+03  0.59887640273E+01 -0.43386723160E+03  0.51442880641E+03  0.50400001928E-02 0.  1.
       -1    1    3    3    0  502 -0.27633377804E+03 -0.59887640273E+01  0.40670724940E+03  0.49173876085E+03  0.50400001928E-02 0. -1.
</event>
<event>
 5   0  0.3826483E-03  0.9993547E+03  0.7818609E-02  0.9309253E-01
       -2   -1    0    0    0  501  0.00000000000E+00  0.00000000000E+00  0.27986909133E+03  0.27986909134E+03  0.25500000920E-02 0.  1.
        2   -1    0    0  501    0  0.00000000000E+00  0.00000000000E+00 -0.89212228847E+03  0.89212228847E+03  0.25500000920E-02 0. -1.
    10030    2    1    2    0    0  0.00000000000E+00  0.00000000000E+00 -0.61225319713E+03  0.11719913798E+04  0.99935470027E+03 0.  0.
        4    1    3    3  502    0 -0.37934777471E+03  0.17737199967E+03 -0.62581671473E+03  0.75300314328E+03  0.12699999809E+01 0. -1.
       -4    1    3    3    0  502  0.37934777471E+03 -0.17737199967E+03  0.13563517599E+02  0.41898823654E+03  0.12699999809E+01 0.  1.
</event>
<event>
 5   0  0.3873874E-03  0.1002824E+04  0.7818609E-02  0.9305453E-01
       -2   -1    0    0    0  501  0.00000000000E+00  0.00000000000E+00  0.11667305709E+04  0.11667305709E+04  0.25500000920E-02 0.  1.
        2   -1    0    0  501    0  0.00000000000E+00  0.00000000000E+00 -0.21548603122E+03  0.21548603123E+03  0.25500000920E-02 0. -1.
    10030    2    1    2    0    0  0.00000000000E+00  0.00000000000E+00  0.95124453969E+03  0.13822166021E+04  0.10028242922E+04 0.  0.
        5    1    3    3  502    0  0.28585406589E+03 -0.31197075393E+02 -0.90508604344E+02  0.30149577436E+03  0.46999998093E+01 0. -1.
       -5    1    3    3    0  502 -0.28585406589E+03  0.31197075393E+02  0.10417531440E+04  0.10807208278E+04  0.46999998093E+01 0.  1.
</event>
<event>
 5   0  0.3895011E-03  0.1004330E+04  0.7818609E-02  0.9303808E-01
       -2   -1    0    0    0  501  0.00000000000E+00  0.00000000000E+00  0.27787675308E+03  0.27787675309E+03  0.25500000920E-02 0.  1.
        2   -1    0    0  501    0  0.00000000000E+00  0.00000000000E+00 -0.90748756249E+03  0.90748756250E+03  0.25500000920E-02 0. -1.
    10030    2    1    2    0    0  0.00000000000E+00  0.00000000000E+00 -0.62961080941E+03  0.11853643156E+04  0.10043300201E+04 0.  0.
        2    1    3    3  502    0  0.15697813687E+03  0.11829353013E+02  0.24800072743E+03  0.29374551888E+03  0.25500000920E-02 0.  1.
       -2    1    3    3    0  502 -0.15697813687E+03 -0.11829353013E+02 -0.87761153684E+03  0.89161879671E+03  0.25500000920E-02 0. -1.
</event>
<event>
 5   0  0.4140860E-03  0.9733882E+03  0.7818609E-02  0.9338223E-01
       -2   -1    0    0    0  501  0.00000000000E+00  0.00000000000E+00  0.23940111093E+03  0.23940111094E+03  0.25500000920E-02 0.  1.
        2   -1    0    0  501    0  0.00000000000E+00  0.00000000000E+00 -0.98943218784E+03  0.98943218784E+03  0.25500000920E-02 0. -1.
    10030    2    1    2    0    0  0.00000000000E+00  0.00000000000E+00 -0.75003107691E+03  0.12288332988E+04  0.97338823697E+03 0.  0.
        3    1    3    3  502    0 -0.47314648133E+03 -0.93705862046E+02 -0.29297929488E+03  0.56434498209E+03  0.10100000352E+00 0. -1.
       -3    1    3    3    0  502  0.47314648133E+03  0.93705862046E+02 -0.45705178203E+03  0.66448831670E+03  0.10100000352E+00 0.  1.
</event>
<event>
 5   0  0.4140860E-03  0.9949921E+03  0.7818609E-02  0.9314054E-01
       -2   -1    0    0    0  501  0.00000000000E+00  0.00000000000E+00  0.21253437151E+03  0.21253437153E+03  0.25500000920E-02 0.  1.
        2   -1    0    0  501    0  0.00000000000E+00  0.00000000000E+00 -0.11645285239E+04  0.11645285239E+04  0.25500000920E-02 0. -1.
    10030    2    1    2    0    0  0.00000000000E+00  0.00000000000E+00 -0.95199415239E+03  0.13770628954E+04  0.99499213654E+03 0.  0.
        3    1    3    3  502    0 -0.10109821911E+03 -0.46526132295E+03 -0.67566367790E+03  0.82656540236E+03  0.10100000352E+00 0. -1.
       -3    1    3    3    0  502  0.10109821911E+03  0.46526132295E+03 -0.27633047449E+03  0.55049749307E+03  0.10100000352E+00 0.  1.
</event>
<event>
 5   0  0.3895011E-03  0.1008861E+04  0.7818609E-02  0.9298880E-01
        2   -1    0    0  501    0  0.00000000000E+00  0.00000000000E+00  0.65179787992E+03  0.65179787992E+03  0.25500000920E-02 0.  1.
       -2   -1    0    0    0  501  0.00000000000E+00  0.00000000000E+00 -0.39038160374E+03  0.39038160375E+03  0.25500000920E-02 0. -1.
    10030    2    1    2    0    0  0.00000000000E+00  0.00000000000E+00  0.26141627618E+03  0.10421794837E+04  0.10088605487E+04 0.  0.
        2    1    3    3  502    0 -0.23037407600E+03 -0.44809339544E+03  0.15580016946E+03  0.52738373006E+03  0.25500000920E-02 0. -1.
       -2    1    3    3    0  502  0.23037407600E+03  0.44809339544E+03  0.10561610672E+03  0.51479575361E+03  0.25500000920E-02 0.  1.
</event>
<event>
 5   0  0.1548000E-03  0.1007498E+04  0.7818609E-02  0.9300359E-01
        3   -1    0    0  501    0  0.00000000000E+00  0.00000000000E+00  0.46985595167E+03  0.46985596253E+03  0.10100000352E+00 0. -1.
       -3   -1    0    0    0  501  0.00000000000E+00  0.00000000000E+00 -0.54008658793E+03  0.54008659737E+03  0.10100000352E+00 0.  1.
    10030    2    1    2    0    0  0.00000000000E+00  0.00000000000E+00 -0.70230636259E+02  0.10099425599E+04  0.10074977082E+04 0.  0.
        4    1    3    3  502    0  0.14020216537E+03  0.19367812122E+03  0.40934921449E+03  0.47406355494E+03  0.12699999809E+01 0. -1.
       -4    1    3    3    0  502 -0.14020216537E+03 -0.19367812122E+03 -0.47957985075E+03  0.53587900496E+03  0.12699999809E+01 0.  1.
</event>
<event>
 5   0  0.3873874E-03  0.1073953E+04  0.7818609E-02  0.9230957E-01
       -2   -1    0    0    0  501  0.00000000000E+00  0.00000000000E+00  0.31286680651E+03  0.31286680652E+03  0.25500000920E-02 0. -1.
        2   -1    0    0  501    0  0.00000000000E+00  0.00000000000E+00 -0.92161887236E+03  0.92161887236E+03  0.25500000920E-02 0.  1.
    10030    2    1    2    0    0  0.00000000000E+00  0.00000000000E+00 -0.60875206585E+03  0.12344856789E+04  0.10739533573E+04 0.  0.
        5    1    3    3  502    0 -0.11238274477E+03 -0.46540479900E+02 -0.90554965442E+03  0.91369478723E+03  0.46999998093E+01 0.  1.
       -5    1    3    3    0  502  0.11238274477E+03  0.46540479900E+02  0.29679758857E+03  0.32079089166E+03  0.46999998093E+01 0. -1.
</event>
<event>
 5   0  0.4140860E-03  0.1000406E+04  0.7818609E-02  0.9308100E-01
        2   -1    0    0  501    0  0.00000000000E+00  0.00000000000E+00  0.22526879796E+04  0.22526879796E+04  0.25500000920E-02 0. -1.
       -2   -1    0    0    0  501  0.00000000000E+00  0.00000000000E+00 -0.11106866346E+03  0.11106866349E+03  0.25500000920E-02 0.  1.
    10030    2    1    2    0    0  0.00000000000E+00  0.00000000000E+00  0.21416193161E+04  0.23637566431E+04  0.10004060038E+04 0.  0.
        3    1    3    3  502    0  0.44818473502E+02  0.10849828245E+03 -0.78060209507E+02  0.14097510196E+03  0.10100000352E+00 0.  1.
       -3    1    3    3    0  502 -0.44818473502E+02 -0.10849828245E+03  0.22196795256E+04  0.22227815411E+04  0.10100000352E+00 0. -1.
</event>
<event>
 5   0  0.2405022E-03  0.9969089E+03  0.7818609E-02  0.9311942E-01
        1   -1    0    0  501    0  0.00000000000E+00  0.00000000000E+00  0.54387174534E+03  0.54387174536E+03  0.50400001928E-02 0. -1.
       -1   -1    0    0    0  501  0.00000000000E+00  0.00000000000E+00 -0.45682979435E+03  0.45682979437E+03  0.50400001928E-02 0.  1.
    10030    2    1    2    0    0  0.00000000000E+00  0.00000000000E+00  0.87041950996E+02  0.10007015397E+04  0.99690885762E+03 0.  0.
        4    1    3    3  502    0 -0.46058806136E+02  0.20408491399E+03 -0.41061943433E+03  0.46084921448E+03  0.12699999809E+01 0.  1.
       -4    1    3    3    0  502  0.46058806136E+02 -0.20408491399E+03  0.49766138532E+03  0.53985232526E+03  0.12699999809E+01 0. -1.
</event>
<event>
 5   0  0.4026829E-03  0.9157804E+03  0.7818609E-02  0.9406067E-01
       -2   -1    0    0    0  501  0.00000000000E+00  0.00000000000E+00  0.18477415767E+03  0.18477415769E+03  0.25500000920E-02 0. -1.
        2   -1    0    0  501    0  0.00000000000E+00  0.00000000000E+00 -0.11347010838E+04  0.11347010838E+04  0.25500000920E-02 0.  1.
    10030    2    1    2    0    0  0.00000000000E+00  0.00000000000E+00 -0.94992692608E+03  0.13194752414E+04  0.91578040375E+03 0.  0.
        1    1    3    3  502    0  0.24390490136E+03 -0.26356337642E+03 -0.88428885237E+03  0.95442235344E+03  0.50400001928E-02 0.  1.
       -1    1    3    3    0  502 -0.24390490136E+03  0.26356337642E+03 -0.65638073715E+02  0.36505288801E+03  0.50400001928E-02 0. -1.
</event>
<event>
 5   0  0.3895011E-03  0.1009489E+04  0.7818609E-02  0.9298198E-01
        2   -1    0    0  501    0  0.00000000000E+00  0.00000000000E+00  0.38840632158E+03  0.38840632159E+03  0.25500000920E-02 0. -1.
       -2   -1    0    0    0  501  0.00000000000E+00  0.00000000000E+00 -0.65592954509E+03  0.65592954509E+03  0.25500000920E-02 0.  1.
    10030    2    1    2    0    0  0.00000000000E+00  0.00000000000E+00 -0.26752322351E+03  0.10443358667E+04  0.10094893399E+04 0.  0.
        2    1    3    3  502    0  0.55353501099E+02 -0.50070339655E+03 -0.10105902192E+03  0.51379064541E+03  0.25500000920E-02 0. -1.
       -2    1    3    3    0  502 -0.55353501099E+02  0.50070339655E+03 -0.16646420158E+03  0.53054522127E+03  0.25500000920E-02 0.  1.
</event>
<event>
 5   0  0.2350769E-03  0.1028973E+04  0.7818609E-02  0.9277326E-01
        1   -1    0    0  501    0  0.00000000000E+00  0.00000000000E+00  0.76068424101E+03  0.76068424102E+03  0.50400001928E-02 0.  1.
       -1   -1    0    0    0  501  0.00000000000E+00  0.00000000000E+00 -0.34797160981E+03  0.34797160984E+03  0.50400001928E-02 0. -1.
    10030    2    1    2    0    0  0.00000000000E+00  0.00000000000E+00  0.41271263120E+03  0.11086558509E+04  0.10289733134E+04 0.  0.
        2    1    3    3  502    0 -0.19576562981E+03  0.43958311762E+03  0.10217983540E+02  0.48131269078E+03  0.25500000920E-02 0. -1.
       -2    1    3    3    0  502  0.19576562981E+03 -0.43958311762E+03  0.40249464766E+03  0.62734316009E+03  0.25500000920E-02 0.  1.
</event>
<event>
 5   0  0.3873874E-03  0.9932637E+03  0.7818609E-02  0.9315964E-01
       -2   -1    0    0    0  501  0.00000000000E+00  0.00000000000E+00  0.11459313272E+03  0.11459313275E+03  0.25500000920E-02 0. -1.
        2   -1    0    0  501    0  0.00000000000E+00  0.00000000000E+00 -0.21523383587E+04  0.21523383587E+04  0.25500000920E-02 0.  1.
    10030    2    1    2    0    0  0.00000000000E+00  0.00000000000E+00 -0.20377452259E+04  0.22669314914E+04  0.99326370160E+03 0.  0.
        5    1    3    3  502    0  0.27784289874E+03 -0.85179528404E+02 -0.99783577095E+02  0.30729640527E+03  0.46999998093E+01 0. -1.
       -5    1    3    3    0  502 -0.27784289874E+03  0.85179528404E+02 -0.19379616488E+04  0.19596350861E+04  0.46999998093E+01 0.  1.
</event>
<event>
 5   0  0.2313036E-03  0.1000414E+04  0.7818609E-02  0.9308091E-01
       -1   -1    0    0    0  501  0.00000000000E+00  0.00000000000E+00  0.32745301567E+03  0.32745301571E+03  0.50400001928E-02 0.  1.
        1   -1    0    0  501    0  0.00000000000E+00  0.00000000000E+00 -0.76410017126E+03  0.76410017128E+03  0.50400001928E-02 0. -1.
    10030    2    1    2    0    0  0.00000000000E+00  0.00000000000E+00 -0.43664715560E+03  0.10915531870E+04  0.10004137252E+04 0.  0.
        3    1    3    3  502    0  0.19728956873E+03  0.40387006553E+03  0.21154473861E+02  0.44997969479E+03  0.10100000352E+00 0. -1.
       -3    1    3    3    0  502 -0.19728956873E+03 -0.40387006553E+03 -0.45780162946E+03  0.64157349220E+03  0.10100000352E+00 0.  1.
</event>
<event>
 5   0  0.2313036E-03  0.1034820E+04  0.7818609E-02  0.9271158E-01
       -1   -1    0    0    0  501  0.00000000000E+00  0.00000000000E+00  0.53371210891E+03  0.53371210893E+03  0.50400001928E-02 0.  1.
        1   -1    0    0  501    0  0.00000000000E+00  0.00000000000E+00 -0.50160615014E+03  0.50160615016E+03  0.50400001928E-02 0. -1.
    10030    2    1    2    0    0  0.00000000000E+00  0.00000000000E+00  0.32105958772E+02  0.10353182591E+04  0.10348203250E+04 0.  0.
        3    1    3    3  502    0  0.31622566934E+03  0.18245987932E+03 -0.35076084093E+03  0.50628397095E+03  0.10100000352E+00 0. -1.
       -3    1    3    3    0  502 -0.31622566934E+03 -0.18245987932E+03  0.38286679970E+03  0.52903428814E+03  0.10100000352E+00 0.  1.
</event>
<event>
 5   0  0.2405022E-03  0.1011488E+04  0.7818609E-02  0.9296034E-01
        1   -1    0    0  501    0  0.00000000000E+00  0.00000000000E+00  0.15887285139E+04  0.15887285140E+04  0.50400001928E-02 0.  1.
       -1   -1    0    0    0  501  0.00000000000E+00  0.00000000000E+00 -0.16099478772E+03  0.16099478780E+03  0.50400001928E-02 0. -1.
    10030    2    1    2    0    0  0.00000000000E+00  0.00000000000E+00  0.14277337262E+04  0.17497233018E+04  0.10114880324E+04 0.  0.
        4    1    3    3  502    0  0.24441625846E+03 -0.34624594372E+03  0.11912236628E+04  0.12643737536E+04  0.12699999809E+01 0.  1.
       -4    1    3    3    0  502 -0.24441625846E+03  0.34624594372E+03  0.23651006341E+03  0.48534954819E+03  0.12699999809E+01 0. -1.
</event>
<event>
 5   0  0.3826483E-03  0.1003470E+04  0.7818609E-02  0.9304747E-01
        2   -1    0    0  501    0  0.00000000000E+00  0.00000000000E+00  0.32728914103E+03  0.32728914104E+03  0.25500000920E-02 0. -1.
       -2   -1    0    0    0  501  0.00000000000E+00  0.00000000000E+00 -0.76916044327E+03  0.76916044328E+03  0.25500000920E-02 0.  1.
    10030    2    1    2    0    0  0.00000000000E+00  0.00000000000E+00 -0.44187130224E+03  0.10964495843E+04  0.10034697022E+04 0.  0.
        4    1    3    3  502    0 -0.37819717784E+03  0.17272347278E+02  0.13882087121E+03  0.40324221814E+03  0.12699999809E+01 0. -1.
       -4    1    3    3    0  502  0.37819717784E+03 -0.17272347278E+02 -0.58069217346E+03  0.69320736618E+03  0.12699999809E+01 0.  1.
</event>
<event>
 5   0  0.3895011E-03  0.9987100E+03  0.7818609E-02  0.9309961E-01
        2   -1    0    0  501    0  0.00000000000E+00  0.00000000000E+00  0.17629823408E+04  0.17629823408E+04  0.25500000920E-02 0.  1.
       -2   -1    0    0    0  501  0.00000000000E+00  0.00000000000E+00 -0.14143954505E+03  0.14143954507E+03  0.25500000920E-02 0. -1.
    10030    2    1    2    0    0  0.00000000000E+00  0.00000000000E+00  0.16215427957E+04  0.19044218859E+04  0.99871000843E+03 0.  0.
        2    1    3    3  502    0  0.42703681894E+03 -0.24375769578E+03  0.97675952562E+03  0.10935435199E+04  0.25500000920E-02 0. -1.
       -2    1    3    3    0  502 -0.42703681894E+03  0.24375769578E+03  0.64478327013E+03  0.81087836599E+03  0.25500000920E-02 0.  1.
</event>
<event>
 5   0  0.3826483E-03  0.1011951E+04  0.7818609E-02  0.9295533E-01
        2   -1    0    0  501    0  0.00000000000E+00  0.00000000000E+00  0.13247856395E+04  0.13247856395E+04  0.25500000920E-02 0.  1.
       -2   -1    0    0    0  501  0.00000000000E+00  0.00000000000E+00 -0.19324726118E+03  0.19324726120E+03  0.25500000920E-02 0. -1.
    10030    2    1    2    0    0  0.00000000000E+00  0.00000000000E+00  0.11315383783E+04  0.15180329007E+04  0.10119509800E+04 0.  0.
        4    1    3    3  502    0 -0.43804164366E+02 -0.44624656489E+03  0.21410798893E+03  0.49688896679E+03  0.12699999809E+01 0. -1.
       -4    1    3    3    0  502  0.43804164366E+02  0.44624656489E+03  0.91743038936E+03  0.10211439339E+04  0.12699999809E+01 0.  1.
</event>
<event>
 5   0  0.4026829E-03  0.1008978E+04  0.7818609E-02  0.9298752E-01
        2   -1    0    0  501    0  0.00000000000E+00  0.00000000000E+00  0.74589839509E+03  0.74589839509E+03  0.25500000920E-02 0. -1.
       -2   -1    0    0    0  501  0.00000000000E+00  0.00000000000E+00 -0.34121188833E+03  0.34121188834E+03  0.25500000920E-02 0.  1.
    10030    2    1    2    0    0  0.00000000000E+00  0.00000000000E+00  0.40468650676E+03  0.10871102834E+04  0.10089784931E+04 0.  0.
        1    1    3    3  502    0 -0.28813809447E+03 -0.65942455415E+02  0.64282564899E+03  0.70752864531E+03  0.50400001928E-02 0. -1.
       -1    1    3    3    0  502  0.28813809447E+03  0.65942455415E+02 -0.23813914223E+03  0.37958163812E+03  0.50400001928E-02 0.  1.
</event>
<event>
 5   0  0.4140860E-03  0.9818968E+03  0.7818609E-02  0.9328626E-01
       -2   -1    0    0    0  501  0.00000000000E+00  0.00000000000E+00  0.20571895948E+03  0.20571895950E+03  0.25500000920E-02 0.  1.
        2   -1    0    0  501    0  0.00000000000E+00  0.00000000000E+00 -0.11716485930E+04  0.11716485930E+04  0.25500000920E-02 0. -1.
    10030    2    1    2    0    0  0.00000000000E+00  0.00000000000E+00 -0.96592963355E+03  0.13773675525E+04  0.98189679591E+03 0.  0.
        3    1    3    3  502    0 -0.32025721261E+03 -0.29147064799E+03 -0.80745644971E+03  0.91624546343E+03  0.10100000352E+00 0. -1.
       -3    1    3    3    0  502  0.32025721261E+03  0.29147064799E+03 -0.15847318384E+03  0.46112208911E+03  0.10100000352E+00 0.  1.
</event>
<event>
 5   0  0.2378609E-03  0.9997258E+03  0.7818609E-02  0.9308846E-01
       -1   -1    0    0    0  501  0.00000000000E+00  0.00000000000E+00  0.19390588314E+03  0.19390588321E+03  0.50400001928E-02 0. -1.
        1   -1    0    0  501    0  0.00000000000E+00  0.00000000000E+00 -0.12885782283E+04  0.12885782283E+04  0.50400001928E-02 0.  1.
    10030    2    1    2    0    0  0.00000000000E+00  0.00000000000E+00 -0.10946723452E+04  0.14824841115E+04  0.99972576122E+03 0.  0.
        1    1    3    3  502    0  0.41138344921E+03 -0.17971517331E+03 -0.87333281701E+03  0.98195931438E+03  0.50400001928E-02 0.  1.
       -1    1    3    3    0  502 -0.41138344921E+03  0.17971517331E+03 -0.22133952814E+03  0.50052479714E+03  0.50400001928E-02 0. -1.
</event>
<event>
 5   0  0.3895011E-03  0.1002624E+04  0.7818609E-02  0.9305672E-01
        2   -1    0    0  501    0  0.00000000000E+00  0.00000000000E+00  0.84454130169E+03  0.84454130169E+03  0.25500000920E-02 0. -1.
       -2   -1    0    0    0  501  0.00000000000E+00  0.00000000000E+00 -0.29757403165E+03  0.29757403166E+03  0.25500000920E-02 0.  1.
    10030    2    1    2    0    0  0.00000000000E+00  0.00000000000E+00  0.54696727004E+03  0.11421153334E+04  0.10026236782E+04 0.  0.
        2    1    3    3  502    0 -0.34942551026E+03  0.17408239074E+03  0.63173976484E+03  0.74262911098E+03  0.25500000920E-02 0. -1.
       -2    1    3    3    0  502  0.34942551026E+03 -0.17408239074E+03 -0.84772494800E+02  0.39948622237E+03  0.25500000920E-02 0.  1.
</event>
<event>
 5   0  0.2350769E-03  0.1012685E+04  0.7818609E-02  0.9294740E-01
       -1   -1    0    0    0  501  0.00000000000E+00  0.00000000000E+00  0.57437359142E+03  0.57437359144E+03  0.50400001928E-02 0. -1.
        1   -1    0    0  501    0  0.00000000000E+00  0.00000000000E+00 -0.44636965883E+03  0.44636965886E+03  0.50400001928E-02 0.  1.
    10030    2    1    2    0    0  0.00000000000E+00  0.00000000000E+00  0.12800393258E+03  0.10207432503E+04  0.10126854281E+04 0.  0.
        2    1    3    3  502    0  0.30066271632E+03  0.27900488422E+03 -0.23524607157E+03  0.47284512115E+03  0.25500000920E-02 0.  1.
       -2    1    3    3    0  502 -0.30066271632E+03 -0.27900488422E+03  0.36325000415E+03  0.54789812915E+03  0.25500000920E-02 0. -1.
</event>
<event>
 5   0  0.3895011E-03  0.9934094E+03  0.7818609E-02  0.9315803E-01
        2   -1    0    0  501    0  0.00000000000E+00  0.00000000000E+00  0.10568835376E+04  0.10568835376E+04  0.25500000920E-02 0. -1.
       -2   -1    0    0    0  501  0.00000000000E+00  0.00000000000E+00 -0.23343682267E+03  0.23343682269E+03  0.25500000920E-02 0.  1.
    10030    2    1    2    0    0  0.00000000000E+00  0.00000000000E+00  0.82344671497E+03  0.12903203603E+04  0.99340935163E+03 0.  0.
        2    1    3    3  502    0  0.43718132328E+03  0.23577112900E+03  0.41174475991E+03  0.64517383860E+03  0.25500000920E-02 0.  1.
       -2    1    3    3    0  502 -0.43718132328E+03 -0.23577112900E+03  0.41170195506E+03  0.64514652173E+03  0.25500000920E-02 0. -1.
</event>
<event>
 5   0  0.3826483E-03  0.9962932E+03  0.7818609E-02  0.9312620E-01
        2   -1    0    0  501    0  0.00000000000E+00  0.00000000000E+00  0.21870113600E+04  0.21870113600E+04  0.25500000920E-02 0.  1.
       -2   -1    0    0    0  501  0.00000000000E+00  0.00000000000E+00 -0.11346536080E+03  0.11346536083E+03  0.25500000920E-02 0. -1.
    10030    2    1    2    0    0  0.00000000000E+00  0.00000000000E+00  0.20735459992E+04  0.23004767208E+04  0.99629319592E+03 0.  0.
        4    1    3    3  502    0 -0.44154203836E+03  0.88262375381E+02  0.54478685414E+03  0.70678423008E+03  0.12699999809E+01 0.  1.
       -4    1    3    3    0  502  0.44154203836E+03 -0.88262375381E+02  0.15287591450E+04  0.15936924907E+04  0.12699999809E+01 0. -1.
</event>
<event>
 5   0  0.2378609E-03  0.9990242E+03  0.7818609E-02  0.9309616E-01
        1   -1    0    0  501    0  0.00000000000E+00  0.00000000000E+00  0.78813046510E+03  0.78813046512E+03  0.50400001928E-02 0.  1.
       -1   -1    0    0    0  501  0.00000000000E+00  0.00000000000E+00 -0.31658760594E+03  0.31658760598E+03  0.50400001928E-02 0. -1.
    10030    2    1    2    0    0  0.00000000000E+00  0.00000000000E+00  0.47154285917E+03  0.11047180711E+04  0.99902419819E+03 0.  0.
        1    1    3    3  502    0 -0.71365261944E+01  0.14827209259E+03  0.76317613433E+03  0.77747884568E+03  0.50400001928E-02 0.  1.
       -1    1    3    3    0  502  0.71365261944E+01 -0.14827209259E+03 -0.29163327516E+03  0.32723922542E+03  0.50400001928E-02 0. -1.
</event>
<event>
 5   0  0.2313036E-03  0.1012406E+04  0.7818609E-02  0.9295042E-01
       -1   -1    0    0    0  501  0.00000000000E+00  0.00000000000E+00  0.63930283862E+03  0.63930283864E+03  0.50400001928E-02 0.  1.
        1   -1    0    0  501    0  0.00000000000E+00  0.00000000000E+00 -0.40081369784E+03  0.40081369787E+03  0.50400001928E-02 0. -1.
    10030    2    1    2    0    0  0.00000000000E+00  0.00000000000E+00  0.23848914078E+03  0.10401165365E+04  0.10124057187E+04 0.  0.
        3    1    3    3  502    0 -0.48007088113E+03  0.15989903820E+03  0.13397477015E+03  0.52343576737E+03  0.10100000352E+00 0. -1.
       -3    1    3    3    0  502  0.48007088113E+03 -0.15989903820E+03  0.10451437063E+03  0.51668076914E+03  0.10100000352E+00 0.  1.
</event>
<event>
 5   0  0.4140860E-03  0.1003730E+04  0.7818609E-02  0.9304463E-01
       -2   -1    0    0    0  501  0.00000000000E+00  0.00000000000E+00  0.70784543657E+03  0.70784543657E+03  0.25500000920E-02 0.  1.
        2   -1    0    0  501    0  0.00000000000E+00  0.00000000000E+00 -0.35582403415E+03  0.35582403416E+03  0.25500000920E-02 0. -1.
    10030    2    1    2    0    0  0.00000000000E+00  0.00000000000E+00  0.35202140241E+03  0.10636694707E+04  0.10037298816E+04 0.  0.
        3    1    3    3  502    0  0.35845670138E+03 -0.27691091585E+03  0.40501143426E+03  0.60762252605E+03  0.10100000352E+00 0.  1.
       -3    1    3    3    0  502 -0.35845670138E+03  0.27691091585E+03 -0.52990031851E+02  0.45604694468E+03  0.10100000352E+00 0. -1.
</event>
<event>
 5   0  0.2327595E-03  0.1029356E+04  0.7818609E-02  0.9276921E-01
       -1   -1    0    0    0  501  0.00000000000E+00  0.00000000000E+00  0.43931090657E+03  0.43931090660E+03  0.50400001928E-02 0.  1.
        1   -1    0    0  501    0  0.00000000000E+00  0.00000000000E+00 -0.60297543069E+03  0.60297543071E+03  0.50400001928E-02 0. -1.
    10030    2    1    2    0    0  0.00000000000E+00  0.00000000000E+00 -0.16366452412E+03  0.10422863373E+04  0.10293564652E+04 0.  0.
        5    1    3    3  502    0 -0.30947782504E+03  0.35500075853E+03  0.12830657112E+03  0.48814621676E+03  0.46999998093E+01 0.  1.
       -5    1    3    3    0  502  0.30947782504E+03 -0.35500075853E+03 -0.29197109523E+03  0.55414012055E+03  0.46999998093E+01 0. -1.
</event>
<event>
 5   0  0.2405022E-03  0.9938411E+03  0.7818609E-02  0.9315326E-01
       -1   -1    0    0    0  501  0.00000000000E+00  0.00000000000E+00  0.33364791933E+03  0.33364791937E+03  0.50400001928E-02 0.  1.
        1   -1    0    0  501    0  0.00000000000E+00  0.00000000000E+00 -0.74009166895E+03  0.74009166897E+03  0.50400001928E-02 0. -1.
    10030    2    1    2    0    0  0.00000000000E+00  0.00000000000E+00 -0.40644374962E+03  0.10737395883E+04  0.99384112511E+03 0.  0.
        4    1    3    3  502    0 -0.45302069560E+02 -0.15510969992E+03  0.30446786695E+03  0.34469347458E+03  0.12699999809E+01 0.  1.
       -4    1    3    3    0  502  0.45302069560E+02  0.15510969992E+03 -0.71091161657E+03  0.72904611376E+03  0.12699999809E+01 0. -1.
</event>
<event>
 5   0  0.3826483E-03  0.9975938E+03  0.7818609E-02  0.9311188E-01
        2   -1    0    0  501    0  0.00000000000E+00  0.00000000000E+00  0.13744849374E+04  0.13744849374E+04  0.25500000920E-02 0. -1.
       -2   -1    0    0    0  501  0.00000000000E+00  0.00000000000E+00 -0.18101207575E+03  0.18101207577E+03  0.25500000920E-02 0.  1.
    10030    2    1    2    0    0  0.00000000000E+00  0.00000000000E+00  0.11934728617E+04  0.15554970132E+04  0.99759384846E+03 0.  0.
        4    1    3    3  502    0 -0.69996007165E+02  0.15861807765E+03 -0.13251478758E+03  0.21822217441E+03  0.12699999809E+01 0.  1.
       -4    1    3    3    0  502  0.69996007165E+02 -0.15861807765E+03  0.13259876492E+04  0.13372748388E+04  0.12699999809E+01 0. -1.
</event>
<event>
 5   0  0.4026829E-03  0.9910067E+03  0.7818609E-02  0.9318464E-01
        2   -1    0    0  501    0  0.00000000000E+00  0.00000000000E+00  0.17166561382E+04  0.17166561382E+04  0.25500000920E-02 0. -1.
       -2   -1    0    0    0  501  0.00000000000E+00  0.00000000000E+00 -0.14302432727E+03  0.14302432729E+03  0.25500000920E-02 0.  1.
    10030    2    1    2    0    0  0.00000000000E+00  0.00000000000E+00  0.15736318109E+04  0.18596804655E+04  0.99100673929E+03 0.  0.
        1    1    3    3  502    0 -0.19963879181E+03 -0.36564010024E+03  0.28336938910E+03  0.50383185767E+03  0.50400001928E-02 0.  1.
       -1    1    3    3    0  502  0.19963879181E+03  0.36564010024E+03  0.12902624218E+04  0.13558486078E+04  0.50400001928E-02 0. -1.
</event>
<event>
 5   0  0.2350769E-03  0.9978946E+03  0.7818609E-02  0.9310857E-01
       -1   -1    0    0    0  501  0.00000000000E+00  0.00000000000E+00  0.53726840935E+03  0.53726840937E+03  0.50400001928E-02 0. -1.
        1   -1    0    0  501    0  0.00000000000E+00  0.00000000000E+00 -0.46335947795E+03  0.46335947797E+03  0.50400001928E-02 0.  1.
    10030    2    1    2    0    0  0.00000000000E+00  0.00000000000E+00  0.73908931405E+02  0.10006278873E+04  0.99789460305E+03 0.  0.
        2    1    3    3  502    0 -0.37509360090E+03 -0.12966925415E+03 -0.26626275586E+03  0.47791754526E+03  0.25500000920E-02 0.  1.
       -2    1    3    3    0  502  0.37509360090E+03  0.12966925415E+03  0.34017168726E+03  0.52271034209E+03  0.25500000920E-02 0. -1.
</event>
<event>
 5   0  0.3895011E-03  0.9977573E+03  0.7818609E-02  0.9311008E-01
       -2   -1    0    0    0  501  0.00000000000E+00  0.00000000000E+00  0.67924027768E+03  0.67924027768E+03  0.25500000920E-02 0.  1.
        2   -1    0    0  501    0  0.00000000000E+00  0.00000000000E+00 -0.36640924407E+03  0.36640924408E+03  0.25500000920E-02 0. -1.
    10030    2    1    2    0    0  0.00000000000E+00  0.00000000000E+00  0.31283103360E+03  0.10456495218E+04  0.99775731858E+03 0.  0.
        2    1    3    3  502    0 -0.39850428006E+02 -0.23957623370E+03  0.61310192562E+03  0.65945340971E+03  0.25500000920E-02 0.  1.
       -2    1    3    3    0  502  0.39850428006E+02  0.23957623370E+03 -0.30027089202E+03  0.38619611206E+03  0.25500000920E-02 0. -1.
</event>
<event>
 5   0  0.1548000E-03  0.1005158E+04  0.7818609E-02  0.9302906E-01
        3   -1    0    0  501    0  0.00000000000E+00  0.00000000000E+00  0.83897881645E+03  0.83897882252E+03  0.10100000352E+00 0. -1.
       -3   -1    0    0    0  501  0.00000000000E+00  0.00000000000E+00 -0.30106290114E+03  0.30106291808E+03  0.10100000352E+00 0.  1.
    10030    2    1    2    0    0  0.00000000000E+00  0.00000000000E+00  0.53791591530E+03  0.11400417406E+04  0.10051575192E+04 0.  0.
        5    1    3    3  502    0  0.31959901240E+03  0.34414250131E+02 -0.16919185152E+03  0.36328479456E+03  0.46999998093E+01 0.  1.
       -5    1    3    3    0  502 -0.31959901240E+03 -0.34414250131E+02  0.70710776682E+03  0.77675694605E+03  0.46999998093E+01 0. -1.
</event>
<event>
 5   0  0.4026829E-03  0.8772150E+03  0.7818609E-02  0.9454521E-01
        2   -1    0    0  501    0  0.00000000000E+00  0.00000000000E+00  0.24649879012E+04  0.24649879012E+04  0.25500000920E-02 0.  1.
       -2   -1    0    0    0  501  0.00000000000E+00  0.00000000000E+00 -0.78043597317E+02  0.78043597359E+02  0.25500000920E-02 0. -1.
    10030    2    1    2    0    0  0.00000000000E+00  0.00000000000E+00  0.23869443039E+04  0.25430314986E+04  0.87721496387E+03 0.  0.
        1    1    3    3  502    0 -0.30709905909E+03  0.13175917425E+03  0.20170396284E+04  0.20445339749E+04  0.50400001928E-02 0.  1.
       -1    1    3    3    0  502  0.30709905909E+03 -0.13175917425E+03  0.36990467547E+03  0.49849752362E+03  0.50400001928E-02 0. -1.
</event>
<event>
 5   0  0.4140860E-03  0.1019428E+04  0.7818609E-02  0.9287489E-01
       -2   -1    0    0    0  501  0.00000000000E+00  0.00000000000E+00  0.20587652896E+03  0.20587652898E+03  0.25500000920E-02 0.  1.
        2   -1    0    0  501    0  0.00000000000E+00  0.00000000000E+00 -0.12619622144E+04  0.12619622144E+04  0.25500000920E-02 0. -1.
    10030    2    1    2    0    0  0.00000000000E+00  0.00000000000E+00 -0.10560856855E+04  0.14678387434E+04  0.10194280758E+04 0.  0.
        3    1    3    3  502    0 -0.27914514137E+02 -0.49929857536E+03 -0.67007296791E+03  0.83610769640E+03  0.10100000352E+00 0.  1.
       -3    1    3    3    0  502  0.27914514137E+02  0.49929857536E+03 -0.38601271757E+03  0.63173104703E+03  0.10100000352E+00 0. -1.
</event>
<event>
 5   0  0.3895011E-03  0.1004400E+04  0.7818609E-02  0.9303732E-01
        2   -1    0    0  501    0  0.00000000000E+00  0.00000000000E+00  0.21499387592E+04  0.21499387592E+04  0.25500000920E-02 0. -1.
       -2   -1    0    0    0  501  0.00000000000E+00  0.00000000000E+00 -0.11730800079E+03  0.11730800082E+03  0.25500000920E-02 0.  1.
    10030    2    1    2    0    0  0.00000000000E+00  0.00000000000E+00  0.20326307584E+04  0.22672467600E+04  0.10044003538E+04 0.  0.
        2    1    3    3  502    0  0.11483113252E+03  0.48164790726E+03  0.82699520969E+03  0.96389417076E+03  0.25500000920E-02 0. -1.
       -2    1    3    3    0  502 -0.11483113252E+03 -0.48164790726E+03  0.12056355487E+04  0.13033525892E+04  0.25500000920E-02 0.  1.
</event>
<event>
 5   0  0.2327595E-03  0.9904470E+03  0.7818609E-02  0.9319085E-01
        1   -1    0    0  501    0  0.00000000000E+00  0.00000000000E+00  0.92727144536E+03  0.92727144537E+03  0.50400001928E-02 0.  1.
       -1   -1    0    0    0  501  0.00000000000E+00  0.00000000000E+00 -0.26448168846E+03  0.26448168851E+03  0.50400001928E-02 0. -1.
    10030    2    1    2    0    0  0.00000000000E+00  0.00000000000E+00  0.66278975690E+03  0.11917531339E+04  0.99044700528E+03 0.  0.
        5    1    3    3  502    0 -0.40078405673E+03 -0.29008447607E+03  0.30594500289E+03  0.58172269870E+03  0.46999998093E+01 0.  1.
       -5    1    3    3    0  502  0.40078405673E+03  0.29008447607E+03  0.35684475401E+03  0.61003043518E+03  0.46999998093E+01 0. -1.
</event>
<event>
 5   0  0.3826483E-03  0.9963671E+03  0.7818609E-02  0.9312538E-01
       -2   -1    0    0    0  501  0.00000000000E+00  0.00000000000E+00  0.73565083091E+03  0.73565083091E+03  0.25500000920E-02 0.  1.
        2   -1    0    0  501    0  0.00000000000E+00  0.00000000000E+00 -0.33737045157E+03  0.33737045158E+03  0.25500000920E-02 0. -1.
    10030    2    1    2    0    0  0.00000000000E+00  0.00000000000E+00  0.39828037933E+03  0.10730212825E+04  0.99636710711E+03 0.  0.
        4    1    3    3  502    0 -0.38102265434E+02 -0.21172489997E+03  0.68304907071E+03  0.71612628900E+03  0.12699999809E+01 0.  1.
       -4    1    3    3    0  502  0.38102265434E+02  0.21172489997E+03 -0.28476869137E+03  0.35689499350E+03  0.12699999809E+01 0. -1.
</event>
<event>
 5   0  0.2313036E-03  0.9904482E+03  0.7818609E-02  0.9319084E-01
        1   -1    0    0  501    0  0.00000000000E+00  0.00000000000E+00  0.69432874969E+03  0.69432874971E+03  0.50400001928E-02 0. -1.
       -1   -1    0    0    0  501  0.00000000000E+00  0.00000000000E+00 -0.35321437416E+03  0.35321437420E+03  0.50400001928E-02 0.  1.
    10030    2    1    2    0    0  0.00000000000E+00  0.00000000000E+00  0.34111437553E+03  0.10475431239E+04  0.99044817091E+03 0.  0.
        3    1    3    3  502    0 -0.11116466451E+03 -0.44512031014E+03 -0.26622701953E+02  0.45956332708E+03  0.10100000352E+00 0.  1.
       -3    1    3    3    0  502  0.11116466451E+03  0.44512031014E+03  0.36773707748E+03  0.58797979684E+03  0.10100000352E+00 0. -1.
</event>
<event>
 5   0  0.2378609E-03  0.9993477E+03  0.7818609E-02  0.9309261E-01
        1   -1    0    0  501    0  0.00000000000E+00  0.00000000000E+00  0.56864834598E+03  0.56864834600E+03  0.50400001928E-02 0.  1.
       -1   -1    0    0    0  501  0.00000000000E+00  0.00000000000E+00 -0.43906565381E+03  0.43906565384E+03  0.50400001928E-02 0. -1.
    10030    2    1    2    0    0  0.00000000000E+00  0.00000000000E+00  0.12958269217E+03  0.10077139998E+04  0.99934770294E+03 0.  0.
        1    1    3    3  502    0  0.25068694962E+03 -0.48698540430E+02  0.49787317950E+03  0.55954731475E+03  0.50400001928E-02 0.  1.
       -1    1    3    3    0  502 -0.25068694962E+03  0.48698540430E+02 -0.36829048733E+03  0.44816668510E+03  0.50400001928E-02 0. -1.
</event>
<event>
 5   0  0.4140860E-03  0.9856714E+03  0.7818609E-02  0.9324401E-01
       -2   -1    0    0    0  501  0.00000000000E+00  0.00000000000E+00  0.93438470893E+03  0.93438470893E+03  0.25500000920E-02 0. -1.
        2   -1    0    0  501    0  0.00000000000E+00  0.00000000000E+00 -0.25994326024E+03  0.25994326025E+03  0.25500000920E-02 0.  1.
    10030    2    1    2    0    0  0.00000000000E+00  0.00000000000E+00  0.67444144869E+03  0.11943279692E+04  0.98567136017E+03 0.  0.
        3    1    3    3  502    0  0.91875391941E+02 -0.29710689627E+03  0.80048161980E+03  0.85876913620E+03  0.10100000352E+00 0. -1.
       -3    1    3    3    0  502 -0.91875391941E+02  0.29710689627E+03 -0.12604017111E+03  0.33555883298E+03  0.10100000352E+00 0.  1.
</event>
<event>
 5   0  0.1548000E-03  0.9972318E+03  0.7818609E-02  0.9311586E-01
       -3   -1    0    0    0  501  0.00000000000E+00  0.00000000000E+00  0.14281923904E+04  0.14281923939E+04  0.10100000352E+00 0. -1.
        3   -1    0    0  501    0  0.00000000000E+00  0.00000000000E+00 -0.17407865469E+03  0.17407868399E+03  0.10100000352E+00 0.  1.
    10030    2    1    2    0    0  0.00000000000E+00  0.00000000000E+00  0.12541137357E+04  0.16022710779E+04  0.99723184123E+03 0.  0.
        2    1    3    3  502    0  0.21356059452E+03  0.62249480228E+01  0.13509205841E+04  0.13677109717E+04  0.25500000920E-02 0. -1.
       -2    1    3    3    0  502 -0.21356059452E+03 -0.62249480228E+01 -0.96806848462E+02  0.23456010621E+03  0.25500000920E-02 0.  1.
</event>
<event>
 5   0  0.2313036E-03  0.9821108E+03  0.7818609E-02  0.9328386E-01
       -1   -1    0    0    0  501  0.00000000000E+00  0.00000000000E+00  0.38712512701E+03  0.38712512705E+03  0.50400001928E-02 0.  1.
        1   -1    0    0  501    0  0.00000000000E+00  0.00000000000E+00 -0.62288754218E+03  0.62288754220E+03  0.50400001928E-02 0. -1.
    10030    2    1    2    0    0  0.00000000000E+00  0.00000000000E+00 -0.23576241517E+03  0.10100126692E+04  0.98211082655E+03 0.  0.
        3    1    3    3  502    0  0.56973523650E+02  0.28098063260E+03 -0.52787944061E+03  0.60071025654E+03  0.10100000352E+00 0. -1.
       -3    1    3    3    0  502 -0.56973523650E+02 -0.28098063260E+03  0.29211702544E+03  0.40930241271E+03  0.10100000352E+00 0.  1.
</event>
<event>
 5   0  0.2405022E-03  0.1000022E+04  0.7818609E-02  0.9308521E-01
        1   -1    0    0  501    0  0.00000000000E+00  0.00000000000E+00  0.12238235114E+04  0.12238235114E+04  0.50400001928E-02 0.  1.
       -1   -1    0    0    0  501  0.00000000000E+00  0.00000000000E+00 -0.20428673887E+03  0.20428673893E+03  0.50400001928E-02 0. -1.
    10030    2    1    2    0    0  0.00000000000E+00  0.00000000000E+00  0.10195367725E+04  0.14281102504E+04  0.10000218281E+04 0.  0.
        4    1    3    3  502    0 -0.36585089642E+03 -0.16819321555E+03  0.93310041971E+03  0.10162744916E+04  0.12699999809E+01 0.  1.
       -4    1    3    3    0  502  0.36585089642E+03  0.16819321555E+03  0.86436352832E+02  0.41183575872E+03  0.12699999809E+01 0. -1.
</event>
<event>
 5   0  0.2327595E-03  0.9977247E+03  0.7818609E-02  0.9311044E-01
       -1   -1    0    0    0  501  0.00000000000E+00  0.00000000000E+00  0.13838321803E+03  0.13838321813E+03  0.50400001928E-02 0. -1.
        1   -1    0    0  501    0  0.00000000000E+00  0.00000000000E+00 -0.17983659417E+04  0.17983659417E+04  0.50400001928E-02 0.  1.
    10030    2    1    2    0    0  0.00000000000E+00  0.00000000000E+00 -0.16599827237E+04  0.19367491598E+04  0.99772474423E+03 0.  0.
        5    1    3    3  502    0  0.37367187758E+03 -0.28179580291E+03 -0.11650999473E+04  0.12555952866E+04  0.46999998093E+01 0. -1.
       -5    1    3    3    0  502 -0.37367187758E+03  0.28179580291E+03 -0.49488277635E+03  0.68115387319E+03  0.46999998093E+01 0.  1.
</event>
<event>
 5   0  0.2405022E-03  0.9970931E+03  0.7818609E-02  0.9311739E-01
        1   -1    0    0  501    0  0.00000000000E+00  0.00000000000E+00  0.51332804338E+03  0.51332804341E+03  0.50400001928E-02 0. -1.
       -1   -1    0    0    0  501  0.00000000000E+00  0.00000000000E+00 -0.48419066314E+03  0.48419066317E+03  0.50400001928E-02 0.  1.
    10030    2    1    2    0    0  0.00000000000E+00  0.00000000000E+00  0.29137380244E+02  0.99751870658E+03  0.99709306639E+03 0.  0.
        4    1    3    3  502    0  0.11342435150E+03  0.26792929630E+03 -0.39044464234E+03  0.48692897117E+03  0.12699999809E+01 0.  1.
       -4    1    3    3    0  502 -0.11342435150E+03 -0.26792929630E+03  0.41958202258E+03  0.51058973541E+03  0.12699999809E+01 0. -1.
</event>
<event>
 5   0  0.4026829E-03  0.9961091E+03  0.7818609E-02  0.9312823E-01
       -2   -1    0    0    0  501  0.00000000000E+00  0.00000000000E+00  0.36502625520E+03  0.36502625521E+03  0.25500000920E-02 0. -1.
        2   -1    0    0  501    0  0.00000000000E+00  0.00000000000E+00 -0.67956301124E+03  0.67956301124E+03  0.25500000920E-02 0.  1.
    10030    2    1    2    0    0  0.00000000000E+00  0.00000000000E+00 -0.31453675604E+03  0.10445892664E+04  0.99610911284E+03 0.  0.
        1    1    3    3  502    0 -0.19430913170E+03  0.44452545808E+03 -0.27544473076E+03  0.55787876933E+03  0.50400001928E-02 0.  1.
       -1    1    3    3    0  502  0.19430913170E+03 -0.44452545808E+03 -0.39092025280E+02  0.48671049712E+03  0.50400001928E-02 0. -1.
</event>
<event>
 5   0  0.2405022E-03  0.1035329E+04  0.7818609E-02  0.9270623E-01
        1   -1    0    0  501    0  0.00000000000E+00  0.00000000000E+00  0.10383650361E+04  0.10383650361E+04  0.50400001928E-02 0.  1.
       -1   -1    0    0    0  501  0.00000000000E+00  0.00000000000E+00 -0.25807565229E+03  0.25807565234E+03  0.50400001928E-02 0. -1.
    10030    2    1    2    0    0  0.00000000000E+00  0.00000000000E+00  0.78028938384E+03  0.12964406885E+04  0.10353293854E+04 0.  0.
        4    1    3    3  502    0  0.17205638575E+03  0.36680329165E+03 -0.13342175608E+02  0.40537350825E+03  0.12699999809E+01 0. -1.
       -4    1    3    3    0  502 -0.17205638575E+03 -0.36680329165E+03  0.79363155945E+03  0.89106718024E+03  0.12699999809E+01 0.  1.
</event>
<event>
 5   0  0.4140860E-03  0.9868990E+03  0.7818609E-02  0.9323032E-01
        2   -1    0    0  501    0  0.00000000000E+00  0.00000000000E+00  0.13000001457E+04  0.13000001457E+04  0.25500000920E-02 0. -1.
       -2   -1    0    0    0  501  0.00000000000E+00  0.00000000000E+00 -0.18730181753E+03  0.18730181755E+03  0.25500000920E-02 0.  1.
    10030    2    1    2    0    0  0.00000000000E+00  0.00000000000E+00  0.11126983281E+04  0.14873019632E+04  0.98689896157E+03 0.  0.
        3    1    3    3  502    0  0.24178080632E+03  0.26054662778E+02  0.12034241301E+04  0.12277485292E+04  0.10100000352E+00 0. -1.
       -3    1    3    3    0  502 -0.24178080632E+03 -0.26054662778E+02 -0.90725802005E+02  0.25955343401E+03  0.10100000352E+00 0.  1.
</event>
<event>
 5   0  0.3826483E-03  0.1004816E+04  0.7818609E-02  0.9303278E-01
        2   -1    0    0  501    0  0.00000000000E+00  0.00000000000E+00  0.46562659485E+03  0.46562659485E+03  0.25500000920E-02 0. -1.
       -2   -1    0    0    0  501  0.00000000000E+00  0.00000000000E+00 -0.54209500086E+03  0.54209500087E+03  0.25500000920E-02 0.  1.
    10030    2    1    2    0    0  0.00000000000E+00  0.00000000000E+00 -0.76468406017E+02  0.10077215957E+04  0.10048161013E+04 0.  0.
        4    1    3    3  502    0 -0.16513616370E+03 -0.85770160675E+01 -0.51402008309E+03  0.53996460670E+03  0.12699999809E+01 0.  1.
       -4    1    3    3    0  502  0.16513616370E+03  0.85770160675E+01  0.43755167708E+03  0.46775698902E+03  0.12699999809E+01 0. -1.
</event>
<event>
 5   0  0.2405022E-03  0.1005217E+04  0.7818609E-02  0.9302841E-01
        1   -1    0    0  501    0  0.00000000000E+00  0.00000000000E+00  0.13995172521E+04  0.13995172521E+04  0.50400001928E-02 0.  1.
       -1   -1    0    0    0  501  0.00000000000E+00  0.00000000000E+00 -0.18050174350E+03  0.18050174357E+03  0.50400001928E-02 0. -1.
    10030    2    1    2    0    0  0.00000000000E+00  0.00000000000E+00  0.12190155086E+04  0.15800189956E+04  0.10052169997E+04 0.  0.
        4    1    3    3  502    0  0.60572425141E+02 -0.64502682920E+01 -0.17467557832E+03  0.18499674378E+03  0.12699999809E+01 0. -1.
       -4    1    3    3    0  502 -0.60572425141E+02  0.64502682920E+01  0.13936910869E+04  0.13950222519E+04  0.12699999809E+01 0.  1.
</event>
<event>
 5   0  0.2378609E-03  0.1000698E+04  0.7818609E-02  0.9307780E-01
       -1   -1    0    0    0  501  0.00000000000E+00  0.00000000000E+00  0.50214665740E+03  0.50214665743E+03  0.50400001928E-02 0. -1.
        1   -1    0    0  501    0  0.00000000000E+00  0.00000000000E+00 -0.49855766141E+03  0.49855766143E+03  0.50400001928E-02 0.  1.
    10030    2    1    2    0    0  0.00000000000E+00  0.00000000000E+00  0.35889959918E+01  0.10007043189E+04  0.10006978829E+04 0.  0.
        1    1    3    3  502    0  0.33830101229E+03  0.26586233273E+03 -0.25358668224E+03  0.49943624250E+03  0.50400001928E-02 0.  1.
       -1    1    3    3    0  502 -0.33830101229E+03 -0.26586233273E+03  0.25717567823E+03  0.50126807636E+03  0.50400001928E-02 0. -1.
</event>
<event>
 5   0  0.3895011E-03  0.1066905E+04  0.7818609E-02  0.9238063E-01
        2   -1    0    0  501    0  0.00000000000E+00  0.00000000000E+00  0.64222101213E+03  0.64222101213E+03  0.25500000920E-02 0.  1.
       -2   -1    0    0    0  501  0.00000000000E+00  0.00000000000E+00 -0.44310528889E+03  0.44310528890E+03  0.25500000920E-02 0. -1.
    10030    2    1    2    0    0  0.00000000000E+00  0.00000000000E+00  0.19911572323E+03  0.10853263010E+04  0.10669049201E+04 0.  0.
        2    1    3    3  502    0  0.24822273446E+03  0.41796305874E+03 -0.12392577933E+03  0.50166247933E+03  0.25500000920E-02 0.  1.
       -2    1    3    3    0  502 -0.24822273446E+03 -0.41796305874E+03  0.32304150256E+03  0.58366382170E+03  0.25500000920E-02 0. -1.
</event>
<event>
 5   0  0.4140860E-03  0.9955021E+03  0.7818609E-02  0.9313492E-01
       -2   -1    0    0    0  501  0.00000000000E+00  0.00000000000E+00  0.27637195204E+03  0.27637195205E+03  0.25500000920E-02 0.  1.
        2   -1    0    0  501    0  0.00000000000E+00  0.00000000000E+00 -0.89645899094E+03  0.89645899094E+03  0.25500000920E-02 0. -1.
    10030    2    1    2    0    0  0.00000000000E+00  0.00000000000E+00 -0.62008703890E+03  0.11728309430E+04  0.99550212708E+03 0.  0.
        3    1    3    3  502    0  0.13911864162E+03  0.63639359191E+02 -0.86807453491E+03  0.88145185509E+03  0.10100000352E+00 0. -1.
       -3    1    3    3    0  502 -0.13911864162E+03 -0.63639359191E+02  0.24798749601E+03  0.29137908790E+03  0.10100000352E+00 0.  1.
</event>
<event>
 5   0  0.2405022E-03  0.9988779E+03  0.7818609E-02  0.9309776E-01
       -1   -1    0    0    0  501  0.00000000000E+00  0.00000000000E+00  0.72965111873E+03  0.72965111874E+03  0.50400001928E-02 0. -1.
        1   -1    0    0  501    0  0.00000000000E+00  0.00000000000E+00 -0.34186102784E+03  0.34186102787E+03  0.50400001928E-02 0.  1.
    10030    2    1    2    0    0  0.00000000000E+00  0.00000000000E+00  0.38779009089E+03  0.10715121466E+04  0.99887793336E+03 0.  0.
        4    1    3    3  502    0 -0.30776908275E+03  0.29656213193E+02 -0.22684533006E+03  0.38348626566E+03  0.12699999809E+01 0.  1.
       -4    1    3    3    0  502  0.30776908275E+03 -0.29656213193E+02  0.61463542095E+03  0.68802588096E+03  0.12699999809E+01 0. -1.
</event>
<event>
 5   0  0.2350769E-03  0.9984919E+03  0.7818609E-02  0.9310200E-01
       -1   -1    0    0    0  501  0.00000000000E+00  0.00000000000E+00  0.45275144352E+03  0.45275144355E+03  0.50400001928E-02 0. -1.
        1   -1    0    0  501    0  0.00000000000E+00  0.00000000000E+00 -0.55051515873E+03  0.55051515876E+03  0.50400001928E-02 0.  1.
    10030    2    1    2    0    0  0.00000000000E+00  0.00000000000E+00 -0.97763715210E+02  0.10032666023E+04  0.99849192850E+03 0.  0.
        2    1    3    3  502    0  0.37141101975E+03 -0.32809926026E+03  0.11832769711E+02  0.49571694002E+03  0.25500000920E-02 0.  1.
       -2    1    3    3    0  502 -0.37141101975E+03  0.32809926026E+03 -0.10959648492E+03  0.50754966229E+03  0.25500000920E-02 0. -1.
</event>
<event>
 5   0  0.2378609E-03  0.1001564E+04  0.7818609E-02  0.9306831E-01
       -1   -1    0    0    0  501  0.00000000000E+00  0.00000000000E+00  0.57005597502E+03  0.57005597504E+03  0.50400001928E-02 0. -1.
        1   -1    0    0  501    0  0.00000000000E+00  0.00000000000E+00 -0.43992638999E+03  0.43992639002E+03  0.50400001928E-02 0.  1.
    10030    2    1    2    0    0  0.00000000000E+00  0.00000000000E+00  0.13012958503E+03  0.10099823651E+04  0.10015641112E+04 0.  0.
        1    1    3    3  502    0 -0.26942148744E+03 -0.69664029103E+02  0.48490739230E+03  0.55908514019E+03  0.50400001928E-02 0. -1.
       -1    1    3    3    0  502  0.26942148744E+03  0.69664029103E+02 -0.35477780727E+03  0.45089722488E+03  0.50400001928E-02 0.  1.
</event>
<event>
 5   0  0.3895011E-03  0.1002655E+04  0.7818609E-02  0.9305638E-01
        2   -1    0    0  501    0  0.00000000000E+00  0.00000000000E+00  0.74744208259E+03  0.74744208260E+03  0.25500000920E-02 0. -1.
       -2   -1    0    0    0  501  0.00000000000E+00  0.00000000000E+00 -0.33625232417E+03  0.33625232418E+03  0.25500000920E-02 0.  1.
    10030    2    1    2    0    0  0.00000000000E+00  0.00000000000E+00  0.41118975842E+03  0.10836944068E+04  0.10026547511E+04 0.  0.
        2    1    3    3  502    0  0.44418962750E+03  0.21992712429E+03  0.12430438500E+03  0.51100288190E+03  0.25500000920E-02 0.  1.
       -2    1    3    3    0  502 -0.44418962750E+03 -0.21992712429E+03  0.28688537342E+03  0.57269152488E+03  0.25500000920E-02 0. -1.
</event>
<event>
 5   0  0.2327595E-03  0.9916171E+03  0.7818609E-02  0.9317787E-01
        1   -1    0    0  501    0  0.00000000000E+00  0.00000000000E+00  0.15514505061E+04  0.15514505061E+04  0.50400001928E-02 0. -1.
       -1   -1    0    0    0  501  0.00000000000E+00  0.00000000000E+00 -0.15844920763E+03  0.15844920771E+03  0.50400001928E-02 0.  1.
    10030    2    1    2    0    0  0.00000000000E+00  0.00000000000E+00  0.13930012985E+04  0.17098997138E+04  0.99161707011E+03 0.  0.
        5    1    3    3  502    0 -0.40989986483E+03 -0.82418277961E+02  0.11559476861E+04  0.12292468485E+04  0.46999998093E+01 0. -1.
       -5    1    3    3    0  502  0.40989986483E+03  0.82418277961E+02  0.23705361240E+03  0.48065286526E+03  0.46999998093E+01 0.  1.
</event>
<event>
 5   0  0.2313036E-03  0.9979065E+03  0.7818609E-02  0.9310844E-01
       -1   -1    0    0    0  501  0.00000000000E+00  0.00000000000E+00  0.33328879708E+03  0.33328879712E+03  0.50400001928E-02 0.  1.
        1   -1    0    0  501    0  0.00000000000E+00  0.00000000000E+00 -0.74696289681E+03  0.74696289683E+03  0.50400001928E-02 0. -1.
    10030    2    1    2    0    0  0.00000000000E+00  0.00000000000E+00 -0.41367409973E+03  0.10802516939E+04  0.99790653945E+03 0.  0.
        3    1    3    3  502    0  0.21679227830E+03  0.25681630289E+03  0.19237707449E+03  0.38724986037E+03  0.10100000352E+00 0.  1.
       -3    1    3    3    0  502 -0.21679227830E+03 -0.25681630289E+03 -0.60605117422E+03  0.69300183358E+03  0.10100000352E+00 0. -1.
</event>
<event>
 5   0  0.4140860E-03  0.1008544E+04  0.7818609E-02  0.9299223E-01
        2   -1    0    0  501    0  0.00000000000E+00  0.00000000000E+00  0.34110920131E+03  0.34110920132E+03  0.25500000920E-02 0. -1.
       -2   -1    0    0    0  501  0.00000000000E+00  0.00000000000E+00 -0.74548120664E+03  0.74548120665E+03  0.25500000920E-02 0.  1.
    10030    2    1    2    0    0  0.00000000000E+00  0.00000000000E+00 -0.40437200533E+03  0.10865904080E+04  0.10085444938E+04 0.  0.
        3    1    3    3  502    0  0.10918857256E+03 -0.22756291149E+03 -0.67252762667E+03  0.71833170743E+03  0.10100000352E+00 0. -1.
       -3    1    3    3    0  502 -0.10918857256E+03  0.22756291149E+03  0.26815562134E+03  0.36825870054E+03  0.10100000352E+00 0.  1.
</event>
<event>
 5   0  0.4140860E-03  0.9999091E+03  0.7818609E-02  0.9308645E-01
        2   -1    0    0  501    0  0.00000000000E+00  0.00000000000E+00  0.48334103827E+03  0.48334103827E+03  0.25500000920E-02 0.  1.
       -2   -1    0    0    0  501  0.00000000000E+00  0.00000000000E+00 -0.51713907105E+03  0.51713907106E+03  0.25500000920E-02 0. -1.
    10030    2    1    2    0    0  0.00000000000E+00  0.00000000000E+00 -0.33798032783E+02  0.10004801093E+04  0.99990906694E+03 0.  0.
        3    1    3    3  502    0 -0.36132328561E+03  0.10396650446E+02 -0.36248288617E+03  0.51191450461E+03  0.10100000352E+00 0. -1.
       -3    1    3    3    0  502  0.36132328561E+03 -0.10396650446E+02  0.32868485339E+03  0.48856560472E+03  0.10100000352E+00 0.  1.
</event>
<event>
 5   0  0.2378609E-03  0.9970088E+03  0.7818609E-02  0.9311832E-01
        1   -1    0    0  501    0  0.00000000000E+00  0.00000000000E+00  0.15539582711E+04  0.15539582711E+04  0.50400001928E-02 0.  1.
       -1   -1    0    0    0  501  0.00000000000E+00  0.00000000000E+00 -0.15991845904E+03  0.15991845912E+03  0.50400001928E-02 0. -1.
    10030    2    1    2    0    0  0.00000000000E+00  0.00000000000E+00  0.13940398121E+04  0.17138767303E+04  0.99700875062E+03 0.  0.
        1    1    3    3  502    0 -0.19291066693E+03 -0.28545090262E+03  0.13163675188E+04  0.13607057683E+04  0.50400001928E-02 0.  1.
       -1    1    3    3    0  502  0.19291066693E+03  0.28545090262E+03  0.77672293303E+02  0.35317096200E+03  0.50400001928E-02 0. -1.
</event>
<event>
 5   0  0.4026829E-03  0.9971949E+03  0.7818609E-02  0.9311627E-01
       -2   -1    0    0    0  501  0.00000000000E+00  0.00000000000E+00  0.24281336357E+03  0.24281336358E+03  0.25500000920E-02 0.  1.
        2   -1    0    0  501    0  0.00000000000E+00  0.00000000000E+00 -0.10238292771E+04  0.10238292771E+04  0.25500000920E-02 0. -1.
    10030    2    1    2    0    0  0.00000000000E+00  0.00000000000E+00 -0.78101591352E+03  0.12666426407E+04  0.99719492678E+03 0.  0.
        1    1    3    3  502    0 -0.13080263583E+03  0.47020188916E+03 -0.52004579665E+03  0.71319476775E+03  0.50400001928E-02 0. -1.
       -1    1    3    3    0  502  0.13080263583E+03 -0.47020188916E+03 -0.26097011688E+03  0.55344787292E+03  0.50400001928E-02 0.  1.
</event>
<event>
 5   0  0.2350769E-03  0.1006797E+04  0.7818609E-02  0.9301121E-01
        1   -1    0    0  501    0  0.00000000000E+00  0.00000000000E+00  0.33074117066E+03  0.33074117069E+03  0.50400001928E-02 0.  1.
       -1   -1    0    0    0  501  0.00000000000E+00  0.00000000000E+00 -0.76618857363E+03  0.76618857365E+03  0.50400001928E-02 0. -1.
    10030    2    1    2    0    0  0.00000000000E+00  0.00000000000E+00 -0.43544740298E+03  0.10969297443E+04  0.10067971113E+04 0.  0.
        2    1    3    3  502    0 -0.18845844827E+02 -0.31038445843E+03  0.21359085378E+03  0.37724624680E+03  0.25500000920E-02 0.  1.
       -2    1    3    3    0  502  0.18845844827E+02  0.31038445843E+03 -0.64903825675E+03  0.71968349754E+03  0.25500000920E-02 0. -1.
</event>
<event>
 5   0  0.2378609E-03  0.1004380E+04  0.7818609E-02  0.9303754E-01
        1   -1    0    0  501    0  0.00000000000E+00  0.00000000000E+00  0.17968958263E+04  0.17968958263E+04  0.50400001928E-02 0. -1.
       -1   -1    0    0    0  501  0.00000000000E+00  0.00000000000E+00 -0.14035017638E+03  0.14035017647E+03  0.50400001928E-02 0.  1.
    10030    2    1    2    0    0  0.00000000000E+00  0.00000000000E+00  0.16565456499E+04  0.19372460028E+04  0.10043797016E+04 0.  0.
        1    1    3    3  502    0  0.14418997983E+03  0.48046700616E+03  0.78281894175E+03  0.92975523116E+03  0.50400001928E-02 0. -1.
       -1    1    3    3    0  502 -0.14418997983E+03 -0.48046700616E+03  0.87372670819E+03  0.10074907716E+04  0.50400001928E-02 0.  1.
</event>
<event>
 5   0  0.1548000E-03  0.9900184E+03  0.7818609E-02  0.9319561E-01
       -4   -1    0    0    0  501  0.00000000000E+00  0.00000000000E+00  0.69306159100E+03  0.69306275460E+03  0.12699999809E+01 0.  1.
        4   -1    0    0  501    0  0.00000000000E+00  0.00000000000E+00 -0.35355055261E+03  0.35355283360E+03  0.12699999809E+01 0. -1.
    10030    2    1    2    0    0  0.00000000000E+00  0.00000000000E+00  0.33951103839E+03  0.10466155882E+04  0.99001840603E+03 0.  0.
        2    1    3    3  502    0 -0.96394888227E+02 -0.40085816343E+03 -0.11986769348E+03  0.42935708404E+03  0.25500000920E-02 0. -1.
       -2    1    3    3    0  502  0.96394888227E+02  0.40085816343E+03  0.45937873187E+03  0.61725850417E+03  0.25500000920E-02 0.  1.
</event>
<event>
 5   0  0.4026829E-03  0.9780209E+03  0.7818609E-02  0.9332985E-01
       -2   -1    0    0    0  501  0.00000000000E+00  0.00000000000E+00  0.12619570390E+03  0.12619570393E+03  0.25500000920E-02 0.  1.
        2   -1    0    0  501    0  0.00000000000E+00  0.00000000000E+00 -0.18949236392E+04  0.18949236392E+04  0.25500000920E-02 0. -1.
    10030    2    1    2    0    0  0.00000000000E+00  0.00000000000E+00 -0.17687279353E+04  0.20211193431E+04  0.97802090471E+03 0.  0.
        1    1    3    3  502    0  0.19876020066E+03 -0.23562870508E+02 -0.18063984460E+04  0.18174532104E+04  0.50400001928E-02 0. -1.
       -1    1    3    3    0  502 -0.19876020066E+03  0.23562870508E+02  0.37670510676E+02  0.20366613276E+03  0.50400001928E-02 0.  1.
</event>
<event>
 5   0  0.2350769E-03  0.9997925E+03  0.7818609E-02  0.9308772E-01
       -1   -1    0    0    0  501  0.00000000000E+00  0.00000000000E+00  0.23393827312E+03  0.23393827318E+03  0.50400001928E-02 0. -1.
        1   -1    0    0  501    0  0.00000000000E+00  0.00000000000E+00 -0.10682145198E+04  0.10682145198E+04  0.50400001928E-02 0.  1.
    10030    2    1    2    0    0  0.00000000000E+00  0.00000000000E+00 -0.83427624667E+03  0.13021527930E+04  0.99979249873E+03 0.  0.
        2    1    3    3  502    0 -0.25596805129E+03  0.37160519963E+03 -0.69734436248E+03  0.83060172620E+03  0.25500000920E-02 0.  1.
       -2    1    3    3    0  502  0.25596805129E+03 -0.37160519963E+03 -0.13693188418E+03  0.47155106678E+03  0.25500000920E-02 0. -1.
</event>
<event>
 5   0  0.2350769E-03  0.1002708E+04  0.7818609E-02  0.9305579E-01
        1   -1    0    0  501    0  0.00000000000E+00  0.00000000000E+00  0.66242290846E+03  0.66242290848E+03  0.50400001928E-02 0. -1.
       -1   -1    0    0    0  501  0.00000000000E+00  0.00000000000E+00 -0.37944933414E+03  0.37944933418E+03  0.50400001928E-02 0.  1.
    10030    2    1    2    0    0  0.00000000000E+00  0.00000000000E+00  0.28297357432E+03  0.10418722427E+04  0.10027081960E+04 0.  0.
        2    1    3    3  502    0 -0.22642047880E+03 -0.18937094494E+03  0.56256615207E+03  0.63530171058E+03  0.25500000920E-02 0. -1.
       -2    1    3    3    0  502  0.22642047880E+03  0.18937094494E+03 -0.27959257776E+03  0.40657053207E+03  0.25500000920E-02 0.  1.
</event>
<event>
 5   0  0.3895011E-03  0.1000840E+04  0.7818609E-02  0.9307624E-01
       -2   -1    0    0    0  501  0.00000000000E+00  0.00000000000E+00  0.15323267732E+03  0.15323267734E+03  0.25500000920E-02 0.  1.
        2   -1    0    0  501    0  0.00000000000E+00  0.00000000000E+00 -0.16342482124E+04  0.16342482124E+04  0.25500000920E-02 0. -1.
    10030    2    1    2    0    0  0.00000000000E+00  0.00000000000E+00 -0.14810155351E+04  0.17874808898E+04  0.10008401051E+04 0.  0.
        2    1    3    3  502    0 -0.33597881280E+03  0.33388914018E+03 -0.10288012455E+04  0.11326057228E+04  0.25500000920E-02 0. -1.
       -2    1    3    3    0  502  0.33597881280E+03 -0.33388914018E+03 -0.45221428961E+03  0.65487516697E+03  0.25500000920E-02 0.  1.
</event>
<event>
 5   0  0.1548000E-03  0.1004758E+04  0.7818609E-02  0.9303341E-01
       -3   -1    0    0    0  501  0.00000000000E+00  0.00000000000E+00  0.84611724003E+03  0.84611724606E+03  0.10100000352E+00 0.  1.
        3   -1    0    0  501    0  0.00000000000E+00  0.00000000000E+00 -0.29828575477E+03  0.29828577187E+03  0.10100000352E+00 0. -1.
    10030    2    1    2    0    0  0.00000000000E+00  0.00000000000E+00  0.54783148526E+03  0.11444030179E+04  0.10047581456E+04 0.  0.
        1    1    3    3  502    0 -0.32272012513E+03 -0.28303004600E+03  0.57121106551E+03  0.71451827652E+03  0.50400001928E-02 0.  1.
       -1    1    3    3    0  502  0.32272012513E+03  0.28303004600E+03 -0.23379580251E+02  0.42988474141E+03  0.50400001928E-02 0. -1.
</event>
<event>
 5   0  0.2313036E-03  0.9929087E+03  0.7818609E-02  0.9316357E-01
       -1   -1    0    0    0  501  0.00000000000E+00  0.00000000000E+00  0.19918534407E+03  0.19918534414E+03  0.50400001928E-02 0. -1.
        1   -1    0    0  501    0  0.00000000000E+00  0.00000000000E+00 -0.12373747568E+04  0.12373747568E+04  0.50400001928E-02 0.  1.
    10030    2    1    2    0    0  0.00000000000E+00  0.00000000000E+00 -0.10381894127E+04  0.14365601009E+04  0.99290869013E+03 0.  0.
        3    1    3    3  502    0 -0.95797363181E+02  0.37590917613E+03 -0.96733359084E+03  0.10422183695E+04  0.10100000352E+00 0. -1.
       -3    1    3    3    0  502  0.95797363181E+02 -0.37590917613E+03 -0.70855821889E+02  0.39434173148E+03  0.10100000352E+00 0.  1.
</event>
<event>
 5   0  0.3873874E-03  0.1008650E+04  0.7818609E-02  0.9299108E-01
       -2   -1    0    0    0  501  0.00000000000E+00  0.00000000000E+00  0.11567896862E+03  0.11567896864E+03  0.25500000920E-02 0. -1.
        2   -1    0    0  501    0  0.00000000000E+00  0.00000000000E+00 -0.21987032768E+04  0.21987032768E+04  0.25500000920E-02 0.  1.
    10030    2    1    2    0    0  0.00000000000E+00  0.00000000000E+00 -0.20830243082E+04  0.23143822455E+04  0.10086500432E+04 0.  0.
        5    1    3    3  502    0 -0.27199050120E+03  0.30991298770E+03 -0.37531928542E+03  0.55759443029E+03  0.46999998093E+01 0. -1.
       -5    1    3    3    0  502  0.27199050120E+03 -0.30991298770E+03 -0.17077050228E+04  0.17567878152E+04  0.46999998093E+01 0.  1.
</event>
<event>
 5   0  0.2313036E-03  0.1010917E+04  0.7818609E-02  0.9296651E-01
        1   -1    0    0  501    0  0.00000000000E+00  0.00000000000E+00  0.57594224750E+03  0.57594224753E+03  0.50400001928E-02 0.  1.
       -1   -1    0    0    0  501  0.00000000000E+00  0.00000000000E+00 -0.44360076192E+03  0.44360076195E+03  0.50400001928E-02 0. -1.
    10030    2    1    2    0    0  0.00000000000E+00  0.00000000000E+00  0.13234148558E+03  0.10195430095E+04  0.10109172465E+04 0.  0.
        3    1    3    3  502    0  0.22255692094E+03  0.37917336778E+03 -0.18532498548E+03  0.47712617444E+03  0.10100000352E+00 0. -1.
       -3    1    3    3    0  502 -0.22255692094E+03 -0.37917336778E+03  0.31766647106E+03  0.54241683504E+03  0.10100000352E+00 0.  1.
</event>
<event>
 5   0  0.3895011E-03  0.9978665E+03  0.7818609E-02  0.9310888E-01
        2   -1    0    0  501    0  0.00000000000E+00  0.00000000000E+00  0.90356049351E+03  0.90356049351E+03  0.25500000920E-02 0. -1.
       -2   -1    0    0    0  501  0.00000000000E+00  0.00000000000E+00 -0.27550387006E+03  0.27550387007E+03  0.25500000920E-02 0.  1.
    10030    2    1    2    0    0  0.00000000000E+00  0.00000000000E+00  0.62805662345E+03  0.11790643636E+04  0.99786654980E+03 0.  0.
        2    1    3    3  502    0  0.23856765019E+03  0.28745839814E+03 -0.76766701413E+02  0.38136594084E+03  0.25500000920E-02 0.  1.
       -2    1    3    3    0  502 -0.23856765019E+03 -0.28745839814E+03  0.70482332486E+03  0.79769842275E+03  0.25500000920E-02 0. -1.
</event>
<event>
 5   0  0.3895011E-03  0.1000968E+04  0.7818609E-02  0.9307484E-01
        2   -1    0    0  501    0  0.00000000000E+00  0.00000000000E+00  0.58670238618E+03  0.58670238618E+03  0.25500000920E-02 0. -1.
       -2   -1    0    0    0  501  0.00000000000E+00  0.00000000000E+00 -0.42693569332E+03  0.42693569333E+03  0.25500000920E-02 0.  1.
    10030    2    1    2    0    0  0.00000000000E+00  0.00000000000E+00  0.15976669286E+03  0.10136380795E+04  0.10009679116E+04 0.  0.
        2    1    3    3  502    0  0.30956598326E+03  0.37336765885E+03  0.20493607579E+03  0.52652948810E+03  0.25500000920E-02 0. -1.
       -2    1    3    3    0  502 -0.30956598326E+03 -0.37336765885E+03 -0.45169382934E+02  0.48710859141E+03  0.25500000920E-02 0.  1.
</event>
<event>
 5   0  0.2378609E-03  0.1004516E+04  0.7818609E-02  0.9303606E-01
        1   -1    0    0  501    0  0.00000000000E+00  0.00000000000E+00  0.76489824700E+03  0.76489824702E+03  0.50400001928E-02 0. -1.
       -1   -1    0    0    0  501  0.00000000000E+00  0.00000000000E+00 -0.32979958136E+03  0.32979958139E+03  0.50400001928E-02 0.  1.
    10030    2    1    2    0    0  0.00000000000E+00  0.00000000000E+00  0.43509866564E+03  0.10946978284E+04  0.10045160460E+04 0.  0.
        1    1    3    3  502    0 -0.49475737451E+03 -0.32787724544E+02  0.30475341824E+03  0.58200905531E+03  0.50400001928E-02 0. -1.
       -1    1    3    3    0  502  0.49475737451E+03  0.32787724544E+02  0.13034524740E+03  0.51268877310E+03  0.50400001928E-02 0.  1.
</event>
<event>
 5   0  0.4140860E-03  0.9933297E+03  0.7818609E-02  0.9315891E-01
        2   -1    0    0  501    0  0.00000000000E+00  0.00000000000E+00  0.25342886797E+03  0.25342886798E+03  0.25500000920E-02 0.  1.
       -2   -1    0    0    0  501  0.00000000000E+00  0.00000000000E+00 -0.97335382647E+03  0.97335382647E+03  0.25500000920E-02 0. -1.
    10030    2    1    2    0    0  0.00000000000E+00  0.00000000000E+00 -0.71992495850E+03  0.12267826945E+04  0.99332967012E+03 0.  0.
        3    1    3    3  502    0  0.10156733147E+03 -0.13218579274E+03  0.21784633128E+03  0.27431011807E+03  0.10100000352E+00 0.  1.
       -3    1    3    3    0  502 -0.10156733147E+03  0.13218579274E+03 -0.93777128978E+03  0.95247257638E+03  0.10100000352E+00 0. -1.
</event>
<event>
 5   0  0.3895011E-03  0.9811400E+03  0.7818609E-02  0.9329475E-01
       -2   -1    0    0    0  501  0.00000000000E+00  0.00000000000E+00  0.34579649303E+03  0.34579649304E+03  0.25500000920E-02 0.  1.
        2   -1    0    0  501    0  0.00000000000E+00  0.00000000000E+00 -0.69595542708E+03  0.69595542709E+03  0.25500000920E-02 0. -1.
    10030    2    1    2    0    0  0.00000000000E+00  0.00000000000E+00 -0.35015893405E+03  0.10417519201E+04  0.98114004301E+03 0.  0.
        2    1    3    3  502    0  0.13670282531E+03 -0.19555927150E+03  0.28003517823E+03  0.36790051939E+03  0.25500000920E-02 0.  1.
       -2    1    3    3    0  502 -0.13670282531E+03  0.19555927150E+03 -0.63019411228E+03  0.67385140073E+03  0.25500000920E-02 0. -1.
</event>
<event>
 5   0  0.2313036E-03  0.9959566E+03  0.7818609E-02  0.9312991E-01
       -1   -1    0    0    0  501  0.00000000000E+00  0.00000000000E+00  0.42998641654E+03  0.42998641657E+03  0.50400001928E-02 0. -1.
        1   -1    0    0  501    0  0.00000000000E+00  0.00000000000E+00 -0.57672142037E+03  0.57672142039E+03  0.50400001928E-02 0.  1.
    10030    2    1    2    0    0  0.00000000000E+00  0.00000000000E+00 -0.14673500383E+03  0.10067078370E+04  0.99595657920E+03 0.  0.
        3    1    3    3  502    0  0.36958610374E+03  0.30443115550E+03  0.64894130942E+02  0.48320127788E+03  0.10100000352E+00 0.  1.
       -3    1    3    3    0  502 -0.36958610374E+03 -0.30443115550E+03 -0.21162913477E+03  0.52350655908E+03  0.10100000352E+00 0. -1.
</event>
<event>
 5   0  0.2313036E-03  0.1009328E+04  0.7818609E-02  0.9298373E-01
        1   -1    0    0  501    0  0.00000000000E+00  0.00000000000E+00  0.27609816419E+03  0.27609816424E+03  0.50400001928E-02 0.  1.
       -1   -1    0    0    0  501  0.00000000000E+00  0.00000000000E+00 -0.92244657197E+03  0.92244657198E+03  0.50400001928E-02 0. -1.
    10030    2    1    2    0    0  0.00000000000E+00  0.00000000000E+00 -0.64634840778E+03  0.11985447362E+04  0.10093281035E+04 0.  0.
        3    1    3    3  502    0 -0.20247169859E+03  0.13601033382E+03  0.20145577927E+03  0.31635113535E+03  0.10100000352E+00 0.  1.
       -3    1    3    3    0  502  0.20247169859E+03 -0.13601033382E+03 -0.84780418705E+03  0.88219360087E+03  0.10100000352E+00 0. -1.
</event>
<event>
 5   0  0.2405022E-03  0.9911029E+03  0.7818609E-02  0.9318357E-01
        1   -1    0    0  501    0  0.00000000000E+00  0.00000000000E+00  0.26120240742E+03  0.26120240747E+03  0.50400001928E-02 0.  1.
       -1   -1    0    0    0  501  0.00000000000E+00  0.00000000000E+00 -0.94015681742E+03  0.94015681743E+03  0.50400001928E-02 0. -1.
    10030    2    1    2    0    0  0.00000000000E+00  0.00000000000E+00 -0.67895441000E+03  0.12013592249E+04  0.99110286872E+03 0.  0.
        4    1    3    3  502    0 -0.21514817593E+03 -0.14509069475E+03 -0.85121091488E+03  0.88988857831E+03  0.12699999809E+01 0. -1.
       -4    1    3    3    0  502  0.21514817593E+03  0.14509069475E+03  0.17225650488E+03  0.31147064658E+03  0.12699999809E+01 0.  1.
</event>
<event>
 5   0  0.4140860E-03  0.1005946E+04  0.7818609E-02  0.9302047E-01
       -2   -1    0    0    0  501  0.00000000000E+00  0.00000000000E+00  0.17211683802E+03  0.17211683804E+03  0.25500000920E-02 0. -1.
        2   -1    0    0  501    0  0.00000000000E+00  0.00000000000E+00 -0.14698270699E+04  0.14698270699E+04  0.25500000920E-02 0.  1.
    10030    2    1    2    0    0  0.00000000000E+00  0.00000000000E+00 -0.12977102319E+04  0.16419439080E+04  0.10059462962E+04 0.  0.
        3    1    3    3  502    0 -0.37563830611E+03  0.32053321347E+03 -0.80487095336E+03  0.94427905817E+03  0.10100000352E+00 0.  1.
       -3    1    3    3    0  502  0.37563830611E+03 -0.32053321347E+03 -0.49283927856E+03  0.69766484980E+03  0.10100000352E+00 0. -1.
</event>
<event>
 5   0  0.3895011E-03  0.1005954E+04  0.7818609E-02  0.9302039E-01
        2   -1    0    0  501    0  0.00000000000E+00  0.00000000000E+00  0.17451705903E+04  0.17451705903E+04  0.25500000920E-02 0.  1.
       -2   -1    0    0    0  501  0.00000000000E+00  0.00000000000E+00 -0.14496340831E+03  0.14496340833E+03  0.25500000920E-02 0. -1.
    10030    2    1    2    0    0  0.00000000000E+00  0.00000000000E+00  0.16002071820E+04  0.18901339986E+04  0.10059540285E+04 0.  0.
        2    1    3    3  502    0 -0.24677140631E+03  0.60966060898E+02 -0.15395834478E+02  0.25465666942E+03  0.25500000920E-02 0. -1.
       -2    1    3    3    0  502  0.24677140631E+03 -0.60966060898E+02  0.16156030164E+04  0.16354773292E+04  0.25500000920E-02 0.  1.
</event>
<event>
 5   0  0.3826483E-03  0.1004371E+04  0.7818609E-02  0.9303764E-01
       -2   -1    0    0    0  501  0.00000000000E+00  0.00000000000E+00  0.25559983419E+03  0.25559983420E+03  0.25500000920E-02 0. -1.
        2   -1    0    0  501    0  0.00000000000E+00  0.00000000000E+00 -0.98666070549E+03  0.98666070550E+03  0.25500000920E-02 0.  1.
    10030    2    1    2    0    0  0.00000000000E+00  0.00000000000E+00 -0.73106087130E+03  0.12422605397E+04  0.10043710723E+04 0.  0.
        4    1    3    3  502    0  0.22930733347E+03 -0.37228809019E+03 -0.67103197256E+03  0.80091559879E+03  0.12699999809E+01 0.  1.
       -4    1    3    3    0  502 -0.22930733347E+03  0.37228809019E+03 -0.60028898740E+02  0.44134494091E+03  0.12699999809E+01 0. -1.
</event>
<event>
 5   0  0.2350769E-03  0.9961052E+03  0.7818609E-02  0.9312827E-01
        1   -1    0    0  501    0  0.00000000000E+00  0.00000000000E+00  0.10028641505E+04  0.10028641505E+04  0.50400001928E-02 0. -1.
       -1   -1    0    0    0  501  0.00000000000E+00  0.00000000000E+00 -0.24734792963E+03  0.24734792968E+03  0.50400001928E-02 0.  1.
    10030    2    1    2    0    0  0.00000000000E+00  0.00000000000E+00  0.75551622088E+03  0.12502120802E+04  0.99610515783E+03 0.  0.
        2    1    3    3  502    0 -0.47131236884E+03  0.11811640264E+03  0.51507286080E+03  0.70808677825E+03  0.25500000920E-02 0.  1.
       -2    1    3    3    0  502  0.47131236884E+03 -0.11811640264E+03  0.24044336008E+03  0.54212530194E+03  0.25500000920E-02 0. -1.
</event>
<event>
 5   0  0.1548000E-03  0.1003836E+04  0.7818609E-02  0.9304347E-01
        3   -1    0    0  501    0  0.00000000000E+00  0.00000000000E+00  0.50073442289E+03  0.50073443308E+03  0.10100000352E+00 0. -1.
       -3   -1    0    0    0  501  0.00000000000E+00  0.00000000000E+00 -0.50310445329E+03  0.50310446343E+03  0.10100000352E+00 0.  1.
    10030    2    1    2    0    0  0.00000000000E+00  0.00000000000E+00 -0.23700303977E+01  0.10038388965E+04  0.10038360987E+04 0.  0.
        2    1    3    3  502    0 -0.21745599550E+03  0.37740508985E+03  0.24821499113E+03  0.50133062309E+03  0.25500000920E-02 0. -1.
       -2    1    3    3    0  502  0.21745599550E+03 -0.37740508985E+03 -0.25058502153E+03  0.50250827341E+03  0.25500000920E-02 0.  1.
</event>
<event>
 5   0  0.4026829E-03  0.9929628E+03  0.7818609E-02  0.9316297E-01
       -2   -1    0    0    0  501  0.00000000000E+00  0.00000000000E+00  0.54362157379E+03  0.54362157380E+03  0.25500000920E-02 0. -1.
        2   -1    0    0  501    0  0.00000000000E+00  0.00000000000E+00 -0.45342899216E+03  0.45342899216E+03  0.25500000920E-02 0.  1.
    10030    2    1    2    0    0  0.00000000000E+00  0.00000000000E+00  0.90192581635E+02  0.99705056596E+03  0.99296280358E+03 0.  0.
        1    1    3    3  502    0  0.48384291359E+02 -0.21419364322E+03 -0.40201629764E+03  0.45807975292E+03  0.50400001928E-02 0.  1.
       -1    1    3    3    0  502 -0.48384291359E+02  0.21419364322E+03  0.49220887927E+03  0.53897081304E+03  0.50400001928E-02 0. -1.
</event>
<event>
 5   0  0.3895011E-03  0.9965441E+03  0.7818609E-02  0.9312343E-01
        2   -1    0    0  501    0  0.00000000000E+00  0.00000000000E+00  0.63224282662E+03  0.63224282662E+03  0.25500000920E-02 0.  1.
       -2   -1    0    0    0  501  0.00000000000E+00  0.00000000000E+00 -0.39268939258E+03  0.39268939259E+03  0.25500000920E-02 0. -1.
    10030    2    1    2    0    0  0.00000000000E+00  0.00000000000E+00  0.23955343404E+03  0.10249322192E+04  0.99654413159E+03 0.  0.
        2    1    3    3  502    0  0.48513142855E+03 -0.21482450336E+02  0.23458572898E+03  0.53929997487E+03  0.25500000920E-02 0.  1.
       -2    1    3    3    0  502 -0.48513142855E+03  0.21482450336E+02  0.49677050565E+01  0.48563224434E+03  0.25500000920E-02 0. -1.
</event>
<event>
 5   0  0.2378609E-03  0.9935843E+03  0.7818609E-02  0.9315610E-01
       -1   -1    0    0    0  501  0.00000000000E+00  0.00000000000E+00  0.21263497862E+03  0.21263497868E+03  0.50400001928E-02 0.  1.
        1   -1    0    0  501    0  0.00000000000E+00  0.00000000000E+00 -0.11606859948E+04  0.11606859948E+04  0.50400001928E-02 0. -1.
    10030    2    1    2    0    0  0.00000000000E+00  0.00000000000E+00 -0.94805101620E+03  0.13733209735E+04  0.99358430289E+03 0.  0.
        1    1    3    3  502    0 -0.27247048748E+03 -0.90957877244E+02  0.86211113492E+02  0.29990974992E+03  0.50400001928E-02 0.  1.
       -1    1    3    3    0  502  0.27247048748E+03  0.90957877244E+02 -0.10342621297E+04  0.10734112236E+04  0.50400001928E-02 0. -1.
</event>
<event>
 5   0  0.2313036E-03  0.9939815E+03  0.7818609E-02  0.9315171E-01
       -1   -1    0    0    0  501  0.00000000000E+00  0.00000000000E+00  0.18710519690E+03  0.18710519696E+03  0.50400001928E-02 0.  1.
        1   -1    0    0  501    0  0.00000000000E+00  0.00000000000E+00 -0.13201118452E+04  0.13201118452E+04  0.50400001928E-02 0. -1.
    10030    2    1    2    0    0  0.00000000000E+00  0.00000000000E+00 -0.11330066483E+04  0.15072170422E+04  0.99398146216E+03 0.  0.
        3    1    3    3  502    0  0.91841670854E+02 -0.39935180875E+03 -0.14008179265E+03  0.43305851624E+03  0.10100000352E+00 0.  1.
       -3    1    3    3    0  502 -0.91841670854E+02  0.39935180875E+03 -0.99292485565E+03  0.10741585259E+04  0.10100000352E+00 0. -1.
</event>
<event>
 5   0  0.2405022E-03  0.1002447E+04  0.7818609E-02  0.9305865E-01
       -1   -1    0    0    0  501  0.00000000000E+00  0.00000000000E+00  0.48449801309E+03  0.48449801312E+03  0.50400001928E-02 0.  1.
        1   -1    0    0  501    0  0.00000000000E+00  0.00000000000E+00 -0.51852688191E+03  0.51852688194E+03  0.50400001928E-02 0. -1.
    10030    2    1    2    0    0  0.00000000000E+00  0.00000000000E+00 -0.34028868822E+02  0.10030248951E+04  0.10024474930E+04 0.  0.
        4    1    3    3  502    0 -0.39543531321E+03  0.30778231764E+03 -0.28182814853E+02  0.50189134874E+03  0.12699999809E+01 0.  1.
       -4    1    3    3    0  502  0.39543531321E+03 -0.30778231764E+03 -0.58460539688E+01  0.50113354631E+03  0.12699999809E+01 0. -1.
</event>
<event>
 5   0  0.1548000E-03  0.9982908E+03  0.7818609E-02  0.9310421E-01
       -3   -1    0    0    0  501  0.00000000000E+00  0.00000000000E+00  0.23512586460E+03  0.23512588629E+03  0.10100000352E+00 0.  1.
        3   -1    0    0  501    0  0.00000000000E+00  0.00000000000E+00 -0.10596287996E+04  0.10596288044E+04  0.10100000352E+00 0. -1.
    10030    2    1    2    0    0  0.00000000000E+00  0.00000000000E+00 -0.82450293499E+03  0.12947546907E+04  0.99829084903E+03 0.  0.
        1    1    3    3  502    0  0.14140278952E+03 -0.47869041618E+03 -0.40884673702E+03  0.64520920470E+03  0.50400001928E-02 0.  1.
       -1    1    3    3    0  502 -0.14140278952E+03  0.47869041618E+03 -0.41565619797E+03  0.64954548599E+03  0.50400001928E-02 0. -1.
</event>
<event>
 5   0  0.2378609E-03  0.9969241E+03  0.7818609E-02  0.9311925E-01
        1   -1    0    0  501    0  0.00000000000E+00  0.00000000000E+00  0.62109027324E+03  0.62109027326E+03  0.50400001928E-02 0. -1.
       -1   -1    0    0    0  501  0.00000000000E+00  0.00000000000E+00 -0.40004555325E+03  0.40004555328E+03  0.50400001928E-02 0.  1.
    10030    2    1    2    0    0  0.00000000000E+00  0.00000000000E+00  0.22104471998E+03  0.10211358265E+04  0.99692407334E+03 0.  0.
        1    1    3    3  502    0 -0.46624573728E+03 -0.15919090233E+03  0.18810873641E+03  0.52736299420E+03  0.50400001928E-02 0. -1.
       -1    1    3    3    0  502  0.46624573728E+03  0.15919090233E+03  0.32935983577E+02  0.49377283234E+03  0.50400001928E-02 0.  1.
</event>
<event>
 5   0  0.4140860E-03  0.9930400E+03  0.7818609E-02  0.9316212E-01
        2   -1    0    0  501    0  0.00000000000E+00  0.00000000000E+00  0.12864994349E+04  0.12864994349E+04  0.25500000920E-02 0.  1.
       -2   -1    0    0    0  501  0.00000000000E+00  0.00000000000E+00 -0.19163016734E+03  0.19163016736E+03  0.25500000920E-02 0. -1.
    10030    2    1    2    0    0  0.00000000000E+00  0.00000000000E+00  0.10948692676E+04  0.14781296023E+04  0.99303998310E+03 0.  0.
        3    1    3    3  502    0  0.12776257107E+03 -0.29214025474E+02 -0.16541876516E+03  0.21104528405E+03  0.10100000352E+00 0. -1.
       -3    1    3    3    0  502 -0.12776257107E+03  0.29214025474E+02  0.12602880327E+04  0.12670843182E+04  0.10100000352E+00 0.  1.
</event>
<event>
 5   0  0.2350769E-03  0.1000310E+04  0.7818609E-02  0.9308205E-01
        1   -1    0    0  501    0  0.00000000000E+00  0.00000000000E+00  0.14016825667E+04  0.14016825667E+04  0.50400001928E-02 0. -1.
       -1   -1    0    0    0  501  0.00000000000E+00  0.00000000000E+00 -0.17846755800E+03  0.17846755808E+03  0.50400001928E-02 0.  1.
    10030    2    1    2    0    0  0.00000000000E+00  0.00000000000E+00  0.12232150087E+04  0.15801501248E+04  0.10003096817E+04 0.  0.
        2    1    3    3  502    0 -0.56213714554E+02 -0.99761298753E+02 -0.15748228891E+03  0.19471253108E+03  0.25500000920E-02 0.  1.
       -2    1    3    3    0  502  0.56213714554E+02  0.99761298753E+02  0.13806972976E+04  0.13854375937E+04  0.25500000920E-02 0. -1.
</event>
<event>
 5   0  0.4026829E-03  0.1000557E+04  0.7818609E-02  0.9307934E-01
        2   -1    0    0  501    0  0.00000000000E+00  0.00000000000E+00  0.33618994028E+03  0.33618994029E+03  0.25500000920E-02 0.  1.
       -2   -1    0    0    0  501  0.00000000000E+00  0.00000000000E+00 -0.74445596162E+03  0.74445596162E+03  0.25500000920E-02 0. -1.
    10030    2    1    2    0    0  0.00000000000E+00  0.00000000000E+00 -0.40826602134E+03  0.10806459019E+04  0.10005570554E+04 0.  0.
        1    1    3    3  502    0  0.10534713271E+03 -0.40229952805E+03  0.96219659267E+02  0.42685026824E+03  0.50400001928E-02 0.  1.
       -1    1    3    3    0  502 -0.10534713271E+03  0.40229952805E+03 -0.50448568060E+03  0.65379563367E+03  0.50400001928E-02 0. -1.
</event>
<event>
 5   0  0.2350769E-03  0.9815836E+03  0.7818609E-02  0.9328977E-01
       -1   -1    0    0    0  501  0.00000000000E+00  0.00000000000E+00  0.62436821573E+03  0.62436821575E+03  0.50400001928E-02 0.  1.
        1   -1    0    0  501    0  0.00000000000E+00  0.00000000000E+00 -0.38579251086E+03  0.38579251089E+03  0.50400001928E-02 0. -1.
    10030    2    1    2    0    0  0.00000000000E+00  0.00000000000E+00  0.23857570488E+03  0.10101607266E+04  0.98158358111E+03 0.  0.
        2    1    3    3  502    0  0.45207352825E+03  0.16234925410E+03  0.15613553598E+02  0.48059498365E+03  0.25500000920E-02 0.  1.
       -2    1    3    3    0  502 -0.45207352825E+03 -0.16234925410E+03  0.22296215128E+03  0.52956574300E+03  0.25500000920E-02 0. -1.
</event>
<event>
 5   0  0.2313036E-03  0.9774800E+03  0.7818609E-02  0.9333595E-01
       -1   -1    0    0    0  501  0.00000000000E+00  0.00000000000E+00  0.23811278122E+03  0.23811278128E+03  0.50400001928E-02 0.  1.
        1   -1    0    0  501    0  0.00000000000E+00  0.00000000000E+00 -0.10031666102E+04  0.10031666103E+04  0.50400001928E-02 0. -1.
    10030    2    1    2    0    0  0.00000000000E+00  0.00000000000E+00 -0.76505382902E+03  0.12412793915E+04  0.97748000826E+03 0.  0.
        3    1    3    3  502    0 -0.15771750494E+03  0.23789269111E+03 -0.88633217454E+03  0.93115652695E+03  0.10100000352E+00 0. -1.
       -3    1    3    3    0  502  0.15771750494E+03 -0.23789269111E+03  0.12127834552E+03  0.31012286459E+03  0.10100000352E+00 0.  1.
</event>
<event>
 5   0  0.3826483E-03  0.9730523E+03  0.7818609E-02  0.9338605E-01
       -2   -1    0    0    0  501  0.00000000000E+00  0.00000000000E+00  0.25616759076E+03  0.25616759077E+03  0.25500000920E-02 0. -1.
        2   -1    0    0  501    0  0.00000000000E+00  0.00000000000E+00 -0.92403455845E+03  0.92403455846E+03  0.25500000920E-02 0.  1.
    10030    2    1    2    0    0  0.00000000000E+00  0.00000000000E+00 -0.66786696769E+03  0.11802021492E+04  0.97305232465E+03 0.  0.
        4    1    3    3  502    0  0.46565992419E+03 -0.36486457763E+02 -0.16880411632E+03  0.49665568474E+03  0.12699999809E+01 0. -1.
       -4    1    3    3    0  502 -0.46565992419E+03  0.36486457763E+02 -0.49906285137E+03  0.68354646449E+03  0.12699999809E+01 0.  1.
</event>
<event>
 5   0  0.2405022E-03  0.9918390E+03  0.7818609E-02  0.9317541E-01
        1   -1    0    0  501    0  0.00000000000E+00  0.00000000000E+00  0.65442414460E+03  0.65442414462E+03  0.50400001928E-02 0.  1.
       -1   -1    0    0    0  501  0.00000000000E+00  0.00000000000E+00 -0.37580545323E+03  0.37580545326E+03  0.50400001928E-02 0. -1.
    10030    2    1    2    0    0  0.00000000000E+00  0.00000000000E+00  0.27861869137E+03  0.10302295979E+04  0.99183902382E+03 0.  0.
        4    1    3    3  502    0  0.41633610031E+03 -0.21817699996E+02 -0.13964240239E+03  0.43967416788E+03  0.12699999809E+01 0. -1.
       -4    1    3    3    0  502 -0.41633610031E+03  0.21817699996E+02  0.41826109376E+03  0.59055543000E+03  0.12699999809E+01 0.  1.
</event>
<event>
 5   0  0.3895011E-03  0.1018296E+04  0.7818609E-02  0.9288703E-01
        2   -1    0    0  501    0  0.00000000000E+00  0.00000000000E+00  0.44947188712E+03  0.44947188713E+03  0.25500000920E-02 0. -1.
       -2   -1    0    0    0  501  0.00000000000E+00  0.00000000000E+00 -0.57674726134E+03  0.57674726135E+03  0.25500000920E-02 0.  1.
    10030    2    1    2    0    0  0.00000000000E+00  0.00000000000E+00 -0.12727537422E+03  0.10262191485E+04  0.10182959883E+04 0.  0.
        2    1    3    3  502    0 -0.22952614521E+03 -0.36829877578E+02 -0.52014458039E+03  0.56972719413E+03  0.25500000920E-02 0.  1.
       -2    1    3    3    0  502  0.22952614521E+03  0.36829877578E+02  0.39286920617E+03  0.45649195434E+03  0.25500000920E-02 0. -1.
</event>
<event>
 5   0  0.2313036E-03  0.9745551E+03  0.7818609E-02  0.9336901E-01
       -1   -1    0    0    0  501  0.00000000000E+00  0.00000000000E+00  0.10309807755E+04  0.10309807756E+04  0.50400001928E-02 0.  1.
        1   -1    0    0  501    0  0.00000000000E+00  0.00000000000E+00 -0.23030441790E+03  0.23030441795E+03  0.50400001928E-02 0. -1.
    10030    2    1    2    0    0  0.00000000000E+00  0.00000000000E+00  0.80067635764E+03  0.12612851935E+04  0.97455513423E+03 0.  0.
        3    1    3    3  502    0 -0.39394252821E+03 -0.28633586542E+03  0.37945055912E+03  0.61738292848E+03  0.10100000352E+00 0.  1.
       -3    1    3    3    0  502  0.39394252821E+03  0.28633586542E+03  0.42122579853E+03  0.64390226503E+03  0.10100000352E+00 0. -1.
</event>
<event>
 5   0  0.4140860E-03  0.9958461E+03  0.7818609E-02  0.9313112E-01
        2   -1    0    0  501    0  0.00000000000E+00  0.00000000000E+00  0.13597493220E+04  0.13597493220E+04  0.25500000920E-02 0.  1.
       -2   -1    0    0    0  501  0.00000000000E+00  0.00000000000E+00 -0.18233315295E+03  0.18233315297E+03  0.25500000920E-02 0. -1.
    10030    2    1    2    0    0  0.00000000000E+00  0.00000000000E+00  0.11774161690E+04  0.15420824749E+04  0.99584613492E+03 0.  0.
        3    1    3    3  502    0 -0.32319674409E+03  0.37169092012E+03  0.70162333093E+03  0.85725467873E+03  0.10100000352E+00 0.  1.
       -3    1    3    3    0  502  0.32319674409E+03 -0.37169092012E+03  0.47579283807E+03  0.68482779620E+03  0.10100000352E+00 0. -1.
</event>
<event>
 5   0  0.2350769E-03  0.1000116E+04  0.7818609E-02  0.9308418E-01
       -1   -1    0    0    0  501  0.00000000000E+00  0.00000000000E+00  0.50239819472E+03  0.50239819474E+03  0.50400001928E-02 0. -1.
        1   -1    0    0  501    0  0.00000000000E+00  0.00000000000E+00 -0.49772869125E+03  0.49772869128E+03  0.50400001928E-02 0.  1.
    10030    2    1    2    0    0  0.00000000000E+00  0.00000000000E+00  0.46695034653E+01  0.10001268860E+04  0.10001159852E+04 0.  0.
        2    1    3    3  502    0 -0.29870627212E+03  0.12210823765E+03  0.38433647718E+03  0.50184697509E+03  0.25500000920E-02 0. -1.
       -2    1    3    3    0  502  0.29870627212E+03 -0.12210823765E+03 -0.37966697371E+03  0.49827991093E+03  0.25500000920E-02 0.  1.
</event>
<event>
 5   0  0.3895011E-03  0.1005462E+04  0.7818609E-02  0.9302575E-01
       -2   -1    0    0    0  501  0.00000000000E+00  0.00000000000E+00  0.54938467451E+03  0.54938467451E+03  0.25500000920E-02 0.  1.
        2   -1    0    0  501    0  0.00000000000E+00  0.00000000000E+00 -0.46003875304E+03  0.46003875305E+03  0.25500000920E-02 0. -1.
    10030    2    1    2    0    0  0.00000000000E+00  0.00000000000E+00  0.89345921463E+02  0.10094234276E+04  0.10054615669E+04 0.  0.
        2    1    3    3  502    0  0.38427969672E+02 -0.64914194117E+02  0.54367037427E+03  0.54887889130E+03  0.25500000920E-02 0.  1.
       -2    1    3    3    0  502 -0.38427969672E+02  0.64914194117E+02 -0.45432445281E+03  0.46054453626E+03  0.25500000920E-02 0. -1.
</event>
<event>
 5   0  0.4026829E-03  0.1010574E+04  0.7818609E-02  0.9297023E-01
       -2   -1    0    0    0  501  0.00000000000E+00  0.00000000000E+00  0.10803145181E+03  0.10803145184E+03  0.25500000920E-02 0.  1.
        2   -1    0    0  501    0  0.00000000000E+00  0.00000000000E+00 -0.23633370933E+04  0.23633370933E+04  0.25500000920E-02 0. -1.
    10030    2    1    2    0    0  0.00000000000E+00  0.00000000000E+00 -0.22553056415E+04  0.24713685451E+04  0.10105735744E+04 0.  0.
        1    1    3    3  502    0 -0.55367125905E+02 -0.47009889446E+03 -0.15600053460E+04  0.16302377645E+04  0.50400001928E-02 0. -1.
       -1    1    3    3    0  502  0.55367125905E+02  0.47009889446E+03 -0.69530029545E+03  0.84113078061E+03  0.50400001928E-02 0.  1.
</event>
<event>
 5   0  0.2313036E-03  0.9950828E+03  0.7818609E-02  0.9313954E-01
       -1   -1    0    0    0  501  0.00000000000E+00  0.00000000000E+00  0.27539015339E+03  0.27539015344E+03  0.50400001928E-02 0. -1.
        1   -1    0    0  501    0  0.00000000000E+00  0.00000000000E+00 -0.89889726136E+03  0.89889726137E+03  0.50400001928E-02 0.  1.
    10030    2    1    2    0    0  0.00000000000E+00  0.00000000000E+00 -0.62350710797E+03  0.11742874148E+04  0.99508282012E+03 0.  0.
        3    1    3    3  502    0 -0.11440335626E+03 -0.21332089767E+03 -0.82472437417E+03  0.85951395385E+03  0.10100000352E+00 0.  1.
       -3    1    3    3    0  502  0.11440335626E+03  0.21332089767E+03  0.20121726620E+03  0.31477346096E+03  0.10100000352E+00 0. -1.
</event>
<event>
 5   0  0.2350769E-03  0.1003396E+04  0.7818609E-02  0.9304828E-01
        1   -1    0    0  501    0  0.00000000000E+00  0.00000000000E+00  0.20861747527E+03  0.20861747533E+03  0.50400001928E-02 0.  1.
       -1   -1    0    0    0  501  0.00000000000E+00  0.00000000000E+00 -0.12065194120E+04  0.12065194120E+04  0.50400001928E-02 0. -1.
    10030    2    1    2    0    0  0.00000000000E+00  0.00000000000E+00 -0.99790193677E+03  0.14151368874E+04  0.10033962999E+04 0.  0.
        2    1    3    3  502    0 -0.86715532396E+02 -0.44451394071E+03 -0.80336645969E+03  0.92223093399E+03  0.25500000920E-02 0. -1.
       -2    1    3    3    0  502  0.86715532396E+02  0.44451394071E+03 -0.19453547707E+03  0.49290595339E+03  0.25500000920E-02 0.  1.
</event>
<event>
 5   0  0.3895011E-03  0.9865492E+03  0.7818609E-02  0.9323422E-01
        2   -1    0    0  501    0  0.00000000000E+00  0.00000000000E+00  0.13964585147E+04  0.13964585147E+04  0.25500000920E-02 0. -1.
       -2   -1    0    0    0  501  0.00000000000E+00  0.00000000000E+00 -0.17424066045E+03  0.17424066047E+03  0.25500000920E-02 0.  1.
    10030    2    1    2    0    0  0.00000000000E+00  0.00000000000E+00  0.12222178543E+04  0.15706991752E+04  0.98654924644E+03 0.  0.
        2    1    3    3  502    0 -0.23227133686E+03 -0.24922915497E+02 -0.80588664537E+02  0.24711466671E+03  0.25500000920E-02 0.  1.
       -2    1    3    3    0  502  0.23227133686E+03  0.24922915497E+02  0.13028065188E+04  0.13235845085E+04  0.25500000920E-02 0. -1.
</event>
<event>
 5   0  0.3826483E-03  0.1001838E+04  0.7818609E-02  0.9306531E-01
       -2   -1    0    0    0  501  0.00000000000E+00  0.00000000000E+00  0.29242030444E+03  0.29242030445E+03  0.25500000920E-02 0.  1.
        2   -1    0    0  501    0  0.00000000000E+00  0.00000000000E+00 -0.85807984814E+03  0.85807984814E+03  0.25500000920E-02 0. -1.
    10030    2    1    2    0    0  0.00000000000E+00  0.00000000000E+00 -0.56565954370E+03  0.11505001526E+04  0.10018382513E+04 0.  0.
        4    1    3    3  502    0  0.58791486020E+02 -0.12815326105E+03  0.26916046961E+03  0.30385632862E+03  0.12699999809E+01 0.  1.
       -4    1    3    3    0  502 -0.58791486020E+02  0.12815326105E+03 -0.83482001331E+03  0.84664382397E+03  0.12699999809E+01 0. -1.
</event>
<event>
 5   0  0.4140860E-03  0.1013476E+04  0.7818609E-02  0.9293887E-01
        2   -1    0    0  501    0  0.00000000000E+00  0.00000000000E+00  0.67431317381E+03  0.67431317381E+03  0.25500000920E-02 0. -1.
       -2   -1    0    0    0  501  0.00000000000E+00  0.00000000000E+00 -0.38080711730E+03  0.38080711731E+03  0.25500000920E-02 0.  1.
    10030    2    1    2    0    0  0.00000000000E+00  0.00000000000E+00  0.29350605650E+03  0.10551202911E+04  0.10134757143E+04 0.  0.
        3    1    3    3  502    0  0.29776147444E+03  0.30833661725E+03 -0.13463031389E+03  0.44928687586E+03  0.10100000352E+00 0.  1.
       -3    1    3    3    0  502 -0.29776147444E+03 -0.30833661725E+03  0.42813637039E+03  0.60583341527E+03  0.10100000352E+00 0. -1.
</event>
<event>
 5   0  0.3873874E-03  0.9922705E+03  0.7818609E-02  0.9317063E-01
        2   -1    0    0  501    0  0.00000000000E+00  0.00000000000E+00  0.20946768414E+04  0.20946768414E+04  0.25500000920E-02 0.  1.
       -2   -1    0    0    0  501  0.00000000000E+00  0.00000000000E+00 -0.11751225661E+03  0.11751225664E+03  0.25500000920E-02 0. -1.
    10030    2    1    2    0    0  0.00000000000E+00  0.00000000000E+00  0.19771645848E+04  0.22121890981E+04  0.99227053276E+03 0.  0.
        5    1    3    3  502    0  0.26587747774E+03  0.21849447058E+03  0.19190349618E+03  0.39405546397E+03  0.46999998093E+01 0. -1.
       -5    1    3    3    0  502 -0.26587747774E+03 -0.21849447058E+03  0.17852610887E+04  0.18181336341E+04  0.46999998093E+01 0.  1.
</event>
<event>
 5   0  0.2405022E-03  0.9979196E+03  0.7818609E-02  0.9310830E-01
       -1   -1    0    0    0  501  0.00000000000E+00  0.00000000000E+00  0.10574353756E+04  0.10574353756E+04  0.50400001928E-02 0. -1.
        1   -1    0    0  501    0  0.00000000000E+00  0.00000000000E+00 -0.23543836882E+03  0.23543836888E+03  0.50400001928E-02 0.  1.
    10030    2    1    2    0    0  0.00000000000E+00  0.00000000000E+00  0.82199700679E+03  0.12928737445E+04  0.99791955590E+03 0.  0.
        4    1    3    3  502    0  0.44169670971E+03  0.23110484745E+03  0.38339913394E+03  0.62888945188E+03  0.12699999809E+01 0. -1.
       -4    1    3    3    0  502 -0.44169670971E+03 -0.23110484745E+03  0.43859787285E+03  0.66398429262E+03  0.12699999809E+01 0.  1.
</event>
<event>
 5   0  0.2313036E-03  0.9991640E+03  0.7818609E-02  0.9309462E-01
       -1   -1    0    0    0  501  0.00000000000E+00  0.00000000000E+00  0.15859672978E+04  0.15859672978E+04  0.50400001928E-02 0. -1.
        1   -1    0    0  501    0  0.00000000000E+00  0.00000000000E+00 -0.15736904271E+03  0.15736904279E+03  0.50400001928E-02 0.  1.
    10030    2    1    2    0    0  0.00000000000E+00  0.00000000000E+00  0.14285982551E+04  0.17433363406E+04  0.99916396152E+03 0.  0.
        3    1    3    3  502    0 -0.48536378232E+03 -0.87709175853E+02  0.57568677719E+03  0.75808058698E+03  0.10100000352E+00 0. -1.
       -3    1    3    3    0  502  0.48536378232E+03  0.87709175853E+02  0.85291147787E+03  0.98525575360E+03  0.10100000352E+00 0.  1.
</event>
<event>
 5   0  0.2378609E-03  0.1001825E+04  0.7818609E-02  0.9306545E-01
       -1   -1    0    0    0  501  0.00000000000E+00  0.00000000000E+00  0.57747944310E+03  0.57747944312E+03  0.50400001928E-02 0. -1.
        1   -1    0    0  501    0  0.00000000000E+00  0.00000000000E+00 -0.43449767947E+03  0.43449767950E+03  0.50400001928E-02 0.  1.
    10030    2    1    2    0    0  0.00000000000E+00  0.00000000000E+00  0.14298176363E+03  0.10119771226E+04  0.10018252901E+04 0.  0.
        1    1    3    3  502    0  0.26990271457E+03 -0.23292164642E+03  0.42692795195E+03  0.55620809494E+03  0.50400001928E-02 0. -1.
       -1    1    3    3    0  502 -0.26990271457E+03  0.23292164642E+03 -0.28394618832E+03  0.45576902768E+03  0.50400001928E-02 0.  1.
</event>
<event>
 5   0  0.3826483E-03  0.9918094E+03  0.7818609E-02  0.9317574E-01
        2   -1    0    0  501    0  0.00000000000E+00  0.00000000000E+00  0.18998182094E+03  0.18998182095E+03  0.25500000920E-02 0. -1.
       -2   -1    0    0    0  501  0.00000000000E+00  0.00000000000E+00 -0.12944474973E+04  0.12944474973E+04  0.25500000920E-02 0.  1.
    10030    2    1    2    0    0  0.00000000000E+00  0.00000000000E+00 -0.11044656763E+04  0.14844293182E+04  0.99180944269E+03 0.  0.
        4    1    3    3  502    0 -0.11979020322E+03  0.35032337315E+03 -0.58453429620E+02  0.37482605952E+03  0.12699999809E+01 0. -1.
       -4    1    3    3    0  502  0.11979020322E+03 -0.35032337315E+03 -0.10460122467E+04  0.11096032587E+04  0.12699999809E+01 0.  1.
</event>
<event>
 5   0  0.3826483E-03  0.9863417E+03  0.7818609E-02  0.9323653E-01
        2   -1    0    0  501    0  0.00000000000E+00  0.00000000000E+00  0.76252733182E+03  0.76252733183E+03  0.25500000920E-02 0. -1.
       -2   -1    0    0    0  501  0.00000000000E+00  0.00000000000E+00 -0.31896234949E+03  0.31896234950E+03  0.25500000920E-02 0.  1.
    10030    2    1    2    0    0  0.00000000000E+00  0.00000000000E+00  0.44356498233E+03  0.10814896813E+04  0.98634174467E+03 0.  0.
        4    1    3    3  502    0 -0.37699303304E+03 -0.88066296078E+02 -0.11319888943E+03  0.40335470858E+03  0.12699999809E+01 0.  1.
       -4    1    3    3    0  502  0.37699303304E+03  0.88066296078E+02  0.55676387176E+03  0.67813497275E+03  0.12699999809E+01 0. -1.
</event>
<event>
 5   0  0.2327595E-03  0.1021326E+04  0.7818609E-02  0.9285460E-01
       -1   -1    0    0    0  501  0.00000000000E+00  0.00000000000E+00  0.47393570532E+03  0.47393570535E+03  0.50400001928E-02 0. -1.
        1   -1    0    0  501    0  0.00000000000E+00  0.00000000000E+00 -0.55023607217E+03  0.55023607219E+03  0.50400001928E-02 0.  1.
    10030    2    1    2    0    0  0.00000000000E+00  0.00000000000E+00 -0.76300366845E+02  0.10241717775E+04  0.10213256503E+04 0.  0.
        5    1    3    3  502    0 -0.48817186453E+03  0.13171171337E+03  0.33425793705E+02  0.50675350856E+03  0.46999998093E+01 0.  1.
       -5    1    3    3    0  502  0.48817186453E+03 -0.13171171337E+03 -0.10972616055E+03  0.51741826897E+03  0.46999998093E+01 0. -1.
</event>
<event>
 5   0  0.3895011E-03  0.9981928E+03  0.7818609E-02  0.9310529E-01
       -2   -1    0    0    0  501  0.00000000000E+00  0.00000000000E+00  0.33662133028E+03  0.33662133029E+03  0.25500000920E-02 0. -1.
        2   -1    0    0  501    0  0.00000000000E+00  0.00000000000E+00 -0.73999230634E+03  0.73999230635E+03  0.25500000920E-02 0.  1.
    10030    2    1    2    0    0  0.00000000000E+00  0.00000000000E+00 -0.40337097606E+03  0.10766136366E+04  0.99819275607E+03 0.  0.
        2    1    3    3  502    0 -0.38060639572E+02 -0.18240205859E+03 -0.70107065924E+03  0.72540967220E+03  0.25500000920E-02 0.  1.
       -2    1    3    3    0  502  0.38060639572E+02  0.18240205859E+03  0.29769968318E+03  0.35120396444E+03  0.25500000920E-02 0. -1.
</event>
<event>
 5   0  0.2350769E-03  0.1007297E+04  0.7818609E-02  0.9300578E-01
       -1   -1    0    0    0  501  0.00000000000E+00  0.00000000000E+00  0.98199699783E+03  0.98199699784E+03  0.50400001928E-02 0.  1.
        1   -1    0    0  501    0  0.00000000000E+00  0.00000000000E+00 -0.25831196796E+03  0.25831196801E+03  0.50400001928E-02 0. -1.
    10030    2    1    2    0    0  0.00000000000E+00  0.00000000000E+00  0.72368502987E+03  0.12403089659E+04  0.10072965344E+04 0.  0.
        2    1    3    3  502    0 -0.38543651149E+03  0.31279038560E+03  0.46677598673E+03  0.68138018133E+03  0.25500000920E-02 0. -1.
       -2    1    3    3    0  502  0.38543651149E+03 -0.31279038560E+03  0.25690904314E+03  0.55892878452E+03  0.25500000920E-02 0.  1.
</event>
<event>
 5   0  0.2313036E-03  0.9736370E+03  0.7818609E-02  0.9337941E-01
       -1   -1    0    0    0  501  0.00000000000E+00  0.00000000000E+00  0.87172378959E+03  0.87172378960E+03  0.50400001928E-02 0. -1.
        1   -1    0    0  501    0  0.00000000000E+00  0.00000000000E+00 -0.27186620812E+03  0.27186620816E+03  0.50400001928E-02 0.  1.
    10030    2    1    2    0    0  0.00000000000E+00  0.00000000000E+00  0.59985758147E+03  0.11435899978E+04  0.97363697801E+03 0.  0.
        3    1    3    3  502    0 -0.43329029883E+03 -0.20786416515E+03  0.20861339100E+03  0.52389650821E+03  0.10100000352E+00 0. -1.
       -3    1    3    3    0  502  0.43329029883E+03  0.20786416515E+03  0.39124419048E+03  0.61969348955E+03  0.10100000352E+00 0.  1.
</event>
<event>
 5   0  0.3873874E-03  0.1002288E+04  0.7818609E-02  0.9306039E-01
        2   -1    0    0  501    0  0.00000000000E+00  0.00000000000E+00  0.10205045388E+04  0.10205045388E+04  0.25500000920E-02 0. -1.
       -2   -1    0    0    0  501  0.00000000000E+00  0.00000000000E+00 -0.24609917477E+03  0.24609917478E+03  0.25500000920E-02 0.  1.
    10030    2    1    2    0    0  0.00000000000E+00  0.00000000000E+00  0.77440536407E+03  0.12666037136E+04  0.10022880322E+04 0.  0.
        5    1    3    3  502    0 -0.49611943260E+03  0.58333167471E+02  0.43752930101E+03  0.66407170477E+03  0.46999998093E+01 0. -1.
       -5    1    3    3    0  502  0.49611943260E+03 -0.58333167471E+02  0.33687606306E+03  0.60253200885E+03  0.46999998093E+01 0.  1.
</event>
<event>
 5   0  0.4026829E-03  0.1013891E+04  0.7818609E-02  0.9293439E-01
       -2   -1    0    0    0  501  0.00000000000E+00  0.00000000000E+00  0.37164441231E+03  0.37164441232E+03  0.25500000920E-02 0.  1.
        2   -1    0    0  501    0  0.00000000000E+00  0.00000000000E+00 -0.69150467596E+03  0.69150467596E+03  0.25500000920E-02 0. -1.
    10030    2    1    2    0    0  0.00000000000E+00  0.00000000000E+00 -0.31986026365E+03  0.10631490883E+04  0.10138912149E+04 0.  0.
        1    1    3    3  502    0  0.43034703029E+03 -0.44384916385E+02  0.11715236777E+03  0.44821118302E+03  0.50400001928E-02 0. -1.
       -1    1    3    3    0  502 -0.43034703029E+03  0.44384916385E+02 -0.43701263142E+03  0.61493790526E+03  0.50400001928E-02 0.  1.
</event>
<event>
 5   0  0.2405022E-03  0.9990169E+03  0.7818609E-02  0.9309624E-01
       -1   -1    0    0    0  501  0.00000000000E+00  0.00000000000E+00  0.51575970981E+03  0.51575970984E+03  0.50400001928E-02 0.  1.
        1   -1    0    0  501    0  0.00000000000E+00  0.00000000000E+00 -0.48376928763E+03  0.48376928766E+03  0.50400001928E-02 0. -1.
    10030    2    1    2    0    0  0.00000000000E+00  0.00000000000E+00  0.31990422183E+02  0.99952899749E+03  0.99901693165E+03 0.  0.
        4    1    3    3  502    0  0.25183515452E+02  0.44932983788E+03  0.23284481504E+03  0.50670487806E+03  0.12699999809E+01 0.  1.
       -4    1    3    3    0  502 -0.25183515452E+02 -0.44932983788E+03 -0.20085439286E+03  0.49282411943E+03  0.12699999809E+01 0. -1.
</event>
<event>
 5   0  0.2405022E-03  0.9959865E+03  0.7818609E-02  0.9312958E-01
        1   -1    0    0  501    0  0.00000000000E+00  0.00000000000E+00  0.77707482465E+03  0.77707482467E+03  0.50400001928E-02 0.  1.
       -1   -1    0    0    0  501  0.00000000000E+00  0.00000000000E+00 -0.31914206939E+03  0.31914206943E+03  0.50400001928E-02 0. -1.
    10030    2    1    2    0    0  0.00000000000E+00  0.00000000000E+00  0.45793275526E+03  0.10962168941E+04  0.99598648112E+03 0.  0.
        4    1    3    3  502    0 -0.16002644236E+03  0.39125441930E+03  0.51872217630E+03  0.66915079912E+03  0.12699999809E+01 0.  1.
       -4    1    3    3    0  502  0.16002644236E+03 -0.39125441930E+03 -0.60789421041E+02  0.42706609498E+03  0.12699999809E+01 0. -1.
</event>
<event>
 5   0  0.2313036E-03  0.9943002E+03  0.7818609E-02  0.9314818E-01
       -1   -1    0    0    0  501  0.00000000000E+00  0.00000000000E+00  0.12773461144E+04  0.12773461144E+04  0.50400001928E-02 0. -1.
        1   -1    0    0  501    0  0.00000000000E+00  0.00000000000E+00 -0.19349352151E+03  0.19349352157E+03  0.50400001928E-02 0.  1.
    10030    2    1    2    0    0  0.00000000000E+00  0.00000000000E+00  0.10838525929E+04  0.14708396360E+04  0.99430015170E+03 0.  0.
        3    1    3    3  502    0  0.35561158652E+02 -0.26960530559E+03 -0.73718199173E+02  0.28175521272E+03  0.10100000352E+00 0.  1.
       -3    1    3    3    0  502 -0.35561158652E+02  0.26960530559E+03  0.11575707921E+04  0.11890844233E+04  0.10100000352E+00 0. -1.
</event>
<event>
 5   0  0.3826483E-03  0.1004580E+04  0.7818609E-02  0.9303535E-01
       -2   -1    0    0    0  501  0.00000000000E+00  0.00000000000E+00  0.21837995788E+03  0.21837995790E+03  0.25500000920E-02 0. -1.
        2   -1    0    0  501    0  0.00000000000E+00  0.00000000000E+00 -0.11553046192E+04  0.11553046192E+04  0.25500000920E-02 0.  1.
    10030    2    1    2    0    0  0.00000000000E+00  0.00000000000E+00 -0.93692466128E+03  0.13736845771E+04  0.10045802588E+04 0.  0.
        4    1    3    3  502    0 -0.32737397745E+03  0.35580818274E+03 -0.28236950035E+03  0.55991725428E+03  0.12699999809E+01 0. -1.
       -4    1    3    3    0  502  0.32737397745E+03 -0.35580818274E+03 -0.65455516093E+03  0.81376732278E+03  0.12699999809E+01 0.  1.
</event>
<event>
 5   0  0.2327595E-03  0.1002429E+04  0.7818609E-02  0.9305884E-01
        1   -1    0    0  501    0  0.00000000000E+00  0.00000000000E+00  0.48275465480E+03  0.48275465483E+03  0.50400001928E-02 0.  1.
       -1   -1    0    0    0  501  0.00000000000E+00  0.00000000000E+00 -0.52038070104E+03  0.52038070106E+03  0.50400001928E-02 0. -1.
    10030    2    1    2    0    0  0.00000000000E+00  0.00000000000E+00 -0.37626046234E+02  0.10031353559E+04  0.10024294603E+04 0.  0.
        5    1    3    3  502    0  0.34891069980E+03 -0.29614473858E+03  0.18566817038E+03  0.49389790657E+03  0.46999998093E+01 0.  1.
       -5    1    3    3    0  502 -0.34891069980E+03  0.29614473858E+03 -0.22329421661E+03  0.50923744932E+03  0.46999998093E+01 0. -1.
</event>
<event>
 5   0  0.4140860E-03  0.1005638E+04  0.7818609E-02  0.9302383E-01
       -2   -1    0    0    0  501  0.00000000000E+00  0.00000000000E+00  0.37276015990E+03  0.37276015991E+03  0.25500000920E-02 0. -1.
        2   -1    0    0  501    0  0.00000000000E+00  0.00000000000E+00 -0.67825613776E+03  0.67825613776E+03  0.25500000920E-02 0.  1.
    10030    2    1    2    0    0  0.00000000000E+00  0.00000000000E+00 -0.30549597786E+03  0.10510162977E+04  0.10056378401E+04 0.  0.
        3    1    3    3  502    0  0.10254611277E+03 -0.37599144342E+03 -0.48479754554E+03  0.62202406797E+03  0.10100000352E+00 0.  1.
       -3    1    3    3    0  502 -0.10254611277E+03  0.37599144342E+03  0.17930156768E+03  0.42899222970E+03  0.10100000352E+00 0. -1.
</event>
<event>
 5   0  0.4140860E-03  0.1029042E+04  0.7818609E-02  0.9277253E-01
        2   -1    0    0  501    0  0.00000000000E+00  0.00000000000E+00  0.76993404672E+03  0.76993404673E+03  0.25500000920E-02 0.  1.
       -2   -1    0    0    0  501  0.00000000000E+00  0.00000000000E+00 -0.34383725001E+03  0.34383725002E+03  0.25500000920E-02 0. -1.
    10030    2    1    2    0    0  0.00000000000E+00  0.00000000000E+00  0.42609679672E+03  0.11137712967E+04  0.10290422835E+04 0.  0.
        3    1    3    3  502    0  0.21600564014E+02 -0.26579160575E+03  0.68930188736E+03  0.73908650656E+03  0.10100000352E+00 0.  1.
       -3    1    3    3    0  502 -0.21600564014E+02  0.26579160575E+03 -0.26320509065E+03  0.37468479018E+03  0.10100000352E+00 0. -1.
</event>
<event>
 5   0  0.1548000E-03  0.1010335E+04  0.7818609E-02  0.9297281E-01
        3   -1    0    0  501    0  0.00000000000E+00  0.00000000000E+00  0.31896685689E+03  0.31896687288E+03  0.10100000352E+00 0.  1.
       -3   -1    0    0    0  501  0.00000000000E+00  0.00000000000E+00 -0.80006530262E+03  0.80006530899E+03  0.10100000352E+00 0. -1.
    10030    2    1    2    0    0  0.00000000000E+00  0.00000000000E+00 -0.48109844573E+03  0.11190321819E+04  0.10103352461E+04 0.  0.
        2    1    3    3  502    0  0.15652064435E+00 -0.24055001073E+03 -0.73255887785E+03  0.77104269771E+03  0.25500000920E-02 0. -1.
       -2    1    3    3    0  502 -0.15652064435E+00  0.24055001073E+03  0.25146043212E+03  0.34798948416E+03  0.25500000920E-02 0.  1.
</event>
<event>
 5   0  0.1548000E-03  0.9423407E+03  0.7818609E-02  0.9374148E-01
        3   -1    0    0  501    0  0.00000000000E+00  0.00000000000E+00  0.38418773035E+03  0.38418774363E+03  0.10100000352E+00 0.  1.
       -3   -1    0    0    0  501  0.00000000000E+00  0.00000000000E+00 -0.57784633661E+03  0.57784634544E+03  0.10100000352E+00 0. -1.
    10030    2    1    2    0    0  0.00000000000E+00  0.00000000000E+00 -0.19365860626E+03  0.96203408906E+03  0.94234066703E+03 0.  0.
        5    1    3    3  502    0 -0.20323873934E+03 -0.35929230837E+03 -0.32869339197E+03  0.52769156137E+03  0.46999998093E+01 0. -1.
       -5    1    3    3    0  502  0.20323873934E+03  0.35929230837E+03  0.13503478570E+03  0.43434252770E+03  0.46999998093E+01 0.  1.
</event>
<event>
 5   0  0.2327595E-03  0.9995945E+03  0.7818609E-02  0.9308990E-01
       -1   -1    0    0    0  501  0.00000000000E+00  0.00000000000E+00  0.71657045686E+03  0.71657045688E+03  0.50400001928E-02 0. -1.
        1   -1    0    0  501    0  0.00000000000E+00  0.00000000000E+00 -0.34860118146E+03  0.34860118150E+03  0.50400001928E-02 0.  1.
    10030    2    1    2    0    0  0.00000000000E+00  0.00000000000E+00  0.36796927540E+03  0.10651716384E+04  0.99959453359E+03 0.  0.
        5    1    3    3  502    0 -0.31660187590E+03 -0.32983869666E+03  0.39908065673E+03  0.60689189665E+03  0.46999998093E+01 0. -1.
       -5    1    3    3    0  502  0.31660187590E+03  0.32983869666E+03 -0.31111381337E+02  0.45827974173E+03  0.46999998093E+01 0.  1.
</event>
<event>
 5   0  0.4140860E-03  0.1012405E+04  0.7818609E-02  0.9295043E-01
        2   -1    0    0  501    0  0.00000000000E+00  0.00000000000E+00  0.16044822518E+04  0.16044822518E+04  0.25500000920E-02 0.  1.
       -2   -1    0    0    0  501  0.00000000000E+00  0.00000000000E+00 -0.15970313728E+03  0.15970313730E+03  0.25500000920E-02 0. -1.
    10030    2    1    2    0    0  0.00000000000E+00  0.00000000000E+00  0.14447791145E+04  0.17641853891E+04  0.10124047597E+04 0.  0.
        3    1    3    3  502    0  0.37274269932E+03 -0.32489101828E+03  0.53350320648E+03  0.72740427218E+03  0.10100000352E+00 0. -1.
       -3    1    3    3    0  502 -0.37274269932E+03  0.32489101828E+03  0.91127590807E+03  0.10367811170E+04  0.10100000352E+00 0.  1.
</event>
<event>
 5   0  0.1548000E-03  0.9865060E+03  0.7818609E-02  0.9323470E-01
       -3   -1    0    0    0  501  0.00000000000E+00  0.00000000000E+00  0.31746626518E+03  0.31746628125E+03  0.10100000352E+00 0. -1.
        3   -1    0    0  501    0  0.00000000000E+00  0.00000000000E+00 -0.76637595667E+03  0.76637596333E+03  0.10100000352E+00 0.  1.
    10030    2    1    2    0    0  0.00000000000E+00  0.00000000000E+00 -0.44890969149E+03  0.10838422446E+04  0.98650600607E+03 0.  0.
        4    1    3    3  502    0 -0.47094944228E+02  0.29382763027E+03 -0.65664381073E+03  0.72092670719E+03  0.12699999809E+01 0.  1.
       -4    1    3    3    0  502  0.47094944228E+02 -0.29382763027E+03  0.20773411923E+03  0.36291553739E+03  0.12699999809E+01 0. -1.
</event>
<event>
 5   0  0.3895011E-03  0.9960049E+03  0.7818609E-02  0.9312937E-01
       -2   -1    0    0    0  501  0.00000000000E+00  0.00000000000E+00  0.60665615929E+03  0.60665615930E+03  0.25500000920E-02 0.  1.
        2   -1    0    0  501    0  0.00000000000E+00  0.00000000000E+00 -0.40880890059E+03  0.40880890060E+03  0.25500000920E-02 0. -1.
    10030    2    1    2    0    0  0.00000000000E+00  0.00000000000E+00  0.19784725871E+03  0.10154650599E+04  0.99600489461E+03 0.  0.
        2    1    3    3  502    0  0.13105075987E+03 -0.22370364162E+03  0.53242382030E+03  0.59219316559E+03  0.25500000920E-02 0.  1.
       -2    1    3    3    0  502 -0.13105075987E+03  0.22370364162E+03 -0.33457656159E+03  0.42327189431E+03  0.25500000920E-02 0. -1.
</event>
<event>
 5   0  0.4026829E-03  0.1003615E+04  0.7818609E-02  0.9304589E-01
       -2   -1    0    0    0  501  0.00000000000E+00  0.00000000000E+00  0.51850228021E+03  0.51850228022E+03  0.25500000920E-02 0.  1.
        2   -1    0    0  501    0  0.00000000000E+00  0.00000000000E+00 -0.48564990747E+03  0.48564990748E+03  0.25500000920E-02 0. -1.
    10030    2    1    2    0    0  0.00000000000E+00  0.00000000000E+00  0.32852372738E+02  0.10041521877E+04  0.10036146360E+04 0.  0.
        1    1    3    3  502    0  0.31481583678E+03 -0.65451946654E+02 -0.36903022899E+03  0.48946529841E+03  0.50400001928E-02 0. -1.
       -1    1    3    3    0  502 -0.31481583678E+03  0.65451946654E+02  0.40188260173E+03  0.51468688929E+03  0.50400001928E-02 0.  1.
</event>
<event>
 5   0  0.2378609E-03  0.1000698E+04  0.7818609E-02  0.9307779E-01
        1   -1    0    0  501    0  0.00000000000E+00  0.00000000000E+00  0.63083784480E+03  0.63083784482E+03  0.50400001928E-02 0.  1.
       -1   -1    0    0    0  501  0.00000000000E+00  0.00000000000E+00 -0.39685196770E+03  0.39685196773E+03  0.50400001928E-02 0. -1.
    10030    2    1    2    0    0  0.00000000000E+00  0.00000000000E+00  0.23398587710E+03  0.10276898126E+04  0.10006982363E+04 0.  0.
        1    1    3    3  502    0 -0.46169981185E+03  0.18759179135E+03  0.71159068348E+02  0.50340938557E+03  0.50400001928E-02 0.  1.
       -1    1    3    3    0  502  0.46169981185E+03 -0.18759179135E+03  0.16282680875E+03  0.52428042699E+03  0.50400001928E-02 0. -1.
</event>
<event>
 5   0  0.3826483E-03  0.1049670E+04  0.7818609E-02  0.9255685E-01
       -2   -1    0    0    0  501  0.00000000000E+00  0.00000000000E+00  0.12755140082E+03  0.12755140084E+03  0.25500000920E-02 0.  1.
        2   -1    0    0  501    0  0.00000000000E+00  0.00000000000E+00 -0.21595341796E+04  0.21595341796E+04  0.25500000920E-02 0. -1.
    10030    2    1    2    0    0  0.00000000000E+00  0.00000000000E+00 -0.20319827788E+04  0.22870855804E+04  0.10496696809E+04 0.  0.
        4    1    3    3  502    0 -0.18401918781E+03  0.77108529830E+02 -0.20736740502E+04  0.20832509370E+04  0.12699999809E+01 0. -1.
       -4    1    3    3    0  502  0.18401918781E+03 -0.77108529830E+02  0.41691271479E+02  0.20383464345E+03  0.12699999809E+01 0.  1.
</event>
<event>
 5   0  0.3826483E-03  0.9970422E+03  0.7818609E-02  0.9311795E-01
        2   -1    0    0  501    0  0.00000000000E+00  0.00000000000E+00  0.43960436526E+03  0.43960436527E+03  0.25500000920E-02 0. -1.
       -2   -1    0    0    0  501  0.00000000000E+00  0.00000000000E+00 -0.56533400051E+03  0.56533400051E+03  0.25500000920E-02 0.  1.
    10030    2    1    2    0    0  0.00000000000E+00  0.00000000000E+00 -0.12572963525E+03  0.10049383658E+04  0.99704221467E+03 0.  0.
        4    1    3    3  502    0  0.16769370766E+03 -0.22160687952E+03 -0.48001555603E+03  0.55465965742E+03  0.12699999809E+01 0.  1.
       -4    1    3    3    0  502 -0.16769370766E+03  0.22160687952E+03  0.35428592078E+03  0.45027870836E+03  0.12699999809E+01 0. -1.
</event>
<event>
 5   0  0.3873874E-03  0.1001697E+04  0.7818609E-02  0.9306686E-01
       -2   -1    0    0    0  501  0.00000000000E+00  0.00000000000E+00  0.12413849136E+03  0.12413849138E+03  0.25500000920E-02 0. -1.
        2   -1    0    0  501    0  0.00000000000E+00  0.00000000000E+00 -0.20207201446E+04  0.20207201446E+04  0.25500000920E-02 0.  1.
    10030    2    1    2    0    0  0.00000000000E+00  0.00000000000E+00 -0.18965816532E+04  0.21448586360E+04  0.10016968608E+04 0.  0.
        5    1    3    3  502    0  0.35583538590E+02  0.29775793015E+03 -0.89392314907E+02  0.31295215153E+03  0.46999998093E+01 0. -1.
       -5    1    3    3    0  502 -0.35583538590E+02 -0.29775793015E+03 -0.18071893383E+04  0.18319064844E+04  0.46999998093E+01 0.  1.
</event>
<event>
 5   0  0.2405022E-03  0.9977740E+03  0.7818609E-02  0.9310990E-01
        1   -1    0    0  501    0  0.00000000000E+00  0.00000000000E+00  0.10183899257E+04  0.10183899257E+04  0.50400001928E-02 0. -1.
       -1   -1    0    0    0  501  0.00000000000E+00  0.00000000000E+00 -0.24439383635E+03  0.24439383640E+03  0.50400001928E-02 0.  1.
    10030    2    1    2    0    0  0.00000000000E+00  0.00000000000E+00  0.77399608934E+03  0.12627837621E+04  0.99777396414E+03 0.  0.
        4    1    3    3  502    0 -0.32611355841E+03 -0.37715945947E+03  0.36554630730E+03  0.61824350099E+03  0.12699999809E+01 0.  1.
       -4    1    3    3    0  502  0.32611355841E+03  0.37715945947E+03  0.40844978204E+03  0.64454026111E+03  0.12699999809E+01 0. -1.
</event>
<event>
 5   0  0.2350769E-03  0.1000447E+04  0.7818609E-02  0.9308055E-01
       -1   -1    0    0    0  501  0.00000000000E+00  0.00000000000E+00  0.55226064844E+03  0.55226064846E+03  0.50400001928E-02 0.  1.
        1   -1    0    0  501    0  0.00000000000E+00  0.00000000000E+00 -0.45308959044E+03  0.45308959047E+03  0.50400001928E-02 0. -1.
    10030    2    1    2    0    0  0.00000000000E+00  0.00000000000E+00  0.99171058003E+02  0.10053502389E+04  0.10004470022E+04 0.  0.
        2    1    3    3  502    0 -0.36919551740E+03 -0.32617314937E+03 -0.37611267505E+02  0.49407374033E+03  0.25500000920E-02 0. -1.
       -2    1    3    3    0  502  0.36919551740E+03  0.32617314937E+03  0.13678232551E+03  0.51127649860E+03  0.25500000920E-02 0.  1.
</event>
<event>
 5   0  0.4140860E-03  0.1011299E+04  0.7818609E-02  0.9296238E-01
        2   -1    0    0  501    0  0.00000000000E+00  0.00000000000E+00  0.18448903007E+04  0.18448903007E+04  0.25500000920E-02 0. -1.
       -2   -1    0    0    0  501  0.00000000000E+00  0.00000000000E+00 -0.13858903076E+03  0.13858903079E+03  0.25500000920E-02 0.  1.
    10030    2    1    2    0    0  0.00000000000E+00  0.00000000000E+00  0.17063012699E+04  0.19834793314E+04  0.10112992804E+04 0.  0.
        3    1    3    3  502    0 -0.46703389531E+03 -0.18330568199E+03  0.97657217737E+03  0.10979138674E+04  0.10100000352E+00 0. -1.
       -3    1    3    3    0  502  0.46703389531E+03  0.18330568199E+03  0.72972909252E+03  0.88556546404E+03  0.10100000352E+00 0.  1.
</event>
<event>
 5   0  0.3826483E-03  0.1000460E+04  0.7818609E-02  0.9308041E-01
       -2   -1    0    0    0  501  0.00000000000E+00  0.00000000000E+00  0.37108297615E+03  0.37108297616E+03  0.25500000920E-02 0.  1.
        2   -1    0    0  501    0  0.00000000000E+00  0.00000000000E+00 -0.67432340266E+03  0.67432340266E+03  0.25500000920E-02 0. -1.
    10030    2    1    2    0    0  0.00000000000E+00  0.00000000000E+00 -0.30324042651E+03  0.10454063788E+04  0.10004597646E+04 0.  0.
        4    1    3    3  502    0 -0.35434890419E+03 -0.31993078259E+03  0.44536396783E+01  0.47743093674E+03  0.12699999809E+01 0.  1.
       -4    1    3    3    0  502  0.35434890419E+03  0.31993078259E+03 -0.30769406618E+03  0.56797544208E+03  0.12699999809E+01 0. -1.
</event>
<event>
 5   0  0.3826483E-03  0.9966203E+03  0.7818609E-02  0.9312259E-01
        2   -1    0    0  501    0  0.00000000000E+00  0.00000000000E+00  0.11367219976E+04  0.11367219976E+04  0.25500000920E-02 0. -1.
       -2   -1    0    0    0  501  0.00000000000E+00  0.00000000000E+00 -0.21844656313E+03  0.21844656314E+03  0.25500000920E-02 0.  1.
    10030    2    1    2    0    0  0.00000000000E+00  0.00000000000E+00  0.91827543444E+03  0.13551685607E+04  0.99662031609E+03 0.  0.
        4    1    3    3  502    0 -0.11405231595E+03  0.33176846819E+03  0.94033508157E+03  0.10036483078E+04  0.12699999809E+01 0. -1.
       -4    1    3    3    0  502  0.11405231595E+03 -0.33176846819E+03 -0.22059647129E+02  0.35152025289E+03  0.12699999809E+01 0.  1.
</event>
<event>
 5   0  0.2313036E-03  0.9952707E+03  0.7818609E-02  0.9313747E-01
       -1   -1    0    0    0  501  0.00000000000E+00  0.00000000000E+00  0.58534268573E+03  0.58534268575E+03  0.50400001928E-02 0. -1.
        1   -1    0    0  501    0  0.00000000000E+00  0.00000000000E+00 -0.42307002133E+03  0.42307002136E+03  0.50400001928E-02 0.  1.
    10030    2    1    2    0    0  0.00000000000E+00  0.00000000000E+00  0.16227266440E+03  0.10084127071E+04  0.99527070200E+03 0.  0.
        3    1    3    3  502    0 -0.26080066779E+03  0.35003754676E+03 -0.16097005359E+03  0.46524686008E+03  0.10100000352E+00 0.  1.
       -3    1    3    3    0  502  0.26080066779E+03 -0.35003754676E+03  0.32324271799E+03  0.54316584704E+03  0.10100000352E+00 0. -1.
</event>
<event>
 5   0  0.2378609E-03  0.9979904E+03  0.7818609E-02  0.9310752E-01
       -1   -1    0    0    0  501  0.00000000000E+00  0.00000000000E+00  0.32589615037E+03  0.32589615041E+03  0.50400001928E-02 0. -1.
        1   -1    0    0  501    0  0.00000000000E+00  0.00000000000E+00 -0.76403544403E+03  0.76403544405E+03  0.50400001928E-02 0.  1.
    10030    2    1    2    0    0  0.00000000000E+00  0.00000000000E+00 -0.43813929366E+03  0.10899315945E+04  0.99799040073E+03 0.  0.
        1    1    3    3  502    0  0.21945626971E+03  0.21307115659E+02 -0.70794858087E+03  0.74148920470E+03  0.50400001928E-02 0.  1.
       -1    1    3    3    0  502 -0.21945626971E+03 -0.21307115659E+02  0.26980928721E+03  0.34844238977E+03  0.50400001928E-02 0. -1.
</event>
<event>
 5   0  0.2350769E-03  0.9953969E+03  0.7818609E-02  0.9313608E-01
        1   -1    0    0  501    0  0.00000000000E+00  0.00000000000E+00  0.74605164199E+03  0.74605164201E+03  0.50400001928E-02 0.  1.
       -1   -1    0    0    0  501  0.00000000000E+00  0.00000000000E+00 -0.33201954575E+03  0.33201954579E+03  0.50400001928E-02 0. -1.
    10030    2    1    2    0    0  0.00000000000E+00  0.00000000000E+00  0.41403209624E+03  0.10780711878E+04  0.99539686018E+03 0.  0.
        2    1    3    3  502    0 -0.40547730777E+03  0.16840756118E+03  0.46085544678E+03  0.63652234572E+03  0.25500000920E-02 0.  1.
       -2    1    3    3    0  502  0.40547730777E+03 -0.16840756118E+03 -0.46823350539E+02  0.44154884207E+03  0.25500000920E-02 0. -1.
</event>
<event>
 5   0  0.4026829E-03  0.1001996E+04  0.7818609E-02  0.9306358E-01
       -2   -1    0    0    0  501  0.00000000000E+00  0.00000000000E+00  0.69361034975E+03  0.69361034975E+03  0.25500000920E-02 0. -1.
        2   -1    0    0  501    0  0.00000000000E+00  0.00000000000E+00 -0.36187339473E+03  0.36187339474E+03  0.25500000920E-02 0.  1.
    10030    2    1    2    0    0  0.00000000000E+00  0.00000000000E+00  0.33173695501E+03  0.10554837445E+04  0.10019962712E+04 0.  0.
        1    1    3    3  502    0  0.16327460062E+03 -0.33642045955E+03 -0.18533859305E+03  0.41735801767E+03  0.50400001928E-02 0.  1.
       -1    1    3    3    0  502 -0.16327460062E+03  0.33642045955E+03  0.51707554806E+03  0.63812572683E+03  0.50400001928E-02 0. -1.
</event>
<event>
 5   0  0.3826483E-03  0.9980340E+03  0.7818609E-02  0.9310704E-01
       -2   -1    0    0    0  501  0.00000000000E+00  0.00000000000E+00  0.79822413443E+03  0.79822413444E+03  0.25500000920E-02 0.  1.
        2   -1    0    0  501    0  0.00000000000E+00  0.00000000000E+00 -0.31196494107E+03  0.31196494108E+03  0.25500000920E-02 0. -1.
    10030    2    1    2    0    0  0.00000000000E+00  0.00000000000E+00  0.48625919337E+03  0.11101890755E+04  0.99803395747E+03 0.  0.
        4    1    3    3  502    0  0.17350066224E+02  0.62470955118E+02  0.79351713446E+03  0.79616248381E+03  0.12699999809E+01 0.  1.
       -4    1    3    3    0  502 -0.17350066224E+02 -0.62470955118E+02 -0.30725794110E+03  0.31402659171E+03  0.12699999809E+01 0. -1.
</event>
<event>
 5   0  0.2327595E-03  0.1002047E+04  0.7818609E-02  0.9306302E-01
        1   -1    0    0  501    0  0.00000000000E+00  0.00000000000E+00  0.49374716257E+03  0.49374716260E+03  0.50400001928E-02 0.  1.
       -1   -1    0    0    0  501  0.00000000000E+00  0.00000000000E+00 -0.50840756517E+03  0.50840756519E+03  0.50400001928E-02 0. -1.
    10030    2    1    2    0    0  0.00000000000E+00  0.00000000000E+00 -0.14660402593E+02  0.10021547278E+04  0.10020474894E+04 0.  0.
        5    1    3    3  502    0 -0.30708199335E+03 -0.32078349413E+03 -0.23930610129E+03  0.50447091181E+03  0.46999998093E+01 0. -1.
       -5    1    3    3    0  502  0.30708199335E+03  0.32078349413E+03  0.22464569870E+03  0.49768381598E+03  0.46999998093E+01 0.  1.
</event>
<event>
 5   0  0.4026829E-03  0.9944367E+03  0.7818609E-02  0.9314668E-01
        2   -1    0    0  501    0  0.00000000000E+00  0.00000000000E+00  0.10224701966E+04  0.10224701966E+04  0.25500000920E-02 0.  1.
       -2   -1    0    0    0  501  0.00000000000E+00  0.00000000000E+00 -0.24179296866E+03  0.24179296868E+03  0.25500000920E-02 0. -1.
    10030    2    1    2    0    0  0.00000000000E+00  0.00000000000E+00  0.78067722798E+03  0.12642631653E+04  0.99443673349E+03 0.  0.
        1    1    3    3  502    0  0.27261746173E+03  0.41531627119E+03  0.36433929185E+03  0.61607710975E+03  0.50400001928E-02 0. -1.
       -1    1    3    3    0  502 -0.27261746173E+03 -0.41531627119E+03  0.41633793613E+03  0.64818605557E+03  0.50400001928E-02 0.  1.
</event>
<event>
 5   0  0.2313036E-03  0.9930365E+03  0.7818609E-02  0.9316215E-01
       -1   -1    0    0    0  501  0.00000000000E+00  0.00000000000E+00  0.24406759455E+03  0.24406759460E+03  0.50400001928E-02 0. -1.
        1   -1    0    0  501    0  0.00000000000E+00  0.00000000000E+00 -0.10100905237E+04  0.10100905237E+04  0.50400001928E-02 0.  1.
    10030    2    1    2    0    0  0.00000000000E+00  0.00000000000E+00 -0.76602292913E+03  0.12541581183E+04  0.99303648359E+03 0.  0.
        3    1    3    3  502    0 -0.95394665330E+02 -0.80561445257E+02  0.22391591767E+03  0.25637596811E+03  0.10100000352E+00 0. -1.
       -3    1    3    3    0  502  0.95394665330E+02  0.80561445257E+02 -0.98993884680E+03  0.99778215020E+03  0.10100000352E+00 0.  1.
</event>
<event>
 5   0  0.2327595E-03  0.9968281E+03  0.7818609E-02  0.9312030E-01
        1   -1    0    0  501    0  0.00000000000E+00  0.00000000000E+00  0.48459828698E+03  0.48459828701E+03  0.50400001928E-02 0.  1.
       -1   -1    0    0    0  501  0.00000000000E+00  0.00000000000E+00 -0.51262373967E+03  0.51262373970E+03  0.50400001928E-02 0. -1.
    10030    2    1    2    0    0  0.00000000000E+00  0.00000000000E+00 -0.28025452690E+02  0.99722202671E+03  0.99682814193E+03 0.  0.
        5    1    3    3  502    0  0.77842500647E+02 -0.83351608094E+01  0.47838656373E+03  0.48477285832E+03  0.46999998093E+01 0.  1.
       -5    1    3    3    0  502 -0.77842500647E+02  0.83351608094E+01 -0.50641201642E+03  0.51244916839E+03  0.46999998093E+01 0. -1.
</event>
<event>
 5   0  0.2327595E-03  0.9823278E+03  0.7818609E-02  0.9328143E-01
        1   -1    0    0  501    0  0.00000000000E+00  0.00000000000E+00  0.13271800037E+04  0.13271800037E+04  0.50400001928E-02 0.  1.
       -1   -1    0    0    0  501  0.00000000000E+00  0.00000000000E+00 -0.18177034160E+03  0.18177034167E+03  0.50400001928E-02 0. -1.
    10030    2    1    2    0    0  0.00000000000E+00  0.00000000000E+00  0.11454096621E+04  0.15089503453E+04  0.98232777155E+03 0.  0.
        5    1    3    3  502    0 -0.13094231825E+03  0.14775943470E+03  0.12635063275E+04  0.12788467738E+04  0.46999998093E+01 0.  1.
       -5    1    3    3    0  502  0.13094231825E+03 -0.14775943470E+03 -0.11809666543E+03  0.23010357154E+03  0.46999998093E+01 0. -1.
</event>
<event>
 5   0  0.3873874E-03  0.1001034E+04  0.7818609E-02  0.9307411E-01
        2   -1    0    0  501    0  0.00000000000E+00  0.00000000000E+00  0.14093891206E+04  0.14093891206E+04  0.25500000920E-02 0.  1.
       -2   -1    0    0    0  501  0.00000000000E+00  0.00000000000E+00 -0.17774891936E+03  0.17774891938E+03  0.25500000920E-02 0. -1.
    10030    2    1    2    0    0  0.00000000000E+00  0.00000000000E+00  0.12316402012E+04  0.15871380400E+04  0.10010342515E+04 0.  0.
        5    1    3    3  502    0 -0.25530311261E+03  0.37922435586E+03  0.29281199706E+03  0.54291044106E+03  0.46999998093E+01 0. -1.
       -5    1    3    3    0  502  0.25530311261E+03 -0.37922435586E+03  0.93882820415E+03  0.10442275989E+04  0.46999998093E+01 0.  1.
</event>
<event>
 5   0  0.3873874E-03  0.1002665E+04  0.7818609E-02  0.9305627E-01
       -2   -1    0    0    0  501  0.00000000000E+00  0.00000000000E+00  0.15275375723E+03  0.15275375725E+03  0.25500000920E-02 0.  1.
        2   -1    0    0  501    0  0.00000000000E+00  0.00000000000E+00 -0.16453554924E+04  0.16453554924E+04  0.25500000920E-02 0. -1.
    10030    2    1    2    0    0  0.00000000000E+00  0.00000000000E+00 -0.14926017352E+04  0.17981092497E+04  0.10026649160E+04 0.  0.
        5    1    3    3  502    0  0.47378124254E+02  0.18944742071E+03  0.81699564258E+02  0.21173549695E+03  0.46999998093E+01 0.  1.
       -5    1    3    3    0  502 -0.47378124254E+02 -0.18944742071E+03 -0.15743012994E+04  0.15863737527E+04  0.46999998093E+01 0. -1.
</event>
<event>
 5   0  0.3895011E-03  0.9353066E+03  0.7818609E-02  0.9382492E-01
        2   -1    0    0  501    0  0.00000000000E+00  0.00000000000E+00  0.12262085690E+04  0.12262085690E+04  0.25500000920E-02 0.  1.
       -2   -1    0    0    0  501  0.00000000000E+00  0.00000000000E+00 -0.17835431605E+03  0.17835431607E+03  0.25500000920E-02 0. -1.
    10030    2    1    2    0    0  0.00000000000E+00  0.00000000000E+00  0.10478542530E+04  0.14045628851E+04  0.93530656081E+03 0.  0.
        2    1    3    3  502    0 -0.41461368225E+03 -0.10444921345E+02  0.19945268910E+03  0.46021188282E+03  0.25500000920E-02 0. -1.
       -2    1    3    3    0  502  0.41461368225E+03  0.10444921345E+02  0.84840156387E+03  0.94435100227E+03  0.25500000920E-02 0.  1.
</event>
<event>
 5   0  0.2378609E-03  0.1016684E+04  0.7818609E-02  0.9290433E-01
        1   -1    0    0  501    0  0.00000000000E+00  0.00000000000E+00  0.83961369887E+03  0.83961369889E+03  0.50400001928E-02 0. -1.
       -1   -1    0    0    0  501  0.00000000000E+00  0.00000000000E+00 -0.30777458875E+03  0.30777458879E+03  0.50400001928E-02 0.  1.
    10030    2    1    2    0    0  0.00000000000E+00  0.00000000000E+00  0.53183911013E+03  0.11473882877E+04  0.10166843382E+04 0.  0.
        1    1    3    3  502    0 -0.13746236309E+02 -0.40103903242E+03 -0.86274944101E+02  0.41044443052E+03  0.50400001928E-02 0.  1.
       -1    1    3    3    0  502  0.13746236309E+02  0.40103903242E+03  0.61811405423E+03  0.73694385716E+03  0.50400001928E-02 0. -1.
</event>
<event>
 5   0  0.3873874E-03  0.1003487E+04  0.7818609E-02  0.9304728E-01
        2   -1    0    0  501    0  0.00000000000E+00  0.00000000000E+00  0.23763705196E+03  0.23763705198E+03  0.25500000920E-02 0.  1.
       -2   -1    0    0    0  501  0.00000000000E+00  0.00000000000E+00 -0.10593744761E+04  0.10593744761E+04  0.25500000920E-02 0. -1.
    10030    2    1    2    0    0  0.00000000000E+00  0.00000000000E+00 -0.82173742415E+03  0.12970115281E+04  0.10034871747E+04 0.  0.
        5    1    3    3  502    0 -0.59512809147E+02 -0.22496672046E+03 -0.98537596889E+03  0.10124918221E+04  0.46999998093E+01 0. -1.
       -5    1    3    3    0  502  0.59512809147E+02  0.22496672046E+03  0.16363854474E+03  0.28451970598E+03  0.46999998093E+01 0.  1.
</event>
<event>
 5   0  0.2327595E-03  0.9717023E+03  0.7818609E-02  0.9340138E-01
       -1   -1    0    0    0  501  0.00000000000E+00  0.00000000000E+00  0.19816986637E+03  0.19816986643E+03  0.50400001928E-02 0.  1.
        1   -1    0    0  501    0  0.00000000000E+00  0.00000000000E+00 -0.11911566336E+04  0.11911566336E+04  0.50400001928E-02 0. -1.
    10030    2    1    2    0    0  0.00000000000E+00  0.00000000000E+00 -0.99298676723E+03  0.13893265000E+04  0.97170232263E+03 0.  0.
        5    1    3    3  502    0 -0.39169352316E+03  0.17463470792E+03 -0.82287370292E+03  0.92793551406E+03  0.46999998093E+01 0. -1.
       -5    1    3    3    0  502  0.39169352316E+03 -0.17463470792E+03 -0.17011306430E+03  0.46139098597E+03  0.46999998093E+01 0.  1.
</event>
<event>
 5   0  0.4140860E-03  0.9952612E+03  0.7818609E-02  0.9313758E-01
       -2   -1    0    0    0  501  0.00000000000E+00  0.00000000000E+00  0.23592833920E+03  0.23592833921E+03  0.25500000920E-02 0. -1.
        2   -1    0    0  501    0  0.00000000000E+00  0.00000000000E+00 -0.10496247620E+04  0.10496247620E+04  0.25500000920E-02 0.  1.
    10030    2    1    2    0    0  0.00000000000E+00  0.00000000000E+00 -0.81369642279E+03  0.12855531012E+04  0.99526122579E+03 0.  0.
        3    1    3    3  502    0  0.25490891546E+03  0.13016451436E+03 -0.93266404984E+03  0.97559397090E+03  0.10100000352E+00 0.  1.
       -3    1    3    3    0  502 -0.25490891546E+03 -0.13016451436E+03  0.11896762705E+03  0.30995913031E+03  0.10100000352E+00 0. -1.
</event>
<event>
 5   0  0.3873874E-03  0.9985063E+03  0.7818609E-02  0.9310185E-01
       -2   -1    0    0    0  501  0.00000000000E+00  0.00000000000E+00  0.37069709412E+03  0.37069709413E+03  0.25500000920E-02 0.  1.
        2   -1    0    0  501    0  0.00000000000E+00  0.00000000000E+00 -0.67239180846E+03  0.67239180846E+03  0.25500000920E-02 0. -1.
    10030    2    1    2    0    0  0.00000000000E+00  0.00000000000E+00 -0.30169471433E+03  0.10430889026E+04  0.99850626341E+03 0.  0.
        5    1    3    3  502    0  0.16778903031E+03  0.32917411446E+03  0.19988553682E+03  0.42010126655E+03  0.46999998093E+01 0.  1.
       -5    1    3    3    0  502 -0.16778903031E+03 -0.32917411446E+03 -0.50158025116E+03  0.62298763605E+03  0.46999998093E+01 0. -1.
</event>
<event>
 5   0  0.2405022E-03  0.1012869E+04  0.7818609E-02  0.9294542E-01
        1   -1    0    0  501    0  0.00000000000E+00  0.00000000000E+00  0.53343860813E+03  0.53343860815E+03  0.50400001928E-02 0.  1.
       -1   -1    0    0    0  501  0.00000000000E+00  0.00000000000E+00 -0.48079720042E+03  0.48079720045E+03  0.50400001928E-02 0. -1.
    10030    2    1    2    0    0  0.00000000000E+00  0.00000000000E+00  0.52641407705E+02  0.10142358086E+04  0.10128687761E+04 0.  0.
        4    1    3    3  502    0 -0.29419267636E+03 -0.40784032693E+03 -0.33686075350E+02  0.50400340045E+03  0.12699999809E+01 0. -1.
       -4    1    3    3    0  502  0.29419267636E+03  0.40784032693E+03  0.86327483055E+02  0.51023240815E+03  0.12699999809E+01 0.  1.
</event>
<event>
 5   0  0.4140860E-03  0.1107769E+04  0.7818609E-02  0.9197653E-01
       -2   -1    0    0    0  501  0.00000000000E+00  0.00000000000E+00  0.60041658839E+03  0.60041658839E+03  0.25500000920E-02 0. -1.
        2   -1    0    0  501    0  0.00000000000E+00  0.00000000000E+00 -0.51095836033E+03  0.51095836033E+03  0.25500000920E-02 0.  1.
    10030    2    1    2    0    0  0.00000000000E+00  0.00000000000E+00  0.89458228062E+02  0.11113749487E+04  0.11077687042E+04 0.  0.
        3    1    3    3  502    0  0.14314542007E+03  0.39123738455E+03  0.41092498495E+03  0.58516378546E+03  0.10100000352E+00 0. -1.
       -3    1    3    3    0  502 -0.14314542007E+03 -0.39123738455E+03 -0.32146675689E+03  0.52621116326E+03  0.10100000352E+00 0.  1.
</event>
<event>
 5   0  0.3895011E-03  0.1031481E+04  0.7818609E-02  0.9274676E-01
       -2   -1    0    0    0  501  0.00000000000E+00  0.00000000000E+00  0.15399810978E+04  0.15399810978E+04  0.25500000920E-02 0.  1.
        2   -1    0    0  501    0  0.00000000000E+00  0.00000000000E+00 -0.17272170535E+03  0.17272170537E+03  0.25500000920E-02 0. -1.
    10030    2    1    2    0    0  0.00000000000E+00  0.00000000000E+00  0.13672593925E+04  0.17127028032E+04  0.10314808024E+04 0.  0.
        2    1    3    3  502    0  0.36012007852E+03  0.32812532563E+02  0.12942192915E+04  0.13437881930E+04  0.25500000920E-02 0.  1.
       -2    1    3    3    0  502 -0.36012007852E+03 -0.32812532563E+02  0.73040101000E+02  0.36891461019E+03  0.25500000920E-02 0. -1.
</event>
<event>
 5   0  0.3826483E-03  0.1014068E+04  0.7818609E-02  0.9293248E-01
        2   -1    0    0  501    0  0.00000000000E+00  0.00000000000E+00  0.78814206304E+03  0.78814206304E+03  0.25500000920E-02 0. -1.
       -2   -1    0    0    0  501  0.00000000000E+00  0.00000000000E+00 -0.32618928204E+03  0.32618928205E+03  0.25500000920E-02 0.  1.
    10030    2    1    2    0    0  0.00000000000E+00  0.00000000000E+00  0.46195278100E+03  0.11143313451E+04  0.10140680326E+04 0.  0.
        4    1    3    3  502    0 -0.33209426169E+03 -0.34617974138E+03  0.50564205710E+02  0.48237471305E+03  0.12699999809E+01 0. -1.
       -4    1    3    3    0  502  0.33209426169E+03  0.34617974138E+03  0.41138857529E+03  0.63195663203E+03  0.12699999809E+01 0.  1.
</event>
<event>
 5   0  0.3873874E-03  0.1003440E+04  0.7818609E-02  0.9304780E-01
        2   -1    0    0  501    0  0.00000000000E+00  0.00000000000E+00  0.17001036829E+04  0.17001036829E+04  0.25500000920E-02 0.  1.
       -2   -1    0    0    0  501  0.00000000000E+00  0.00000000000E+00 -0.14806320867E+03  0.14806320869E+03  0.25500000920E-02 0. -1.
    10030    2    1    2    0    0  0.00000000000E+00  0.00000000000E+00  0.15520404742E+04  0.18481668916E+04  0.10034396970E+04 0.  0.
        5    1    3    3  502    0 -0.37105070703E+03 -0.14060112171E+03  0.21056471159E+03  0.44922921808E+03  0.46999998093E+01 0. -1.
       -5    1    3    3    0  502  0.37105070703E+03  0.14060112171E+03  0.13414757626E+04  0.13989376735E+04  0.46999998093E+01 0.  1.
</event>
<event>
 5   0  0.4026829E-03  0.9985712E+03  0.7818609E-02  0.9310113E-01
       -2   -1    0    0    0  501  0.00000000000E+00  0.00000000000E+00  0.21867097086E+03  0.21867097087E+03  0.25500000920E-02 0.  1.
        2   -1    0    0  501    0  0.00000000000E+00  0.00000000000E+00 -0.11400054404E+04  0.11400054404E+04  0.25500000920E-02 0. -1.
    10030    2    1    2    0    0  0.00000000000E+00  0.00000000000E+00 -0.92133446954E+03  0.13586764113E+04  0.99857117212E+03 0.  0.
        1    1    3    3  502    0 -0.17635761421E+03 -0.46709480641E+03 -0.46414418810E+03  0.68169596862E+03  0.50400001928E-02 0. -1.
       -1    1    3    3    0  502  0.17635761421E+03  0.46709480641E+03 -0.45719028144E+03  0.67698044265E+03  0.50400001928E-02 0.  1.
</event>
<event>
 5   0  0.4026829E-03  0.1001188E+04  0.7818609E-02  0.9307243E-01
       -2   -1    0    0    0  501  0.00000000000E+00  0.00000000000E+00  0.50496808972E+03  0.50496808972E+03  0.25500000920E-02 0.  1.
        2   -1    0    0  501    0  0.00000000000E+00  0.00000000000E+00 -0.49625733476E+03  0.49625733477E+03  0.25500000920E-02 0. -1.
    10030    2    1    2    0    0  0.00000000000E+00  0.00000000000E+00  0.87107549522E+01  0.10012254245E+04  0.10011875316E+04 0.  0.
        1    1    3    3  502    0  0.46309980306E+02  0.47447272618E+03 -0.14837609215E+03  0.49928393416E+03  0.50400001928E-02 0. -1.
       -1    1    3    3    0  502 -0.46309980306E+02 -0.47447272618E+03  0.15708684710E+03  0.50194149034E+03  0.50400001928E-02 0.  1.
</event>
<event>
 5   0  0.2378609E-03  0.9839358E+03  0.7818609E-02  0.9326341E-01
        1   -1    0    0  501    0  0.00000000000E+00  0.00000000000E+00  0.77956075605E+03  0.77956075607E+03  0.50400001928E-02 0.  1.
       -1   -1    0    0    0  501  0.00000000000E+00  0.00000000000E+00 -0.31047280009E+03  0.31047280013E+03  0.50400001928E-02 0. -1.
    10030    2    1    2    0    0  0.00000000000E+00  0.00000000000E+00  0.46908795596E+03  0.10900335562E+04  0.98393579222E+03 0.  0.
        1    1    3    3  502    0  0.48885268629E+02  0.34953639628E+03 -0.14514759038E+03  0.38161929306E+03  0.50400001928E-02 0. -1.
       -1    1    3    3    0  502 -0.48885268629E+02 -0.34953639628E+03  0.61423554634E+03  0.70841426314E+03  0.50400001928E-02 0.  1.
</event>
<event>
 5   0  0.2350769E-03  0.1001048E+04  0.7818609E-02  0.9307396E-01
        1   -1    0    0  501    0  0.00000000000E+00  0.00000000000E+00  0.10322852367E+04  0.10322852367E+04  0.50400001928E-02 0.  1.
       -1   -1    0    0    0  501  0.00000000000E+00  0.00000000000E+00 -0.24268903190E+03  0.24268903195E+03  0.50400001928E-02 0. -1.
    10030    2    1    2    0    0  0.00000000000E+00  0.00000000000E+00  0.78959620476E+03  0.12749742686E+04  0.10010480603E+04 0.  0.
        2    1    3    3  502    0 -0.73006783946E+02 -0.27239251333E+03  0.92147015188E+03  0.96365705136E+03  0.25500000920E-02 0.  1.
       -2    1    3    3    0  502  0.73006783946E+02  0.27239251333E+03 -0.13187394713E+03  0.31131721725E+03  0.25500000920E-02 0. -1.
</event>
<event>
 5   0  0.4026829E-03  0.9894953E+03  0.7818609E-02  0.9320142E-01
        2   -1    0    0  501    0  0.00000000000E+00  0.00000000000E+00  0.86633983842E+03  0.86633983843E+03  0.25500000920E-02 0.  1.
       -2   -1    0    0    0  501  0.00000000000E+00  0.00000000000E+00 -0.28253953987E+03  0.28253953988E+03  0.25500000920E-02 0. -1.
    10030    2    1    2    0    0  0.00000000000E+00  0.00000000000E+00  0.58380029855E+03  0.11488793783E+04  0.98949534477E+03 0.  0.
        1    1    3    3  502    0  0.10130973445E+02  0.34288202741E+03  0.70584378229E+03  0.78478415272E+03  0.50400001928E-02 0. -1.
       -1    1    3    3    0  502 -0.10130973445E+02 -0.34288202741E+03 -0.12204348374E+03  0.36409522559E+03  0.50400001928E-02 0.  1.
</event>
<event>
 5   0  0.2313036E-03  0.1000378E+04  0.7818609E-02  0.9308131E-01
       -1   -1    0    0    0  501  0.00000000000E+00  0.00000000000E+00  0.33160246820E+03  0.33160246824E+03  0.50400001928E-02 0. -1.
        1   -1    0    0  501    0  0.00000000000E+00  0.00000000000E+00 -0.75448455109E+03  0.75448455111E+03  0.50400001928E-02 0.  1.
    10030    2    1    2    0    0  0.00000000000E+00  0.00000000000E+00 -0.42288208290E+03  0.10860870193E+04  0.10003778074E+04 0.  0.
        3    1    3    3  502    0 -0.22764157108E+03  0.37525855469E+03  0.49006613645E+02  0.44163483347E+03  0.10100000352E+00 0. -1.
       -3    1    3    3    0  502  0.22764157108E+03 -0.37525855469E+03 -0.47188869654E+03  0.64445218587E+03  0.10100000352E+00 0.  1.
</event>
<event>
 5   0  0.3873874E-03  0.9990651E+03  0.7818609E-02  0.9309571E-01
       -2   -1    0    0    0  501  0.00000000000E+00  0.00000000000E+00  0.21591394807E+03  0.21591394808E+03  0.25500000920E-02 0.  1.
        2   -1    0    0  501    0  0.00000000000E+00  0.00000000000E+00 -0.11557047386E+04  0.11557047386E+04  0.25500000920E-02 0. -1.
    10030    2    1    2    0    0  0.00000000000E+00  0.00000000000E+00 -0.93979079051E+03  0.13716186867E+04  0.99906510883E+03 0.  0.
        5    1    3    3  502    0  0.38797174088E+03  0.28064476632E+03 -0.27463835819E+03  0.55202524794E+03  0.46999998093E+01 0.  1.
       -5    1    3    3    0  502 -0.38797174088E+03 -0.28064476632E+03 -0.66515243232E+03  0.81959343872E+03  0.46999998093E+01 0. -1.
</event>
<event>
 5   0  0.2313036E-03  0.1031514E+04  0.7818609E-02  0.9274640E-01
       -1   -1    0    0    0  501  0.00000000000E+00  0.00000000000E+00  0.43622019532E+03  0.43622019535E+03  0.50400001928E-02 0. -1.
        1   -1    0    0  501    0  0.00000000000E+00  0.00000000000E+00 -0.60979589997E+03  0.60979589999E+03  0.50400001928E-02 0.  1.
    10030    2    1    2    0    0  0.00000000000E+00  0.00000000000E+00 -0.17357570465E+03  0.10460160953E+04  0.10315140069E+04 0.  0.
        3    1    3    3  502    0 -0.15365871480E+03  0.78486498312E+02  0.40608463155E+03  0.44122088486E+03  0.10100000352E+00 0. -1.
       -3    1    3    3    0  502  0.15365871480E+03 -0.78486498312E+02 -0.57966033620E+03  0.60479521048E+03  0.10100000352E+00 0.  1.
</event>
<event>
 5   0  0.3895011E-03  0.1019223E+04  0.7818609E-02  0.9287709E-01
       -2   -1    0    0    0  501  0.00000000000E+00  0.00000000000E+00  0.16937549734E+03  0.16937549736E+03  0.25500000920E-02 0.  1.
        2   -1    0    0  501    0  0.00000000000E+00  0.00000000000E+00 -0.15333024279E+04  0.15333024279E+04  0.25500000920E-02 0. -1.
    10030    2    1    2    0    0  0.00000000000E+00  0.00000000000E+00 -0.13639269305E+04  0.17026779252E+04  0.10192229615E+04 0.  0.
        2    1    3    3  502    0  0.44898381268E+03  0.19298061178E+03 -0.44059212053E+03  0.65798890359E+03  0.25500000920E-02 0.  1.
       -2    1    3    3    0  502 -0.44898381268E+03 -0.19298061178E+03 -0.92333481001E+03  0.10446890216E+04  0.25500000920E-02 0. -1.
</event>
<event>
 5   0  0.2405022E-03  0.1011765E+04  0.7818609E-02  0.9295734E-01
        1   -1    0    0  501    0  0.00000000000E+00  0.00000000000E+00  0.73991488198E+03  0.73991488199E+03  0.50400001928E-02 0. -1.
       -1   -1    0    0    0  501  0.00000000000E+00  0.00000000000E+00 -0.34587380116E+03  0.34587380119E+03  0.50400001928E-02 0.  1.
    10030    2    1    2    0    0  0.00000000000E+00  0.00000000000E+00  0.39404108082E+03  0.10857886832E+04  0.10117651364E+04 0.  0.
        4    1    3    3  502    0  0.11744150816E+03 -0.49165513654E+03  0.17560351383E+03  0.53512193759E+03  0.12699999809E+01 0. -1.
       -4    1    3    3    0  502 -0.11744150816E+03  0.49165513654E+03  0.21843756700E+03  0.55066674559E+03  0.12699999809E+01 0.  1.
</event>
<event>
 5   0  0.2327595E-03  0.1000962E+04  0.7818609E-02  0.9307490E-01
        1   -1    0    0  501    0  0.00000000000E+00  0.00000000000E+00  0.17461305453E+03  0.17461305460E+03  0.50400001928E-02 0. -1.
       -1   -1    0    0    0  501  0.00000000000E+00  0.00000000000E+00 -0.14344944596E+04  0.14344944596E+04  0.50400001928E-02 0.  1.
    10030    2    1    2    0    0  0.00000000000E+00  0.00000000000E+00 -0.12598814051E+04  0.16091075142E+04  0.10009624556E+04 0.  0.
        5    1    3    3  502    0  0.24739801137E+03  0.22613760575E+03 -0.32508963975E+02  0.33678318767E+03  0.46999998093E+01 0. -1.
       -5    1    3    3    0  502 -0.24739801137E+03 -0.22613760575E+03 -0.12273724411E+04  0.12723243266E+04  0.46999998093E+01 0.  1.
</event>
<event>
 5   0  0.2378609E-03  0.1004823E+04  0.7818609E-02  0.9303271E-01
       -1   -1    0    0    0  501  0.00000000000E+00  0.00000000000E+00  0.25279906615E+03  0.25279906620E+03  0.50400001928E-02 0. -1.
        1   -1    0    0  501    0  0.00000000000E+00  0.00000000000E+00 -0.99848997881E+03  0.99848997882E+03  0.50400001928E-02 0.  1.
    10030    2    1    2    0    0  0.00000000000E+00  0.00000000000E+00 -0.74569091266E+03  0.12512890450E+04  0.10048230376E+04 0.  0.
        1    1    3    3  502    0  0.92120833698E+02  0.29442043999E+03  0.12096490350E+03  0.33136407679E+03  0.50400001928E-02 0. -1.
       -1    1    3    3    0  502 -0.92120833698E+02 -0.29442043999E+03 -0.86665581615E+03  0.91992496824E+03  0.50400001928E-02 0.  1.
</event>
<event>
 5   0  0.2350769E-03  0.1006630E+04  0.7818609E-02  0.9301303E-01
        1   -1    0    0  501    0  0.00000000000E+00  0.00000000000E+00  0.58207218033E+03  0.58207218035E+03  0.50400001928E-02 0.  1.
       -1   -1    0    0    0  501  0.00000000000E+00  0.00000000000E+00 -0.43521408937E+03  0.43521408940E+03  0.50400001928E-02 0. -1.
    10030    2    1    2    0    0  0.00000000000E+00  0.00000000000E+00  0.14685809096E+03  0.10172862698E+04  0.10066300491E+04 0.  0.
        2    1    3    3  502    0  0.44230990179E+03 -0.14295284255E+03 -0.12162309019E+03  0.48048490141E+03  0.25500000920E-02 0. -1.
       -2    1    3    3    0  502 -0.44230990179E+03  0.14295284255E+03  0.26848118115E+03  0.53680136834E+03  0.25500000920E-02 0.  1.
</event>
<event>
 5   0  0.4140860E-03  0.1011780E+04  0.7818609E-02  0.9295718E-01
       -2   -1    0    0    0  501  0.00000000000E+00  0.00000000000E+00  0.21392217654E+03  0.21392217656E+03  0.25500000920E-02 0. -1.
        2   -1    0    0  501    0  0.00000000000E+00  0.00000000000E+00 -0.11963456449E+04  0.11963456449E+04  0.25500000920E-02 0.  1.
    10030    2    1    2    0    0  0.00000000000E+00  0.00000000000E+00 -0.98242346838E+03  0.14102678215E+04  0.10117803403E+04 0.  0.
        3    1    3    3  502    0  0.15713359960E+03 -0.59231662379E+02 -0.11563641742E+04  0.11684936763E+04  0.10100000352E+00 0.  1.
       -3    1    3    3    0  502 -0.15713359960E+03  0.59231662379E+02  0.17394070581E+03  0.24177414521E+03  0.10100000352E+00 0. -1.
</event>
<event>
 5   0  0.4026829E-03  0.9958107E+03  0.7818609E-02  0.9313151E-01
       -2   -1    0    0    0  501  0.00000000000E+00  0.00000000000E+00  0.11307554982E+04  0.11307554982E+04  0.25500000920E-02 0. -1.
        2   -1    0    0  501    0  0.00000000000E+00  0.00000000000E+00 -0.21924257197E+03  0.21924257198E+03  0.25500000920E-02 0.  1.
    10030    2    1    2    0    0  0.00000000000E+00  0.00000000000E+00  0.91151292619E+03  0.13499980701E+04  0.99581071233E+03 0.  0.
        1    1    3    3  502    0  0.39657429348E+03 -0.23868734962E+03  0.20700934160E+03  0.50704604194E+03  0.50400001928E-02 0.  1.
       -1    1    3    3    0  502 -0.39657429348E+03  0.23868734962E+03  0.70450358460E+03  0.84295202820E+03  0.50400001928E-02 0. -1.
</event>
<event>
 5   0  0.2350769E-03  0.9997951E+03  0.7818609E-02  0.9308770E-01
        1   -1    0    0  501    0  0.00000000000E+00  0.00000000000E+00  0.37626195190E+03  0.37626195193E+03  0.50400001928E-02 0.  1.
       -1   -1    0    0    0  501  0.00000000000E+00  0.00000000000E+00 -0.66415842125E+03  0.66415842127E+03  0.50400001928E-02 0. -1.
    10030    2    1    2    0    0  0.00000000000E+00  0.00000000000E+00 -0.28789646935E+03  0.10404203732E+04  0.99979506695E+03 0.  0.
        2    1    3    3  502    0 -0.74282895025E+02  0.32896989643E+03 -0.52793838303E+03  0.62646474565E+03  0.25500000920E-02 0. -1.
       -2    1    3    3    0  502  0.74282895025E+02 -0.32896989643E+03  0.24004191368E+03  0.41395562755E+03  0.25500000920E-02 0.  1.
</event>
<event>
 5   0  0.2350769E-03  0.9881986E+03  0.7818609E-02  0.9321584E-01
       -1   -1    0    0    0  501  0.00000000000E+00  0.00000000000E+00  0.30275698097E+03  0.30275698101E+03  0.50400001928E-02 0.  1.
        1   -1    0    0  501    0  0.00000000000E+00  0.00000000000E+00 -0.80636992245E+03  0.80636992247E+03  0.50400001928E-02 0. -1.
    10030    2    1    2    0    0  0.00000000000E+00  0.00000000000E+00 -0.50361294149E+03  0.11091269035E+04  0.98819861019E+03 0.  0.
        2    1    3    3  502    0 -0.26718586507E+03 -0.10049493357E+03 -0.70445332082E+03  0.76009341491E+03  0.25500000920E-02 0. -1.
       -2    1    3    3    0  502  0.26718586507E+03  0.10049493357E+03  0.20084037933E+03  0.34903348857E+03  0.25500000920E-02 0.  1.
</event>
<event>
 5   0  0.2313036E-03  0.9995090E+03  0.7818609E-02  0.9309083E-01
        1   -1    0    0  501    0  0.00000000000E+00  0.00000000000E+00  0.81543287110E+03  0.81543287111E+03  0.50400001928E-02 0. -1.
       -1   -1    0    0    0  501  0.00000000000E+00  0.00000000000E+00 -0.30628466330E+03  0.30628466334E+03  0.50400001928E-02 0.  1.
    10030    2    1    2    0    0  0.00000000000E+00  0.00000000000E+00  0.50914820780E+03  0.11217175345E+04  0.99950904428E+03 0.  0.
        3    1    3    3  502    0  0.22557028303E+03  0.39264394554E+03  0.17290995334E+02  0.45315583333E+03  0.10100000352E+00 0.  1.
       -3    1    3    3    0  502 -0.22557028303E+03 -0.39264394554E+03  0.49185721246E+03  0.66856170112E+03  0.10100000352E+00 0. -1.
</event>
<event>
 5   0  0.2405022E-03  0.9946266E+03  0.7818609E-02  0.9314458E-01
        1   -1    0    0  501    0  0.00000000000E+00  0.00000000000E+00  0.45864505548E+03  0.45864505550E+03  0.50400001928E-02 0. -1.
       -1   -1    0    0    0  501  0.00000000000E+00  0.00000000000E+00 -0.53924167169E+03  0.53924167171E+03  0.50400001928E-02 0.  1.
    10030    2    1    2    0    0  0.00000000000E+00  0.00000000000E+00 -0.80596616211E+02  0.99788672722E+03  0.99462661628E+03 0.  0.
        4    1    3    3  502    0 -0.87382106292E+02 -0.47629156384E+03 -0.15393751369E+03  0.50812169537E+03  0.12699999809E+01 0.  1.
       -4    1    3    3    0  502  0.87382106292E+02  0.47629156384E+03  0.73340897475E+02  0.48976503185E+03  0.12699999809E+01 0. -1.
</event>
<event>
 5   0  0.3895011E-03  0.1004495E+04  0.7818609E-02  0.9303629E-01
       -2   -1    0    0    0  501  0.00000000000E+00  0.00000000000E+00  0.16323596266E+03  0.16323596268E+03  0.25500000920E-02 0.  1.
        2   -1    0    0  501    0  0.00000000000E+00  0.00000000000E+00 -0.15453234729E+04  0.15453234729E+04  0.25500000920E-02 0. -1.
    10030    2    1    2    0    0  0.00000000000E+00  0.00000000000E+00 -0.13820875102E+04  0.17085594356E+04  0.10044946286E+04 0.  0.
        2    1    3    3  502    0  0.21167903916E+03  0.18521860380E+03 -0.13987926416E+04  0.14267917862E+04  0.25500000920E-02 0. -1.
       -2    1    3    3    0  502 -0.21167903916E+03 -0.18521860380E+03  0.16705131418E+02  0.28176764938E+03  0.25500000920E-02 0.  1.
</event>
<event>
 5   0  0.4026829E-03  0.1022482E+04  0.7818609E-02  0.9284225E-01
        2   -1    0    0  501    0  0.00000000000E+00  0.00000000000E+00  0.72979020992E+03  0.72979020992E+03  0.25500000920E-02 0. -1.
       -2   -1    0    0    0  501  0.00000000000E+00  0.00000000000E+00 -0.35814030972E+03  0.35814030973E+03  0.25500000920E-02 0.  1.
    10030    2    1    2    0    0  0.00000000000E+00  0.00000000000E+00  0.37164990020E+03  0.10879305197E+04  0.10224818665E+04 0.  0.
        1    1    3    3  502    0 -0.22276394373E+03 -0.29921698120E+03 -0.18614147622E+03  0.41689714038E+03  0.50400001928E-02 0.  1.
       -1    1    3    3    0  502  0.22276394373E+03  0.29921698120E+03  0.55779137641E+03  0.67103337927E+03  0.50400001928E-02 0. -1.
</event>
<event>
 5   0  0.1548000E-03  0.9995511E+03  0.7818609E-02  0.9309037E-01
       -3   -1    0    0    0  501  0.00000000000E+00  0.00000000000E+00  0.12273873420E+04  0.12273873461E+04  0.10100000352E+00 0. -1.
        3   -1    0    0  501    0  0.00000000000E+00  0.00000000000E+00 -0.20350183805E+03  0.20350186311E+03  0.10100000352E+00 0.  1.
    10030    2    1    2    0    0  0.00000000000E+00  0.00000000000E+00  0.10238855039E+04  0.14308892092E+04  0.99955110122E+03 0.  0.
        3    1    3    3  502    0 -0.19197564399E+03  0.11251479444E+03  0.11525614219E+04  0.11738449933E+04  0.10100000352E+00 0. -1.
       -3    1    3    3    0  502  0.19197564399E+03 -0.11251479444E+03 -0.12867591800E+03  0.25704421590E+03  0.10100000352E+00 0.  1.
</event>
<event>
 5   0  0.2378609E-03  0.1003624E+04  0.7818609E-02  0.9304579E-01
       -1   -1    0    0    0  501  0.00000000000E+00  0.00000000000E+00  0.25394706024E+03  0.25394706029E+03  0.50400001928E-02 0.  1.
        1   -1    0    0  501    0  0.00000000000E+00  0.00000000000E+00 -0.99160449341E+03  0.99160449342E+03  0.50400001928E-02 0. -1.
    10030    2    1    2    0    0  0.00000000000E+00  0.00000000000E+00 -0.73765743317E+03  0.12455515537E+04  0.10036235271E+04 0.  0.
        1    1    3    3  502    0  0.20459056524E+02 -0.21490923010E+01  0.25342353256E+03  0.25425711095E+03  0.50400001928E-02 0.  1.
       -1    1    3    3    0  502 -0.20459056524E+02  0.21490923010E+01 -0.99108096573E+03  0.99129444276E+03  0.50400001928E-02 0. -1.
</event>
<event>
 5   0  0.3895011E-03  0.1000330E+04  0.7818609E-02  0.9308183E-01
       -2   -1    0    0    0  501  0.00000000000E+00  0.00000000000E+00  0.46587314934E+03  0.46587314934E+03  0.25500000920E-02 0. -1.
        2   -1    0    0  501    0  0.00000000000E+00  0.00000000000E+00 -0.53698069737E+03  0.53698069738E+03  0.25500000920E-02 0.  1.
    10030    2    1    2    0    0  0.00000000000E+00  0.00000000000E+00 -0.71107548035E+02  0.10028538467E+04  0.10003297229E+04 0.  0.
        2    1    3    3  502    0  0.13086068996E+03 -0.17667529258E+03 -0.48593808471E+03  0.53336151095E+03  0.25500000920E-02 0.  1.
       -2    1    3    3    0  502 -0.13086068996E+03  0.17667529258E+03  0.41483053667E+03  0.46949233577E+03  0.25500000920E-02 0. -1.
</event>
<event>
 5   0  0.2313036E-03  0.9992600E+03  0.7818609E-02  0.9309357E-01
       -1   -1    0    0    0  501  0.00000000000E+00  0.00000000000E+00  0.35363811430E+03  0.35363811434E+03  0.50400001928E-02 0. -1.
        1   -1    0    0  501    0  0.00000000000E+00  0.00000000000E+00 -0.70589155466E+03  0.70589155468E+03  0.50400001928E-02 0.  1.
    10030    2    1    2    0    0  0.00000000000E+00  0.00000000000E+00 -0.35225344036E+03  0.10595296690E+04  0.99926004287E+03 0.  0.
        3    1    3    3  502    0  0.49064322474E+02  0.49710018548E+03 -0.18745998573E+03  0.53353271558E+03  0.10100000352E+00 0.  1.
       -3    1    3    3    0  502 -0.49064322474E+02 -0.49710018548E+03 -0.16479345464E+03  0.52599695344E+03  0.10100000352E+00 0. -1.
</event>
<event>
 5   0  0.4026829E-03  0.9980462E+03  0.7818609E-02  0.9310690E-01
       -2   -1    0    0    0  501  0.00000000000E+00  0.00000000000E+00  0.28128019208E+03  0.28128019210E+03  0.25500000920E-02 0. -1.
        2   -1    0    0  501    0  0.00000000000E+00  0.00000000000E+00 -0.88532377299E+03  0.88532377300E+03  0.25500000920E-02 0.  1.
    10030    2    1    2    0    0  0.00000000000E+00  0.00000000000E+00 -0.60404358091E+03  0.11666039651E+04  0.99804617315E+03 0.  0.
        1    1    3    3  502    0 -0.27906147004E+03  0.24752226088E+03 -0.68948907519E+03  0.78392458727E+03  0.50400001928E-02 0.  1.
       -1    1    3    3    0  502  0.27906147004E+03 -0.24752226088E+03  0.85445494279E+02  0.38267937782E+03  0.50400001928E-02 0. -1.
</event>
<event>
 5   0  0.2313036E-03  0.9985446E+03  0.7818609E-02  0.9310142E-01
       -1   -1    0    0    0  501  0.00000000000E+00  0.00000000000E+00  0.19973649788E+03  0.19973649794E+03  0.50400001928E-02 0. -1.
        1   -1    0    0  501    0  0.00000000000E+00  0.00000000000E+00 -0.12480084237E+04  0.12480084237E+04  0.50400001928E-02 0.  1.
    10030    2    1    2    0    0  0.00000000000E+00  0.00000000000E+00 -0.10482719258E+04  0.14477449217E+04  0.99854460477E+03 0.  0.
        3    1    3    3  502    0  0.46060081000E+03 -0.19065230891E+03 -0.48386723010E+03  0.69471498877E+03  0.10100000352E+00 0.  1.
       -3    1    3    3    0  502 -0.46060081000E+03  0.19065230891E+03 -0.56440469574E+03  0.75302993290E+03  0.10100000352E+00 0. -1.
</event>
<event>
 5   0  0.3873874E-03  0.9963941E+03  0.7818609E-02  0.9312509E-01
       -2   -1    0    0    0  501  0.00000000000E+00  0.00000000000E+00  0.23676820305E+03  0.23676820306E+03  0.25500000920E-02 0. -1.
        2   -1    0    0  501    0  0.00000000000E+00  0.00000000000E+00 -0.10482839492E+04  0.10482839492E+04  0.25500000920E-02 0.  1.
    10030    2    1    2    0    0  0.00000000000E+00  0.00000000000E+00 -0.81151574613E+03  0.12850521522E+04  0.99639411267E+03 0.  0.
        5    1    3    3  502    0  0.46689062083E+03 -0.12483388003E+03 -0.24988052400E+03  0.54408888584E+03  0.46999998093E+01 0.  1.
       -5    1    3    3    0  502 -0.46689062083E+03  0.12483388003E+03 -0.56163522213E+03  0.74096326640E+03  0.46999998093E+01 0. -1.
</event>
<event>
 5   0  0.4026829E-03  0.1023012E+04  0.7818609E-02  0.9283660E-01
        2   -1    0    0  501    0  0.00000000000E+00  0.00000000000E+00  0.46114097265E+03  0.46114097265E+03  0.25500000920E-02 0.  1.
       -2   -1    0    0    0  501  0.00000000000E+00  0.00000000000E+00 -0.56737128030E+03  0.56737128030E+03  0.25500000920E-02 0. -1.
    10030    2    1    2    0    0  0.00000000000E+00  0.00000000000E+00 -0.10623030765E+03  0.10285122530E+04  0.10230115230E+04 0.  0.
        1    1    3    3  502    0  0.40997751696E+02  0.12572185600E+03  0.44365844083E+03  0.46294666308E+03  0.50400001928E-02 0.  1.
       -1    1    3    3    0  502 -0.40997751696E+02 -0.12572185600E+03 -0.54988874848E+03  0.56556558987E+03  0.50400001928E-02 0. -1.
</event>
<event>
 5   0  0.2350769E-03  0.1004033E+04  0.7818609E-02  0.9304132E-01
       -1   -1    0    0    0  501  0.00000000000E+00  0.00000000000E+00  0.27586983176E+03  0.27586983180E+03  0.50400001928E-02 0. -1.
        1   -1    0    0  501    0  0.00000000000E+00  0.00000000000E+00 -0.91354893926E+03  0.91354893927E+03  0.50400001928E-02 0.  1.
    10030    2    1    2    0    0  0.00000000000E+00  0.00000000000E+00 -0.63767910750E+03  0.11894187711E+04  0.10040330517E+04 0.  0.
        2    1    3    3  502    0 -0.44189310440E+03  0.17856414907E+03 -0.50564479394E+03  0.69486065416E+03  0.25500000920E-02 0.  1.
       -2    1    3    3    0  502  0.44189310440E+03 -0.17856414907E+03 -0.13203431356E+03  0.49455811692E+03  0.25500000920E-02 0. -1.
</event>
<event>
 5   0  0.3895011E-03  0.9985018E+03  0.7818609E-02  0.9310190E-01
       -2   -1    0    0    0  501  0.00000000000E+00  0.00000000000E+00  0.32660666047E+03  0.32660666048E+03  0.25500000920E-02 0.  1.
        2   -1    0    0  501    0  0.00000000000E+00  0.00000000000E+00 -0.76315479866E+03  0.76315479866E+03  0.25500000920E-02 0. -1.
    10030    2    1    2    0    0  0.00000000000E+00  0.00000000000E+00 -0.43654813819E+03  0.10897614591E+04  0.99850175807E+03 0.  0.
        2    1    3    3  502    0  0.37820823252E+03 -0.21884085394E+03 -0.48183823016E+03  0.65046204082E+03  0.25500000920E-02 0.  1.
       -2    1    3    3    0  502 -0.37820823252E+03  0.21884085394E+03  0.45290091966E+02  0.43929941832E+03  0.25500000920E-02 0. -1.
</event>
<event>
 5   0  0.4026829E-03  0.1001296E+04  0.7818609E-02  0.9307124E-01
        2   -1    0    0  501    0  0.00000000000E+00  0.00000000000E+00  0.14738592285E+04  0.14738592285E+04  0.25500000920E-02 0. -1.
       -2   -1    0    0    0  501  0.00000000000E+00  0.00000000000E+00 -0.17006279770E+03  0.17006279772E+03  0.25500000920E-02 0.  1.
    10030    2    1    2    0    0  0.00000000000E+00  0.00000000000E+00  0.13037964308E+04  0.16439220262E+04  0.10012964073E+04 0.  0.
        1    1    3    3  502    0 -0.28285244399E+03 -0.67933758938E+02  0.13208724414E+04  0.13525252335E+04  0.50400001928E-02 0. -1.
       -1    1    3    3    0  502  0.28285244399E+03  0.67933758938E+02 -0.17076010600E+02  0.29139679277E+03  0.50400001928E-02 0.  1.
</event>
<event>
 5   0  0.2350769E-03  0.9884299E+03  0.7818609E-02  0.9321327E-01
       -1   -1    0    0    0  501  0.00000000000E+00  0.00000000000E+00  0.27610338181E+03  0.27610338186E+03  0.50400001928E-02 0.  1.
        1   -1    0    0  501    0  0.00000000000E+00  0.00000000000E+00 -0.88462660361E+03  0.88462660363E+03  0.50400001928E-02 0. -1.
    10030    2    1    2    0    0  0.00000000000E+00  0.00000000000E+00 -0.60852322180E+03  0.11607299855E+04  0.98842985979E+03 0.  0.
        2    1    3    3  502    0 -0.33173534942E+01 -0.47423469398E+03 -0.14095617649E+03  0.49475063770E+03  0.25500000920E-02 0.  1.
       -2    1    3    3    0  502  0.33173534942E+01  0.47423469398E+03 -0.46756704531E+03  0.66597934778E+03  0.25500000920E-02 0. -1.
</event>
<event>
 5   0  0.2405022E-03  0.1001013E+04  0.7818609E-02  0.9307435E-01
        1   -1    0    0  501    0  0.00000000000E+00  0.00000000000E+00  0.16159896373E+04  0.16159896373E+04  0.50400001928E-02 0. -1.
       -1   -1    0    0    0  501  0.00000000000E+00  0.00000000000E+00 -0.15501739885E+03  0.15501739893E+03  0.50400001928E-02 0.  1.
    10030    2    1    2    0    0  0.00000000000E+00  0.00000000000E+00  0.14609722385E+04  0.17710070363E+04  0.10010125079E+04 0.  0.
        4    1    3    3  502    0  0.28577437328E+02  0.16141259131E+03  0.15671478321E+04  0.15756981421E+04  0.12699999809E+01 0. -1.
       -4    1    3    3    0  502 -0.28577437328E+02 -0.16141259131E+03 -0.10617559360E+03  0.19530889415E+03  0.12699999809E+01 0.  1.
</event>
<event>
 5   0  0.3873874E-03  0.1000450E+04  0.7818609E-02  0.9308051E-01
       -2   -1    0    0    0  501  0.00000000000E+00  0.00000000000E+00  0.79960561375E+03  0.79960561376E+03  0.25500000920E-02 0. -1.
        2   -1    0    0  501    0  0.00000000000E+00  0.00000000000E+00 -0.31293577366E+03  0.31293577367E+03  0.25500000920E-02 0.  1.
    10030    2    1    2    0    0  0.00000000000E+00  0.00000000000E+00  0.48666984010E+03  0.11125413874E+04  0.10004503013E+04 0.  0.
        5    1    3    3  502    0 -0.65535258398E+00 -0.47955791337E+03  0.40149075116E+03  0.62545434288E+03  0.46999998093E+01 0. -1.
       -5    1    3    3    0  502  0.65535258398E+00  0.47955791337E+03  0.85179088937E+02  0.48708704454E+03  0.46999998093E+01 0.  1.
</event>
<event>
 5   0  0.2313036E-03  0.1003615E+04  0.7818609E-02  0.9304589E-01
       -1   -1    0    0    0  501  0.00000000000E+00  0.00000000000E+00  0.71332526515E+03  0.71332526517E+03  0.50400001928E-02 0. -1.
        1   -1    0    0  501    0  0.00000000000E+00  0.00000000000E+00 -0.35300988425E+03  0.35300988429E+03  0.50400001928E-02 0.  1.
    10030    2    1    2    0    0  0.00000000000E+00  0.00000000000E+00  0.36031538090E+03  0.10663351495E+04  0.10036152038E+04 0.  0.
        3    1    3    3  502    0  0.36362924862E+03 -0.29339954068E+03  0.37462990990E+03  0.59887987153E+03  0.10100000352E+00 0. -1.
       -3    1    3    3    0  502 -0.36362924862E+03  0.29339954068E+03 -0.14314528998E+02  0.46745527793E+03  0.10100000352E+00 0.  1.
</event>
<event>
 5   0  0.2313036E-03  0.1004746E+04  0.7818609E-02  0.9303355E-01
        1   -1    0    0  501    0  0.00000000000E+00  0.00000000000E+00  0.48928909696E+03  0.48928909698E+03  0.50400001928E-02 0. -1.
       -1   -1    0    0    0  501  0.00000000000E+00  0.00000000000E+00 -0.51580667523E+03  0.51580667525E+03  0.50400001928E-02 0.  1.
    10030    2    1    2    0    0  0.00000000000E+00  0.00000000000E+00 -0.26517578274E+02  0.10050957722E+04  0.10047459029E+04 0.  0.
        3    1    3    3  502    0  0.34110305990E+03 -0.31764633589E+03 -0.20074891849E+03  0.50749446367E+03  0.10100000352E+00 0.  1.
       -3    1    3    3    0  502 -0.34110305990E+03  0.31764633589E+03  0.17423134021E+03  0.49760130857E+03  0.10100000352E+00 0. -1.
</event>
<event>
 5   0  0.4140860E-03  0.9990309E+03  0.7818609E-02  0.9309608E-01
        2   -1    0    0  501    0  0.00000000000E+00  0.00000000000E+00  0.97262672069E+03  0.97262672069E+03  0.25500000920E-02 0. -1.
       -2   -1    0    0    0  501  0.00000000000E+00  0.00000000000E+00 -0.25653797311E+03  0.25653797313E+03  0.25500000920E-02 0.  1.
    10030    2    1    2    0    0  0.00000000000E+00  0.00000000000E+00  0.71608874757E+03  0.12291646938E+04  0.99903090549E+03 0.  0.
        3    1    3    3  502    0 -0.26243082919E+03 -0.30854597046E+03  0.71769000500E+03  0.82410527815E+03  0.10100000352E+00 0. -1.
       -3    1    3    3    0  502  0.26243082919E+03  0.30854597046E+03 -0.16012574243E+01  0.40505941567E+03  0.10100000352E+00 0.  1.
</event>
<event>
 5   0  0.3873874E-03  0.1050575E+04  0.7818609E-02  0.9254751E-01
       -2   -1    0    0    0  501  0.00000000000E+00  0.00000000000E+00  0.24419500837E+03  0.24419500838E+03  0.25500000920E-02 0. -1.
        2   -1    0    0  501    0  0.00000000000E+00  0.00000000000E+00 -0.11299450582E+04  0.11299450582E+04  0.25500000920E-02 0.  1.
    10030    2    1    2    0    0  0.00000000000E+00  0.00000000000E+00 -0.88575004987E+03  0.13741400666E+04  0.10505749720E+04 0.  0.
        5    1    3    3  502    0  0.24308562712E+03 -0.29972198479E+03  0.23218704371E+02  0.38663301528E+03  0.46999998093E+01 0. -1.
       -5    1    3    3    0  502 -0.24308562712E+03  0.29972198479E+03 -0.90896875424E+03  0.98750705135E+03  0.46999998093E+01 0.  1.
</event>
<event>
 5   0  0.2327595E-03  0.1001732E+04  0.7818609E-02  0.9306648E-01
        1   -1    0    0  501    0  0.00000000000E+00  0.00000000000E+00  0.89561925709E+03  0.89561925710E+03  0.50400001928E-02 0. -1.
       -1   -1    0    0    0  501  0.00000000000E+00  0.00000000000E+00 -0.28010400418E+03  0.28010400423E+03  0.50400001928E-02 0.  1.
    10030    2    1    2    0    0  0.00000000000E+00  0.00000000000E+00  0.61551525291E+03  0.11757232613E+04  0.10017315811E+04 0.  0.
        5    1    3    3  502    0 -0.23011841297E+02 -0.26193531011E+03 -0.19254979279E+03  0.32594043048E+03  0.46999998093E+01 0.  1.
       -5    1    3    3    0  502  0.23011841297E+02  0.26193531011E+03  0.80806504569E+03  0.84978283084E+03  0.46999998093E+01 0. -1.
</event>
<event>
 5   0  0.2350769E-03  0.9564795E+03  0.7818609E-02  0.9357609E-01
       -1   -1    0    0    0  501  0.00000000000E+00  0.00000000000E+00  0.26830727901E+03  0.26830727906E+03  0.50400001928E-02 0. -1.
        1   -1    0    0  501    0  0.00000000000E+00  0.00000000000E+00 -0.85243038388E+03  0.85243038389E+03  0.50400001928E-02 0.  1.
    10030    2    1    2    0    0  0.00000000000E+00  0.00000000000E+00 -0.58412310487E+03  0.11207376629E+04  0.95647953847E+03 0.  0.
        2    1    3    3  502    0  0.33432492009E+03 -0.80724932526E+02 -0.68142865330E+03  0.76330510051E+03  0.25500000920E-02 0.  1.
       -2    1    3    3    0  502 -0.33432492009E+03  0.80724932526E+02  0.97305548436E+02  0.35743256243E+03  0.25500000920E-02 0. -1.
</event>
<event>
 5   0  0.3826483E-03  0.1003051E+04  0.7818609E-02  0.9305205E-01
       -2   -1    0    0    0  501  0.00000000000E+00  0.00000000000E+00  0.24588863134E+03  0.24588863135E+03  0.25500000920E-02 0. -1.
        2   -1    0    0  501    0  0.00000000000E+00  0.00000000000E+00 -0.10229331192E+04  0.10229331192E+04  0.25500000920E-02 0.  1.
    10030    2    1    2    0    0  0.00000000000E+00  0.00000000000E+00 -0.77704448783E+03  0.12688217505E+04  0.10030505962E+04 0.  0.
        4    1    3    3  502    0  0.13426226732E+02 -0.24992923035E+02 -0.10219151841E+04  0.10223097213E+04  0.12699999809E+01 0.  1.
       -4    1    3    3    0  502 -0.13426226732E+02  0.24992923035E+02  0.24487069629E+03  0.24651202925E+03  0.12699999809E+01 0. -1.
</event>
<event>
 5   0  0.3873874E-03  0.1009580E+04  0.7818609E-02  0.9298100E-01
       -2   -1    0    0    0  501  0.00000000000E+00  0.00000000000E+00  0.26621551770E+03  0.26621551771E+03  0.25500000920E-02 0. -1.
        2   -1    0    0  501    0  0.00000000000E+00  0.00000000000E+00 -0.95716721862E+03  0.95716721863E+03  0.25500000920E-02 0.  1.
    10030    2    1    2    0    0  0.00000000000E+00  0.00000000000E+00 -0.69095170093E+03  0.12233827363E+04  0.10095796484E+04 0.  0.
        5    1    3    3  502    0 -0.38740934819E+03 -0.29688282468E+03 -0.18951308948E+03  0.52360549628E+03  0.46999998093E+01 0. -1.
       -5    1    3    3    0  502  0.38740934819E+03  0.29688282468E+03 -0.50143861145E+03  0.69977724006E+03  0.46999998093E+01 0.  1.
</event>
<event>
 5   0  0.2378609E-03  0.9949102E+03  0.7818609E-02  0.9314145E-01
        1   -1    0    0  501    0  0.00000000000E+00  0.00000000000E+00  0.89834566932E+03  0.89834566934E+03  0.50400001928E-02 0.  1.
       -1   -1    0    0    0  501  0.00000000000E+00  0.00000000000E+00 -0.27546363470E+03  0.27546363475E+03  0.50400001928E-02 0. -1.
    10030    2    1    2    0    0  0.00000000000E+00  0.00000000000E+00  0.62288203462E+03  0.11738093041E+04  0.99491017349E+03 0.  0.
        1    1    3    3  502    0  0.34308556104E+03  0.68470888702E+02 -0.10579578537E+03  0.36549789742E+03  0.50400001928E-02 0. -1.
       -1    1    3    3    0  502 -0.34308556104E+03 -0.68470888702E+02  0.72867781999E+03  0.80831140667E+03  0.50400001928E-02 0.  1.
</event>
<event>
 5   0  0.3895011E-03  0.9984600E+03  0.7818609E-02  0.9310235E-01
        2   -1    0    0  501    0  0.00000000000E+00  0.00000000000E+00  0.13176259124E+04  0.13176259124E+04  0.25500000920E-02 0. -1.
       -2   -1    0    0    0  501  0.00000000000E+00  0.00000000000E+00 -0.18915126241E+03  0.18915126243E+03  0.25500000920E-02 0.  1.
    10030    2    1    2    0    0  0.00000000000E+00  0.00000000000E+00  0.11284746499E+04  0.15067771748E+04  0.99846002368E+03 0.  0.
        2    1    3    3  502    0  0.34335410823E+02  0.32373602034E+03 -0.69264089100E+01  0.32562540818E+03  0.25500000920E-02 0.  1.
       -2    1    3    3    0  502 -0.34335410823E+02 -0.32373602034E+03  0.11354010589E+04  0.11811517666E+04  0.25500000920E-02 0. -1.
</event>
<event>
 5   0  0.2350769E-03  0.9984297E+03  0.7818609E-02  0.9310269E-01
       -1   -1    0    0    0  501  0.00000000000E+00  0.00000000000E+00  0.10509576400E+03  0.10509576412E+03  0.50400001928E-02 0. -1.
        1   -1    0    0  501    0  0.00000000000E+00  0.00000000000E+00 -0.23713179992E+04  0.23713179992E+04  0.50400001928E-02 0.  1.
    10030    2    1    2    0    0  0.00000000000E+00  0.00000000000E+00 -0.22662222352E+04  0.24764137633E+04  0.99842972104E+03 0.  0.
        2    1    3    3  502    0  0.16250894470E+03 -0.45503427724E+03 -0.82183361738E+03  0.95334980214E+03  0.25500000920E-02 0. -1.
       -2    1    3    3    0  502 -0.16250894470E+03  0.45503427724E+03 -0.14443886178E+04  0.15230639612E+04  0.25500000920E-02 0.  1.
</event>
<event>
 5   0  0.4026829E-03  0.9852214E+03  0.7818609E-02  0.9324904E-01
       -2   -1    0    0    0  501  0.00000000000E+00  0.00000000000E+00  0.15091981974E+03  0.15091981976E+03  0.25500000920E-02 0. -1.
        2   -1    0    0  501    0  0.00000000000E+00  0.00000000000E+00 -0.16079086918E+04  0.16079086918E+04  0.25500000920E-02 0.  1.
    10030    2    1    2    0    0  0.00000000000E+00  0.00000000000E+00 -0.14569888721E+04  0.17588285116E+04  0.98522137605E+03 0.  0.
        1    1    3    3  502    0 -0.48696177289E+03 -0.16753583034E+02 -0.85788026764E+03  0.98659566410E+03  0.50400001928E-02 0.  1.
       -1    1    3    3    0  502  0.48696177289E+03  0.16753583034E+02 -0.59910860446E+03  0.77223284750E+03  0.50400001928E-02 0. -1.
</event>
<event>
 5   0  0.2313036E-03  0.1006850E+04  0.7818609E-02  0.9301063E-01
        1   -1    0    0  501    0  0.00000000000E+00  0.00000000000E+00  0.43825347269E+03  0.43825347272E+03  0.50400001928E-02 0.  1.
       -1   -1    0    0    0  501  0.00000000000E+00  0.00000000000E+00 -0.57828830732E+03  0.57828830735E+03  0.50400001928E-02 0. -1.
    10030    2    1    2    0    0  0.00000000000E+00  0.00000000000E+00 -0.14003483464E+03  0.10165417801E+04  0.10068502549E+04 0.  0.
        3    1    3    3  502    0  0.37630943908E+03  0.32493386120E+03  0.97752074062E+01  0.49727896896E+03  0.10100000352E+00 0. -1.
       -3    1    3    3    0  502 -0.37630943908E+03 -0.32493386120E+03 -0.14981004204E+03  0.51926281110E+03  0.10100000352E+00 0.  1.
</event>
<event>
 5   0  0.2313036E-03  0.9965162E+03  0.7818609E-02  0.9312374E-01
       -1   -1    0    0    0  501  0.00000000000E+00  0.00000000000E+00  0.36794947621E+03  0.36794947625E+03  0.50400001928E-02 0. -1.
        1   -1    0    0  501    0  0.00000000000E+00  0.00000000000E+00 -0.67471523814E+03  0.67471523816E+03  0.50400001928E-02 0.  1.
    10030    2    1    2    0    0  0.00000000000E+00  0.00000000000E+00 -0.30676576193E+03  0.10426647144E+04  0.99651616844E+03 0.  0.
        3    1    3    3  502    0  0.16438813080E+03 -0.36942181300E+03 -0.45801034706E+03  0.61095779043E+03  0.10100000352E+00 0.  1.
       -3    1    3    3    0  502 -0.16438813080E+03  0.36942181300E+03  0.15124458513E+03  0.43170692397E+03  0.10100000352E+00 0. -1.
</event>
<event>
 5   0  0.3826483E-03  0.9929349E+03  0.7818609E-02  0.9316328E-01
        2   -1    0    0  501    0  0.00000000000E+00  0.00000000000E+00  0.54421444925E+03  0.54421444926E+03  0.25500000920E-02 0. -1.
       -2   -1    0    0    0  501  0.00000000000E+00  0.00000000000E+00 -0.45290953147E+03  0.45290953148E+03  0.25500000920E-02 0.  1.
    10030    2    1    2    0    0  0.00000000000E+00  0.00000000000E+00  0.91304917782E+02  0.99712398073E+03  0.99293486440E+03 0.  0.
        4    1    3    3  502    0 -0.30278967859E+03 -0.27772475222E+03  0.32551382517E+03  0.52418841149E+03  0.12699999809E+01 0. -1.
       -4    1    3    3    0  502  0.30278967859E+03  0.27772475222E+03 -0.23420890739E+03  0.47293556925E+03  0.12699999809E+01 0.  1.
</event>
<event>
 5   0  0.4026829E-03  0.1024960E+04  0.7818609E-02  0.9281585E-01
        2   -1    0    0  501    0  0.00000000000E+00  0.00000000000E+00  0.19174834785E+04  0.19174834785E+04  0.25500000920E-02 0.  1.
       -2   -1    0    0    0  501  0.00000000000E+00  0.00000000000E+00 -0.13696903556E+03  0.13696903558E+03  0.25500000920E-02 0. -1.
    10030    2    1    2    0    0  0.00000000000E+00  0.00000000000E+00  0.17805144429E+04  0.20544525140E+04  0.10249602193E+04 0.  0.
        1    1    3    3  502    0 -0.79358805015E+02 -0.23766988809E+03  0.17863280382E+04  0.18038161369E+04  0.50400001928E-02 0.  1.
       -1    1    3    3    0  502  0.79358805015E+02  0.23766988809E+03 -0.58135952980E+01  0.25063637715E+03  0.50400001928E-02 0. -1.
</event>
<event>
 5   0  0.1548000E-03  0.1017653E+04  0.7818609E-02  0.9289393E-01
       -4   -1    0    0    0  501  0.00000000000E+00  0.00000000000E+00  0.29499535147E+03  0.29499808523E+03  0.12699999809E+01 0. -1.
        4   -1    0    0  501    0  0.00000000000E+00  0.00000000000E+00 -0.87764816814E+03  0.87764908702E+03  0.12699999809E+01 0.  1.
    10030    2    1    2    0    0  0.00000000000E+00  0.00000000000E+00 -0.58265281667E+03  0.11726471723E+04  0.10176527334E+04 0.  0.
        2    1    3    3  502    0 -0.21707421397E+03  0.19429857161E+03 -0.77203426186E+03  0.82517273997E+03  0.25500000920E-02 0.  1.
       -2    1    3    3    0  502  0.21707421397E+03 -0.19429857161E+03  0.18938144519E+03  0.34747443228E+03  0.25500000920E-02 0. -1.
</event>
<event>
 5   0  0.2405022E-03  0.9952086E+03  0.7818609E-02  0.9313816E-01
       -1   -1    0    0    0  501  0.00000000000E+00  0.00000000000E+00  0.87376535932E+03  0.87376535933E+03  0.50400001928E-02 0.  1.
        1   -1    0    0  501    0  0.00000000000E+00  0.00000000000E+00 -0.28338274983E+03  0.28338274988E+03  0.50400001928E-02 0. -1.
    10030    2    1    2    0    0  0.00000000000E+00  0.00000000000E+00  0.59038260949E+03  0.11571481092E+04  0.99520858168E+03 0.  0.
        4    1    3    3  502    0 -0.59455470762E+02 -0.12878481853E+03 -0.25937569390E+03  0.29563126691E+03  0.12699999809E+01 0. -1.
       -4    1    3    3    0  502  0.59455470762E+02  0.12878481853E+03  0.84975830339E+03  0.86151684230E+03  0.12699999809E+01 0.  1.
</event>
<event>
 5   0  0.2327595E-03  0.9975693E+03  0.7818609E-02  0.9311215E-01
        1   -1    0    0  501    0  0.00000000000E+00  0.00000000000E+00  0.62309287218E+03  0.62309287220E+03  0.50400001928E-02 0.  1.
       -1   -1    0    0    0  501  0.00000000000E+00  0.00000000000E+00 -0.39927618119E+03  0.39927618122E+03  0.50400001928E-02 0. -1.
    10030    2    1    2    0    0  0.00000000000E+00  0.00000000000E+00  0.22381669099E+03  0.10223690534E+04  0.99756933103E+03 0.  0.
        5    1    3    3  502    0 -0.12368410156E+02  0.15183700732E+03  0.59864311888E+03  0.61774034039E+03  0.46999998093E+01 0.  1.
       -5    1    3    3    0  502  0.12368410156E+02 -0.15183700732E+03 -0.37482642789E+03  0.40462871303E+03  0.46999998093E+01 0. -1.
</event>
<event>
 5   0  0.3895011E-03  0.9965516E+03  0.7818609E-02  0.9312335E-01
       -2   -1    0    0    0  501  0.00000000000E+00  0.00000000000E+00  0.17905688105E+03  0.17905688107E+03  0.25500000920E-02 0.  1.
        2   -1    0    0  501    0  0.00000000000E+00  0.00000000000E+00 -0.13865917429E+04  0.13865917429E+04  0.25500000920E-02 0. -1.
    10030    2    1    2    0    0  0.00000000000E+00  0.00000000000E+00 -0.12075348619E+04  0.15656486240E+04  0.99655163999E+03 0.  0.
        2    1    3    3  502    0  0.97649692594E+02 -0.10064298218E+03  0.14741635988E+03  0.20346020616E+03  0.25500000920E-02 0.  1.
       -2    1    3    3    0  502 -0.97649692594E+02  0.10064298218E+03 -0.13549512218E+04  0.13621884178E+04  0.25500000920E-02 0. -1.
</event>
<event>
 5   0  0.2405022E-03  0.1032672E+04  0.7818609E-02  0.9273419E-01
        1   -1    0    0  501    0  0.00000000000E+00  0.00000000000E+00  0.48261256989E+03  0.48261256991E+03  0.50400001928E-02 0. -1.
       -1   -1    0    0    0  501  0.00000000000E+00  0.00000000000E+00 -0.55241618821E+03  0.55241618823E+03  0.50400001928E-02 0.  1.
    10030    2    1    2    0    0  0.00000000000E+00  0.00000000000E+00 -0.69803618323E+02  0.10350287581E+04  0.10326722544E+04 0.  0.
        4    1    3    3  502    0 -0.17858565464E+03 -0.28765873411E+03  0.35580949771E+03  0.49116432578E+03  0.12699999809E+01 0. -1.
       -4    1    3    3    0  502  0.17858565464E+03  0.28765873411E+03 -0.42561311603E+03  0.54386443237E+03  0.12699999809E+01 0.  1.
</event>
<event>
 5   0  0.3873874E-03  0.9274060E+03  0.7818609E-02  0.9391956E-01
       -2   -1    0    0    0  501  0.00000000000E+00  0.00000000000E+00  0.34192746607E+03  0.34192746608E+03  0.25500000920E-02 0.  1.
        2   -1    0    0  501    0  0.00000000000E+00  0.00000000000E+00 -0.62884819271E+03  0.62884819272E+03  0.25500000920E-02 0. -1.
    10030    2    1    2    0    0  0.00000000000E+00  0.00000000000E+00 -0.28692072664E+03  0.97077565880E+03  0.92740599326E+03 0.  0.
        5    1    3    3  502    0  0.14839223743E+03 -0.28242087630E+03  0.20875149998E+03  0.38128871769E+03  0.46999998093E+01 0.  1.
       -5    1    3    3    0  502 -0.14839223743E+03  0.28242087630E+03 -0.49567222662E+03  0.58948694111E+03  0.46999998093E+01 0. -1.
</event>
<event>
 5   0  0.2327595E-03  0.1001823E+04  0.7818609E-02  0.9306548E-01
       -1   -1    0    0    0  501  0.00000000000E+00  0.00000000000E+00  0.26643264055E+03  0.26643264059E+03  0.50400001928E-02 0.  1.
        1   -1    0    0  501    0  0.00000000000E+00  0.00000000000E+00 -0.94174689997E+03  0.94174689998E+03  0.50400001928E-02 0. -1.
    10030    2    1    2    0    0  0.00000000000E+00  0.00000000000E+00 -0.67531425942E+03  0.12081795406E+04  0.10018225658E+04 0.  0.
        5    1    3    3  502    0 -0.46585866655E+03 -0.16978317056E+03 -0.25204601910E+03  0.55623727666E+03  0.46999998093E+01 0.  1.
       -5    1    3    3    0  502  0.46585866655E+03  0.16978317056E+03 -0.42326824033E+03  0.65194226391E+03  0.46999998093E+01 0. -1.
</event>
<event>
 5   0  0.2378609E-03  0.1000422E+04  0.7818609E-02  0.9308082E-01
       -1   -1    0    0    0  501  0.00000000000E+00  0.00000000000E+00  0.21272880695E+03  0.21272880701E+03  0.50400001928E-02 0. -1.
        1   -1    0    0  501    0  0.00000000000E+00  0.00000000000E+00 -0.11761967722E+04  0.11761967722E+04  0.50400001928E-02 0.  1.
    10030    2    1    2    0    0  0.00000000000E+00  0.00000000000E+00 -0.96346796529E+03  0.13889255793E+04  0.10004217833E+04 0.  0.
        1    1    3    3  502    0 -0.38424493515E+03 -0.31520650005E+03 -0.40305504785E+03  0.63988489550E+03  0.50400001928E-02 0. -1.
       -1    1    3    3    0  502  0.38424493515E+03  0.31520650005E+03 -0.56041291743E+03  0.74904068375E+03  0.50400001928E-02 0.  1.
</event>
<event>
 5   0  0.3895011E-03  0.9537730E+03  0.7818609E-02  0.9360751E-01
       -2   -1    0    0    0  501  0.00000000000E+00  0.00000000000E+00  0.13687940801E+03  0.13687940804E+03  0.25500000920E-02 0. -1.
        2   -1    0    0  501    0  0.00000000000E+00  0.00000000000E+00 -0.16614678357E+04  0.16614678357E+04  0.25500000920E-02 0.  1.
    10030    2    1    2    0    0  0.00000000000E+00  0.00000000000E+00 -0.15245884276E+04  0.17983472437E+04  0.95377299983E+03 0.  0.
        2    1    3    3  502    0  0.12183513749E+03 -0.51063126845E+01  0.10698633435E+03  0.16222191868E+03  0.25500000920E-02 0. -1.
       -2    1    3    3    0  502 -0.12183513749E+03  0.51063126845E+01 -0.16315747620E+04  0.16361253250E+04  0.25500000920E-02 0.  1.
</event>
<event>
 5   0  0.2327595E-03  0.9994516E+03  0.7818609E-02  0.9309146E-01
        1   -1    0    0  501    0  0.00000000000E+00  0.00000000000E+00  0.67235930994E+03  0.67235930996E+03  0.50400001928E-02 0. -1.
       -1   -1    0    0    0  501  0.00000000000E+00  0.00000000000E+00 -0.37141730485E+03  0.37141730489E+03  0.50400001928E-02 0.  1.
    10030    2    1    2    0    0  0.00000000000E+00  0.00000000000E+00  0.30094200509E+03  0.10437766148E+04  0.99945161528E+03 0.  0.
        5    1    3    3  502    0 -0.30310489182E+03 -0.10367422016E+03 -0.25005142635E+03  0.40640955352E+03  0.46999998093E+01 0.  1.
       -5    1    3    3    0  502  0.30310489182E+03  0.10367422016E+03  0.55099343144E+03  0.63736706133E+03  0.46999998093E+01 0. -1.
</event>
<event>
 5   0  0.4026829E-03  0.9878014E+03  0.7818609E-02  0.9322026E-01
        2   -1    0    0  501    0  0.00000000000E+00  0.00000000000E+00  0.53762819589E+03  0.53762819590E+03  0.25500000920E-02 0. -1.
       -2   -1    0    0    0  501  0.00000000000E+00  0.00000000000E+00 -0.45372970304E+03  0.45372970304E+03  0.25500000920E-02 0.  1.
    10030    2    1    2    0    0  0.00000000000E+00  0.00000000000E+00  0.83898492855E+02  0.99135789894E+03  0.98780135993E+03 0.  0.
        1    1    3    3  502    0  0.23291772203E+03 -0.36316418324E+03  0.28322905822E+03  0.51609842924E+03  0.50400001928E-02 0.  1.
       -1    1    3    3    0  502 -0.23291772203E+03  0.36316418324E+03 -0.19933056537E+03  0.47525946970E+03  0.50400001928E-02 0. -1.
</event>
<event>
 5   0  0.2378609E-03  0.1016956E+04  0.7818609E-02  0.9290141E-01
        1   -1    0    0  501    0  0.00000000000E+00  0.00000000000E+00  0.99501238746E+03  0.99501238747E+03  0.50400001928E-02 0. -1.
       -1   -1    0    0    0  501  0.00000000000E+00  0.00000000000E+00 -0.25984567136E+03  0.25984567141E+03  0.50400001928E-02 0.  1.
    10030    2    1    2    0    0  0.00000000000E+00  0.00000000000E+00  0.73516671610E+03  0.12548580589E+04  0.10169555779E+04 0.  0.
        1    1    3    3  502    0  0.76575409367E+01  0.78335112383E+02 -0.25228328109E+03  0.26427614669E+03  0.50400001928E-02 0.  1.
       -1    1    3    3    0  502 -0.76575409367E+01 -0.78335112383E+02  0.98744999719E+03  0.99058191218E+03  0.50400001928E-02 0. -1.
</event>
<event>
 5   0  0.2350769E-03  0.1005570E+04  0.7818609E-02  0.9302457E-01
        1   -1    0    0  501    0  0.00000000000E+00  0.00000000000E+00  0.12156586190E+04  0.12156586190E+04  0.50400001928E-02 0. -1.
       -1   -1    0    0    0  501  0.00000000000E+00  0.00000000000E+00 -0.20794720646E+03  0.20794720652E+03  0.50400001928E-02 0.  1.
    10030    2    1    2    0    0  0.00000000000E+00  0.00000000000E+00  0.10077114126E+04  0.14236058256E+04  0.10055701147E+04 0.  0.
        2    1    3    3  502    0  0.98400886003E+02  0.32421223302E+03  0.10297657274E+04  0.10840727650E+04  0.25500000920E-02 0. -1.
       -2    1    3    3    0  502 -0.98400886003E+02 -0.32421223302E+03 -0.22054314867E+02  0.33953306056E+03  0.25500000920E-02 0.  1.
</event>
<event>
 5   0  0.3826483E-03  0.1002212E+04  0.7818609E-02  0.9306123E-01
        2   -1    0    0  501    0  0.00000000000E+00  0.00000000000E+00  0.26272901337E+04  0.26272901337E+04  0.25500000920E-02 0. -1.
       -2   -1    0    0    0  501  0.00000000000E+00  0.00000000000E+00 -0.95576422547E+02  0.95576422581E+02  0.25500000920E-02 0.  1.
    10030    2    1    2    0    0  0.00000000000E+00  0.00000000000E+00  0.25317137111E+04  0.27228665563E+04  0.10022115386E+04 0.  0.
        4    1    3    3  502    0 -0.27365593393E+03  0.26232081376E+03  0.21562471578E+04  0.21893156917E+04  0.12699999809E+01 0. -1.
       -4    1    3    3    0  502  0.27365593393E+03 -0.26232081376E+03  0.37546655335E+03  0.53355086458E+03  0.12699999809E+01 0.  1.
</event>
<event>
 5   0  0.3895011E-03  0.1005086E+04  0.7818609E-02  0.9302985E-01
       -2   -1    0    0    0  501  0.00000000000E+00  0.00000000000E+00  0.56987229089E+03  0.56987229089E+03  0.25500000920E-02 0.  1.
        2   -1    0    0  501    0  0.00000000000E+00  0.00000000000E+00 -0.44316816367E+03  0.44316816368E+03  0.25500000920E-02 0. -1.
    10030    2    1    2    0    0  0.00000000000E+00  0.00000000000E+00  0.12670412722E+03  0.10130404546E+04  0.10050855818E+04 0.  0.
        2    1    3    3  502    0  0.30184242194E+03  0.39869512163E+03  0.13131925009E+02  0.50023903802E+03  0.25500000920E-02 0.  1.
       -2    1    3    3    0  502 -0.30184242194E+03 -0.39869512163E+03  0.11357220221E+03  0.51280141655E+03  0.25500000920E-02 0. -1.
</event>
<event>
 5   0  0.3826483E-03  0.1000455E+04  0.7818609E-02  0.9308046E-01
        2   -1    0    0  501    0  0.00000000000E+00  0.00000000000E+00  0.38727803597E+03  0.38727803598E+03  0.25500000920E-02 0.  1.
       -2   -1    0    0    0  501  0.00000000000E+00  0.00000000000E+00 -0.64611829410E+03  0.64611829411E+03  0.25500000920E-02 0. -1.
    10030    2    1    2    0    0  0.00000000000E+00  0.00000000000E+00 -0.25884025813E+03  0.10333963301E+04  0.10004547445E+04 0.  0.
        4    1    3    3  502    0  0.23512063591E+03 -0.28522276539E+03  0.21871149567E+03  0.42949979111E+03  0.12699999809E+01 0.  1.
       -4    1    3    3    0  502 -0.23512063591E+03  0.28522276539E+03 -0.47755175380E+03  0.60389653898E+03  0.12699999809E+01 0. -1.
</event>
<event>
 5   0  0.2350769E-03  0.9890468E+03  0.7818609E-02  0.9320640E-01
        1   -1    0    0  501    0  0.00000000000E+00  0.00000000000E+00  0.90846334750E+03  0.90846334752E+03  0.50400001928E-02 0. -1.
       -1   -1    0    0    0  501  0.00000000000E+00  0.00000000000E+00 -0.26919456396E+03  0.26919456400E+03  0.50400001928E-02 0.  1.
    10030    2    1    2    0    0  0.00000000000E+00  0.00000000000E+00  0.63926878355E+03  0.11776579115E+04  0.98904680321E+03 0.  0.
        2    1    3    3  502    0 -0.14479735458E+03 -0.44459487673E+03  0.51134268009E+03  0.69289408628E+03  0.25500000920E-02 0. -1.
       -2    1    3    3    0  502  0.14479735458E+03  0.44459487673E+03  0.12792610346E+03  0.48476382524E+03  0.25500000920E-02 0.  1.
</event>
<event>
 5   0  0.4026829E-03  0.1022207E+04  0.7818609E-02  0.9284518E-01
        2   -1    0    0  501    0  0.00000000000E+00  0.00000000000E+00  0.24895565520E+04  0.24895565520E+04  0.25500000920E-02 0.  1.
       -2   -1    0    0    0  501  0.00000000000E+00  0.00000000000E+00 -0.10492905696E+03  0.10492905699E+03  0.25500000920E-02 0. -1.
    10030    2    1    2    0    0  0.00000000000E+00  0.00000000000E+00  0.23846274950E+04  0.25944856089E+04  0.10222070657E+04 0.  0.
        1    1    3    3  502    0 -0.23886445834E+03 -0.40018812985E+03  0.65979161097E+03  0.80779436657E+03  0.50400001928E-02 0.  1.
       -1    1    3    3    0  502  0.23886445834E+03  0.40018812985E+03  0.17248358840E+04  0.17866912424E+04  0.50400001928E-02 0. -1.
</event>
<event>
 5   0  0.2405022E-03  0.9957602E+03  0.7818609E-02  0.9313207E-01
       -1   -1    0    0    0  501  0.00000000000E+00  0.00000000000E+00  0.36673681257E+03  0.36673681260E+03  0.50400001928E-02 0. -1.
        1   -1    0    0  501    0  0.00000000000E+00  0.00000000000E+00 -0.67591953055E+03  0.67591953057E+03  0.50400001928E-02 0.  1.
    10030    2    1    2    0    0  0.00000000000E+00  0.00000000000E+00 -0.30918271798E+03  0.10426563432E+04  0.99576016031E+03 0.  0.
        4    1    3    3  502    0 -0.15749632768E+03 -0.39699510350E+03 -0.42251852725E+03  0.60077759962E+03  0.12699999809E+01 0.  1.
       -4    1    3    3    0  502  0.15749632768E+03  0.39699510350E+03  0.11333580927E+03  0.44187874355E+03  0.12699999809E+01 0. -1.
</event>
<event>
 5   0  0.2350769E-03  0.9960078E+03  0.7818609E-02  0.9312934E-01
        1   -1    0    0  501    0  0.00000000000E+00  0.00000000000E+00  0.35413952042E+03  0.35413952046E+03  0.50400001928E-02 0.  1.
       -1   -1    0    0    0  501  0.00000000000E+00  0.00000000000E+00 -0.70031124234E+03  0.70031124235E+03  0.50400001928E-02 0. -1.
    10030    2    1    2    0    0  0.00000000000E+00  0.00000000000E+00 -0.34617172191E+03  0.10544507628E+04  0.99600780627E+03 0.  0.
        2    1    3    3  502    0 -0.43591358559E+03  0.20775861827E+03 -0.44189617727E+02  0.48490929038E+03  0.25500000920E-02 0. -1.
       -2    1    3    3    0  502  0.43591358559E+03 -0.20775861827E+03 -0.30198210418E+03  0.56954147244E+03  0.25500000920E-02 0.  1.
</event>
<event>
 5   0  0.2378609E-03  0.1003525E+04  0.7818609E-02  0.9304687E-01
        1   -1    0    0  501    0  0.00000000000E+00  0.00000000000E+00  0.16321805881E+04  0.16321805881E+04  0.50400001928E-02 0. -1.
       -1   -1    0    0    0  501  0.00000000000E+00  0.00000000000E+00 -0.15425113184E+03  0.15425113193E+03  0.50400001928E-02 0.  1.
    10030    2    1    2    0    0  0.00000000000E+00  0.00000000000E+00  0.14779294563E+04  0.17864317201E+04  0.10035251929E+04 0.  0.
        1    1    3    3  502    0 -0.24426760177E+03 -0.24737898276E+03  0.13830337515E+04  0.14260593887E+04  0.50400001928E-02 0. -1.
       -1    1    3    3    0  502  0.24426760177E+03  0.24737898276E+03  0.94895704812E+02  0.36037233135E+03  0.50400001928E-02 0.  1.
</event>
<event>
 5   0  0.3826483E-03  0.9969667E+03  0.7818609E-02  0.9311878E-01
        2   -1    0    0  501    0  0.00000000000E+00  0.00000000000E+00  0.15069859892E+04  0.15069859892E+04  0.25500000920E-02 0. -1.
       -2   -1    0    0    0  501  0.00000000000E+00  0.00000000000E+00 -0.16488915570E+03  0.16488915572E+03  0.25500000920E-02 0.  1.
    10030    2    1    2    0    0  0.00000000000E+00  0.00000000000E+00  0.13420968335E+04  0.16718751449E+04  0.99696669440E+03 0.  0.
        4    1    3    3  502    0  0.19404403510E+03 -0.45398143030E+03  0.78640350208E+03  0.92853880242E+03  0.12699999809E+01 0.  1.
       -4    1    3    3    0  502 -0.19404403510E+03  0.45398143030E+03  0.55569333142E+03  0.74333634251E+03  0.12699999809E+01 0. -1.
</event>
<event>
 5   0  0.2313036E-03  0.1006727E+04  0.7818609E-02  0.9301197E-01
        1   -1    0    0  501    0  0.00000000000E+00  0.00000000000E+00  0.69099560014E+03  0.69099560016E+03  0.50400001928E-02 0.  1.
       -1   -1    0    0    0  501  0.00000000000E+00  0.00000000000E+00 -0.36668096539E+03  0.36668096543E+03  0.50400001928E-02 0. -1.
    10030    2    1    2    0    0  0.00000000000E+00  0.00000000000E+00  0.32431463475E+03  0.10576765656E+04  0.10067272397E+04 0.  0.
        3    1    3    3  502    0  0.31506089208E+02 -0.50237576004E+03  0.16314602867E+03  0.52914145066E+03  0.10100000352E+00 0. -1.
       -3    1    3    3    0  502 -0.31506089208E+02  0.50237576004E+03  0.16116860608E+03  0.52853511493E+03  0.10100000352E+00 0.  1.
</event>
<event>
 5   0  0.2327595E-03  0.1004320E+04  0.7818609E-02  0.9303819E-01
       -1   -1    0    0    0  501  0.00000000000E+00  0.00000000000E+00  0.11629251929E+03  0.11629251939E+03  0.50400001928E-02 0. -1.
        1   -1    0    0  501    0  0.00000000000E+00  0.00000000000E+00 -0.21683653107E+04  0.21683653107E+04  0.50400001928E-02 0.  1.
    10030    2    1    2    0    0  0.00000000000E+00  0.00000000000E+00 -0.20520727914E+04  0.22846578301E+04  0.10043199985E+04 0.  0.
        5    1    3    3  502    0  0.29611604052E+03 -0.32293344886E+03 -0.15840512345E+04  0.16435361649E+04  0.46999998093E+01 0.  1.
       -5    1    3    3    0  502 -0.29611604052E+03  0.32293344886E+03 -0.46802155692E+03  0.64112166520E+03  0.46999998093E+01 0. -1.
</event>
<event>
 5   0  0.2313036E-03  0.8771880E+03  0.7818609E-02  0.9454556E-01
        1   -1    0    0  501    0  0.00000000000E+00  0.00000000000E+00  0.23703267702E+03  0.23703267707E+03  0.50400001928E-02 0. -1.
       -1   -1    0    0    0  501  0.00000000000E+00  0.00000000000E+00 -0.81155344181E+03  0.81155344183E+03  0.50400001928E-02 0.  1.
    10030    2    1    2    0    0  0.00000000000E+00  0.00000000000E+00 -0.57452076479E+03  0.10485861189E+04  0.87718797277E+03 0.  0.
        3    1    3    3  502    0 -0.29773784103E+03 -0.13296654809E+03  0.63373139337E+02  0.33218080902E+03  0.10100000352E+00 0. -1.
       -3    1    3    3    0  502  0.29773784103E+03  0.13296654809E+03 -0.63789390413E+03  0.71640530988E+03  0.10100000352E+00 0.  1.
</event>
<event>
 5   0  0.3895011E-03  0.9993141E+03  0.7818609E-02  0.9309297E-01
        2   -1    0    0  501    0  0.00000000000E+00  0.00000000000E+00  0.18316727378E+04  0.18316727378E+04  0.25500000920E-02 0. -1.
       -2   -1    0    0    0  501  0.00000000000E+00  0.00000000000E+00 -0.13630010004E+03  0.13630010006E+03  0.25500000920E-02 0.  1.
    10030    2    1    2    0    0  0.00000000000E+00  0.00000000000E+00  0.16953726377E+04  0.19679728378E+04  0.99931411962E+03 0.  0.
        2    1    3    3  502    0  0.94894844855E+02  0.48367150284E+03  0.10090510037E+04  0.11229991462E+04  0.25500000920E-02 0.  1.
       -2    1    3    3    0  502 -0.94894844855E+02 -0.48367150284E+03  0.68632163405E+03  0.84497369167E+03  0.25500000920E-02 0. -1.
</event>
<event>
 5   0  0.3895011E-03  0.1000902E+04  0.7818609E-02  0.9307557E-01
        2   -1    0    0  501    0  0.00000000000E+00  0.00000000000E+00  0.22411943324E+03  0.22411943326E+03  0.25500000920E-02 0. -1.
       -2   -1    0    0    0  501  0.00000000000E+00  0.00000000000E+00 -0.11174888225E+04  0.11174888225E+04  0.25500000920E-02 0.  1.
    10030    2    1    2    0    0  0.00000000000E+00  0.00000000000E+00 -0.89336938927E+03  0.13416082558E+04  0.10009015168E+04 0.  0.
        2    1    3    3  502    0 -0.76300373789E+01 -0.48386890879E+03 -0.61762442973E+03  0.78463193573E+03  0.25500000920E-02 0.  1.
       -2    1    3    3    0  502  0.76300373789E+01  0.48386890879E+03 -0.27574495954E+03  0.55697632004E+03  0.25500000920E-02 0. -1.
</event>
<event>
 5   0  0.3826483E-03  0.1001560E+04  0.7818609E-02  0.9306836E-01
       -2   -1    0    0    0  501  0.00000000000E+00  0.00000000000E+00  0.19231538087E+03  0.19231538089E+03  0.25500000920E-02 0.  1.
        2   -1    0    0  501    0  0.00000000000E+00  0.00000000000E+00 -0.13040068010E+04  0.13040068010E+04  0.25500000920E-02 0. -1.
    10030    2    1    2    0    0  0.00000000000E+00  0.00000000000E+00 -0.11116914202E+04  0.14963221819E+04  0.10015599126E+04 0.  0.
        4    1    3    3  502    0 -0.35648560544E+03 -0.10914833459E+03 -0.10553477175E+04  0.11192657252E+04  0.12699999809E+01 0. -1.
       -4    1    3    3    0  502  0.35648560544E+03  0.10914833459E+03 -0.56343702635E+02  0.37705645672E+03  0.12699999809E+01 0.  1.
</event>
<event>
 5   0  0.1548000E-03  0.1002733E+04  0.7818609E-02  0.9305552E-01
        3   -1    0    0  501    0  0.00000000000E+00  0.00000000000E+00  0.25399872451E+03  0.25399874459E+03  0.10100000352E+00 0. -1.
       -3   -1    0    0    0  501  0.00000000000E+00  0.00000000000E+00 -0.98964485765E+03  0.98964486281E+03  0.10100000352E+00 0.  1.
    10030    2    1    2    0    0  0.00000000000E+00  0.00000000000E+00 -0.73564613315E+03  0.12436436074E+04  0.10027333589E+04 0.  0.
        2    1    3    3  502    0  0.43559604074E+03  0.24132051359E+03 -0.29562106678E+03  0.57911252458E+03  0.25500000920E-02 0. -1.
       -2    1    3    3    0  502 -0.43559604074E+03 -0.24132051359E+03 -0.44002506637E+03  0.66453108282E+03  0.25500000920E-02 0.  1.
</event>
<event>
 5   0  0.2313036E-03  0.9772800E+03  0.7818609E-02  0.9333821E-01
       -1   -1    0    0    0  501  0.00000000000E+00  0.00000000000E+00  0.45401532732E+03  0.45401532735E+03  0.50400001928E-02 0. -1.
        1   -1    0    0  501    0  0.00000000000E+00  0.00000000000E+00 -0.52590530421E+03  0.52590530423E+03  0.50400001928E-02 0.  1.
    10030    2    1    2    0    0  0.00000000000E+00  0.00000000000E+00 -0.71889976888E+02  0.97992063159E+03  0.97728003941E+03 0.  0.
        3    1    3    3  502    0 -0.18499325474E+03  0.41516865180E+03  0.14393187977E+03  0.47676399817E+03  0.10100000352E+00 0. -1.
       -3    1    3    3    0  502  0.18499325474E+03 -0.41516865180E+03 -0.21582185666E+03  0.50315663341E+03  0.10100000352E+00 0.  1.
</event>
<event>
 5   0  0.2405022E-03  0.1011400E+04  0.7818609E-02  0.9296129E-01
        1   -1    0    0  501    0  0.00000000000E+00  0.00000000000E+00  0.88107317716E+03  0.88107317717E+03  0.50400001928E-02 0.  1.
       -1   -1    0    0    0  501  0.00000000000E+00  0.00000000000E+00 -0.29025135407E+03  0.29025135411E+03  0.50400001928E-02 0. -1.
    10030    2    1    2    0    0  0.00000000000E+00  0.00000000000E+00  0.59082182309E+03  0.11713245313E+04  0.10114003811E+04 0.  0.
        4    1    3    3  502    0  0.11894771837E+03  0.10841162591E+03  0.85062048426E+03  0.86571268992E+03  0.12699999809E+01 0.  1.
       -4    1    3    3    0  502 -0.11894771837E+03 -0.10841162591E+03 -0.25979866117E+03  0.30561184137E+03  0.12699999809E+01 0. -1.
</event>
<event>
 5   0  0.3873874E-03  0.1015234E+04  0.7818609E-02  0.9291992E-01
       -2   -1    0    0    0  501  0.00000000000E+00  0.00000000000E+00  0.10731949786E+04  0.10731949786E+04  0.25500000920E-02 0.  1.
        2   -1    0    0  501    0  0.00000000000E+00  0.00000000000E+00 -0.24010083416E+03  0.24010083417E+03  0.25500000920E-02 0. -1.
    10030    2    1    2    0    0  0.00000000000E+00  0.00000000000E+00  0.83309414449E+03  0.13132958128E+04  0.10152339821E+04 0.  0.
        5    1    3    3  502    0  0.33998326456E+03  0.32633786049E+03  0.17258319489E+03  0.50188850209E+03  0.46999998093E+01 0. -1.
       -5    1    3    3    0  502 -0.33998326456E+03 -0.32633786049E+03  0.66051094959E+03  0.81140731073E+03  0.46999998093E+01 0.  1.
</event>
<event>
 5   0  0.2313036E-03  0.9928549E+03  0.7818609E-02  0.9316416E-01
        1   -1    0    0  501    0  0.00000000000E+00  0.00000000000E+00  0.23959894040E+03  0.23959894046E+03  0.50400001928E-02 0. -1.
       -1   -1    0    0    0  501  0.00000000000E+00  0.00000000000E+00 -0.10285530410E+04  0.10285530410E+04  0.50400001928E-02 0.  1.
    10030    2    1    2    0    0  0.00000000000E+00  0.00000000000E+00 -0.78895410064E+03  0.12681519815E+04  0.99285491150E+03 0.  0.
        3    1    3    3  502    0  0.60258237451E+01  0.49230936000E+03 -0.47561581426E+03  0.68455476732E+03  0.10100000352E+00 0.  1.
       -3    1    3    3    0  502 -0.60258237451E+01 -0.49230936000E+03 -0.31333828638E+03  0.58359721418E+03  0.10100000352E+00 0. -1.
</event>
<event>
 5   0  0.2350769E-03  0.1001493E+04  0.7818609E-02  0.9306909E-01
       -1   -1    0    0    0  501  0.00000000000E+00  0.00000000000E+00  0.55322817559E+03  0.55322817562E+03  0.50400001928E-02 0. -1.
        1   -1    0    0  501    0  0.00000000000E+00  0.00000000000E+00 -0.45324350777E+03  0.45324350780E+03  0.50400001928E-02 0.  1.
    10030    2    1    2    0    0  0.00000000000E+00  0.00000000000E+00  0.99984667821E+02  0.10064716834E+04  0.10014930433E+04 0.  0.
        2    1    3    3  502    0 -0.13968036462E+02 -0.32327601221E+03  0.43404993506E+03  0.54138879952E+03  0.25500000920E-02 0. -1.
       -2    1    3    3    0  502  0.13968036462E+02  0.32327601221E+03 -0.33406526724E+03  0.46508288390E+03  0.25500000920E-02 0.  1.
</event>
<event>
 5   0  0.4140860E-03  0.8936391E+03  0.7818609E-02  0.9433568E-01
       -2   -1    0    0    0  501  0.00000000000E+00  0.00000000000E+00  0.19872547184E+03  0.19872547186E+03  0.25500000920E-02 0. -1.
        2   -1    0    0  501    0  0.00000000000E+00  0.00000000000E+00 -0.10046408192E+04  0.10046408192E+04  0.25500000920E-02 0.  1.
    10030    2    1    2    0    0  0.00000000000E+00  0.00000000000E+00 -0.80591534735E+03  0.12033662911E+04  0.89363912367E+03 0.  0.
        3    1    3    3  502    0 -0.11058330530E+03 -0.31734444689E+03 -0.79948592118E+03  0.86724501368E+03  0.10100000352E+00 0.  1.
       -3    1    3    3    0  502  0.11058330530E+03  0.31734444689E+03 -0.64294261722E+01  0.33612127738E+03  0.10100000352E+00 0. -1.
</event>
<event>
 5   0  0.2313036E-03  0.9974236E+03  0.7818609E-02  0.9311375E-01
       -1   -1    0    0    0  501  0.00000000000E+00  0.00000000000E+00  0.32825368753E+03  0.32825368756E+03  0.50400001928E-02 0.  1.
        1   -1    0    0  501    0  0.00000000000E+00  0.00000000000E+00 -0.75768667354E+03  0.75768667356E+03  0.50400001928E-02 0. -1.
    10030    2    1    2    0    0  0.00000000000E+00  0.00000000000E+00 -0.42943298602E+03  0.10859403611E+04  0.99742357022E+03 0.  0.
        3    1    3    3  502    0  0.21022583265E+03 -0.36718266233E+02 -0.70546214644E+03  0.73703458674E+03  0.10100000352E+00 0. -1.
       -3    1    3    3    0  502 -0.21022583265E+03  0.36718266233E+02  0.27602916043E+03  0.34890577438E+03  0.10100000352E+00 0.  1.
</event>
<event>
 5   0  0.2313036E-03  0.1001290E+04  0.7818609E-02  0.9307131E-01
        1   -1    0    0  501    0  0.00000000000E+00  0.00000000000E+00  0.20611363522E+03  0.20611363529E+03  0.50400001928E-02 0.  1.
       -1   -1    0    0    0  501  0.00000000000E+00  0.00000000000E+00 -0.12160538474E+04  0.12160538474E+04  0.50400001928E-02 0. -1.
    10030    2    1    2    0    0  0.00000000000E+00  0.00000000000E+00 -0.10099402122E+04  0.14221674827E+04  0.10012897266E+04 0.  0.
        3    1    3    3  502    0  0.32714215870E+02  0.20457952721E+03  0.14236999315E+03  0.25138064370E+03  0.10100000352E+00 0.  1.
       -3    1    3    3    0  502 -0.32714215870E+02 -0.20457952721E+03 -0.11523102053E+04  0.11707868390E+04  0.10100000352E+00 0. -1.
</event>
<event>
 5   0  0.2313036E-03  0.9999617E+03  0.7818609E-02  0.9308587E-01
        1   -1    0    0  501    0  0.00000000000E+00  0.00000000000E+00  0.12961082435E+04  0.12961082435E+04  0.50400001928E-02 0.  1.
       -1   -1    0    0    0  501  0.00000000000E+00  0.00000000000E+00 -0.19287033360E+03  0.19287033367E+03  0.50400001928E-02 0. -1.
    10030    2    1    2    0    0  0.00000000000E+00  0.00000000000E+00  0.11032379099E+04  0.14889785772E+04  0.99996165801E+03 0.  0.
        3    1    3    3  502    0  0.25844109501E+03 -0.21365577773E+03  0.11038489240E+04  0.11536563822E+04  0.10100000352E+00 0.  1.
       -3    1    3    3    0  502 -0.25844109501E+03  0.21365577773E+03 -0.61101405398E+00  0.33532219504E+03  0.10100000352E+00 0. -1.
</event>
<event>
 5   0  0.1548000E-03  0.1033482E+04  0.7818609E-02  0.9272566E-01
        4   -1    0    0  501    0  0.00000000000E+00  0.00000000000E+00  0.12519892091E+04  0.12519898532E+04  0.12699999809E+01 0.  1.
       -4   -1    0    0    0  501  0.00000000000E+00  0.00000000000E+00 -0.21327483169E+03  0.21327861293E+03  0.12699999809E+01 0. -1.
    10030    2    1    2    0    0  0.00000000000E+00  0.00000000000E+00  0.10387143774E+04  0.14652684661E+04  0.10334815528E+04 0.  0.
        2    1    3    3  502    0  0.22863483144E+02  0.50500061881E+03  0.36749604989E+03  0.62498136816E+03  0.25500000920E-02 0. -1.
       -2    1    3    3    0  502 -0.22863483144E+02 -0.50500061881E+03  0.67121832751E+03  0.84028709799E+03  0.25500000920E-02 0.  1.
</event>
<event>
 5   0  0.2405022E-03  0.9847874E+03  0.7818609E-02  0.9325389E-01
        1   -1    0    0  501    0  0.00000000000E+00  0.00000000000E+00  0.12031187483E+04  0.12031187483E+04  0.50400001928E-02 0. -1.
       -1   -1    0    0    0  501  0.00000000000E+00  0.00000000000E+00 -0.20151921291E+03  0.20151921297E+03  0.50400001928E-02 0.  1.
    10030    2    1    2    0    0  0.00000000000E+00  0.00000000000E+00  0.10015995354E+04  0.14046379613E+04  0.98478737449E+03 0.  0.
        4    1    3    3  502    0  0.16668260181E+03 -0.13220156184E+03  0.11341791449E+04  0.11539602629E+04  0.12699999809E+01 0. -1.
       -4    1    3    3    0  502 -0.16668260181E+03  0.13220156184E+03 -0.13257960953E+03  0.25067769837E+03  0.12699999809E+01 0.  1.
</event>
<event>
 5   0  0.2350769E-03  0.9964531E+03  0.7818609E-02  0.9312443E-01
        1   -1    0    0  501    0  0.00000000000E+00  0.00000000000E+00  0.90068296214E+03  0.90068296215E+03  0.50400001928E-02 0.  1.
       -1   -1    0    0    0  501  0.00000000000E+00  0.00000000000E+00 -0.27560165880E+03  0.27560165884E+03  0.50400001928E-02 0. -1.
    10030    2    1    2    0    0  0.00000000000E+00  0.00000000000E+00  0.62508130334E+03  0.11762846210E+04  0.99645314682E+03 0.  0.
        2    1    3    3  502    0  0.34978411390E+03  0.33758022791E+03  0.44142513039E+03  0.65663192304E+03  0.25500000920E-02 0.  1.
       -2    1    3    3    0  502 -0.34978411390E+03 -0.33758022791E+03  0.18365617295E+03  0.51965269795E+03  0.25500000920E-02 0. -1.
</event>
<event>
 5   0  0.4140860E-03  0.9961346E+03  0.7818609E-02  0.9312794E-01
       -2   -1    0    0    0  501  0.00000000000E+00  0.00000000000E+00  0.31904293245E+03  0.31904293246E+03  0.25500000920E-02 0. -1.
        2   -1    0    0  501    0  0.00000000000E+00  0.00000000000E+00 -0.77754755708E+03  0.77754755708E+03  0.25500000920E-02 0.  1.
    10030    2    1    2    0    0  0.00000000000E+00  0.00000000000E+00 -0.45850462463E+03  0.10965904895E+04  0.99613463496E+03 0.  0.
        3    1    3    3  502    0  0.34031758618E+03  0.24230799032E+03 -0.52778619129E+03  0.67311774271E+03  0.10100000352E+00 0.  1.
       -3    1    3    3    0  502 -0.34031758618E+03 -0.24230799032E+03  0.69281566660E+02  0.42347274684E+03  0.10100000352E+00 0. -1.
</event>
<event>
 5   0  0.3826483E-03  0.9988703E+03  0.7818609E-02  0.9309785E-01
        2   -1    0    0  501    0  0.00000000000E+00  0.00000000000E+00  0.69637436783E+03  0.69637436783E+03  0.25500000920E-02 0.  1.
       -2   -1    0    0    0  501  0.00000000000E+00  0.00000000000E+00 -0.35819160097E+03  0.35819160097E+03  0.25500000920E-02 0. -1.
    10030    2    1    2    0    0  0.00000000000E+00  0.00000000000E+00  0.33818276686E+03  0.10545659688E+04  0.99887026123E+03 0.  0.
        4    1    3    3  502    0 -0.42066272643E+03 -0.26852465107E+03  0.18943273733E+03  0.53380613757E+03  0.12699999809E+01 0.  1.
       -4    1    3    3    0  502  0.42066272643E+03  0.26852465107E+03  0.14875002953E+03  0.52075983123E+03  0.12699999809E+01 0. -1.
</event>
<event>
 5   0  0.3826483E-03  0.9859067E+03  0.7818609E-02  0.9324139E-01
       -2   -1    0    0    0  501  0.00000000000E+00  0.00000000000E+00  0.18970451008E+03  0.18970451009E+03  0.25500000920E-02 0. -1.
        2   -1    0    0  501    0  0.00000000000E+00  0.00000000000E+00 -0.12809553114E+04  0.12809553114E+04  0.25500000920E-02 0.  1.
    10030    2    1    2    0    0  0.00000000000E+00  0.00000000000E+00 -0.10912508013E+04  0.14706598215E+04  0.98590668886E+03 0.  0.
        4    1    3    3  502    0 -0.27218284171E+03 -0.31837385941E+03 -0.15791424968E+03  0.44764264411E+03  0.12699999809E+01 0. -1.
       -4    1    3    3    0  502  0.27218284171E+03  0.31837385941E+03 -0.93333655160E+03  0.10230171773E+04  0.12699999809E+01 0.  1.
</event>
<event>
 5   0  0.2327595E-03  0.1001914E+04  0.7818609E-02  0.9306448E-01
       -1   -1    0    0    0  501  0.00000000000E+00  0.00000000000E+00  0.98390598077E+02  0.98390598206E+02  0.50400001928E-02 0. -1.
        1   -1    0    0  501    0  0.00000000000E+00  0.00000000000E+00 -0.25506272801E+04  0.25506272801E+04  0.50400001928E-02 0.  1.
    10030    2    1    2    0    0  0.00000000000E+00  0.00000000000E+00 -0.24522366820E+04  0.26490178783E+04  0.10019136564E+04 0.  0.
        5    1    3    3  502    0 -0.49658110665E+03  0.57390689120E+02 -0.11404782903E+04  0.12452306241E+04  0.46999998093E+01 0.  1.
       -5    1    3    3    0  502  0.49658110665E+03 -0.57390689120E+02 -0.13117583917E+04  0.14037872542E+04  0.46999998093E+01 0. -1.
</event>
<event>
 5   0  0.2313036E-03  0.1003435E+04  0.7818609E-02  0.9304786E-01
        1   -1    0    0  501    0  0.00000000000E+00  0.00000000000E+00  0.62087713211E+03  0.62087713213E+03  0.50400001928E-02 0. -1.
       -1   -1    0    0    0  501  0.00000000000E+00  0.00000000000E+00 -0.40542676385E+03  0.40542676389E+03  0.50400001928E-02 0.  1.
    10030    2    1    2    0    0  0.00000000000E+00  0.00000000000E+00  0.21545036825E+03  0.10263038960E+04  0.10034345150E+04 0.  0.
        3    1    3    3  502    0  0.76050481852E+02  0.17375787811E+03 -0.36734418607E+03  0.41342137975E+03  0.10100000352E+00 0.  1.
       -3    1    3    3    0  502 -0.76050481852E+02 -0.17375787811E+03  0.58279455432E+03  0.61288251627E+03  0.10100000352E+00 0. -1.
</event>
<event>
 5   0  0.3826483E-03  0.1000027E+04  0.7818609E-02  0.9308515E-01
        2   -1    0    0  501    0  0.00000000000E+00  0.00000000000E+00  0.21838778601E+04  0.21838778601E+04  0.25500000920E-02 0. -1.
       -2   -1    0    0    0  501  0.00000000000E+00  0.00000000000E+00 -0.11448147476E+03  0.11448147479E+03  0.25500000920E-02 0.  1.
    10030    2    1    2    0    0  0.00000000000E+00  0.00000000000E+00  0.20693963853E+04  0.22983593349E+04  0.10000271159E+04 0.  0.
        4    1    3    3  502    0 -0.10903764800E+03 -0.31480768300E+03  0.18916235874E+04  0.19207380080E+04  0.12699999809E+01 0. -1.
       -4    1    3    3    0  502  0.10903764800E+03  0.31480768300E+03  0.17777279794E+03  0.37762132692E+03  0.12699999809E+01 0.  1.
</event>
<event>
 5   0  0.3873874E-03  0.9688330E+03  0.7818609E-02  0.9343405E-01
        2   -1    0    0  501    0  0.00000000000E+00  0.00000000000E+00  0.55871154400E+03  0.55871154401E+03  0.25500000920E-02 0. -1.
       -2   -1    0    0    0  501  0.00000000000E+00  0.00000000000E+00 -0.42000087197E+03  0.42000087198E+03  0.25500000920E-02 0.  1.
    10030    2    1    2    0    0  0.00000000000E+00  0.00000000000E+00  0.13871067203E+03  0.97871241599E+03  0.96883297976E+03 0.  0.
        5    1    3    3  502    0 -0.34473365055E+02  0.44861077648E+03  0.25062088195E+03  0.51504655920E+03  0.46999998093E+01 0.  1.
       -5    1    3    3    0  502  0.34473365055E+02 -0.44861077648E+03 -0.11191020992E+03  0.46366585679E+03  0.46999998093E+01 0. -1.
</event>
<event>
 5   0  0.2327595E-03  0.1001400E+04  0.7818609E-02  0.9307011E-01
       -1   -1    0    0    0  501  0.00000000000E+00  0.00000000000E+00  0.20998554765E+03  0.20998554771E+03  0.50400001928E-02 0.  1.
        1   -1    0    0  501    0  0.00000000000E+00  0.00000000000E+00 -0.11938941300E+04  0.11938941300E+04  0.50400001928E-02 0. -1.
    10030    2    1    2    0    0  0.00000000000E+00  0.00000000000E+00 -0.98390858232E+03  0.14038796777E+04  0.10014000455E+04 0.  0.
        5    1    3    3  502    0  0.49022346840E+03  0.60060017430E+02 -0.60715201650E+03  0.78267612446E+03  0.46999998093E+01 0. -1.
       -5    1    3    3    0  502 -0.49022346840E+03 -0.60060017430E+02 -0.37675656583E+03  0.62120355323E+03  0.46999998093E+01 0.  1.
</event>
<event>
 5   0  0.2313036E-03  0.1000909E+04  0.7818609E-02  0.9307549E-01
       -1   -1    0    0    0  501  0.00000000000E+00  0.00000000000E+00  0.29054564809E+03  0.29054564813E+03  0.50400001928E-02 0. -1.
        1   -1    0    0  501    0  0.00000000000E+00  0.00000000000E+00 -0.86201466443E+03  0.86201466444E+03  0.50400001928E-02 0.  1.
    10030    2    1    2    0    0  0.00000000000E+00  0.00000000000E+00 -0.57146901634E+03  0.11525603126E+04  0.10009088058E+04 0.  0.
        3    1    3    3  502    0  0.37001784273E+02 -0.23685807332E+03 -0.79159351610E+03  0.82709804973E+03  0.10100000352E+00 0.  1.
       -3    1    3    3    0  502 -0.37001784273E+02  0.23685807332E+03  0.22012449976E+03  0.32546226284E+03  0.10100000352E+00 0. -1.
</event>
<event>
 5   0  0.3895011E-03  0.9938707E+03  0.7818609E-02  0.9315293E-01
        2   -1    0    0  501    0  0.00000000000E+00  0.00000000000E+00  0.10092043690E+04  0.10092043690E+04  0.25500000920E-02 0.  1.
       -2   -1    0    0    0  501  0.00000000000E+00  0.00000000000E+00 -0.24469252224E+03  0.24469252226E+03  0.25500000920E-02 0. -1.
    10030    2    1    2    0    0  0.00000000000E+00  0.00000000000E+00  0.76451184675E+03  0.12538968913E+04  0.99387074113E+03 0.  0.
        2    1    3    3  502    0  0.93749830161E+02 -0.33176553202E+03  0.83378431511E+03  0.90224923554E+03  0.25500000920E-02 0.  1.
       -2    1    3    3    0  502 -0.93749830161E+02  0.33176553202E+03 -0.69272468357E+02  0.35164765572E+03  0.25500000920E-02 0. -1.
</event>
<event>
 5   0  0.3873874E-03  0.1003751E+04  0.7818609E-02  0.9304440E-01
        2   -1    0    0  501    0  0.00000000000E+00  0.00000000000E+00  0.95474711649E+03  0.95474711649E+03  0.25500000920E-02 0.  1.
       -2   -1    0    0    0  501  0.00000000000E+00  0.00000000000E+00 -0.26381750092E+03  0.26381750093E+03  0.25500000920E-02 0. -1.
    10030    2    1    2    0    0  0.00000000000E+00  0.00000000000E+00  0.69092961557E+03  0.12185646174E+04  0.10037509617E+04 0.  0.
        5    1    3    3  502    0 -0.56908457714E+02  0.14627566748E+03 -0.23322729219E+03  0.28116223657E+03  0.46999998093E+01 0. -1.
       -5    1    3    3    0  502  0.56908457714E+02 -0.14627566748E+03  0.92415690776E+03  0.93740238085E+03  0.46999998093E+01 0.  1.
</event>
<event>
 5   0  0.4026829E-03  0.9712958E+03  0.7818609E-02  0.9340600E-01
       -2   -1    0    0    0  501  0.00000000000E+00  0.00000000000E+00  0.17539705388E+03  0.17539705389E+03  0.25500000920E-02 0.  1.
        2   -1    0    0  501    0  0.00000000000E+00  0.00000000000E+00 -0.13446855019E+04  0.13446855019E+04  0.25500000920E-02 0. -1.
    10030    2    1    2    0    0  0.00000000000E+00  0.00000000000E+00 -0.11692884480E+04  0.15200825558E+04  0.97129578489E+03 0.  0.
        1    1    3    3  502    0 -0.19501175170E+03 -0.41456348406E+03 -0.83680632093E+03  0.95401115528E+03  0.50400001928E-02 0. -1.
       -1    1    3    3    0  502  0.19501175170E+03  0.41456348406E+03 -0.33248212709E+03  0.56607140052E+03  0.50400001928E-02 0.  1.
</event>
<event>
 5   0  0.3826483E-03  0.1007417E+04  0.7818609E-02  0.9300448E-01
       -2   -1    0    0    0  501  0.00000000000E+00  0.00000000000E+00  0.55001858636E+03  0.55001858637E+03  0.25500000920E-02 0. -1.
        2   -1    0    0  501    0  0.00000000000E+00  0.00000000000E+00 -0.46129727691E+03  0.46129727691E+03  0.25500000920E-02 0.  1.
    10030    2    1    2    0    0  0.00000000000E+00  0.00000000000E+00  0.88721309455E+02  0.10113158633E+04  0.10074166489E+04 0.  0.
        4    1    3    3  502    0 -0.22128698151E+03  0.43460328207E+03  0.17083448405E+03  0.51675330170E+03  0.12699999809E+01 0. -1.
       -4    1    3    3    0  502  0.22128698151E+03 -0.43460328207E+03 -0.82113174600E+02  0.49456256158E+03  0.12699999809E+01 0.  1.
</event>
<event>
 5   0  0.3873874E-03  0.1003705E+04  0.7818609E-02  0.9304490E-01
       -2   -1    0    0    0  501  0.00000000000E+00  0.00000000000E+00  0.19736212664E+03  0.19736212666E+03  0.25500000920E-02 0. -1.
        2   -1    0    0  501    0  0.00000000000E+00  0.00000000000E+00 -0.12761119267E+04  0.12761119267E+04  0.25500000920E-02 0.  1.
    10030    2    1    2    0    0  0.00000000000E+00  0.00000000000E+00 -0.10787498001E+04  0.14734740534E+04  0.10037054622E+04 0.  0.
        5    1    3    3  502    0  0.89333169742E+02  0.49342987926E+03 -0.51073457990E+03  0.71576907035E+03  0.46999998093E+01 0.  1.
       -5    1    3    3    0  502 -0.89333169742E+02 -0.49342987926E+03 -0.56801522018E+03  0.75770498304E+03  0.46999998093E+01 0. -1.
</event>
<event>
 5   0  0.4140860E-03  0.1002765E+04  0.7818609E-02  0.9305517E-01
        2   -1    0    0  501    0  0.00000000000E+00  0.00000000000E+00  0.35859629135E+03  0.35859629136E+03  0.25500000920E-02 0. -1.
       -2   -1    0    0    0  501  0.00000000000E+00  0.00000000000E+00 -0.70102345929E+03  0.70102345930E+03  0.25500000920E-02 0.  1.
    10030    2    1    2    0    0  0.00000000000E+00  0.00000000000E+00 -0.34242716794E+03  0.10596197507E+04  0.10027650027E+04 0.  0.
        3    1    3    3  502    0 -0.45017584307E+03 -0.21261823065E+03 -0.23390348423E+03  0.55006877008E+03  0.10100000352E+00 0.  1.
       -3    1    3    3    0  502  0.45017584307E+03  0.21261823065E+03 -0.10852368372E+03  0.50955098058E+03  0.10100000352E+00 0. -1.
</event>
<event>
 5   0  0.2350769E-03  0.9898437E+03  0.7818609E-02  0.9319755E-01
       -1   -1    0    0    0  501  0.00000000000E+00  0.00000000000E+00  0.50942574996E+03  0.50942574998E+03  0.50400001928E-02 0.  1.
        1   -1    0    0  501    0  0.00000000000E+00  0.00000000000E+00 -0.48083089303E+03  0.48083089306E+03  0.50400001928E-02 0. -1.
    10030    2    1    2    0    0  0.00000000000E+00  0.00000000000E+00  0.28594856921E+02  0.99025664304E+03  0.98984370142E+03 0.  0.
        2    1    3    3  502    0 -0.18606871821E+03 -0.22425989977E+03 -0.38591141799E+03  0.48357180758E+03  0.25500000920E-02 0. -1.
       -2    1    3    3    0  502  0.18606871821E+03  0.22425989977E+03  0.41450627491E+03  0.50668483546E+03  0.25500000920E-02 0.  1.
</event>
<event>
 5   0  0.3873874E-03  0.9995623E+03  0.7818609E-02  0.9309025E-01
        2   -1    0    0  501    0  0.00000000000E+00  0.00000000000E+00  0.76750241230E+03  0.76750241230E+03  0.25500000920E-02 0.  1.
       -2   -1    0    0    0  501  0.00000000000E+00  0.00000000000E+00 -0.32544677757E+03  0.32544677758E+03  0.25500000920E-02 0. -1.
    10030    2    1    2    0    0  0.00000000000E+00  0.00000000000E+00  0.44205563473E+03  0.10929491899E+04  0.99956227793E+03 0.  0.
        5    1    3    3  502    0  0.22451265078E+03  0.90638430237E+02  0.69906695359E+03  0.73982291867E+03  0.46999998093E+01 0.  1.
       -5    1    3    3    0  502 -0.22451265078E+03 -0.90638430237E+02 -0.25701131886E+03  0.35312627121E+03  0.46999998093E+01 0. -1.
</event>
<event>
 5   0  0.2327595E-03  0.1000800E+04  0.7818609E-02  0.9307668E-01
       -1   -1    0    0    0  501  0.00000000000E+00  0.00000000000E+00  0.51730221397E+03  0.51730221399E+03  0.50400001928E-02 0. -1.
        1   -1    0    0  501    0  0.00000000000E+00  0.00000000000E+00 -0.48404984225E+03  0.48404984227E+03  0.50400001928E-02 0.  1.
    10030    2    1    2    0    0  0.00000000000E+00  0.00000000000E+00  0.33252371719E+02  0.10013520563E+04  0.10007997903E+04 0.  0.
        5    1    3    3  502    0 -0.34485472694E+03  0.92379095247E+02 -0.33416575013E+03  0.48902711427E+03  0.46999998093E+01 0.  1.
       -5    1    3    3    0  502  0.34485472694E+03 -0.92379095247E+02  0.36741812185E+03  0.51232494200E+03  0.46999998093E+01 0. -1.
</event>
<event>
 5   0  0.2327595E-03  0.1005055E+04  0.7818609E-02  0.9303018E-01
        1   -1    0    0  501    0  0.00000000000E+00  0.00000000000E+00  0.12726004804E+04  0.12726004804E+04  0.50400001928E-02 0. -1.
       -1   -1    0    0    0  501  0.00000000000E+00  0.00000000000E+00 -0.19843931694E+03  0.19843931700E+03  0.50400001928E-02 0.  1.
    10030    2    1    2    0    0  0.00000000000E+00  0.00000000000E+00  0.10741611635E+04  0.14710397974E+04  0.10050551629E+04 0.  0.
        5    1    3    3  502    0  0.67615685150E+02  0.45389255722E+03  0.23740375091E+03  0.51669426678E+03  0.46999998093E+01 0.  1.
       -5    1    3    3    0  502 -0.67615685150E+02 -0.45389255722E+03  0.83675741257E+03  0.95434553065E+03  0.46999998093E+01 0. -1.
</event>
<event>
 5   0  0.2327595E-03  0.9993676E+03  0.7818609E-02  0.9309239E-01
        1   -1    0    0  501    0  0.00000000000E+00  0.00000000000E+00  0.57805597548E+03  0.57805597550E+03  0.50400001928E-02 0. -1.
       -1   -1    0    0    0  501  0.00000000000E+00  0.00000000000E+00 -0.43193720564E+03  0.43193720567E+03  0.50400001928E-02 0.  1.
    10030    2    1    2    0    0  0.00000000000E+00  0.00000000000E+00  0.14611876984E+03  0.10099931812E+04  0.99936756556E+03 0.  0.
        5    1    3    3  502    0  0.37747164969E+03 -0.17631830019E+03 -0.20571545092E+03  0.46466539149E+03  0.46999998093E+01 0.  1.
       -5    1    3    3    0  502 -0.37747164969E+03  0.17631830019E+03  0.35183422076E+03  0.54532778968E+03  0.46999998093E+01 0. -1.
</event>
<event>
 5   0  0.2405022E-03  0.1000429E+04  0.7818609E-02  0.9308074E-01
       -1   -1    0    0    0  501  0.00000000000E+00  0.00000000000E+00  0.35185833769E+03  0.35185833773E+03  0.50400001928E-02 0.  1.
        1   -1    0    0  501    0  0.00000000000E+00  0.00000000000E+00 -0.71112350356E+03  0.71112350358E+03  0.50400001928E-02 0. -1.
    10030    2    1    2    0    0  0.00000000000E+00  0.00000000000E+00 -0.35926516586E+03  0.10629818413E+04  0.10004293756E+04 0.  0.
        4    1    3    3  502    0  0.32059067883E+03  0.48855027518E+02 -0.58429714074E+03  0.66825890090E+03  0.12699999809E+01 0. -1.
       -4    1    3    3    0  502 -0.32059067883E+03 -0.48855027518E+02  0.22503197487E+03  0.39472294040E+03  0.12699999809E+01 0.  1.
</event>
<event>
 5   0  0.4140860E-03  0.1021668E+04  0.7818609E-02  0.9285094E-01
       -2   -1    0    0    0  501  0.00000000000E+00  0.00000000000E+00  0.13521901646E+03  0.13521901648E+03  0.25500000920E-02 0. -1.
        2   -1    0    0  501    0  0.00000000000E+00  0.00000000000E+00 -0.19298418709E+04  0.19298418709E+04  0.25500000920E-02 0.  1.
    10030    2    1    2    0    0  0.00000000000E+00  0.00000000000E+00 -0.17946228545E+04  0.20650608874E+04  0.10216678907E+04 0.  0.
        3    1    3    3  502    0 -0.32885529299E+03  0.20771304876E+03 -0.22796829441E+03  0.45084372881E+03  0.10100000352E+00 0. -1.
       -3    1    3    3    0  502  0.32885529299E+03 -0.20771304876E+03 -0.15666545601E+04  0.16142171586E+04  0.10100000352E+00 0.  1.
</event>
<event>
 5   0  0.3873874E-03  0.1002105E+04  0.7818609E-02  0.9306239E-01
       -2   -1    0    0    0  501  0.00000000000E+00  0.00000000000E+00  0.14544247858E+03  0.14544247860E+03  0.25500000920E-02 0. -1.
        2   -1    0    0  501    0  0.00000000000E+00  0.00000000000E+00 -0.17261366492E+04  0.17261366492E+04  0.25500000920E-02 0.  1.
    10030    2    1    2    0    0  0.00000000000E+00  0.00000000000E+00 -0.15806941706E+04  0.18715791278E+04  0.10021049699E+04 0.  0.
        5    1    3    3  502    0 -0.65264447183E+02  0.41520618801E+03 -0.28100328509E+03  0.50560910085E+03  0.46999998093E+01 0. -1.
       -5    1    3    3    0  502  0.65264447183E+02 -0.41520618801E+03 -0.12996908855E+04  0.13659700270E+04  0.46999998093E+01 0.  1.
</event>
<event>
 5   0  0.2405022E-03  0.1006325E+04  0.7818609E-02  0.9301635E-01
       -1   -1    0    0    0  501  0.00000000000E+00  0.00000000000E+00  0.28369639696E+03  0.28369639700E+03  0.50400001928E-02 0. -1.
        1   -1    0    0  501    0  0.00000000000E+00  0.00000000000E+00 -0.89240613151E+03  0.89240613152E+03  0.50400001928E-02 0.  1.
    10030    2    1    2    0    0  0.00000000000E+00  0.00000000000E+00 -0.60870973455E+03  0.11761025285E+04  0.10063248067E+04 0.  0.
        4    1    3    3  502    0 -0.34543276746E+03  0.41332650067E+02 -0.72919141041E+03  0.80793187256E+03  0.12699999809E+01 0.  1.
       -4    1    3    3    0  502  0.34543276746E+03 -0.41332650067E+02  0.12048167585E+03  0.36817065596E+03  0.12699999809E+01 0. -1.
</event>
<event>
 5   0  0.3895011E-03  0.9987481E+03  0.7818609E-02  0.9309919E-01
       -2   -1    0    0    0  501  0.00000000000E+00  0.00000000000E+00  0.29072905723E+03  0.29072905724E+03  0.25500000920E-02 0. -1.
        2   -1    0    0  501    0  0.00000000000E+00  0.00000000000E+00 -0.85775551382E+03  0.85775551382E+03  0.25500000920E-02 0.  1.
    10030    2    1    2    0    0  0.00000000000E+00  0.00000000000E+00 -0.56702645659E+03  0.11484845711E+04  0.99874812015E+03 0.  0.
        2    1    3    3  502    0  0.36473682819E+03 -0.18531151155E+03  0.45777224960E+02  0.41166596226E+03  0.25500000920E-02 0. -1.
       -2    1    3    3    0  502 -0.36473682819E+03  0.18531151155E+03 -0.61280368155E+03  0.73681860880E+03  0.25500000920E-02 0.  1.
</event>
<event>
 5   0  0.3895011E-03  0.9937800E+03  0.7818609E-02  0.9315393E-01
        2   -1    0    0  501    0  0.00000000000E+00  0.00000000000E+00  0.67010889143E+03  0.67010889143E+03  0.25500000920E-02 0.  1.
       -2   -1    0    0    0  501  0.00000000000E+00  0.00000000000E+00 -0.36844706040E+03  0.36844706041E+03  0.25500000920E-02 0. -1.
    10030    2    1    2    0    0  0.00000000000E+00  0.00000000000E+00  0.30166183102E+03  0.10385559518E+04  0.99377995794E+03 0.  0.
        2    1    3    3  502    0 -0.44464351841E+03 -0.20731323006E+03  0.23320506609E+03  0.54320459928E+03  0.25500000920E-02 0.  1.
       -2    1    3    3    0  502  0.44464351841E+03  0.20731323006E+03  0.68456764930E+02  0.49535135256E+03  0.25500000920E-02 0. -1.
</event>
<event>
 5   0  0.2405022E-03  0.9988752E+03  0.7818609E-02  0.9309779E-01
       -1   -1    0    0    0  501  0.00000000000E+00  0.00000000000E+00  0.47438278489E+03  0.47438278491E+03  0.50400001928E-02 0.  1.
        1   -1    0    0  501    0  0.00000000000E+00  0.00000000000E+00 -0.52581573269E+03  0.52581573271E+03  0.50400001928E-02 0. -1.
    10030    2    1    2    0    0  0.00000000000E+00  0.00000000000E+00 -0.51432947800E+02  0.10001985176E+04  0.99887523072E+03 0.  0.
        4    1    3    3  502    0  0.37851596264E+03  0.20608418168E+03  0.22698920495E+03  0.48710444052E+03  0.12699999809E+01 0.  1.
       -4    1    3    3    0  502 -0.37851596264E+03 -0.20608418168E+03 -0.27842215275E+03  0.51309407710E+03  0.12699999809E+01 0. -1.
</event>
<event>
 5   0  0.3873874E-03  0.9978744E+03  0.7818609E-02  0.9310879E-01
        2   -1    0    0  501    0  0.00000000000E+00  0.00000000000E+00  0.78328644021E+03  0.78328644021E+03  0.25500000920E-02 0.  1.
       -2   -1    0    0    0  501  0.00000000000E+00  0.00000000000E+00 -0.31781265549E+03  0.31781265550E+03  0.25500000920E-02 0. -1.
    10030    2    1    2    0    0  0.00000000000E+00  0.00000000000E+00  0.46547378472E+03  0.11010990957E+04  0.99787442814E+03 0.  0.
        5    1    3    3  502    0  0.14620571747E+03 -0.47700028575E+03  0.22909901181E+03  0.54901168625E+03  0.46999998093E+01 0. -1.
       -5    1    3    3    0  502 -0.14620571747E+03  0.47700028575E+03  0.23637477290E+03  0.55208740947E+03  0.46999998093E+01 0.  1.
</event>
<event>
 5   0  0.2313036E-03  0.1001728E+04  0.7818609E-02  0.9306651E-01
        1   -1    0    0  501    0  0.00000000000E+00  0.00000000000E+00  0.13805862130E+04  0.13805862130E+04  0.50400001928E-02 0. -1.
       -1   -1    0    0    0  501  0.00000000000E+00  0.00000000000E+00 -0.18170891057E+03  0.18170891064E+03  0.50400001928E-02 0.  1.
    10030    2    1    2    0    0  0.00000000000E+00  0.00000000000E+00  0.11988773024E+04  0.15622951236E+04  0.10017281403E+04 0.  0.
        3    1    3    3  502    0  0.26609746194E+03 -0.41456673196E+03  0.74059211162E+03  0.88946619975E+03  0.10100000352E+00 0. -1.
       -3    1    3    3    0  502 -0.26609746194E+03  0.41456673196E+03  0.45828519079E+03  0.67282892387E+03  0.10100000352E+00 0.  1.
</event>
<event>
 5   0  0.3826483E-03  0.9995253E+03  0.7818609E-02  0.9309066E-01
        2   -1    0    0  501    0  0.00000000000E+00  0.00000000000E+00  0.39244203113E+03  0.39244203114E+03  0.25500000920E-02 0.  1.
       -2   -1    0    0    0  501  0.00000000000E+00  0.00000000000E+00 -0.63643205630E+03  0.63643205630E+03  0.25500000920E-02 0. -1.
    10030    2    1    2    0    0  0.00000000000E+00  0.00000000000E+00 -0.24399002517E+03  0.10288740874E+04  0.99952526503E+03 0.  0.
        4    1    3    3  502    0  0.19313927495E+03  0.38804888699E+03  0.13405855077E+03  0.45371579889E+03  0.12699999809E+01 0.  1.
       -4    1    3    3    0  502 -0.19313927495E+03 -0.38804888699E+03 -0.37804857593E+03  0.57515828855E+03  0.12699999809E+01 0. -1.
</event>
<event>
 5   0  0.1548000E-03  0.9997484E+03  0.7818609E-02  0.9308821E-01
        3   -1    0    0  501    0  0.00000000000E+00  0.00000000000E+00  0.78692303185E+03  0.78692303834E+03  0.10100000352E+00 0.  1.
       -3   -1    0    0    0  501  0.00000000000E+00  0.00000000000E+00 -0.31753322523E+03  0.31753324129E+03  0.10100000352E+00 0. -1.
    10030    2    1    2    0    0  0.00000000000E+00  0.00000000000E+00  0.46938980662E+03  0.11044562796E+04  0.99974840987E+03 0.  0.
        4    1    3    3  502    0 -0.17574932790E+03 -0.46696369729E+03  0.20101070690E+03  0.53791248176E+03  0.12699999809E+01 0. -1.
       -4    1    3    3    0  502  0.17574932790E+03  0.46696369729E+03  0.26837909972E+03  0.56654379787E+03  0.12699999809E+01 0.  1.
</event>
<event>
 5   0  0.3873874E-03  0.9911744E+03  0.7818609E-02  0.9318278E-01
        2   -1    0    0  501    0  0.00000000000E+00  0.00000000000E+00  0.10172047326E+04  0.10172047326E+04  0.25500000920E-02 0.  1.
       -2   -1    0    0    0  501  0.00000000000E+00  0.00000000000E+00 -0.24145252895E+03  0.24145252896E+03  0.25500000920E-02 0. -1.
    10030    2    1    2    0    0  0.00000000000E+00  0.00000000000E+00  0.77575220362E+03  0.12586572615E+04  0.99117436437E+03 0.  0.
        5    1    3    3  502    0  0.17573126854E+03 -0.17647339361E+03 -0.15618379985E+03  0.29400647396E+03  0.46999998093E+01 0. -1.
       -5    1    3    3    0  502 -0.17573126854E+03  0.17647339361E+03  0.93193600348E+03  0.96465078757E+03  0.46999998093E+01 0.  1.
</event>
<event>
 5   0  0.2378609E-03  0.9996901E+03  0.7818609E-02  0.9308885E-01
       -1   -1    0    0    0  501  0.00000000000E+00  0.00000000000E+00  0.21093166050E+03  0.21093166056E+03  0.50400001928E-02 0. -1.
        1   -1    0    0  501    0  0.00000000000E+00  0.00000000000E+00 -0.11844834129E+04  0.11844834130E+04  0.50400001928E-02 0.  1.
    10030    2    1    2    0    0  0.00000000000E+00  0.00000000000E+00 -0.97355175244E+03  0.13954150735E+04  0.99969005832E+03 0.  0.
        1    1    3    3  502    0 -0.21829967145E+03  0.44335763141E+03 -0.59145810063E+03  0.77074212335E+03  0.50400001928E-02 0. -1.
       -1    1    3    3    0  502  0.21829967145E+03 -0.44335763141E+03 -0.38209365181E+03  0.62467295016E+03  0.50400001928E-02 0.  1.
</event>
<event>
 5   0  0.2378609E-03  0.9967577E+03  0.7818609E-02  0.9312108E-01
        1   -1    0    0  501    0  0.00000000000E+00  0.00000000000E+00  0.43662750624E+03  0.43662750627E+03  0.50400001928E-02 0. -1.
       -1   -1    0    0    0  501  0.00000000000E+00  0.00000000000E+00 -0.56886361234E+03  0.56886361236E+03  0.50400001928E-02 0.  1.
    10030    2    1    2    0    0  0.00000000000E+00  0.00000000000E+00 -0.13223610610E+03  0.10054911186E+04  0.99675774484E+03 0.  0.
        1    1    3    3  502    0 -0.93610909304E+02 -0.16092000943E+03  0.40023465560E+03  0.44141367372E+03  0.50400001928E-02 0. -1.
       -1    1    3    3    0  502  0.93610909304E+02  0.16092000943E+03 -0.53247076170E+03  0.56407744492E+03  0.50400001928E-02 0.  1.
</event>
<event>
 5   0  0.2313036E-03  0.9956190E+03  0.7818609E-02  0.9313363E-01
        1   -1    0    0  501    0  0.00000000000E+00  0.00000000000E+00  0.74726148165E+03  0.74726148167E+03  0.50400001928E-02 0. -1.
       -1   -1    0    0    0  501  0.00000000000E+00  0.00000000000E+00 -0.33162995710E+03  0.33162995714E+03  0.50400001928E-02 0.  1.
    10030    2    1    2    0    0  0.00000000000E+00  0.00000000000E+00  0.41563152455E+03  0.10788914388E+04  0.99561898964E+03 0.  0.
        3    1    3    3  502    0  0.29523121557E+03 -0.14467123800E+03  0.61287505182E+03  0.69549052984E+03  0.10100000352E+00 0. -1.
       -3    1    3    3    0  502 -0.29523121557E+03  0.14467123800E+03 -0.19724352727E+03  0.38340090897E+03  0.10100000352E+00 0.  1.
</event>
<event>
 5   0  0.3826483E-03  0.9772911E+03  0.7818609E-02  0.9333808E-01
       -2   -1    0    0    0  501  0.00000000000E+00  0.00000000000E+00  0.10019231636E+03  0.10019231639E+03  0.25500000920E-02 0.  1.
        2   -1    0    0  501    0  0.00000000000E+00  0.00000000000E+00 -0.23831614182E+04  0.23831614182E+04  0.25500000920E-02 0. -1.
    10030    2    1    2    0    0  0.00000000000E+00  0.00000000000E+00 -0.22829691019E+04  0.24833537346E+04  0.97729107800E+03 0.  0.
        4    1    3    3  502    0 -0.11506579847E+03 -0.47244430972E+03 -0.12641175717E+04  0.13544144903E+04  0.12699999809E+01 0. -1.
       -4    1    3    3    0  502  0.11506579847E+03  0.47244430972E+03 -0.10188515302E+04  0.11289392443E+04  0.12699999809E+01 0.  1.
</event>
<event>
 5   0  0.4026829E-03  0.9687252E+03  0.7818609E-02  0.9343528E-01
        2   -1    0    0  501    0  0.00000000000E+00  0.00000000000E+00  0.43238857515E+03  0.43238857515E+03  0.25500000920E-02 0.  1.
       -2   -1    0    0    0  501  0.00000000000E+00  0.00000000000E+00 -0.54258402242E+03  0.54258402243E+03  0.25500000920E-02 0. -1.
    10030    2    1    2    0    0  0.00000000000E+00  0.00000000000E+00 -0.11019544727E+03  0.97497259758E+03  0.96872520842E+03 0.  0.
        1    1    3    3  502    0  0.44319463485E+03 -0.62802854893E+02  0.13114009585E+03  0.46643692790E+03  0.50400001928E-02 0.  1.
       -1    1    3    3    0  502 -0.44319463485E+03  0.62802854893E+02 -0.24133554312E+03  0.50853566968E+03  0.50400001928E-02 0. -1.
</event>
<event>
 5   0  0.1548000E-03  0.1006756E+04  0.7818609E-02  0.9301166E-01
       -4   -1    0    0    0  501  0.00000000000E+00  0.00000000000E+00  0.28654195676E+03  0.28654477117E+03  0.12699999809E+01 0. -1.
        4   -1    0    0  501    0  0.00000000000E+00  0.00000000000E+00 -0.88429324890E+03  0.88429416087E+03  0.12699999809E+01 0.  1.
    10030    2    1    2    0    0  0.00000000000E+00  0.00000000000E+00 -0.59775129214E+03  0.11708389320E+04  0.10067557785E+04 0.  0.
        2    1    3    3  502    0  0.80887807393E+01 -0.12394317228E+03  0.26844265484E+03  0.29578505249E+03  0.25500000920E-02 0. -1.
       -2    1    3    3    0  502 -0.80887807393E+01  0.12394317228E+03 -0.86619394698E+03  0.87505387955E+03  0.25500000920E-02 0.  1.
</event>
<event>
 5   0  0.2350769E-03  0.9981377E+03  0.7818609E-02  0.9310590E-01
       -1   -1    0    0    0  501  0.00000000000E+00  0.00000000000E+00  0.36644112099E+03  0.36644112102E+03  0.50400001928E-02 0.  1.
        1   -1    0    0  501    0  0.00000000000E+00  0.00000000000E+00 -0.67969917016E+03  0.67969917018E+03  0.50400001928E-02 0. -1.
    10030    2    1    2    0    0  0.00000000000E+00  0.00000000000E+00 -0.31325804918E+03  0.10461402912E+04  0.99813771771E+03 0.  0.
        2    1    3    3  502    0  0.38124369442E+03  0.28338345993E+03  0.37557378221E+01  0.47504425633E+03  0.25500000920E-02 0.  1.
       -2    1    3    3    0  502 -0.38124369442E+03 -0.28338345993E+03 -0.31701378700E+03  0.57109603488E+03  0.25500000920E-02 0. -1.
</event>
<event>
 5   0  0.2327595E-03  0.1004256E+04  0.7818609E-02  0.9303889E-01
        1   -1    0    0  501    0  0.00000000000E+00  0.00000000000E+00  0.18917894586E+04  0.18917894586E+04  0.50400001928E-02 0.  1.
       -1   -1    0    0    0  501  0.00000000000E+00  0.00000000000E+00 -0.13327721198E+03  0.13327721208E+03  0.50400001928E-02 0. -1.
    10030    2    1    2    0    0  0.00000000000E+00  0.00000000000E+00  0.17585122466E+04  0.20250666707E+04  0.10042557937E+04 0.  0.
        5    1    3    3  502    0  0.22244613279E+03 -0.25953556010E+03  0.16208987355E+04  0.16565553990E+04  0.46999998093E+01 0.  1.
       -5    1    3    3    0  502 -0.22244613279E+03  0.25953556010E+03  0.13761351106E+03  0.36851127170E+03  0.46999998093E+01 0. -1.
</event>
<event>
 5   0  0.3826483E-03  0.9952485E+03  0.7818609E-02  0.9313772E-01
        2   -1    0    0  501    0  0.00000000000E+00  0.00000000000E+00  0.23153916335E+04  0.23153916335E+04  0.25500000920E-02 0. -1.
       -2   -1    0    0    0  501  0.00000000000E+00  0.00000000000E+00 -0.10694947349E+03  0.10694947352E+03  0.25500000920E-02 0.  1.
    10030    2    1    2    0    0  0.00000000000E+00  0.00000000000E+00  0.22084421600E+04  0.24223411070E+04  0.99524854418E+03 0.  0.
        4    1    3    3  502    0  0.96712628370E+02  0.27284637149E+03  0.11907590111E+03  0.31301622649E+03  0.12699999809E+01 0.  1.
       -4    1    3    3    0  502 -0.96712628370E+02 -0.27284637149E+03  0.20893662589E+04  0.21093248805E+04  0.12699999809E+01 0. -1.
</event>
<event>
 5   0  0.2313036E-03  0.9998895E+03  0.7818609E-02  0.9308666E-01
        1   -1    0    0  501    0  0.00000000000E+00  0.00000000000E+00  0.13006869809E+04  0.13006869809E+04  0.50400001928E-02 0. -1.
       -1   -1    0    0    0  501  0.00000000000E+00  0.00000000000E+00 -0.19216363388E+03  0.19216363395E+03  0.50400001928E-02 0.  1.
    10030    2    1    2    0    0  0.00000000000E+00  0.00000000000E+00  0.11085233470E+04  0.14928506149E+04  0.99988946758E+03 0.  0.
        3    1    3    3  502    0 -0.26826114467E+03 -0.36917871659E+03  0.85909934683E+03  0.97278397625E+03  0.10100000352E+00 0. -1.
       -3    1    3    3    0  502  0.26826114467E+03  0.36917871659E+03  0.24942400018E+03  0.52006663860E+03  0.10100000352E+00 0.  1.
</event>
<event>
 5   0  0.3826483E-03  0.1020116E+04  0.7818609E-02  0.9286753E-01
       -2   -1    0    0    0  501  0.00000000000E+00  0.00000000000E+00  0.27378694393E+03  0.27378694395E+03  0.25500000920E-02 0. -1.
        2   -1    0    0  501    0  0.00000000000E+00  0.00000000000E+00 -0.95022548073E+03  0.95022548073E+03  0.25500000920E-02 0.  1.
    10030    2    1    2    0    0  0.00000000000E+00  0.00000000000E+00 -0.67643853680E+03  0.12240124247E+04  0.10201163275E+04 0.  0.
        4    1    3    3  502    0  0.44764144048E+03 -0.18747564109E+03 -0.52651844794E+03  0.71606791868E+03  0.12699999809E+01 0.  1.
       -4    1    3    3    0  502 -0.44764144048E+03  0.18747564109E+03 -0.14992008885E+03  0.50794450600E+03  0.12699999809E+01 0. -1.
</event>
<event>
 5   0  0.2378609E-03  0.1015023E+04  0.7818609E-02  0.9292220E-01
        1   -1    0    0  501    0  0.00000000000E+00  0.00000000000E+00  0.97861534341E+03  0.97861534343E+03  0.50400001928E-02 0.  1.
       -1   -1    0    0    0  501  0.00000000000E+00  0.00000000000E+00 -0.26319614328E+03  0.26319614333E+03  0.50400001928E-02 0. -1.
    10030    2    1    2    0    0  0.00000000000E+00  0.00000000000E+00  0.71541920013E+03  0.12418114868E+04  0.10150227272E+04 0.  0.
        1    1    3    3  502    0 -0.36114474000E+03  0.21859543805E+02  0.79312845140E+03  0.87175461188E+03  0.50400001928E-02 0.  1.
       -1    1    3    3    0  502  0.36114474000E+03 -0.21859543805E+02 -0.77709251273E+02  0.37005687488E+03  0.50400001928E-02 0. -1.
</event>
<event>
 5   0  0.2378609E-03  0.9955592E+03  0.7818609E-02  0.9313429E-01
       -1   -1    0    0    0  501  0.00000000000E+00  0.00000000000E+00  0.16185212579E+03  0.16185212587E+03  0.50400001928E-02 0. -1.
        1   -1    0    0  501    0  0.00000000000E+00  0.00000000000E+00 -0.15309316027E+04  0.15309316027E+04  0.50400001928E-02 0.  1.
    10030    2    1    2    0    0  0.00000000000E+00  0.00000000000E+00 -0.13690794769E+04  0.16927837285E+04  0.99555920848E+03 0.  0.
        1    1    3    3  502    0  0.39064202181E+03  0.30792976602E+03 -0.71691780390E+03  0.87257840197E+03  0.50400001928E-02 0. -1.
       -1    1    3    3    0  502 -0.39064202181E+03 -0.30792976602E+03 -0.65216167299E+03  0.82020532658E+03  0.50400001928E-02 0.  1.
</event>
<event>
 5   0  0.3826483E-03  0.1009820E+04  0.7818609E-02  0.9297840E-01
       -2   -1    0    0    0  501  0.00000000000E+00  0.00000000000E+00  0.85349124788E+03  0.85349124788E+03  0.25500000920E-02 0.  1.
        2   -1    0    0  501    0  0.00000000000E+00  0.00000000000E+00 -0.29869543989E+03  0.29869543990E+03  0.25500000920E-02 0. -1.
    10030    2    1    2    0    0  0.00000000000E+00  0.00000000000E+00  0.55479580799E+03  0.11521866878E+04  0.10098196745E+04 0.  0.
        4    1    3    3  502    0 -0.37727387956E+03 -0.13305328153E+03  0.62887532356E+03  0.74533518729E+03  0.12699999809E+01 0.  1.
       -4    1    3    3    0  502  0.37727387956E+03  0.13305328153E+03 -0.74079515577E+02  0.40685150049E+03  0.12699999809E+01 0. -1.
</event>
<event>
 5   0  0.4026829E-03  0.1006574E+04  0.7818609E-02  0.9301364E-01
        2   -1    0    0  501    0  0.00000000000E+00  0.00000000000E+00  0.78940684536E+03  0.78940684536E+03  0.25500000920E-02 0. -1.
       -2   -1    0    0    0  501  0.00000000000E+00  0.00000000000E+00 -0.32087106527E+03  0.32087106528E+03  0.25500000920E-02 0.  1.
    10030    2    1    2    0    0  0.00000000000E+00  0.00000000000E+00  0.46853578009E+03  0.11102779106E+04  0.10065740219E+04 0.  0.
        1    1    3    3  502    0  0.24752424434E+03 -0.43808083952E+03  0.24608325077E+03  0.56012502161E+03  0.50400001928E-02 0. -1.
       -1    1    3    3    0  502 -0.24752424434E+03  0.43808083952E+03  0.22245252931E+03  0.55015288904E+03  0.50400001928E-02 0.  1.
</event>
<event>
 5   0  0.3895011E-03  0.1001060E+04  0.7818609E-02  0.9307383E-01
        2   -1    0    0  501    0  0.00000000000E+00  0.00000000000E+00  0.12899254567E+04  0.12899254567E+04  0.25500000920E-02 0.  1.
       -2   -1    0    0    0  501  0.00000000000E+00  0.00000000000E+00 -0.19422077839E+03  0.19422077841E+03  0.25500000920E-02 0. -1.
    10030    2    1    2    0    0  0.00000000000E+00  0.00000000000E+00  0.10957046783E+04  0.14841462351E+04  0.10010600907E+04 0.  0.
        2    1    3    3  502    0 -0.70520985470E+02 -0.49368081895E+03  0.48431980830E+03  0.69516878318E+03  0.25500000920E-02 0.  1.
       -2    1    3    3    0  502  0.70520985470E+02  0.49368081895E+03  0.61138487002E+03  0.78897745195E+03  0.25500000920E-02 0. -1.
</event>
<event>
 5   0  0.3826483E-03  0.9989828E+03  0.7818609E-02  0.9309661E-01
       -2   -1    0    0    0  501  0.00000000000E+00  0.00000000000E+00  0.67938404894E+03  0.67938404894E+03  0.25500000920E-02 0. -1.
        2   -1    0    0  501    0  0.00000000000E+00  0.00000000000E+00 -0.36723210697E+03  0.36723210698E+03  0.25500000920E-02 0.  1.
    10030    2    1    2    0    0  0.00000000000E+00  0.00000000000E+00  0.31215194197E+03  0.10466161559E+04  0.99898275408E+03 0.  0.
        4    1    3    3  502    0 -0.47600631319E+03  0.58849132684E+02  0.99824026098E+01  0.47973585636E+03  0.12699999809E+01 0.  1.
       -4    1    3    3    0  502  0.47600631319E+03 -0.58849132684E+02  0.30216953936E+03  0.56688029956E+03  0.12699999809E+01 0. -1.
</event>
<event>
 5   0  0.2378609E-03  0.9999155E+03  0.7818609E-02  0.9308637E-01
        1   -1    0    0  501    0  0.00000000000E+00  0.00000000000E+00  0.19611639721E+04  0.19611639721E+04  0.50400001928E-02 0.  1.
       -1   -1    0    0    0  501  0.00000000000E+00  0.00000000000E+00 -0.12745378331E+03  0.12745378341E+03  0.50400001928E-02 0. -1.
    10030    2    1    2    0    0  0.00000000000E+00  0.00000000000E+00  0.18337101888E+04  0.20886177555E+04  0.99991553252E+03 0.  0.
        1    1    3    3  502    0  0.51308256336E+02 -0.12052898645E+02  0.19553449977E+04  0.19560551806E+04  0.50400001928E-02 0.  1.
       -1    1    3    3    0  502 -0.51308256336E+02  0.12052898645E+02 -0.12163480884E+03  0.13256257497E+03  0.50400001928E-02 0. -1.
</event>
<event>
 5   0  0.2313036E-03  0.9858834E+03  0.7818609E-02  0.9324165E-01
        1   -1    0    0  501    0  0.00000000000E+00  0.00000000000E+00  0.68851967190E+03  0.68851967191E+03  0.50400001928E-02 0. -1.
       -1   -1    0    0    0  501  0.00000000000E+00  0.00000000000E+00 -0.35291875603E+03  0.35291875606E+03  0.50400001928E-02 0.  1.
    10030    2    1    2    0    0  0.00000000000E+00  0.00000000000E+00  0.33560091587E+03  0.10414384280E+04  0.98588337269E+03 0.  0.
        3    1    3    3  502    0  0.56129807908E+02 -0.82142889020E+02  0.67780392130E+03  0.68506654822E+03  0.10100000352E+00 0. -1.
       -3    1    3    3    0  502 -0.56129807908E+02  0.82142889020E+02 -0.34220300544E+03  0.35637187976E+03  0.10100000352E+00 0.  1.
</event>
<event>
 5   0  0.3895011E-03  0.1010754E+04  0.7818609E-02  0.9296828E-01
        2   -1    0    0  501    0  0.00000000000E+00  0.00000000000E+00  0.87263291569E+03  0.87263291570E+03  0.25500000920E-02 0.  1.
       -2   -1    0    0    0  501  0.00000000000E+00  0.00000000000E+00 -0.29268438633E+03  0.29268438634E+03  0.25500000920E-02 0. -1.
    10030    2    1    2    0    0  0.00000000000E+00  0.00000000000E+00  0.57994852936E+03  0.11653173020E+04  0.10107542321E+04 0.  0.
        2    1    3    3  502    0  0.25158740052E+03  0.43819451379E+03  0.30123382406E+03  0.58826224490E+03  0.25500000920E-02 0.  1.
       -2    1    3    3    0  502 -0.25158740052E+03 -0.43819451379E+03  0.27871470530E+03  0.57705505714E+03  0.25500000920E-02 0. -1.
</event>
<event>
 5   0  0.1548000E-03  0.9537406E+03  0.7818609E-02  0.9360789E-01
        3   -1    0    0  501    0  0.00000000000E+00  0.00000000000E+00  0.57607226002E+03  0.57607226887E+03  0.10100000352E+00 0.  1.
       -3   -1    0    0    0  501  0.00000000000E+00  0.00000000000E+00 -0.39475130153E+03  0.39475131445E+03  0.10100000352E+00 0. -1.
    10030    2    1    2    0    0  0.00000000000E+00  0.00000000000E+00  0.18132095849E+03  0.97082358331E+03  0.95374060411E+03 0.  0.
        5    1    3    3  502    0  0.29506785644E+02 -0.42339326706E+03  0.31192618344E+03  0.52673764144E+03  0.46999998093E+01 0.  1.
       -5    1    3    3    0  502 -0.29506785644E+02  0.42339326706E+03 -0.13060522495E+03  0.44408594188E+03  0.46999998093E+01 0. -1.
</event>
<event>
 5   0  0.2350769E-03  0.9993623E+03  0.7818609E-02  0.9309244E-01
       -1   -1    0    0    0  501  0.00000000000E+00  0.00000000000E+00  0.15683023954E+03  0.15683023962E+03  0.50400001928E-02 0. -1.
        1   -1    0    0  501    0  0.00000000000E+00  0.00000000000E+00 -0.15920479858E+04  0.15920479858E+04  0.50400001928E-02 0.  1.
    10030    2    1    2    0    0  0.00000000000E+00  0.00000000000E+00 -0.14352177462E+04  0.17488782254E+04  0.99936233078E+03 0.  0.
        2    1    3    3  502    0  0.74545736359E+02  0.49284230777E+03 -0.77900000215E+03  0.92481977189E+03  0.25500000920E-02 0. -1.
       -2    1    3    3    0  502 -0.74545736359E+02 -0.49284230777E+03 -0.65621774410E+03  0.82405845352E+03  0.25500000920E-02 0.  1.
</event>
<event>
 5   0  0.2350769E-03  0.9864107E+03  0.7818609E-02  0.9323576E-01
       -1   -1    0    0    0  501  0.00000000000E+00  0.00000000000E+00  0.73169221621E+03  0.73169221623E+03  0.50400001928E-02 0.  1.
        1   -1    0    0  501    0  0.00000000000E+00  0.00000000000E+00 -0.33245057724E+03  0.33245057728E+03  0.50400001928E-02 0. -1.
    10030    2    1    2    0    0  0.00000000000E+00  0.00000000000E+00  0.39924163897E+03  0.10641427935E+04  0.98641066433E+03 0.  0.
        2    1    3    3  502    0  0.21142229382E+01 -0.17647314615E+03  0.69646115156E+03  0.71847433976E+03  0.25500000920E-02 0.  1.
       -2    1    3    3    0  502 -0.21142229382E+01  0.17647314615E+03 -0.29721951259E+03  0.34566845376E+03  0.25500000920E-02 0. -1.
</event>
<event>
 5   0  0.2405022E-03  0.9864799E+03  0.7818609E-02  0.9323499E-01
       -1   -1    0    0    0  501  0.00000000000E+00  0.00000000000E+00  0.23264301587E+03  0.23264301593E+03  0.50400001928E-02 0. -1.
        1   -1    0    0  501    0  0.00000000000E+00  0.00000000000E+00 -0.10457467204E+04  0.10457467204E+04  0.50400001928E-02 0.  1.
    10030    2    1    2    0    0  0.00000000000E+00  0.00000000000E+00 -0.81310370453E+03  0.12783897363E+04  0.98647994590E+03 0.  0.
        4    1    3    3  502    0 -0.17818298394E+03 -0.40748306245E+02  0.18713141388E+03  0.26159009765E+03  0.12699999809E+01 0. -1.
       -4    1    3    3    0  502  0.17818298394E+03  0.40748306245E+02 -0.10002351184E+04  0.10167996387E+04  0.12699999809E+01 0.  1.
</event>
<event>
 5   0  0.3895011E-03  0.1024894E+04  0.7818609E-02  0.9281655E-01
        2   -1    0    0  501    0  0.00000000000E+00  0.00000000000E+00  0.99188484758E+03  0.99188484758E+03  0.25500000920E-02 0. -1.
       -2   -1    0    0    0  501  0.00000000000E+00  0.00000000000E+00 -0.26475038431E+03  0.26475038432E+03  0.25500000920E-02 0.  1.
    10030    2    1    2    0    0  0.00000000000E+00  0.00000000000E+00  0.72713446327E+03  0.12566352319E+04  0.10248939352E+04 0.  0.
        2    1    3    3  502    0 -0.22221572548E+03  0.32511485364E+03  0.76561696560E+03  0.86095809116E+03  0.25500000920E-02 0. -1.
       -2    1    3    3    0  502  0.22221572548E+03 -0.32511485364E+03 -0.38482502333E+02  0.39567714074E+03  0.25500000920E-02 0.  1.
</event>
<event>
 5   0  0.2378609E-03  0.9988362E+03  0.7818609E-02  0.9309822E-01
       -1   -1    0    0    0  501  0.00000000000E+00  0.00000000000E+00  0.24270828392E+03  0.24270828397E+03  0.50400001928E-02 0.  1.
        1   -1    0    0  501    0  0.00000000000E+00  0.00000000000E+00 -0.10276470005E+04  0.10276470005E+04  0.50400001928E-02 0. -1.
    10030    2    1    2    0    0  0.00000000000E+00  0.00000000000E+00 -0.78493871658E+03  0.12703552845E+04  0.99883620279E+03 0.  0.
        1    1    3    3  502    0  0.14265913125E+03  0.43766508544E+03 -0.14612666772E+03  0.48296517244E+03  0.50400001928E-02 0.  1.
       -1    1    3    3    0  502 -0.14265913125E+03 -0.43766508544E+03 -0.63881204886E+03  0.78739011204E+03  0.50400001928E-02 0. -1.
</event>
<event>
 5   0  0.3895011E-03  0.9438613E+03  0.7818609E-02  0.9372355E-01
        2   -1    0    0  501    0  0.00000000000E+00  0.00000000000E+00  0.14093382521E+04  0.14093382521E+04  0.25500000920E-02 0.  1.
       -2   -1    0    0    0  501  0.00000000000E+00  0.00000000000E+00 -0.15803057906E+03  0.15803057908E+03  0.25500000920E-02 0. -1.
    10030    2    1    2    0    0  0.00000000000E+00  0.00000000000E+00  0.12513076730E+04  0.15673688311E+04  0.94386130354E+03 0.  0.
        2    1    3    3  502    0  0.13026074227E+03 -0.30954972500E+03  0.75073824063E+02  0.34412929589E+03  0.25500000920E-02 0. -1.
       -2    1    3    3    0  502 -0.13026074227E+03  0.30954972500E+03  0.11762338489E+04  0.12232395353E+04  0.25500000920E-02 0.  1.
</event>
<event>
 5   0  0.3895011E-03  0.9908435E+03  0.7818609E-02  0.9318645E-01
       -2   -1    0    0    0  501  0.00000000000E+00  0.00000000000E+00  0.25238090196E+03  0.25238090197E+03  0.25500000920E-02 0. -1.
        2   -1    0    0  501    0  0.00000000000E+00  0.00000000000E+00 -0.97250902616E+03  0.97250902617E+03  0.25500000920E-02 0.  1.
    10030    2    1    2    0    0  0.00000000000E+00  0.00000000000E+00 -0.72012812421E+03  0.12248899281E+04  0.99084348954E+03 0.  0.
        2    1    3    3  502    0 -0.18862490176E+03  0.61722216829E+02 -0.92121828145E+03  0.94235455520E+03  0.25500000920E-02 0.  1.
       -2    1    3    3    0  502  0.18862490176E+03 -0.61722216829E+02  0.20109015724E+03  0.28253537294E+03  0.25500000920E-02 0. -1.
</event>
<event>
 5   0  0.3895011E-03  0.9993902E+03  0.7818609E-02  0.9309214E-01
       -2   -1    0    0    0  501  0.00000000000E+00  0.00000000000E+00  0.52067836684E+03  0.52067836685E+03  0.25500000920E-02 0.  1.
        2   -1    0    0  501    0  0.00000000000E+00  0.00000000000E+00 -0.47955742888E+03  0.47955742889E+03  0.25500000920E-02 0. -1.
    10030    2    1    2    0    0  0.00000000000E+00  0.00000000000E+00  0.41120937964E+02  0.10002357957E+04  0.99939017182E+03 0.  0.
        2    1    3    3  502    0 -0.14476121446E+03 -0.21068100381E+03 -0.40916618012E+03  0.48245130070E+03  0.25500000920E-02 0. -1.
       -2    1    3    3    0  502  0.14476121446E+03  0.21068100381E+03  0.45028711809E+03  0.51778449504E+03  0.25500000920E-02 0.  1.
</event>
<event>
 5   0  0.4026829E-03  0.9680901E+03  0.7818609E-02  0.9344252E-01
       -2   -1    0    0    0  501  0.00000000000E+00  0.00000000000E+00  0.25239765676E+03  0.25239765677E+03  0.25500000920E-02 0.  1.
        2   -1    0    0  501    0  0.00000000000E+00  0.00000000000E+00 -0.92829548118E+03  0.92829548119E+03  0.25500000920E-02 0. -1.
    10030    2    1    2    0    0  0.00000000000E+00  0.00000000000E+00 -0.67589782442E+03  0.11806931380E+04  0.96809008722E+03 0.  0.
        1    1    3    3  502    0 -0.41472509376E+03 -0.89789797470E+02 -0.62199125136E+03  0.75294902079E+03  0.50400001928E-02 0. -1.
       -1    1    3    3    0  502  0.41472509376E+03  0.89789797470E+02 -0.53906573067E+02  0.42774411717E+03  0.50400001928E-02 0.  1.
</event>
<event>
 5   0  0.2350769E-03  0.1003667E+04  0.7818609E-02  0.9304532E-01
       -1   -1    0    0    0  501  0.00000000000E+00  0.00000000000E+00  0.64962291757E+03  0.64962291759E+03  0.50400001928E-02 0. -1.
        1   -1    0    0  501    0  0.00000000000E+00  0.00000000000E+00 -0.38766614033E+03  0.38766614036E+03  0.50400001928E-02 0.  1.
    10030    2    1    2    0    0  0.00000000000E+00  0.00000000000E+00  0.26195677724E+03  0.10372890579E+04  0.10036668952E+04 0.  0.
        2    1    3    3  502    0  0.66791906596E+02  0.68357008746E+02  0.64013072639E+03  0.64722576147E+03  0.25500000920E-02 0. -1.
       -2    1    3    3    0  502 -0.66791906596E+02 -0.68357008746E+02 -0.37817394916E+03  0.39006329648E+03  0.25500000920E-02 0.  1.
</event>
<event>
 5   0  0.3826483E-03  0.9984398E+03  0.7818609E-02  0.9310258E-01
       -2   -1    0    0    0  501  0.00000000000E+00  0.00000000000E+00  0.16884729681E+03  0.16884729682E+03  0.25500000920E-02 0.  1.
        2   -1    0    0  501    0  0.00000000000E+00  0.00000000000E+00 -0.14760112577E+04  0.14760112577E+04  0.25500000920E-02 0. -1.
    10030    2    1    2    0    0  0.00000000000E+00  0.00000000000E+00 -0.13071639609E+04  0.16448585546E+04  0.99843980478E+03 0.  0.
        4    1    3    3  502    0 -0.62273348613E+01  0.67628498485E+02  0.16119860463E+03  0.17492568863E+03  0.12699999809E+01 0.  1.
       -4    1    3    3    0  502  0.62273348613E+01 -0.67628498485E+02 -0.14683625656E+04  0.14699328659E+04  0.12699999809E+01 0. -1.
</event>
<event>
 5   0  0.3873874E-03  0.1001113E+04  0.7818609E-02  0.9307325E-01
       -2   -1    0    0    0  501  0.00000000000E+00  0.00000000000E+00  0.11420315685E+03  0.11420315688E+03  0.25500000920E-02 0. -1.
        2   -1    0    0  501    0  0.00000000000E+00  0.00000000000E+00 -0.21939559087E+04  0.21939559087E+04  0.25500000920E-02 0.  1.
    10030    2    1    2    0    0  0.00000000000E+00  0.00000000000E+00 -0.20797527519E+04  0.23081590656E+04  0.10011127625E+04 0.  0.
        5    1    3    3  502    0  0.65804425509E+02 -0.10402450602E+03  0.78712619397E+02  0.14618169078E+03  0.46999998093E+01 0. -1.
       -5    1    3    3    0  502 -0.65804425509E+02  0.10402450602E+03 -0.21584653713E+04  0.21619773748E+04  0.46999998093E+01 0.  1.
</event>
<event>
 5   0  0.2313036E-03  0.1000782E+04  0.7818609E-02  0.9307688E-01
        1   -1    0    0  501    0  0.00000000000E+00  0.00000000000E+00  0.90098039352E+03  0.90098039353E+03  0.50400001928E-02 0.  1.
       -1   -1    0    0    0  501  0.00000000000E+00  0.00000000000E+00 -0.27790947527E+03  0.27790947531E+03  0.50400001928E-02 0. -1.
    10030    2    1    2    0    0  0.00000000000E+00  0.00000000000E+00  0.62307091825E+03  0.11788898688E+04  0.10007816713E+04 0.  0.
        3    1    3    3  502    0  0.32380740536E+03 -0.38061277827E+03  0.34210949803E+03  0.60560403036E+03  0.10100000352E+00 0.  1.
       -3    1    3    3    0  502 -0.32380740536E+03  0.38061277827E+03  0.28096142022E+03  0.57328583848E+03  0.10100000352E+00 0. -1.
</event>
<event>
 5   0  0.3873874E-03  0.9594881E+03  0.7818609E-02  0.9354129E-01
       -2   -1    0    0    0  501  0.00000000000E+00  0.00000000000E+00  0.57756438579E+03  0.57756438579E+03  0.25500000920E-02 0.  1.
        2   -1    0    0  501    0  0.00000000000E+00  0.00000000000E+00 -0.39849124878E+03  0.39849124879E+03  0.25500000920E-02 0. -1.
    10030    2    1    2    0    0  0.00000000000E+00  0.00000000000E+00  0.17907313700E+03  0.97605563458E+03  0.95948809967E+03 0.  0.
        5    1    3    3  502    0  0.10283011122E+03 -0.31684230005E+03  0.44070621562E+03  0.55245554877E+03  0.46999998093E+01 0.  1.
       -5    1    3    3    0  502 -0.10283011122E+03  0.31684230005E+03 -0.26163307862E+03  0.42360008582E+03  0.46999998093E+01 0. -1.
</event>
<event>
 5   0  0.2327595E-03  0.9163395E+03  0.7818609E-02  0.9405384E-01
       -1   -1    0    0    0  501  0.00000000000E+00  0.00000000000E+00  0.24164968947E+03  0.24164968952E+03  0.50400001928E-02 0. -1.
        1   -1    0    0  501    0  0.00000000000E+00  0.00000000000E+00 -0.86869354532E+03  0.86869354533E+03  0.50400001928E-02 0.  1.
    10030    2    1    2    0    0  0.00000000000E+00  0.00000000000E+00 -0.62704385585E+03  0.11103432349E+04  0.91633951243E+03 0.  0.
        5    1    3    3  502    0  0.30492059765E+03  0.25110206781E+03 -0.59475652552E+03  0.71399316102E+03  0.46999998093E+01 0.  1.
       -5    1    3    3    0  502 -0.30492059765E+03 -0.25110206781E+03 -0.32287330324E+02  0.39635007384E+03  0.46999998093E+01 0. -1.
</event>
<event>
 5   0  0.3873874E-03  0.9986825E+03  0.7818609E-02  0.9309991E-01
        2   -1    0    0  501    0  0.00000000000E+00  0.00000000000E+00  0.68204994107E+03  0.68204994108E+03  0.25500000920E-02 0. -1.
       -2   -1    0    0    0  501  0.00000000000E+00  0.00000000000E+00 -0.36557690847E+03  0.36557690848E+03  0.25500000920E-02 0.  1.
    10030    2    1    2    0    0  0.00000000000E+00  0.00000000000E+00  0.31647303260E+03  0.10476268496E+04  0.99868254994E+03 0.  0.
        5    1    3    3  502    0 -0.46878972648E+03 -0.11361705593E+03  0.22890077393E+02  0.48292720848E+03  0.46999998093E+01 0.  1.
       -5    1    3    3    0  502  0.46878972648E+03  0.11361705593E+03  0.29358295521E+03  0.56469964108E+03  0.46999998093E+01 0. -1.
</event>
<event>
 5   0  0.3895011E-03  0.1001977E+04  0.7818609E-02  0.9306379E-01
       -2   -1    0    0    0  501  0.00000000000E+00  0.00000000000E+00  0.52862537950E+03  0.52862537950E+03  0.25500000920E-02 0.  1.
        2   -1    0    0  501    0  0.00000000000E+00  0.00000000000E+00 -0.47479641974E+03  0.47479641975E+03  0.25500000920E-02 0. -1.
    10030    2    1    2    0    0  0.00000000000E+00  0.00000000000E+00  0.53828959756E+02  0.10034217993E+04  0.10019769210E+04 0.  0.
        2    1    3    3  502    0 -0.36737745723E+02  0.15639064901E+03 -0.44830299166E+03  0.47621767019E+03  0.25500000920E-02 0. -1.
       -2    1    3    3    0  502  0.36737745723E+02 -0.15639064901E+03  0.50213195142E+03  0.52720412906E+03  0.25500000920E-02 0.  1.
</event>
<event>
 5   0  0.2378609E-03  0.1002668E+04  0.7818609E-02  0.9305623E-01
       -1   -1    0    0    0  501  0.00000000000E+00  0.00000000000E+00  0.15911805576E+03  0.15911805584E+03  0.50400001928E-02 0. -1.
        1   -1    0    0  501    0  0.00000000000E+00  0.00000000000E+00 -0.15795559529E+04  0.15795559529E+04  0.50400001928E-02 0.  1.
    10030    2    1    2    0    0  0.00000000000E+00  0.00000000000E+00 -0.14204378971E+04  0.17386740087E+04  0.10026681849E+04 0.  0.
        1    1    3    3  502    0 -0.49716270820E+03  0.15597271402E+02 -0.81881294198E+03  0.95805462646E+03  0.50400001928E-02 0.  1.
       -1    1    3    3    0  502  0.49716270820E+03 -0.15597271402E+02 -0.60162495516E+03  0.78061938228E+03  0.50400001928E-02 0. -1.
</event>
<event>
 5   0  0.2378609E-03  0.9924467E+03  0.7818609E-02  0.9316868E-01
        1   -1    0    0  501    0  0.00000000000E+00  0.00000000000E+00  0.13131077367E+04  0.13131077367E+04  0.50400001928E-02 0. -1.
       -1   -1    0    0    0  501  0.00000000000E+00  0.00000000000E+00 -0.18752278837E+03  0.18752278844E+03  0.50400001928E-02 0.  1.
    10030    2    1    2    0    0  0.00000000000E+00  0.00000000000E+00  0.11255849484E+04  0.15006305252E+04  0.99244672255E+03 0.  0.
        1    1    3    3  502    0 -0.19593392564E+02 -0.44464383679E+03  0.23101660672E+03  0.50145858776E+03  0.50400001928E-02 0.  1.
       -1    1    3    3    0  502  0.19593392564E+02  0.44464383679E+03  0.89456834164E+03  0.99917193742E+03  0.50400001928E-02 0. -1.
</event>
<event>
 5   0  0.3826483E-03  0.9946748E+03  0.7818609E-02  0.9314405E-01
       -2   -1    0    0    0  501  0.00000000000E+00  0.00000000000E+00  0.34147662824E+03  0.34147662825E+03  0.25500000920E-02 0.  1.
        2   -1    0    0  501    0  0.00000000000E+00  0.00000000000E+00 -0.72433790235E+03  0.72433790236E+03  0.25500000920E-02 0. -1.
    10030    2    1    2    0    0  0.00000000000E+00  0.00000000000E+00 -0.38286127411E+03  0.10658145306E+04  0.99467475008E+03 0.  0.
        4    1    3    3  502    0 -0.16011479542E+03 -0.42569020822E+03  0.24192627919E+02  0.45545120181E+03  0.12699999809E+01 0.  1.
       -4    1    3    3    0  502  0.16011479542E+03  0.42569020822E+03 -0.40705390203E+03  0.61036332880E+03  0.12699999809E+01 0. -1.
</event>
<event>
 5   0  0.3826483E-03  0.1015896E+04  0.7818609E-02  0.9291280E-01
       -2   -1    0    0    0  501  0.00000000000E+00  0.00000000000E+00  0.72597844764E+03  0.72597844764E+03  0.25500000920E-02 0. -1.
        2   -1    0    0  501    0  0.00000000000E+00  0.00000000000E+00 -0.35539810532E+03  0.35539810533E+03  0.25500000920E-02 0.  1.
    10030    2    1    2    0    0  0.00000000000E+00  0.00000000000E+00  0.37058034232E+03  0.10813765530E+04  0.10158963821E+04 0.  0.
        4    1    3    3  502    0  0.28447405441E+03  0.39914929569E+03  0.32716298709E+03  0.58930711934E+03  0.12699999809E+01 0. -1.
       -4    1    3    3    0  502 -0.28447405441E+03 -0.39914929569E+03  0.43417355225E+02  0.49206943363E+03  0.12699999809E+01 0.  1.
</event>
<event>
 5   0  0.4026829E-03  0.9969777E+03  0.7818609E-02  0.9311866E-01
       -2   -1    0    0    0  501  0.00000000000E+00  0.00000000000E+00  0.23796281537E+03  0.23796281539E+03  0.25500000920E-02 0. -1.
        2   -1    0    0  501    0  0.00000000000E+00  0.00000000000E+00 -0.10442435279E+04  0.10442435279E+04  0.25500000920E-02 0.  1.
    10030    2    1    2    0    0  0.00000000000E+00  0.00000000000E+00 -0.80628071248E+03  0.12822063432E+04  0.99697769250E+03 0.  0.
        1    1    3    3  502    0 -0.67619293060E+02  0.21574719238E+03  0.16822664167E+03  0.28181451844E+03  0.50400001928E-02 0. -1.
       -1    1    3    3    0  502  0.67619293060E+02 -0.21574719238E+03 -0.97450735415E+03  0.10003918248E+04  0.50400001928E-02 0.  1.
</event>
<event>
 5   0  0.3873874E-03  0.1003243E+04  0.7818609E-02  0.9304995E-01
       -2   -1    0    0    0  501  0.00000000000E+00  0.00000000000E+00  0.14395072045E+03  0.14395072047E+03  0.25500000920E-02 0.  1.
        2   -1    0    0  501    0  0.00000000000E+00  0.00000000000E+00 -0.17479873352E+04  0.17479873352E+04  0.25500000920E-02 0. -1.
    10030    2    1    2    0    0  0.00000000000E+00  0.00000000000E+00 -0.16040366147E+04  0.18919380556E+04  0.10032428146E+04 0.  0.
        5    1    3    3  502    0  0.45165986926E+03  0.35100342927E+02 -0.12081199420E+04  0.12902730547E+04  0.46999998093E+01 0. -1.
       -5    1    3    3    0  502 -0.45165986926E+03 -0.35100342927E+02 -0.39591667275E+03  0.60166500092E+03  0.46999998093E+01 0.  1.
</event>
<event>
 5   0  0.2313036E-03  0.1000554E+04  0.7818609E-02  0.9307937E-01
        1   -1    0    0  501    0  0.00000000000E+00  0.00000000000E+00  0.30225609183E+03  0.30225609187E+03  0.50400001928E-02 0. -1.
       -1   -1    0    0    0  501  0.00000000000E+00  0.00000000000E+00 -0.82803046695E+03  0.82803046697E+03  0.50400001928E-02 0.  1.
    10030    2    1    2    0    0  0.00000000000E+00  0.00000000000E+00 -0.52577437512E+03  0.11302865588E+04  0.10005543521E+04 0.  0.
        3    1    3    3  502    0 -0.19737551936E+03 -0.44163854464E+03 -0.11877005245E+03  0.49810444217E+03  0.10100000352E+00 0.  1.
       -3    1    3    3    0  502  0.19737551936E+03  0.44163854464E+03 -0.40700432267E+03  0.63218211666E+03  0.10100000352E+00 0. -1.
</event>
<event>
 5   0  0.2378609E-03  0.9997410E+03  0.7818609E-02  0.9308829E-01
       -1   -1    0    0    0  501  0.00000000000E+00  0.00000000000E+00  0.10707657507E+04  0.10707657507E+04  0.50400001928E-02 0. -1.
        1   -1    0    0  501    0  0.00000000000E+00  0.00000000000E+00 -0.23335684294E+03  0.23335684300E+03  0.50400001928E-02 0.  1.
    10030    2    1    2    0    0  0.00000000000E+00  0.00000000000E+00  0.83740890776E+03  0.13041225937E+04  0.99974099677E+03 0.  0.
        1    1    3    3  502    0  0.52902942186E+02 -0.43598894003E+03  0.73010033421E+03  0.85201618245E+03  0.50400001928E-02 0. -1.
       -1    1    3    3    0  502 -0.52902942186E+02  0.43598894003E+03  0.10730857355E+03  0.45210641126E+03  0.50400001928E-02 0.  1.
</event>
<event>
 5   0  0.3895011E-03  0.9988386E+03  0.7818609E-02  0.9309820E-01
        2   -1    0    0  501    0  0.00000000000E+00  0.00000000000E+00  0.13159646261E+04  0.13159646261E+04  0.25500000920E-02 0. -1.
       -2   -1    0    0    0  501  0.00000000000E+00  0.00000000000E+00 -0.18953369964E+03  0.18953369966E+03  0.25500000920E-02 0.  1.
    10030    2    1    2    0    0  0.00000000000E+00  0.00000000000E+00  0.11264309265E+04  0.15054983258E+04  0.99883861399E+03 0.  0.
        2    1    3    3  502    0 -0.23254885760E+02  0.40794265408E+03  0.13039184442E+03  0.42890562112E+03  0.25500000920E-02 0.  1.
       -2    1    3    3    0  502  0.23254885760E+02 -0.40794265408E+03  0.99603908204E+03  0.10765927046E+04  0.25500000920E-02 0. -1.
</event>
<event>
 5   0  0.2327595E-03  0.1000235E+04  0.7818609E-02  0.9308287E-01
       -1   -1    0    0    0  501  0.00000000000E+00  0.00000000000E+00  0.16959123631E+03  0.16959123638E+03  0.50400001928E-02 0. -1.
        1   -1    0    0  501    0  0.00000000000E+00  0.00000000000E+00 -0.14748250242E+04  0.14748250242E+04  0.50400001928E-02 0.  1.
    10030    2    1    2    0    0  0.00000000000E+00  0.00000000000E+00 -0.13052337879E+04  0.16444162606E+04  0.10002347710E+04 0.  0.
        5    1    3    3  502    0 -0.67259492351E+02  0.20150730281E+03 -0.13969220389E+04  0.14129905538E+04  0.46999998093E+01 0.  1.
       -5    1    3    3    0  502  0.67259492351E+02 -0.20150730281E+03  0.91688250993E+02  0.23142570679E+03  0.46999998093E+01 0. -1.
</event>
<event>
 5   0  0.2378609E-03  0.1000820E+04  0.7818609E-02  0.9307646E-01
        1   -1    0    0  501    0  0.00000000000E+00  0.00000000000E+00  0.24680263715E+03  0.24680263720E+03  0.50400001928E-02 0. -1.
       -1   -1    0    0    0  501  0.00000000000E+00  0.00000000000E+00 -0.10146171828E+04  0.10146171828E+04  0.50400001928E-02 0.  1.
    10030    2    1    2    0    0  0.00000000000E+00  0.00000000000E+00 -0.76781454567E+03  0.12614198200E+04  0.10008200567E+04 0.  0.
        1    1    3    3  502    0  0.50080637016E+02  0.47126520551E+02  0.24081879499E+03  0.25044494642E+03  0.50400001928E-02 0. -1.
       -1    1    3    3    0  502 -0.50080637016E+02 -0.47126520551E+02 -0.10086333407E+04  0.10109748736E+04  0.50400001928E-02 0.  1.
</event>
<event>
 5   0  0.2350769E-03  0.1001914E+04  0.7818609E-02  0.9306448E-01
       -1   -1    0    0    0  501  0.00000000000E+00  0.00000000000E+00  0.93093152340E+03  0.93093152342E+03  0.50400001928E-02 0. -1.
        1   -1    0    0  501    0  0.00000000000E+00  0.00000000000E+00 -0.26957730810E+03  0.26957730815E+03  0.50400001928E-02 0.  1.
    10030    2    1    2    0    0  0.00000000000E+00  0.00000000000E+00  0.66135421530E+03  0.12005088316E+04  0.10019141962E+04 0.  0.
        2    1    3    3  502    0  0.19292981499E+03 -0.45434053170E+03  0.43312823522E+03  0.65669422139E+03  0.25500000920E-02 0.  1.
       -2    1    3    3    0  502 -0.19292981499E+03  0.45434053170E+03  0.22822598008E+03  0.54381461018E+03  0.25500000920E-02 0. -1.
</event>
<event>
 5   0  0.3895011E-03  0.9675954E+03  0.7818609E-02  0.9344817E-01
        2   -1    0    0  501    0  0.00000000000E+00  0.00000000000E+00  0.12425721768E+04  0.12425721768E+04  0.25500000920E-02 0.  1.
       -2   -1    0    0    0  501  0.00000000000E+00  0.00000000000E+00 -0.18836750156E+03  0.18836750158E+03  0.25500000920E-02 0. -1.
    10030    2    1    2    0    0  0.00000000000E+00  0.00000000000E+00  0.10542046753E+04  0.14309396784E+04  0.96759540403E+03 0.  0.
        2    1    3    3  502    0  0.15580863080E+03  0.95143552951E+02 -0.13547319343E+03  0.22733589960E+03  0.25500000920E-02 0. -1.
       -2    1    3    3    0  502 -0.15580863080E+03 -0.95143552951E+02  0.11896778687E+04  0.12036037788E+04  0.25500000920E-02 0.  1.
</event>
<event>
 5   0  0.4140860E-03  0.1095736E+04  0.7818609E-02  0.9209358E-01
       -2   -1    0    0    0  501  0.00000000000E+00  0.00000000000E+00  0.16875389873E+03  0.16875389875E+03  0.25500000920E-02 0.  1.
        2   -1    0    0  501    0  0.00000000000E+00  0.00000000000E+00 -0.17786807748E+04  0.17786807748E+04  0.25500000920E-02 0. -1.
    10030    2    1    2    0    0  0.00000000000E+00  0.00000000000E+00 -0.16099268761E+04  0.19474346736E+04  0.10957359451E+04 0.  0.
        3    1    3    3  502    0  0.26841851218E+03 -0.11824257374E+03  0.17459552224E+02  0.29382758565E+03  0.10100000352E+00 0.  1.
       -3    1    3    3    0  502 -0.26841851218E+03  0.11824257374E+03 -0.16273864283E+04  0.16536070879E+04  0.10100000352E+00 0. -1.
</event>
<event>
 5   0  0.2327595E-03  0.1011759E+04  0.7818609E-02  0.9295741E-01
        1   -1    0    0  501    0  0.00000000000E+00  0.00000000000E+00  0.53081674825E+03  0.53081674827E+03  0.50400001928E-02 0. -1.
       -1   -1    0    0    0  501  0.00000000000E+00  0.00000000000E+00 -0.48211385086E+03  0.48211385088E+03  0.50400001928E-02 0.  1.
    10030    2    1    2    0    0  0.00000000000E+00  0.00000000000E+00  0.48702897387E+02  0.10129305992E+04  0.10117590753E+04 0.  0.
        5    1    3    3  502    0  0.16971060368E+03 -0.75742506441E+02 -0.44667541978E+03  0.48381777243E+03  0.46999998093E+01 0.  1.
       -5    1    3    3    0  502 -0.16971060368E+03  0.75742506441E+02  0.49537831717E+03  0.52911282672E+03  0.46999998093E+01 0. -1.
</event>
<event>
 5   0  0.2378609E-03  0.9920696E+03  0.7818609E-02  0.9317286E-01
        1   -1    0    0  501    0  0.00000000000E+00  0.00000000000E+00  0.13510033205E+04  0.13510033205E+04  0.50400001928E-02 0.  1.
       -1   -1    0    0    0  501  0.00000000000E+00  0.00000000000E+00 -0.18212430111E+03  0.18212430117E+03  0.50400001928E-02 0. -1.
    10030    2    1    2    0    0  0.00000000000E+00  0.00000000000E+00  0.11688790194E+04  0.15331276217E+04  0.99206962577E+03 0.  0.
        1    1    3    3  502    0  0.13242784758E+03  0.45561468510E+03  0.36087294111E+03  0.59611337491E+03  0.50400001928E-02 0. -1.
       -1    1    3    3    0  502 -0.13242784758E+03 -0.45561468510E+03  0.80800607827E+03  0.93701424676E+03  0.50400001928E-02 0.  1.
</event>
<event>
 5   0  0.2313036E-03  0.1002471E+04  0.7818609E-02  0.9305838E-01
        1   -1    0    0  501    0  0.00000000000E+00  0.00000000000E+00  0.95692560143E+03  0.95692560144E+03  0.50400001928E-02 0. -1.
       -1   -1    0    0    0  501  0.00000000000E+00  0.00000000000E+00 -0.26254624358E+03  0.26254624363E+03  0.50400001928E-02 0.  1.
    10030    2    1    2    0    0  0.00000000000E+00  0.00000000000E+00  0.69437935785E+03  0.12194718451E+04  0.10024713903E+04 0.  0.
        3    1    3    3  502    0 -0.15872429285E+03 -0.10994963430E+03  0.90986892628E+03  0.93013106411E+03  0.10100000352E+00 0. -1.
       -3    1    3    3    0  502  0.15872429285E+03  0.10994963430E+03 -0.21548956843E+03  0.28934078096E+03  0.10100000352E+00 0.  1.
</event>
<event>
 5   0  0.3873874E-03  0.9158576E+03  0.7818609E-02  0.9405973E-01
        2   -1    0    0  501    0  0.00000000000E+00  0.00000000000E+00  0.38006716661E+03  0.38006716662E+03  0.25500000920E-02 0.  1.
       -2   -1    0    0    0  501  0.00000000000E+00  0.00000000000E+00 -0.55174140276E+03  0.55174140277E+03  0.25500000920E-02 0. -1.
    10030    2    1    2    0    0  0.00000000000E+00  0.00000000000E+00 -0.17167423615E+03  0.93180856938E+03  0.91585761264E+03 0.  0.
        5    1    3    3  502    0  0.61119248221E+01 -0.31380706499E+03  0.25338311268E+03  0.40340714106E+03  0.46999998093E+01 0.  1.
       -5    1    3    3    0  502 -0.61119248221E+01  0.31380706499E+03 -0.42505734883E+03  0.52840142833E+03  0.46999998093E+01 0. -1.
</event>
<event>
 5   0  0.1548000E-03  0.9966013E+03  0.7818609E-02  0.9312280E-01
       -3   -1    0    0    0  501  0.00000000000E+00  0.00000000000E+00  0.27943872695E+03  0.27943874520E+03  0.10100000352E+00 0.  1.
        3   -1    0    0  501    0  0.00000000000E+00  0.00000000000E+00 -0.88857943920E+03  0.88857944494E+03  0.10100000352E+00 0. -1.
    10030    2    1    2    0    0  0.00000000000E+00  0.00000000000E+00 -0.60914071225E+03  0.11680181901E+04  0.99660126690E+03 0.  0.
        2    1    3    3  502    0  0.70214277805E+02 -0.99861629044E+02 -0.87078311315E+03  0.87929836797E+03  0.25500000920E-02 0. -1.
       -2    1    3    3    0  502 -0.70214277805E+02  0.99861629044E+02  0.26164240090E+03  0.28871982218E+03  0.25500000920E-02 0.  1.
</event>
<event>
 5   0  0.3895011E-03  0.1002248E+04  0.7818609E-02  0.9306083E-01
        2   -1    0    0  501    0  0.00000000000E+00  0.00000000000E+00  0.19876506497E+03  0.19876506499E+03  0.25500000920E-02 0.  1.
       -2   -1    0    0    0  501  0.00000000000E+00  0.00000000000E+00 -0.12634264256E+04  0.12634264256E+04  0.25500000920E-02 0. -1.
    10030    2    1    2    0    0  0.00000000000E+00  0.00000000000E+00 -0.10646613606E+04  0.14621914906E+04  0.10022475455E+04 0.  0.
        2    1    3    3  502    0  0.67364649988E+02  0.34432114549E+02  0.19038558653E+03  0.20486639096E+03  0.25500000920E-02 0.  1.
       -2    1    3    3    0  502 -0.67364649988E+02 -0.34432114549E+02 -0.12550469472E+04  0.12573250997E+04  0.25500000920E-02 0. -1.
</event>
<event>
 5   0  0.3895011E-03  0.9978899E+03  0.7818609E-02  0.9310862E-01
        2   -1    0    0  501    0  0.00000000000E+00  0.00000000000E+00  0.75168653030E+03  0.75168653030E+03  0.25500000920E-02 0.  1.
       -2   -1    0    0    0  501  0.00000000000E+00  0.00000000000E+00 -0.33118335161E+03  0.33118335162E+03  0.25500000920E-02 0. -1.
    10030    2    1    2    0    0  0.00000000000E+00  0.00000000000E+00  0.42050317868E+03  0.10828698819E+04  0.99788990269E+03 0.  0.
        2    1    3    3  502    0 -0.44599801275E+03  0.14206881837E+03  0.22772273784E+02  0.46863242845E+03  0.25500000920E-02 0. -1.
       -2    1    3    3    0  502  0.44599801275E+03 -0.14206881837E+03  0.39773090490E+03  0.61423745347E+03  0.25500000920E-02 0.  1.
</event>
<event>
 5   0  0.3873874E-03  0.1002733E+04  0.7818609E-02  0.9305552E-01
       -2   -1    0    0    0  501  0.00000000000E+00  0.00000000000E+00  0.30159138527E+03  0.30159138529E+03  0.25500000920E-02 0.  1.
        2   -1    0    0  501    0  0.00000000000E+00  0.00000000000E+00 -0.83347376617E+03  0.83347376617E+03  0.25500000920E-02 0. -1.
    10030    2    1    2    0    0  0.00000000000E+00  0.00000000000E+00 -0.53188238089E+03  0.11350651515E+04  0.10027332801E+04 0.  0.
        5    1    3    3  502    0  0.14519457279E+02  0.30303574783E+03  0.18586271526E+03  0.35582090723E+03  0.46999998093E+01 0.  1.
       -5    1    3    3    0  502 -0.14519457279E+02 -0.30303574783E+03 -0.71774509615E+03  0.77924424422E+03  0.46999998093E+01 0. -1.
</event>
<event>
 5   0  0.4026829E-03  0.9963045E+03  0.7818609E-02  0.9312607E-01
        2   -1    0    0  501    0  0.00000000000E+00  0.00000000000E+00  0.89909286166E+03  0.89909286167E+03  0.25500000920E-02 0.  1.
       -2   -1    0    0    0  501  0.00000000000E+00  0.00000000000E+00 -0.27600670221E+03  0.27600670222E+03  0.25500000920E-02 0. -1.
    10030    2    1    2    0    0  0.00000000000E+00  0.00000000000E+00  0.62308615945E+03  0.11750995639E+04  0.99630448305E+03 0.  0.
        1    1    3    3  502    0 -0.22686528625E+03  0.27781571372E+03 -0.96191784095E+02  0.37135197354E+03  0.50400001928E-02 0. -1.
       -1    1    3    3    0  502  0.22686528625E+03 -0.27781571372E+03  0.71927794355E+03  0.80374759035E+03  0.50400001928E-02 0.  1.
</event>
<event>
 5   0  0.3895011E-03  0.9953068E+03  0.7818609E-02  0.9313707E-01
       -2   -1    0    0    0  501  0.00000000000E+00  0.00000000000E+00  0.42862806677E+03  0.42862806677E+03  0.25500000920E-02 0. -1.
        2   -1    0    0  501    0  0.00000000000E+00  0.00000000000E+00 -0.57779438158E+03  0.57779438159E+03  0.25500000920E-02 0.  1.
    10030    2    1    2    0    0  0.00000000000E+00  0.00000000000E+00 -0.14916631482E+03  0.10064224484E+04  0.99530676432E+03 0.  0.
        2    1    3    3  502    0  0.14509578326E+03  0.39493473110E+03 -0.34331933921E+03  0.54304180026E+03  0.25500000920E-02 0.  1.
       -2    1    3    3    0  502 -0.14509578326E+03 -0.39493473110E+03  0.19415302439E+03  0.46338064810E+03  0.25500000920E-02 0. -1.
</event>
<event>
 5   0  0.4026829E-03  0.9944177E+03  0.7818609E-02  0.9314689E-01
       -2   -1    0    0    0  501  0.00000000000E+00  0.00000000000E+00  0.13711696788E+03  0.13711696790E+03  0.25500000920E-02 0.  1.
        2   -1    0    0  501    0  0.00000000000E+00  0.00000000000E+00 -0.18029617193E+04  0.18029617193E+04  0.25500000920E-02 0. -1.
    10030    2    1    2    0    0  0.00000000000E+00  0.00000000000E+00 -0.16658447514E+04  0.19400786872E+04  0.99441770735E+03 0.  0.
        1    1    3    3  502    0  0.25677217590E+03 -0.34647810236E+03 -0.35013084627E+03  0.55549134581E+03  0.50400001928E-02 0.  1.
       -1    1    3    3    0  502 -0.25677217590E+03  0.34647810236E+03 -0.13157139051E+04  0.13845873414E+04  0.50400001928E-02 0. -1.
</event>
<event>
 5   0  0.2350769E-03  0.1005626E+04  0.7818609E-02  0.9302396E-01
        1   -1    0    0  501    0  0.00000000000E+00  0.00000000000E+00  0.58668051108E+03  0.58668051110E+03  0.50400001928E-02 0.  1.
       -1   -1    0    0    0  501  0.00000000000E+00  0.00000000000E+00 -0.43093475026E+03  0.43093475029E+03  0.50400001928E-02 0. -1.
    10030    2    1    2    0    0  0.00000000000E+00  0.00000000000E+00  0.15574576081E+03  0.10176152614E+04  0.10056262120E+04 0.  0.
        2    1    3    3  502    0  0.41437186007E+03 -0.26656464588E+03 -0.23623805086E+02  0.49327358841E+03  0.25500000920E-02 0. -1.
       -2    1    3    3    0  502 -0.41437186007E+03  0.26656464588E+03  0.17936956590E+03  0.52434167298E+03  0.25500000920E-02 0.  1.
</event>
<event>
 5   0  0.2405022E-03  0.1000660E+04  0.7818609E-02  0.9307821E-01
       -1   -1    0    0    0  501  0.00000000000E+00  0.00000000000E+00  0.41839505537E+03  0.41839505540E+03  0.50400001928E-02 0.  1.
        1   -1    0    0  501    0  0.00000000000E+00  0.00000000000E+00 -0.59831050251E+03  0.59831050253E+03  0.50400001928E-02 0. -1.
    10030    2    1    2    0    0  0.00000000000E+00  0.00000000000E+00 -0.17991544714E+03  0.10167055579E+04  0.10006600938E+04 0.  0.
        4    1    3    3  502    0  0.22550064663E+03  0.64736813186E+02  0.35904135193E+03  0.42889824190E+03  0.12699999809E+01 0.  1.
       -4    1    3    3    0  502 -0.22550064663E+03 -0.64736813186E+02 -0.53895679907E+03  0.58780731603E+03  0.12699999809E+01 0. -1.
</event>
<event>
 5   0  0.2405022E-03  0.9999943E+03  0.7818609E-02  0.9308551E-01
       -1   -1    0    0    0  501  0.00000000000E+00  0.00000000000E+00  0.31394485921E+03  0.31394485925E+03  0.50400001928E-02 0.  1.
        1   -1    0    0  501    0  0.00000000000E+00  0.00000000000E+00 -0.79630909423E+03  0.79630909424E+03  0.50400001928E-02 0. -1.
    10030    2    1    2    0    0  0.00000000000E+00  0.00000000000E+00 -0.48236423502E+03  0.11102539535E+04  0.99999429300E+03 0.  0.
        4    1    3    3  502    0 -0.44463311846E+03 -0.22740826230E+03 -0.21438811105E+03  0.54348597300E+03  0.12699999809E+01 0.  1.
       -4    1    3    3    0  502  0.44463311846E+03  0.22740826230E+03 -0.26797612397E+03  0.56676798049E+03  0.12699999809E+01 0. -1.
</event>
<event>
 5   0  0.3826483E-03  0.1001727E+04  0.7818609E-02  0.9306653E-01
       -2   -1    0    0    0  501  0.00000000000E+00  0.00000000000E+00  0.36212696997E+03  0.36212696998E+03  0.25500000920E-02 0. -1.
        2   -1    0    0  501    0  0.00000000000E+00  0.00000000000E+00 -0.69275203488E+03  0.69275203489E+03  0.25500000920E-02 0.  1.
    10030    2    1    2    0    0  0.00000000000E+00  0.00000000000E+00 -0.33062506491E+03  0.10548790049E+04  0.10017268996E+04 0.  0.
        4    1    3    3  502    0 -0.25777596126E+03  0.14635357875E+03 -0.59046053429E+03  0.66069135886E+03  0.12699999809E+01 0.  1.
       -4    1    3    3    0  502  0.25777596126E+03 -0.14635357875E+03  0.25983546938E+03  0.39418764601E+03  0.12699999809E+01 0. -1.
</event>
<event>
 5   0  0.2327595E-03  0.9920969E+03  0.7818609E-02  0.9317256E-01
       -1   -1    0    0    0  501  0.00000000000E+00  0.00000000000E+00  0.85262144078E+03  0.85262144080E+03  0.50400001928E-02 0. -1.
        1   -1    0    0  501    0  0.00000000000E+00  0.00000000000E+00 -0.28859706609E+03  0.28859706613E+03  0.50400001928E-02 0.  1.
    10030    2    1    2    0    0  0.00000000000E+00  0.00000000000E+00  0.56402437470E+03  0.11412185069E+04  0.99209686286E+03 0.  0.
        5    1    3    3  502    0  0.18949862711E+03 -0.37630033363E+03  0.58314355758E+03  0.71943739791E+03  0.46999998093E+01 0. -1.
       -5    1    3    3    0  502 -0.18949862711E+03  0.37630033363E+03 -0.19119182881E+02  0.42178110902E+03  0.46999998093E+01 0.  1.
</event>
<event>
 5   0  0.2350769E-03  0.9049334E+03  0.7818609E-02  0.9419435E-01
        1   -1    0    0  501    0  0.00000000000E+00  0.00000000000E+00  0.86121182987E+03  0.86121182988E+03  0.50400001928E-02 0. -1.
       -1   -1    0    0    0  501  0.00000000000E+00  0.00000000000E+00 -0.23771866409E+03  0.23771866414E+03  0.50400001928E-02 0.  1.
    10030    2    1    2    0    0  0.00000000000E+00  0.00000000000E+00  0.62349316578E+03  0.10989304940E+04  0.90493342458E+03 0.  0.
        2    1    3    3  502    0  0.39564924392E+03 -0.19058164792E+03  0.44403254606E+03  0.62451948785E+03  0.25500000920E-02 0. -1.
       -2    1    3    3    0  502 -0.39564924392E+03  0.19058164792E+03  0.17946061972E+03  0.47441100617E+03  0.25500000920E-02 0.  1.
</event>
<event>
 5   0  0.2405022E-03  0.9722131E+03  0.7818609E-02  0.9339557E-01
        1   -1    0    0  501    0  0.00000000000E+00  0.00000000000E+00  0.60506880386E+03  0.60506880389E+03  0.50400001928E-02 0. -1.
       -1   -1    0    0    0  501  0.00000000000E+00  0.00000000000E+00 -0.39053336722E+03  0.39053336725E+03  0.50400001928E-02 0.  1.
    10030    2    1    2    0    0  0.00000000000E+00  0.00000000000E+00  0.21453543664E+03  0.99560217114E+03  0.97221305772E+03 0.  0.
        4    1    3    3  502    0 -0.10794922576E+03  0.13856434516E+03  0.57143229659E+03  0.59782070521E+03  0.12699999809E+01 0. -1.
       -4    1    3    3    0  502  0.10794922576E+03 -0.13856434516E+03 -0.35689685995E+03  0.39778146593E+03  0.12699999809E+01 0.  1.
</event>
<event>
 5   0  0.2405022E-03  0.9948383E+03  0.7818609E-02  0.9314224E-01
        1   -1    0    0  501    0  0.00000000000E+00  0.00000000000E+00  0.65456379668E+03  0.65456379670E+03  0.50400001928E-02 0.  1.
       -1   -1    0    0    0  501  0.00000000000E+00  0.00000000000E+00 -0.37800103759E+03  0.37800103762E+03  0.50400001928E-02 0. -1.
    10030    2    1    2    0    0  0.00000000000E+00  0.00000000000E+00  0.27656275909E+03  0.10325648343E+04  0.99483826693E+03 0.  0.
        4    1    3    3  502    0 -0.44063441857E+03 -0.11209071767E+03  0.34767731635E+03  0.57236714531E+03  0.12699999809E+01 0.  1.
       -4    1    3    3    0  502  0.44063441857E+03  0.11209071767E+03 -0.71114557264E+02  0.46019768901E+03  0.12699999809E+01 0. -1.
</event>
<event>
 5   0  0.4140860E-03  0.1020705E+04  0.7818609E-02  0.9286123E-01
       -2   -1    0    0    0  501  0.00000000000E+00  0.00000000000E+00  0.11728517082E+03  0.11728517085E+03  0.25500000920E-02 0. -1.
        2   -1    0    0  501    0  0.00000000000E+00  0.00000000000E+00 -0.22207387974E+04  0.22207387974E+04  0.25500000920E-02 0.  1.
    10030    2    1    2    0    0  0.00000000000E+00  0.00000000000E+00 -0.21034536266E+04  0.23380239683E+04  0.10207051077E+04 0.  0.
        3    1    3    3  502    0 -0.94388953373E+02  0.51662949737E+02 -0.21944600988E+04  0.21970966001E+04  0.10100000352E+00 0.  1.
       -3    1    3    3    0  502  0.94388953373E+02 -0.51662949737E+02  0.91006472228E+02  0.14092736811E+03  0.10100000352E+00 0. -1.
</event>
<event>
 5   0  0.2350769E-03  0.1002210E+04  0.7818609E-02  0.9306124E-01
        1   -1    0    0  501    0  0.00000000000E+00  0.00000000000E+00  0.73668214979E+03  0.73668214980E+03  0.50400001928E-02 0.  1.
       -1   -1    0    0    0  501  0.00000000000E+00  0.00000000000E+00 -0.34086128539E+03  0.34086128542E+03  0.50400001928E-02 0. -1.
    10030    2    1    2    0    0  0.00000000000E+00  0.00000000000E+00  0.39582086440E+03  0.10775434352E+04  0.10022104061E+04 0.  0.
        2    1    3    3  502    0 -0.27336521890E+03  0.37695832094E+03 -0.11560866734E+01  0.46564735065E+03  0.25500000920E-02 0. -1.
       -2    1    3    3    0  502  0.27336521890E+03 -0.37695832094E+03  0.39697695107E+03  0.61189608457E+03  0.25500000920E-02 0.  1.
</event>
<event>
 5   0  0.4140860E-03  0.1002255E+04  0.7818609E-02  0.9306075E-01
        2   -1    0    0  501    0  0.00000000000E+00  0.00000000000E+00  0.34003463114E+03  0.34003463115E+03  0.25500000920E-02 0. -1.
       -2   -1    0    0    0  501  0.00000000000E+00  0.00000000000E+00 -0.73853948960E+03  0.73853948960E+03  0.25500000920E-02 0.  1.
    10030    2    1    2    0    0  0.00000000000E+00  0.00000000000E+00 -0.39850485846E+03  0.10785741208E+04  0.10022554623E+04 0.  0.
        3    1    3    3  502    0 -0.87481592855E+02 -0.46818664775E+03 -0.36692850410E+03  0.60123897374E+03  0.10100000352E+00 0.  1.
       -3    1    3    3    0  502  0.87481592855E+02  0.46818664775E+03 -0.31576354352E+02  0.47733514701E+03  0.10100000352E+00 0. -1.
</event>
<event>
 5   0  0.2327595E-03  0.9759953E+03  0.7818609E-02  0.9335272E-01
        1   -1    0    0  501    0  0.00000000000E+00  0.00000000000E+00  0.38739872095E+03  0.38739872098E+03  0.50400001928E-02 0.  1.
       -1   -1    0    0    0  501  0.00000000000E+00  0.00000000000E+00 -0.61471995754E+03  0.61471995756E+03  0.50400001928E-02 0. -1.
    10030    2    1    2    0    0  0.00000000000E+00  0.00000000000E+00 -0.22732123659E+03  0.10021186785E+04  0.97599533876E+03 0.  0.
        5    1    3    3  502    0  0.57466873581E+02 -0.45682478880E+03  0.52308406122E+02  0.46341082051E+03  0.46999998093E+01 0.  1.
       -5    1    3    3    0  502 -0.57466873581E+02  0.45682478880E+03 -0.27962964271E+03  0.53870785803E+03  0.46999998093E+01 0. -1.
</event>
<event>
 5   0  0.4140860E-03  0.1038680E+04  0.7818609E-02  0.9267110E-01
       -2   -1    0    0    0  501  0.00000000000E+00  0.00000000000E+00  0.14144113691E+03  0.14144113694E+03  0.25500000920E-02 0.  1.
        2   -1    0    0  501    0  0.00000000000E+00  0.00000000000E+00 -0.19068982673E+04  0.19068982673E+04  0.25500000920E-02 0. -1.
    10030    2    1    2    0    0  0.00000000000E+00  0.00000000000E+00 -0.17654571304E+04  0.20483394042E+04  0.10386796598E+04 0.  0.
        3    1    3    3  502    0 -0.12769553146E+03 -0.46698112492E+03 -0.51202137708E+03  0.70465837153E+03  0.10100000352E+00 0.  1.
       -3    1    3    3    0  502  0.12769553146E+03  0.46698112492E+03 -0.12534357533E+04  0.13436810327E+04  0.10100000352E+00 0. -1.
</event>
<event>
 5   0  0.2313036E-03  0.1002604E+04  0.7818609E-02  0.9305694E-01
       -1   -1    0    0    0  501  0.00000000000E+00  0.00000000000E+00  0.17774538019E+03  0.17774538027E+03  0.50400001928E-02 0. -1.
        1   -1    0    0  501    0  0.00000000000E+00  0.00000000000E+00 -0.14138398115E+04  0.14138398115E+04  0.50400001928E-02 0.  1.
    10030    2    1    2    0    0  0.00000000000E+00  0.00000000000E+00 -0.12360944313E+04  0.15915851918E+04  0.10026036004E+04 0.  0.
        3    1    3    3  502    0  0.33472503431E+03  0.75704696155E+02 -0.11981332210E+04  0.12463126714E+04  0.10100000352E+00 0.  1.
       -3    1    3    3    0  502 -0.33472503431E+03 -0.75704696155E+02 -0.37961210357E+02  0.34527252035E+03  0.10100000352E+00 0. -1.
</event>
<event>
 5   0  0.2327595E-03  0.9990982E+03  0.7818609E-02  0.9309534E-01
        1   -1    0    0  501    0  0.00000000000E+00  0.00000000000E+00  0.14770897503E+04  0.14770897503E+04  0.50400001928E-02 0. -1.
       -1   -1    0    0    0  501  0.00000000000E+00  0.00000000000E+00 -0.16894660896E+03  0.16894660904E+03  0.50400001928E-02 0.  1.
    10030    2    1    2    0    0  0.00000000000E+00  0.00000000000E+00  0.13081431413E+04  0.16460363593E+04  0.99909820240E+03 0.  0.
        5    1    3    3  502    0  0.24185218978E+03  0.34529743556E+03  0.21259585720E+03  0.47216722589E+03  0.46999998093E+01 0.  1.
       -5    1    3    3    0  502 -0.24185218978E+03 -0.34529743556E+03  0.10955472841E+04  0.11738691334E+04  0.46999998093E+01 0. -1.
</event>
<event>
 5   0  0.3873874E-03  0.1030165E+04  0.7818609E-02  0.9276065E-01
       -2   -1    0    0    0  501  0.00000000000E+00  0.00000000000E+00  0.21633640748E+03  0.21633640750E+03  0.25500000920E-02 0.  1.
        2   -1    0    0  501    0  0.00000000000E+00  0.00000000000E+00 -0.12263771885E+04  0.12263771886E+04  0.25500000920E-02 0. -1.
    10030    2    1    2    0    0  0.00000000000E+00  0.00000000000E+00 -0.10100407811E+04  0.14427135960E+04  0.10301651037E+04 0.  0.
        5    1    3    3  502    0 -0.28291764694E+03  0.32936595124E+03 -0.89303762406E+03  0.99300685434E+03  0.46999998093E+01 0. -1.
       -5    1    3    3    0  502  0.28291764694E+03 -0.32936595124E+03 -0.11700315700E+03  0.44970674170E+03  0.46999998093E+01 0.  1.
</event>
<event>
 5   0  0.2378609E-03  0.1006828E+04  0.7818609E-02  0.9301087E-01
        1   -1    0    0  501    0  0.00000000000E+00  0.00000000000E+00  0.19813182293E+03  0.19813182299E+03  0.50400001928E-02 0.  1.
       -1   -1    0    0    0  501  0.00000000000E+00  0.00000000000E+00 -0.12790765486E+04  0.12790765486E+04  0.50400001928E-02 0. -1.
    10030    2    1    2    0    0  0.00000000000E+00  0.00000000000E+00 -0.10809447257E+04  0.14772083716E+04  0.10068282243E+04 0.  0.
        1    1    3    3  502    0 -0.37782744830E+03  0.15460431791E+03 -0.97265807752E+03  0.10548553510E+04  0.50400001928E-02 0. -1.
       -1    1    3    3    0  502  0.37782744830E+03 -0.15460431791E+03 -0.10828664818E+03  0.42235302059E+03  0.50400001928E-02 0.  1.
</event>
<event>
 5   0  0.2350769E-03  0.9985259E+03  0.7818609E-02  0.9310163E-01
       -1   -1    0    0    0  501  0.00000000000E+00  0.00000000000E+00  0.71471150333E+03  0.71471150334E+03  0.50400001928E-02 0. -1.
        1   -1    0    0  501    0  0.00000000000E+00  0.00000000000E+00 -0.34876098356E+03  0.34876098360E+03  0.50400001928E-02 0.  1.
    10030    2    1    2    0    0  0.00000000000E+00  0.00000000000E+00  0.36595051977E+03  0.10634724869E+04  0.99852588728E+03 0.  0.
        2    1    3    3  502    0 -0.22173887329E+02  0.26805902117E+03  0.63094707510E+03  0.68588740453E+03  0.25500000920E-02 0. -1.
       -2    1    3    3    0  502  0.22173887329E+02 -0.26805902117E+03 -0.26499655534E+03  0.37758508241E+03  0.25500000920E-02 0.  1.
</event>
<event>
 5   0  0.3895011E-03  0.1008952E+04  0.7818609E-02  0.9298780E-01
       -2   -1    0    0    0  501  0.00000000000E+00  0.00000000000E+00  0.39866761093E+03  0.39866761094E+03  0.25500000920E-02 0. -1.
        2   -1    0    0  501    0  0.00000000000E+00  0.00000000000E+00 -0.63836671429E+03  0.63836671430E+03  0.25500000920E-02 0.  1.
    10030    2    1    2    0    0  0.00000000000E+00  0.00000000000E+00 -0.23969910336E+03  0.10370343252E+04  0.10089521949E+04 0.  0.
        2    1    3    3  502    0 -0.16038771963E+03 -0.24759463583E+03  0.30077004965E+03  0.42129555786E+03  0.25500000920E-02 0. -1.
       -2    1    3    3    0  502  0.16038771963E+03  0.24759463583E+03 -0.54046915301E+03  0.61573876738E+03  0.25500000920E-02 0.  1.
</event>
<event>
 5   0  0.3895011E-03  0.1003997E+04  0.7818609E-02  0.9304172E-01
       -2   -1    0    0    0  501  0.00000000000E+00  0.00000000000E+00  0.60103462724E+03  0.60103462725E+03  0.25500000920E-02 0.  1.
        2   -1    0    0  501    0  0.00000000000E+00  0.00000000000E+00 -0.41928092830E+03  0.41928092830E+03  0.25500000920E-02 0. -1.
    10030    2    1    2    0    0  0.00000000000E+00  0.00000000000E+00  0.18175369895E+03  0.10203155556E+04  0.10039967260E+04 0.  0.
        2    1    3    3  502    0  0.10003053010E+03  0.24774935389E+03  0.52277458896E+03  0.58709379163E+03  0.25500000920E-02 0.  1.
       -2    1    3    3    0  502 -0.10003053010E+03 -0.24774935389E+03 -0.34102089001E+03  0.43322176392E+03  0.25500000920E-02 0. -1.
</event>
<event>
 5   0  0.3826483E-03  0.1000491E+04  0.7818609E-02  0.9308006E-01
        2   -1    0    0  501    0  0.00000000000E+00  0.00000000000E+00  0.64353919323E+03  0.64353919324E+03  0.25500000920E-02 0. -1.
       -2   -1    0    0    0  501  0.00000000000E+00  0.00000000000E+00 -0.38885849494E+03  0.38885849495E+03  0.25500000920E-02 0.  1.
    10030    2    1    2    0    0  0.00000000000E+00  0.00000000000E+00  0.25468069829E+03  0.10323976882E+04  0.10004912436E+04 0.  0.
        4    1    3    3  502    0  0.99460986950E+02 -0.26294056478E+03  0.55431605596E+03  0.62152886605E+03  0.12699999809E+01 0. -1.
       -4    1    3    3    0  502 -0.99460986950E+02  0.26294056478E+03 -0.29963535767E+03  0.41086882214E+03  0.12699999809E+01 0.  1.
</event>
<event>
 5   0  0.4026829E-03  0.1002113E+04  0.7818609E-02  0.9306230E-01
        2   -1    0    0  501    0  0.00000000000E+00  0.00000000000E+00  0.27157065872E+03  0.27157065873E+03  0.25500000920E-02 0. -1.
       -2   -1    0    0    0  501  0.00000000000E+00  0.00000000000E+00 -0.92446503228E+03  0.92446503228E+03  0.25500000920E-02 0.  1.
    10030    2    1    2    0    0  0.00000000000E+00  0.00000000000E+00 -0.65289437356E+03  0.11960356910E+04  0.10021129233E+04 0.  0.
        1    1    3    3  502    0  0.34191071090E+03 -0.14568260064E+03 -0.72753040711E+03  0.81696196218E+03  0.50400001928E-02 0.  1.
       -1    1    3    3    0  502 -0.34191071090E+03  0.14568260064E+03  0.74636033546E+02  0.37907372883E+03  0.50400001928E-02 0. -1.
</event>
<event>
 5   0  0.1548000E-03  0.9972962E+03  0.7818609E-02  0.9311515E-01
        4   -1    0    0  501    0  0.00000000000E+00  0.00000000000E+00  0.15852165498E+03  0.15852674221E+03  0.12699999809E+01 0. -1.
       -4   -1    0    0    0  501  0.00000000000E+00  0.00000000000E+00 -0.15685245309E+04  0.15685250450E+04  0.12699999809E+01 0.  1.
    10030    2    1    2    0    0  0.00000000000E+00  0.00000000000E+00 -0.14100028759E+04  0.17270517872E+04  0.99729622769E+03 0.  0.
        2    1    3    3  502    0  0.98652510618E+02  0.80824178854E+02  0.12980406031E+03  0.18197241499E+03  0.25500000920E-02 0. -1.
       -2    1    3    3    0  502 -0.98652510618E+02 -0.80824178854E+02 -0.15398069362E+04  0.15450793723E+04  0.25500000920E-02 0.  1.
</event>
<event>
 5   0  0.3895011E-03  0.1001594E+04  0.7818609E-02  0.9306799E-01
        2   -1    0    0  501    0  0.00000000000E+00  0.00000000000E+00  0.46108012384E+03  0.46108012385E+03  0.25500000920E-02 0.  1.
       -2   -1    0    0    0  501  0.00000000000E+00  0.00000000000E+00 -0.54393458100E+03  0.54393458100E+03  0.25500000920E-02 0. -1.
    10030    2    1    2    0    0  0.00000000000E+00  0.00000000000E+00 -0.82854457157E+02  0.10050147049E+04  0.10015935782E+04 0.  0.
        2    1    3    3  502    0 -0.26244315353E+03  0.41220205885E+03 -0.15139388681E+03  0.51157311806E+03  0.25500000920E-02 0. -1.
       -2    1    3    3    0  502  0.26244315353E+03 -0.41220205885E+03  0.68539429655E+02  0.49344158679E+03  0.25500000920E-02 0.  1.
</event>
<event>
 5   0  0.4026829E-03  0.9971785E+03  0.7818609E-02  0.9311645E-01
       -2   -1    0    0    0  501  0.00000000000E+00  0.00000000000E+00  0.21406008264E+03  0.21406008265E+03  0.25500000920E-02 0. -1.
        2   -1    0    0  501    0  0.00000000000E+00  0.00000000000E+00 -0.11613153233E+04  0.11613153233E+04  0.25500000920E-02 0.  1.
    10030    2    1    2    0    0  0.00000000000E+00  0.00000000000E+00 -0.94725524067E+03  0.13753754060E+04  0.99717852782E+03 0.  0.
        1    1    3    3  502    0  0.16819679814E+03  0.20744072073E+03  0.10709035662E+03  0.28773279275E+03  0.50400001928E-02 0. -1.
       -1    1    3    3    0  502 -0.16819679814E+03 -0.20744072073E+03 -0.10543455973E+04  0.10876426132E+04  0.50400001928E-02 0.  1.
</event>
<event>
 5   0  0.1548000E-03  0.1001569E+04  0.7818609E-02  0.9306825E-01
        3   -1    0    0  501    0  0.00000000000E+00  0.00000000000E+00  0.51816160483E+03  0.51816161467E+03  0.10100000352E+00 0. -1.
       -3   -1    0    0    0  501  0.00000000000E+00  0.00000000000E+00 -0.48399031248E+03  0.48399032302E+03  0.10100000352E+00 0.  1.
    10030    2    1    2    0    0  0.00000000000E+00  0.00000000000E+00  0.34171292347E+02  0.10021519377E+04  0.10015691833E+04 0.  0.
        4    1    3    3  502    0  0.13060337931E+03  0.29559005434E+03 -0.36569788180E+03  0.48802384835E+03  0.12699999809E+01 0.  1.
       -4    1    3    3    0  502 -0.13060337931E+03 -0.29559005434E+03  0.39986917414E+03  0.51412808933E+03  0.12699999809E+01 0. -1.
</event>
<event>
 5   0  0.1548000E-03  0.1002823E+04  0.7818609E-02  0.9305454E-01
       -3   -1    0    0    0  501  0.00000000000E+00  0.00000000000E+00  0.31313294565E+03  0.31313296193E+03  0.10100000352E+00 0. -1.
        3   -1    0    0  501    0  0.00000000000E+00  0.00000000000E+00 -0.80289676018E+03  0.80289676654E+03  0.10100000352E+00 0.  1.
    10030    2    1    2    0    0  0.00000000000E+00  0.00000000000E+00 -0.48976381454E+03  0.11160297285E+04  0.10028228960E+04 0.  0.
        2    1    3    3  502    0 -0.88919578632E+02 -0.26926137407E+02 -0.79323402478E+03  0.79865632560E+03  0.25500000920E-02 0.  1.
       -2    1    3    3    0  502  0.88919578632E+02  0.26926137407E+02  0.30347021024E+03  0.31737340287E+03  0.25500000920E-02 0. -1.
</event>
<event>
 5   0  0.2313036E-03  0.9926466E+03  0.7818609E-02  0.9316647E-01
       -1   -1    0    0    0  501  0.00000000000E+00  0.00000000000E+00  0.66226372756E+03  0.66226372758E+03  0.50400001928E-02 0. -1.
        1   -1    0    0  501    0  0.00000000000E+00  0.00000000000E+00 -0.37196184250E+03  0.37196184254E+03  0.50400001928E-02 0.  1.
    10030    2    1    2    0    0  0.00000000000E+00  0.00000000000E+00  0.29030188506E+03  0.10342255701E+04  0.99264663673E+03 0.  0.
        3    1    3    3  502    0 -0.43180093257E+03 -0.24057979091E+03  0.98484816005E+02  0.50401383944E+03  0.10100000352E+00 0. -1.
       -3    1    3    3    0  502  0.43180093257E+03  0.24057979091E+03  0.19181706905E+03  0.53021173068E+03  0.10100000352E+00 0.  1.
</event>
<event>
 5   0  0.3873874E-03  0.1000297E+04  0.7818609E-02  0.9308219E-01
        2   -1    0    0  501    0  0.00000000000E+00  0.00000000000E+00  0.11779553749E+04  0.11779553749E+04  0.25500000920E-02 0.  1.
       -2   -1    0    0    0  501  0.00000000000E+00  0.00000000000E+00 -0.21235840040E+03  0.21235840041E+03  0.25500000920E-02 0. -1.
    10030    2    1    2    0    0  0.00000000000E+00  0.00000000000E+00  0.96559697450E+03  0.13903137753E+04  0.10002973941E+04 0.  0.
        5    1    3    3  502    0  0.36996178933E+03 -0.25746127701E+03  0.18157594444E+03  0.48595261941E+03  0.46999998093E+01 0. -1.
       -5    1    3    3    0  502 -0.36996178933E+03  0.25746127701E+03  0.78402103006E+03  0.90436115590E+03  0.46999998093E+01 0.  1.
</event>
<event>
 5   0  0.2405022E-03  0.9966460E+03  0.7818609E-02  0.9312231E-01
       -1   -1    0    0    0  501  0.00000000000E+00  0.00000000000E+00  0.64875493980E+03  0.64875493982E+03  0.50400001928E-02 0.  1.
        1   -1    0    0  501    0  0.00000000000E+00  0.00000000000E+00 -0.38277290268E+03  0.38277290272E+03  0.50400001928E-02 0. -1.
    10030    2    1    2    0    0  0.00000000000E+00  0.00000000000E+00  0.26598203711E+03  0.10315278425E+04  0.99664599826E+03 0.  0.
        4    1    3    3  502    0 -0.42406739882E+03 -0.26529709813E+02  0.40246318940E+03  0.58524799527E+03  0.12699999809E+01 0.  1.
       -4    1    3    3    0  502  0.42406739882E+03  0.26529709813E+02 -0.13648115228E+03  0.44627984727E+03  0.12699999809E+01 0. -1.
</event>
<event>
 5   0  0.4026829E-03  0.1029980E+04  0.7818609E-02  0.9276261E-01
        2   -1    0    0  501    0  0.00000000000E+00  0.00000000000E+00  0.12640081169E+04  0.12640081169E+04  0.25500000920E-02 0.  1.
       -2   -1    0    0    0  501  0.00000000000E+00  0.00000000000E+00 -0.20982055022E+03  0.20982055023E+03  0.25500000920E-02 0. -1.
    10030    2    1    2    0    0  0.00000000000E+00  0.00000000000E+00  0.10541875667E+04  0.14738286671E+04  0.10299803466E+04 0.  0.
        1    1    3    3  502    0  0.39358071586E+03  0.20360045015E+03  0.15161204832E+03  0.46834296879E+03  0.50400001928E-02 0. -1.
       -1    1    3    3    0  502 -0.39358071586E+03 -0.20360045015E+03  0.90257551834E+03  0.10054856983E+04  0.50400001928E-02 0.  1.
</event>
<event>
 5   0  0.1548000E-03  0.1046620E+04  0.7818609E-02  0.9258840E-01
        3   -1    0    0  501    0  0.00000000000E+00  0.00000000000E+00  0.32716911135E+03  0.32716912694E+03  0.10100000352E+00 0. -1.
       -3   -1    0    0    0  501  0.00000000000E+00  0.00000000000E+00 -0.83703933684E+03  0.83703934293E+03  0.10100000352E+00 0.  1.
    10030    2    1    2    0    0  0.00000000000E+00  0.00000000000E+00 -0.50987022549E+03  0.11642084699E+04  0.10466201386E+04 0.  0.
        1    1    3    3  502    0 -0.44343306606E+03 -0.19539107712E+03 -0.47472744796E+03  0.67836325591E+03  0.50400001928E-02 0. -1.
       -1    1    3    3    0  502  0.44343306606E+03  0.19539107712E+03 -0.35142777531E+02  0.48584521396E+03  0.50400001928E-02 0.  1.
</event>
<event>
 5   0  0.3895011E-03  0.1007613E+04  0.7818609E-02  0.9300234E-01
       -2   -1    0    0    0  501  0.00000000000E+00  0.00000000000E+00  0.14765531309E+03  0.14765531311E+03  0.25500000920E-02 0. -1.
        2   -1    0    0  501    0  0.00000000000E+00  0.00000000000E+00 -0.17190093948E+04  0.17190093948E+04  0.25500000920E-02 0.  1.
    10030    2    1    2    0    0  0.00000000000E+00  0.00000000000E+00 -0.15713540818E+04  0.18666647080E+04  0.10076127638E+04 0.  0.
        2    1    3    3  502    0 -0.26113222948E+03  0.72156439189E+01 -0.15837393398E+04  0.16051393719E+04  0.25500000920E-02 0.  1.
       -2    1    3    3    0  502  0.26113222948E+03 -0.72156439189E+01  0.12385258017E+02  0.26152533609E+03  0.25500000920E-02 0. -1.
</event>
<event>
 5   0  0.2327595E-03  0.1003597E+04  0.7818609E-02  0.9304608E-01
        1   -1    0    0  501    0  0.00000000000E+00  0.00000000000E+00  0.56131706233E+03  0.56131706235E+03  0.50400001928E-02 0.  1.
       -1   -1    0    0    0  501  0.00000000000E+00  0.00000000000E+00 -0.44859119634E+03  0.44859119637E+03  0.50400001928E-02 0. -1.
    10030    2    1    2    0    0  0.00000000000E+00  0.00000000000E+00  0.11272586599E+03  0.10099082587E+04  0.10035973147E+04 0.  0.
        5    1    3    3  502    0  0.75799236587E+02  0.35291259090E+03  0.40710455321E+03  0.54410387641E+03  0.46999998093E+01 0.  1.
       -5    1    3    3    0  502 -0.75799236587E+02 -0.35291259090E+03 -0.29437868722E+03  0.46580438231E+03  0.46999998093E+01 0. -1.
</event>
<event>
 5   0  0.3826483E-03  0.9726842E+03  0.7818609E-02  0.9339022E-01
        2   -1    0    0  501    0  0.00000000000E+00  0.00000000000E+00  0.14351319208E+04  0.14351319208E+04  0.25500000920E-02 0. -1.
       -2   -1    0    0    0  501  0.00000000000E+00  0.00000000000E+00 -0.16481317765E+03  0.16481317767E+03  0.25500000920E-02 0.  1.
    10030    2    1    2    0    0  0.00000000000E+00  0.00000000000E+00  0.12703187431E+04  0.15999450985E+04  0.97268422879E+03 0.  0.
        4    1    3    3  502    0  0.36257340146E+03  0.27814780554E+03  0.90892807551E+03  0.10173384553E+04  0.12699999809E+01 0. -1.
       -4    1    3    3    0  502 -0.36257340146E+03 -0.27814780554E+03  0.36139066763E+03  0.58260664322E+03  0.12699999809E+01 0.  1.
</event>
<event>
 5   0  0.3873874E-03  0.9971561E+03  0.7818609E-02  0.9311669E-01
       -2   -1    0    0    0  501  0.00000000000E+00  0.00000000000E+00  0.19216464463E+03  0.19216464465E+03  0.25500000920E-02 0.  1.
        2   -1    0    0  501    0  0.00000000000E+00  0.00000000000E+00 -0.12935787044E+04  0.12935787044E+04  0.25500000920E-02 0. -1.
    10030    2    1    2    0    0  0.00000000000E+00  0.00000000000E+00 -0.11014140598E+04  0.14857433490E+04  0.99715614032E+03 0.  0.
        5    1    3    3  502    0 -0.17679886030E+03  0.34442252896E+03 -0.82669774642E+02  0.39590541433E+03  0.46999998093E+01 0.  1.
       -5    1    3    3    0  502  0.17679886030E+03 -0.34442252896E+03 -0.10187442851E+04  0.10898379347E+04  0.46999998093E+01 0. -1.
</event>
<event>
 5   0  0.2405022E-03  0.9898989E+03  0.7818609E-02  0.9319693E-01
       -1   -1    0    0    0  501  0.00000000000E+00  0.00000000000E+00  0.37742902944E+03  0.37742902948E+03  0.50400001928E-02 0. -1.
        1   -1    0    0  501    0  0.00000000000E+00  0.00000000000E+00 -0.64906233876E+03  0.64906233878E+03  0.50400001928E-02 0.  1.
    10030    2    1    2    0    0  0.00000000000E+00  0.00000000000E+00 -0.27163330931E+03  0.10264913683E+04  0.98989892129E+03 0.  0.
        4    1    3    3  502    0  0.32077133254E+03 -0.37477654194E+03 -0.17757499394E+03  0.52429590456E+03  0.12699999809E+01 0. -1.
       -4    1    3    3    0  502 -0.32077133254E+03  0.37477654194E+03 -0.94058315374E+02  0.50219546369E+03  0.12699999809E+01 0.  1.
</event>
<event>
 5   0  0.4026829E-03  0.1002071E+04  0.7818609E-02  0.9306277E-01
        2   -1    0    0  501    0  0.00000000000E+00  0.00000000000E+00  0.56690863248E+03  0.56690863249E+03  0.25500000920E-02 0. -1.
       -2   -1    0    0    0  501  0.00000000000E+00  0.00000000000E+00 -0.44281624527E+03  0.44281624528E+03  0.25500000920E-02 0.  1.
    10030    2    1    2    0    0  0.00000000000E+00  0.00000000000E+00  0.12409238721E+03  0.10097248778E+04  0.10020705605E+04 0.  0.
        1    1    3    3  502    0  0.90041229839E+02  0.12579543818E+03 -0.41814872781E+03  0.44584781477E+03  0.50400001928E-02 0.  1.
       -1    1    3    3    0  502 -0.90041229839E+02 -0.12579543818E+03  0.54224111502E+03  0.56387706300E+03  0.50400001928E-02 0. -1.
</event>
<event>
 5   0  0.2327595E-03  0.9968407E+03  0.7818609E-02  0.9312017E-01
       -1   -1    0    0    0  501  0.00000000000E+00  0.00000000000E+00  0.31245160876E+03  0.31245160880E+03  0.50400001928E-02 0. -1.
        1   -1    0    0  501    0  0.00000000000E+00  0.00000000000E+00 -0.79507616172E+03  0.79507616173E+03  0.50400001928E-02 0.  1.
    10030    2    1    2    0    0  0.00000000000E+00  0.00000000000E+00 -0.48262455296E+03  0.11075277705E+04  0.99684066098E+03 0.  0.
        5    1    3    3  502    0 -0.47041848359E+03  0.15457480590E+03 -0.30429759823E+03  0.58121083835E+03  0.46999998093E+01 0.  1.
       -5    1    3    3    0  502  0.47041848359E+03 -0.15457480590E+03 -0.17832695473E+03  0.52631693218E+03  0.46999998093E+01 0. -1.
</event>
<event>
 5   0  0.2313036E-03  0.1011488E+04  0.7818609E-02  0.9296034E-01
        1   -1    0    0  501    0  0.00000000000E+00  0.00000000000E+00  0.10066448510E+04  0.10066448510E+04  0.50400001928E-02 0.  1.
       -1   -1    0    0    0  501  0.00000000000E+00  0.00000000000E+00 -0.25408845812E+03  0.25408845817E+03  0.50400001928E-02 0. -1.
    10030    2    1    2    0    0  0.00000000000E+00  0.00000000000E+00  0.75255639287E+03  0.12607333092E+04  0.10114876927E+04 0.  0.
        3    1    3    3  502    0 -0.48374808617E+02 -0.43707270430E+03  0.64913488995E+02  0.44450696531E+03  0.10100000352E+00 0. -1.
       -3    1    3    3    0  502  0.48374808617E+02  0.43707270430E+03  0.68764290388E+03  0.81622634386E+03  0.10100000352E+00 0.  1.
</event>
<event>
 5   0  0.2313036E-03  0.1004089E+04  0.7818609E-02  0.9304072E-01
        1   -1    0    0  501    0  0.00000000000E+00  0.00000000000E+00  0.16685010147E+04  0.16685010147E+04  0.50400001928E-02 0. -1.
       -1   -1    0    0    0  501  0.00000000000E+00  0.00000000000E+00 -0.15106283218E+03  0.15106283226E+03  0.50400001928E-02 0.  1.
    10030    2    1    2    0    0  0.00000000000E+00  0.00000000000E+00  0.15174381826E+04  0.18195638470E+04  0.10040886193E+04 0.  0.
        3    1    3    3  502    0  0.25813491411E+02 -0.26922806152E+03  0.15251949392E+04  0.15489898961E+04  0.10100000352E+00 0. -1.
       -3    1    3    3    0  502 -0.25813491411E+02  0.26922806152E+03 -0.77567566186E+01  0.27057395093E+03  0.10100000352E+00 0.  1.
</event>
<event>
 5   0  0.2405022E-03  0.1003046E+04  0.7818609E-02  0.9305210E-01
        1   -1    0    0  501    0  0.00000000000E+00  0.00000000000E+00  0.41515965383E+03  0.41515965386E+03  0.50400001928E-02 0.  1.
       -1   -1    0    0    0  501  0.00000000000E+00  0.00000000000E+00 -0.60585198133E+03  0.60585198135E+03  0.50400001928E-02 0. -1.
    10030    2    1    2    0    0  0.00000000000E+00  0.00000000000E+00 -0.19069232750E+03  0.10210116352E+04  0.10030459588E+04 0.  0.
        4    1    3    3  502    0  0.41357487808E+03 -0.21033567064E+03  0.98427360013E+02  0.47431511911E+03  0.12699999809E+01 0. -1.
       -4    1    3    3    0  502 -0.41357487808E+03  0.21033567064E+03 -0.28911968751E+03  0.54669651611E+03  0.12699999809E+01 0.  1.
</event>
<event>
 5   0  0.4140860E-03  0.1063943E+04  0.7818609E-02  0.9241066E-01
        2   -1    0    0  501    0  0.00000000000E+00  0.00000000000E+00  0.27123935790E+03  0.27123935791E+03  0.25500000920E-02 0. -1.
       -2   -1    0    0    0  501  0.00000000000E+00  0.00000000000E+00 -0.10433358205E+04  0.10433358205E+04  0.25500000920E-02 0.  1.
    10030    2    1    2    0    0  0.00000000000E+00  0.00000000000E+00 -0.77209646261E+03  0.13145751784E+04  0.10639431151E+04 0.  0.
        3    1    3    3  502    0  0.11991426543E+03 -0.31079817719E+03 -0.89850232079E+03  0.95826998735E+03  0.10100000352E+00 0.  1.
       -3    1    3    3    0  502 -0.11991426543E+03  0.31079817719E+03  0.12640585818E+03  0.35630519107E+03  0.10100000352E+00 0. -1.
</event>
<event>
 5   0  0.2327595E-03  0.1012342E+04  0.7818609E-02  0.9295110E-01
       -1   -1    0    0    0  501  0.00000000000E+00  0.00000000000E+00  0.14966877488E+03  0.14966877496E+03  0.50400001928E-02 0.  1.
        1   -1    0    0  501    0  0.00000000000E+00  0.00000000000E+00 -0.17118422497E+04  0.17118422497E+04  0.50400001928E-02 0. -1.
    10030    2    1    2    0    0  0.00000000000E+00  0.00000000000E+00 -0.15621734749E+04  0.18615110247E+04  0.10123424962E+04 0.  0.
        5    1    3    3  502    0  0.43490465364E+03  0.24864051706E+03 -0.91397952048E+03  0.10422786664E+04  0.46999998093E+01 0.  1.
       -5    1    3    3    0  502 -0.43490465364E+03 -0.24864051706E+03 -0.64819395437E+03  0.81923235835E+03  0.46999998093E+01 0. -1.
</event>
<event>
 5   0  0.4140860E-03  0.9923336E+03  0.7818609E-02  0.9316993E-01
       -2   -1    0    0    0  501  0.00000000000E+00  0.00000000000E+00  0.75690748894E+03  0.75690748894E+03  0.25500000920E-02 0.  1.
        2   -1    0    0  501    0  0.00000000000E+00  0.00000000000E+00 -0.32524648681E+03  0.32524648682E+03  0.25500000920E-02 0. -1.
    10030    2    1    2    0    0  0.00000000000E+00  0.00000000000E+00  0.43166100213E+03  0.10821539758E+04  0.99233361654E+03 0.  0.
        3    1    3    3  502    0 -0.14157195033E+03 -0.46758417965E+03  0.12136458465E+03  0.50339542587E+03  0.10100000352E+00 0. -1.
       -3    1    3    3    0  502  0.14157195033E+03  0.46758417965E+03  0.31029641748E+03  0.57875854990E+03  0.10100000352E+00 0.  1.
</event>
<event>
 5   0  0.3873874E-03  0.9575310E+03  0.7818609E-02  0.9356391E-01
        2   -1    0    0  501    0  0.00000000000E+00  0.00000000000E+00  0.20824363727E+04  0.20824363727E+04  0.25500000920E-02 0. -1.
       -2   -1    0    0    0  501  0.00000000000E+00  0.00000000000E+00 -0.11007126560E+03  0.11007126563E+03  0.25500000920E-02 0.  1.
    10030    2    1    2    0    0  0.00000000000E+00  0.00000000000E+00  0.19723651071E+04  0.21925076383E+04  0.95753100653E+03 0.  0.
        5    1    3    3  502    0  0.45868483383E+03 -0.13632485379E+03  0.95236900231E+03  0.10658353762E+04  0.46999998093E+01 0.  1.
       -5    1    3    3    0  502 -0.45868483383E+03  0.13632485379E+03  0.10199961048E+04  0.11266722622E+04  0.46999998093E+01 0. -1.
</event>
<event>
 5   0  0.2350769E-03  0.1003134E+04  0.7818609E-02  0.9305114E-01
        1   -1    0    0  501    0  0.00000000000E+00  0.00000000000E+00  0.76482818626E+03  0.76482818628E+03  0.50400001928E-02 0.  1.
       -1   -1    0    0    0  501  0.00000000000E+00  0.00000000000E+00 -0.32892263747E+03  0.32892263751E+03  0.50400001928E-02 0. -1.
    10030    2    1    2    0    0  0.00000000000E+00  0.00000000000E+00  0.43590554879E+03  0.10937508238E+04  0.10031336985E+04 0.  0.
        2    1    3    3  502    0  0.23381721743E+03 -0.39925927791E+03  0.68362775693E+01  0.46273663878E+03  0.25500000920E-02 0. -1.
       -2    1    3    3    0  502 -0.23381721743E+03  0.39925927791E+03  0.42906927122E+03  0.63101418501E+03  0.25500000920E-02 0.  1.
</event>
<event>
 5   0  0.2405022E-03  0.1004847E+04  0.7818609E-02  0.9303245E-01
        1   -1    0    0  501    0  0.00000000000E+00  0.00000000000E+00  0.11228386236E+04  0.11228386236E+04  0.50400001928E-02 0.  1.
       -1   -1    0    0    0  501  0.00000000000E+00  0.00000000000E+00 -0.22481356554E+03  0.22481356560E+03  0.50400001928E-02 0. -1.
    10030    2    1    2    0    0  0.00000000000E+00  0.00000000000E+00  0.89802505804E+03  0.13476521892E+04  0.10048469626E+04 0.  0.
        4    1    3    3  502    0  0.41184490154E+03 -0.28772465888E+03  0.44216879312E+03  0.66926568473E+03  0.12699999809E+01 0.  1.
       -4    1    3    3    0  502 -0.41184490154E+03  0.28772465888E+03  0.45585626492E+03  0.67838650445E+03  0.12699999809E+01 0. -1.
</event>
<event>
 5   0  0.3895011E-03  0.1008746E+04  0.7818609E-02  0.9299004E-01
        2   -1    0    0  501    0  0.00000000000E+00  0.00000000000E+00  0.19411596950E+04  0.19411596950E+04  0.25500000920E-02 0. -1.
       -2   -1    0    0    0  501  0.00000000000E+00  0.00000000000E+00 -0.13105163463E+03  0.13105163465E+03  0.25500000920E-02 0.  1.
    10030    2    1    2    0    0  0.00000000000E+00  0.00000000000E+00  0.18101080604E+04  0.20722113297E+04  0.10087460555E+04 0.  0.
        2    1    3    3  502    0  0.25916293614E+03  0.46123979042E+02  0.17888552265E+04  0.18081194293E+04  0.25500000920E-02 0. -1.
       -2    1    3    3    0  502 -0.25916293614E+03 -0.46123979042E+02  0.21252833849E+02  0.26409190041E+03  0.25500000920E-02 0.  1.
</event>
<event>
 5   0  0.4140860E-03  0.1005950E+04  0.7818609E-02  0.9302043E-01
        2   -1    0    0  501    0  0.00000000000E+00  0.00000000000E+00  0.12092141600E+04  0.12092141600E+04  0.25500000920E-02 0.  1.
       -2   -1    0    0    0  501  0.00000000000E+00  0.00000000000E+00 -0.20921351543E+03  0.20921351545E+03  0.25500000920E-02 0. -1.
    10030    2    1    2    0    0  0.00000000000E+00  0.00000000000E+00  0.10000006446E+04  0.14184276755E+04  0.10059501883E+04 0.  0.
        3    1    3    3  502    0 -0.23627702617E+03 -0.20662827066E+03 -0.54167557453E+02  0.31852191418E+03  0.10100000352E+00 0. -1.
       -3    1    3    3    0  502  0.23627702617E+03  0.20662827066E+03  0.10541682021E+04  0.10999057613E+04  0.10100000352E+00 0.  1.
</event>
<event>
 5   0  0.2378609E-03  0.1001482E+04  0.7818609E-02  0.9306921E-01
        1   -1    0    0  501    0  0.00000000000E+00  0.00000000000E+00  0.34964857438E+03  0.34964857442E+03  0.50400001928E-02 0.  1.
       -1   -1    0    0    0  501  0.00000000000E+00  0.00000000000E+00 -0.71712462237E+03  0.71712462238E+03  0.50400001928E-02 0. -1.
    10030    2    1    2    0    0  0.00000000000E+00  0.00000000000E+00 -0.36747604798E+03  0.10667731968E+04  0.10014821055E+04 0.  0.
        1    1    3    3  502    0  0.28433221416E+03  0.40834763821E+03 -0.24351242707E+03  0.55397734954E+03  0.50400001928E-02 0. -1.
       -1    1    3    3    0  502 -0.28433221416E+03 -0.40834763821E+03 -0.12396362092E+03  0.51279584727E+03  0.50400001928E-02 0.  1.
</event>
<event>
 5   0  0.3873874E-03  0.9857034E+03  0.7818609E-02  0.9324365E-01
       -2   -1    0    0    0  501  0.00000000000E+00  0.00000000000E+00  0.18113793693E+03  0.18113793695E+03  0.25500000920E-02 0. -1.
        2   -1    0    0  501    0  0.00000000000E+00  0.00000000000E+00 -0.13409825920E+04  0.13409825920E+04  0.25500000920E-02 0.  1.
    10030    2    1    2    0    0  0.00000000000E+00  0.00000000000E+00 -0.11598446551E+04  0.15221205290E+04  0.98570344466E+03 0.  0.
        5    1    3    3  502    0 -0.30920153064E+03  0.37094320534E+03 -0.42802258809E+03  0.64531377953E+03  0.46999998093E+01 0. -1.
       -5    1    3    3    0  502  0.30920153064E+03 -0.37094320534E+03 -0.73182206702E+03  0.87680674947E+03  0.46999998093E+01 0.  1.
</event>
<event>
 5   0  0.2405022E-03  0.1013311E+04  0.7818609E-02  0.9294065E-01
        1   -1    0    0  501    0  0.00000000000E+00  0.00000000000E+00  0.80261655151E+03  0.80261655153E+03  0.50400001928E-02 0. -1.
       -1   -1    0    0    0  501  0.00000000000E+00  0.00000000000E+00 -0.31982879544E+03  0.31982879548E+03  0.50400001928E-02 0.  1.
    10030    2    1    2    0    0  0.00000000000E+00  0.00000000000E+00  0.48278775607E+03  0.11224453470E+04  0.10133111761E+04 0.  0.
        4    1    3    3  502    0  0.10206954234E+03 -0.22115496758E+02 -0.30777427830E+03  0.32501370118E+03  0.12699999809E+01 0.  1.
       -4    1    3    3    0  502 -0.10206954234E+03  0.22115496758E+02  0.79056203437E+03  0.79743164582E+03  0.12699999809E+01 0. -1.
</event>
<event>
 5   0  0.2327595E-03  0.1001666E+04  0.7818609E-02  0.9306719E-01
        1   -1    0    0  501    0  0.00000000000E+00  0.00000000000E+00  0.17390798918E+04  0.17390798918E+04  0.50400001928E-02 0.  1.
       -1   -1    0    0    0  501  0.00000000000E+00  0.00000000000E+00 -0.14423356802E+03  0.14423356810E+03  0.50400001928E-02 0. -1.
    10030    2    1    2    0    0  0.00000000000E+00  0.00000000000E+00  0.15948463238E+04  0.18833134599E+04  0.10016660081E+04 0.  0.
        5    1    3    3  502    0 -0.34095000279E+03 -0.36669980922E+03  0.81584063388E+03  0.95725319763E+03  0.46999998093E+01 0.  1.
       -5    1    3    3    0  502  0.34095000279E+03  0.36669980922E+03  0.77900568993E+03  0.92606026230E+03  0.46999998093E+01 0. -1.
</event>
<event>
 5   0  0.3895011E-03  0.9962979E+03  0.7818609E-02  0.9312615E-01
        2   -1    0    0  501    0  0.00000000000E+00  0.00000000000E+00  0.18671606097E+03  0.18671606099E+03  0.25500000920E-02 0.  1.
       -2   -1    0    0    0  501  0.00000000000E+00  0.00000000000E+00 -0.13290360042E+04  0.13290360042E+04  0.25500000920E-02 0. -1.
    10030    2    1    2    0    0  0.00000000000E+00  0.00000000000E+00 -0.11423199433E+04  0.15157520652E+04  0.99629788239E+03 0.  0.
        2    1    3    3  502    0  0.43404617177E+03  0.12361656831E+03 -0.25031290391E+03  0.51607527073E+03  0.25500000920E-02 0.  1.
       -2    1    3    3    0  502 -0.43404617177E+03 -0.12361656831E+03 -0.89200703936E+03  0.99967679450E+03  0.25500000920E-02 0. -1.
</event>
<event>
 5   0  0.2378609E-03  0.9962200E+03  0.7818609E-02  0.9312700E-01
       -1   -1    0    0    0  501  0.00000000000E+00  0.00000000000E+00  0.17526400113E+03  0.17526400120E+03  0.50400001928E-02 0. -1.
        1   -1    0    0  501    0  0.00000000000E+00  0.00000000000E+00 -0.14156561474E+04  0.14156561475E+04  0.50400001928E-02 0.  1.
    10030    2    1    2    0    0  0.00000000000E+00  0.00000000000E+00 -0.12403921463E+04  0.15909201487E+04  0.99621997710E+03 0.  0.
        1    1    3    3  502    0 -0.95760458045E+02  0.48457894630E+03 -0.51760804150E+03  0.71547530018E+03  0.50400001928E-02 0.  1.
       -1    1    3    3    0  502  0.95760458045E+02 -0.48457894630E+03 -0.72278410481E+03  0.87544484847E+03  0.50400001928E-02 0. -1.
</event>
<event>
 5   0  0.2350769E-03  0.9995394E+03  0.7818609E-02  0.9309050E-01
       -1   -1    0    0    0  501  0.00000000000E+00  0.00000000000E+00  0.80755913603E+03  0.80755913604E+03  0.50400001928E-02 0.  1.
        1   -1    0    0  501    0  0.00000000000E+00  0.00000000000E+00 -0.30928972712E+03  0.30928972716E+03  0.50400001928E-02 0. -1.
    10030    2    1    2    0    0  0.00000000000E+00  0.00000000000E+00  0.49826940891E+03  0.11168488632E+04  0.99953938361E+03 0.  0.
        2    1    3    3  502    0  0.72105257713E+02 -0.12401472994E+03  0.78406008330E+03  0.79707530112E+03  0.25500000920E-02 0.  1.
       -2    1    3    3    0  502 -0.72105257713E+02  0.12401472994E+03 -0.28579067439E+03  0.31977356208E+03  0.25500000920E-02 0. -1.
</event>
<event>
 5   0  0.3873874E-03  0.9939505E+03  0.7818609E-02  0.9315205E-01
       -2   -1    0    0    0  501  0.00000000000E+00  0.00000000000E+00  0.39333264154E+03  0.39333264154E+03  0.25500000920E-02 0.  1.
        2   -1    0    0  501    0  0.00000000000E+00  0.00000000000E+00 -0.62792755757E+03  0.62792755758E+03  0.25500000920E-02 0. -1.
    10030    2    1    2    0    0  0.00000000000E+00  0.00000000000E+00 -0.23459491604E+03  0.10212601991E+04  0.99395051168E+03 0.  0.
        5    1    3    3  502    0  0.18093416883E+03 -0.46283217581E+03 -0.11381031561E+03  0.50982906386E+03  0.46999998093E+01 0. -1.
       -5    1    3    3    0  502 -0.18093416883E+03  0.46283217581E+03 -0.12078460043E+03  0.51143113526E+03  0.46999998093E+01 0.  1.
</event>
<event>
 5   0  0.3826483E-03  0.9993367E+03  0.7818609E-02  0.9309273E-01
       -2   -1    0    0    0  501  0.00000000000E+00  0.00000000000E+00  0.20455497602E+03  0.20455497604E+03  0.25500000920E-02 0.  1.
        2   -1    0    0  501    0  0.00000000000E+00  0.00000000000E+00 -0.12205445564E+04  0.12205445564E+04  0.25500000920E-02 0. -1.
    10030    2    1    2    0    0  0.00000000000E+00  0.00000000000E+00 -0.10159895804E+04  0.14250995325E+04  0.99933670499E+03 0.  0.
        4    1    3    3  502    0  0.91737239277E+02  0.30648719405E+03 -0.10553375672E+04  0.11027643061E+04  0.12699999809E+01 0. -1.
       -4    1    3    3    0  502 -0.91737239277E+02 -0.30648719405E+03  0.39347986792E+02  0.32233522636E+03  0.12699999809E+01 0.  1.
</event>
<event>
 5   0  0.2350769E-03  0.1002637E+04  0.7818609E-02  0.9305657E-01
        1   -1    0    0  501    0  0.00000000000E+00  0.00000000000E+00  0.11219049027E+04  0.11219049027E+04  0.50400001928E-02 0. -1.
       -1   -1    0    0    0  501  0.00000000000E+00  0.00000000000E+00 -0.22401205041E+03  0.22401205047E+03  0.50400001928E-02 0.  1.
    10030    2    1    2    0    0  0.00000000000E+00  0.00000000000E+00  0.89789285225E+03  0.13459169531E+04  0.10026369585E+04 0.  0.
        2    1    3    3  502    0  0.13965440307E+03  0.39503995096E+03  0.81843022851E+03  0.91944981053E+03  0.25500000920E-02 0. -1.
       -2    1    3    3    0  502 -0.13965440307E+03 -0.39503995096E+03  0.79462623743E+02  0.42646714261E+03  0.25500000920E-02 0.  1.
</event>
<event>
 5   0  0.2313036E-03  0.9948220E+03  0.7818609E-02  0.9314242E-01
       -1   -1    0    0    0  501  0.00000000000E+00  0.00000000000E+00  0.48683787849E+03  0.48683787852E+03  0.50400001928E-02 0. -1.
        1   -1    0    0  501    0  0.00000000000E+00  0.00000000000E+00 -0.50821377197E+03  0.50821377200E+03  0.50400001928E-02 0.  1.
    10030    2    1    2    0    0  0.00000000000E+00  0.00000000000E+00 -0.21375893478E+02  0.99505165052E+03  0.99482202347E+03 0.  0.
        3    1    3    3  502    0 -0.48761540420E+03 -0.39948383969E+01  0.87482368345E+02  0.49541691142E+03  0.10100000352E+00 0. -1.
       -3    1    3    3    0  502  0.48761540420E+03  0.39948383969E+01 -0.10885826182E+03  0.49963473910E+03  0.10100000352E+00 0.  1.
</event>
<event>
 5   0  0.2350769E-03  0.9960486E+03  0.7818609E-02  0.9312889E-01
        1   -1    0    0  501    0  0.00000000000E+00  0.00000000000E+00  0.15295038871E+04  0.15295038871E+04  0.50400001928E-02 0. -1.
       -1   -1    0    0    0  501  0.00000000000E+00  0.00000000000E+00 -0.16216250965E+03  0.16216250972E+03  0.50400001928E-02 0.  1.
    10030    2    1    2    0    0  0.00000000000E+00  0.00000000000E+00  0.13673413774E+04  0.16916663968E+04  0.99604857094E+03 0.  0.
        2    1    3    3  502    0  0.41785716805E+03 -0.19971756767E+02  0.11426246380E+04  0.12167968390E+04  0.25500000920E-02 0. -1.
       -2    1    3    3    0  502 -0.41785716805E+03  0.19971756767E+02  0.22471673940E+03  0.47486955781E+03  0.25500000920E-02 0.  1.
</event>
<event>
 5   0  0.4140860E-03  0.9998217E+03  0.7818609E-02  0.9308740E-01
       -2   -1    0    0    0  501  0.00000000000E+00  0.00000000000E+00  0.56529935504E+03  0.56529935505E+03  0.25500000920E-02 0.  1.
        2   -1    0    0  501    0  0.00000000000E+00  0.00000000000E+00 -0.44208584864E+03  0.44208584865E+03  0.25500000920E-02 0. -1.
    10030    2    1    2    0    0  0.00000000000E+00  0.00000000000E+00  0.12321350640E+03  0.10073852037E+04  0.99982167434E+03 0.  0.
        3    1    3    3  502    0  0.44652388310E+03 -0.15912387635E+03 -0.98360945796E+02  0.48412691731E+03  0.10100000352E+00 0. -1.
       -3    1    3    3    0  502 -0.44652388310E+03  0.15912387635E+03  0.22157445220E+03  0.52325828639E+03  0.10100000352E+00 0.  1.
</event>
<event>
 5   0  0.2327595E-03  0.9349344E+03  0.7818609E-02  0.9382935E-01
        1   -1    0    0  501    0  0.00000000000E+00  0.00000000000E+00  0.10746668188E+04  0.10746668188E+04  0.50400001928E-02 0.  1.
       -1   -1    0    0    0  501  0.00000000000E+00  0.00000000000E+00 -0.20334261989E+03  0.20334261995E+03  0.50400001928E-02 0. -1.
    10030    2    1    2    0    0  0.00000000000E+00  0.00000000000E+00  0.87132419887E+03  0.12780094387E+04  0.93493436451E+03 0.  0.
        5    1    3    3  502    0  0.77396487821E+02  0.46673936629E+02  0.10625768792E+04  0.10664241121E+04  0.46999998093E+01 0.  1.
       -5    1    3    3    0  502 -0.77396487821E+02 -0.46673936629E+02 -0.19125268035E+03  0.21158532659E+03  0.46999998093E+01 0. -1.
</event>
<event>
 5   0  0.2405022E-03  0.1002251E+04  0.7818609E-02  0.9306079E-01
        1   -1    0    0  501    0  0.00000000000E+00  0.00000000000E+00  0.53494686633E+03  0.53494686635E+03  0.50400001928E-02 0. -1.
       -1   -1    0    0    0  501  0.00000000000E+00  0.00000000000E+00 -0.46944283052E+03  0.46944283055E+03  0.50400001928E-02 0.  1.
    10030    2    1    2    0    0  0.00000000000E+00  0.00000000000E+00  0.65504035803E+02  0.10043896969E+04  0.10022514078E+04 0.  0.
        4    1    3    3  502    0 -0.18076416049E+03 -0.24805477144E+03  0.42972656107E+03  0.52808463482E+03  0.12699999809E+01 0. -1.
       -4    1    3    3    0  502  0.18076416049E+03  0.24805477144E+03 -0.36422252527E+03  0.47630506208E+03  0.12699999809E+01 0.  1.
</event>
<event>
 5   0  0.2313036E-03  0.1012009E+04  0.7818609E-02  0.9295471E-01
       -1   -1    0    0    0  501  0.00000000000E+00  0.00000000000E+00  0.27808671447E+03  0.27808671452E+03  0.50400001928E-02 0.  1.
        1   -1    0    0  501    0  0.00000000000E+00  0.00000000000E+00 -0.92072234569E+03  0.92072234571E+03  0.50400001928E-02 0. -1.
    10030    2    1    2    0    0  0.00000000000E+00  0.00000000000E+00 -0.64263563122E+03  0.11988090602E+04  0.10120091938E+04 0.  0.
        3    1    3    3  502    0  0.37415636463E+03  0.24898762500E+03 -0.45910968111E+02  0.45176946532E+03  0.10100000352E+00 0.  1.
       -3    1    3    3    0  502 -0.37415636463E+03 -0.24898762500E+03 -0.59672466311E+03  0.74703959491E+03  0.10100000352E+00 0. -1.
</event>
<event>
 5   0  0.4026829E-03  0.9984811E+03  0.7818609E-02  0.9310212E-01
        2   -1    0    0  501    0  0.00000000000E+00  0.00000000000E+00  0.57263863934E+03  0.57263863935E+03  0.25500000920E-02 0. -1.
       -2   -1    0    0    0  501  0.00000000000E+00  0.00000000000E+00 -0.43525032076E+03  0.43525032077E+03  0.25500000920E-02 0.  1.
    10030    2    1    2    0    0  0.00000000000E+00  0.00000000000E+00  0.13738831859E+03  0.10078889601E+04  0.99848114947E+03 0.  0.
        1    1    3    3  502    0 -0.43303194452E+03  0.16607975394E+03  0.25521068126E+03  0.52936909760E+03  0.50400001928E-02 0. -1.
       -1    1    3    3    0  502  0.43303194452E+03 -0.16607975394E+03 -0.11782236267E+03  0.47851986251E+03  0.50400001928E-02 0.  1.
</event>
<event>
 5   0  0.2378609E-03  0.9983032E+03  0.7818609E-02  0.9310408E-01
       -1   -1    0    0    0  501  0.00000000000E+00  0.00000000000E+00  0.32679639871E+03  0.32679639875E+03  0.50400001928E-02 0.  1.
        1   -1    0    0  501    0  0.00000000000E+00  0.00000000000E+00 -0.76240842193E+03  0.76240842195E+03  0.50400001928E-02 0. -1.
    10030    2    1    2    0    0  0.00000000000E+00  0.00000000000E+00 -0.43561202322E+03  0.10892048207E+04  0.99830321378E+03 0.  0.
        1    1    3    3  502    0 -0.34958254602E+03  0.34873246750E+03 -0.13815117200E+03  0.51274558674E+03  0.50400001928E-02 0.  1.
       -1    1    3    3    0  502  0.34958254602E+03 -0.34873246750E+03 -0.29746085122E+03  0.57645923395E+03  0.50400001928E-02 0. -1.
</event>
<event>
 5   0  0.4140860E-03  0.9968992E+03  0.7818609E-02  0.9311952E-01
        2   -1    0    0  501    0  0.00000000000E+00  0.00000000000E+00  0.52278575324E+03  0.52278575325E+03  0.25500000920E-02 0.  1.
       -2   -1    0    0    0  501  0.00000000000E+00  0.00000000000E+00 -0.47524632218E+03  0.47524632218E+03  0.25500000920E-02 0. -1.
    10030    2    1    2    0    0  0.00000000000E+00  0.00000000000E+00  0.47539431064E+02  0.99803207543E+03  0.99689920558E+03 0.  0.
        3    1    3    3  502    0  0.15092857415E+03  0.36938620713E+03 -0.27527760452E+03  0.48477146602E+03  0.10100000352E+00 0. -1.
       -3    1    3    3    0  502 -0.15092857415E+03 -0.36938620713E+03  0.32281703558E+03  0.51326060941E+03  0.10100000352E+00 0.  1.
</event>
<event>
 5   0  0.4140860E-03  0.1001366E+04  0.7818609E-02  0.9307048E-01
        2   -1    0    0  501    0  0.00000000000E+00  0.00000000000E+00  0.21741792021E+04  0.21741792021E+04  0.25500000920E-02 0. -1.
       -2   -1    0    0    0  501  0.00000000000E+00  0.00000000000E+00 -0.11530028144E+03  0.11530028146E+03  0.25500000920E-02 0.  1.
    10030    2    1    2    0    0  0.00000000000E+00  0.00000000000E+00  0.20588789206E+04  0.22894794835E+04  0.10013660149E+04 0.  0.
        3    1    3    3  502    0  0.15280611845E+03  0.29776695634E+03  0.17804079771E+03  0.37909551036E+03  0.10100000352E+00 0.  1.
       -3    1    3    3    0  502 -0.15280611845E+03 -0.29776695634E+03  0.18808381229E+04  0.19103839732E+04  0.10100000352E+00 0. -1.
</event>
<event>
 5   0  0.3826483E-03  0.1015748E+04  0.7818609E-02  0.9291439E-01
        2   -1    0    0  501    0  0.00000000000E+00  0.00000000000E+00  0.41159138447E+03  0.41159138447E+03  0.25500000920E-02 0.  1.
       -2   -1    0    0    0  501  0.00000000000E+00  0.00000000000E+00 -0.62668016876E+03  0.62668016876E+03  0.25500000920E-02 0. -1.
    10030    2    1    2    0    0  0.00000000000E+00  0.00000000000E+00 -0.21508878429E+03  0.10382715532E+04  0.10157483119E+04 0.  0.
        4    1    3    3  502    0  0.33978864657E+03  0.20181717984E+03 -0.43359715676E+03  0.58668100844E+03  0.12699999809E+01 0. -1.
       -4    1    3    3    0  502 -0.33978864657E+03 -0.20181717984E+03  0.21850837247E+03  0.45159054480E+03  0.12699999809E+01 0.  1.
</event>
<event>
 5   0  0.2313036E-03  0.9952194E+03  0.7818609E-02  0.9313804E-01
       -1   -1    0    0    0  501  0.00000000000E+00  0.00000000000E+00  0.35603214743E+03  0.35603214746E+03  0.50400001928E-02 0.  1.
        1   -1    0    0  501    0  0.00000000000E+00  0.00000000000E+00 -0.69548612425E+03  0.69548612427E+03  0.50400001928E-02 0. -1.
    10030    2    1    2    0    0  0.00000000000E+00  0.00000000000E+00 -0.33945397683E+03  0.10515182717E+04  0.99521940968E+03 0.  0.
        3    1    3    3  502    0  0.29841737693E+03 -0.39800629048E+03 -0.18281608832E+03  0.52998459455E+03  0.10100000352E+00 0. -1.
       -3    1    3    3    0  502 -0.29841737693E+03  0.39800629048E+03 -0.15663788851E+03  0.52153367718E+03  0.10100000352E+00 0.  1.
</event>
<event>
 5   0  0.3826483E-03  0.1003538E+04  0.7818609E-02  0.9304673E-01
       -2   -1    0    0    0  501  0.00000000000E+00  0.00000000000E+00  0.46704592775E+03  0.46704592776E+03  0.25500000920E-02 0.  1.
        2   -1    0    0  501    0  0.00000000000E+00  0.00000000000E+00 -0.53907365916E+03  0.53907365917E+03  0.25500000920E-02 0. -1.
    10030    2    1    2    0    0  0.00000000000E+00  0.00000000000E+00 -0.72027731406E+02  0.10061195869E+04  0.10035380556E+04 0.  0.
        4    1    3    3  502    0 -0.18545883642E+03  0.17691748197E+03  0.39646079716E+03  0.47209909131E+03  0.12699999809E+01 0.  1.
       -4    1    3    3    0  502  0.18545883642E+03 -0.17691748197E+03 -0.46848852857E+03  0.53402049561E+03  0.12699999809E+01 0. -1.
</event>
<event>
 5   0  0.2327595E-03  0.9969976E+03  0.7818609E-02  0.9311844E-01
       -1   -1    0    0    0  501  0.00000000000E+00  0.00000000000E+00  0.20775756694E+03  0.20775756701E+03  0.50400001928E-02 0.  1.
        1   -1    0    0  501    0  0.00000000000E+00  0.00000000000E+00 -0.11961108161E+04  0.11961108161E+04  0.50400001928E-02 0. -1.
    10030    2    1    2    0    0  0.00000000000E+00  0.00000000000E+00 -0.98835324915E+03  0.14038683831E+04  0.99699763891E+03 0.  0.
        5    1    3    3  502    0 -0.83498853692E+02 -0.13510311700E+02  0.19754742822E+03  0.21494572218E+03  0.46999998093E+01 0.  1.
       -5    1    3    3    0  502  0.83498853692E+02  0.13510311700E+02 -0.11859006774E+04  0.11889226609E+04  0.46999998093E+01 0. -1.
</event>
<event>
 5   0  0.4026829E-03  0.1000821E+04  0.7818609E-02  0.9307645E-01
       -2   -1    0    0    0  501  0.00000000000E+00  0.00000000000E+00  0.29444177674E+03  0.29444177675E+03  0.25500000920E-02 0.  1.
        2   -1    0    0  501    0  0.00000000000E+00  0.00000000000E+00 -0.85045821259E+03  0.85045821260E+03  0.25500000920E-02 0. -1.
    10030    2    1    2    0    0  0.00000000000E+00  0.00000000000E+00 -0.55601643586E+03  0.11448999893E+04  0.10008205177E+04 0.  0.
        1    1    3    3  502    0 -0.37492011307E+03 -0.27441241797E+03 -0.65393958328E+02  0.46919466763E+03  0.50400001928E-02 0.  1.
       -1    1    3    3    0  502  0.37492011307E+03  0.27441241797E+03 -0.49062247753E+03  0.67570532172E+03  0.50400001928E-02 0. -1.
</event>
<event>
 5   0  0.2350769E-03  0.1002202E+04  0.7818609E-02  0.9306133E-01
       -1   -1    0    0    0  501  0.00000000000E+00  0.00000000000E+00  0.22714355663E+03  0.22714355669E+03  0.50400001928E-02 0. -1.
        1   -1    0    0  501    0  0.00000000000E+00  0.00000000000E+00 -0.11054783114E+04  0.11054783114E+04  0.50400001928E-02 0.  1.
    10030    2    1    2    0    0  0.00000000000E+00  0.00000000000E+00 -0.87833475479E+03  0.13326218681E+04  0.10022021263E+04 0.  0.
        2    1    3    3  502    0  0.39387388995E+03 -0.19998339085E+02 -0.85022493757E+03  0.93724010756E+03  0.25500000920E-02 0.  1.
       -2    1    3    3    0  502 -0.39387388995E+03  0.19998339085E+02 -0.28109817222E+02  0.39538176056E+03  0.25500000920E-02 0. -1.
</event>
<event>
 5   0  0.3873874E-03  0.1006807E+04  0.7818609E-02  0.9301110E-01
        2   -1    0    0  501    0  0.00000000000E+00  0.00000000000E+00  0.11212680691E+04  0.11212680691E+04  0.25500000920E-02 0. -1.
       -2   -1    0    0    0  501  0.00000000000E+00  0.00000000000E+00 -0.22600766222E+03  0.22600766224E+03  0.25500000920E-02 0.  1.
    10030    2    1    2    0    0  0.00000000000E+00  0.00000000000E+00  0.89526040687E+03  0.13472757313E+04  0.10068071812E+04 0.  0.
        5    1    3    3  502    0 -0.27935048398E+03 -0.34805580121E+03  0.13605412197E+03  0.46659655781E+03  0.46999998093E+01 0.  1.
       -5    1    3    3    0  502  0.27935048398E+03  0.34805580121E+03  0.75920628489E+03  0.88067917352E+03  0.46999998093E+01 0. -1.
</event>
<event>
 5   0  0.2313036E-03  0.9987299E+03  0.7818609E-02  0.9309939E-01
       -1   -1    0    0    0  501  0.00000000000E+00  0.00000000000E+00  0.32343078349E+03  0.32343078353E+03  0.50400001928E-02 0.  1.
        1   -1    0    0  501    0  0.00000000000E+00  0.00000000000E+00 -0.77100074910E+03  0.77100074912E+03  0.50400001928E-02 0. -1.
    10030    2    1    2    0    0  0.00000000000E+00  0.00000000000E+00 -0.44756996561E+03  0.10944315327E+04  0.99872994626E+03 0.  0.
        3    1    3    3  502    0 -0.33746111125E+03  0.24180438341E+03  0.80325239077E+02  0.42284928246E+03  0.10100000352E+00 0.  1.
       -3    1    3    3    0  502  0.33746111125E+03 -0.24180438341E+03 -0.52789520468E+03  0.67158225019E+03  0.10100000352E+00 0. -1.
</event>
<event>
 5   0  0.2313036E-03  0.9748886E+03  0.7818609E-02  0.9336524E-01
       -1   -1    0    0    0  501  0.00000000000E+00  0.00000000000E+00  0.45666559779E+03  0.45666559781E+03  0.50400001928E-02 0.  1.
        1   -1    0    0  501    0  0.00000000000E+00  0.00000000000E+00 -0.52029747005E+03  0.52029747008E+03  0.50400001928E-02 0. -1.
    10030    2    1    2    0    0  0.00000000000E+00  0.00000000000E+00 -0.63631872267E+02  0.97696306789E+03  0.97488861972E+03 0.  0.
        3    1    3    3  502    0  0.36831430650E+03 -0.29040188270E+03  0.10118143534E+03  0.47981910644E+03  0.10100000352E+00 0. -1.
       -3    1    3    3    0  502 -0.36831430650E+03  0.29040188270E+03 -0.16481330760E+03  0.49714396145E+03  0.10100000352E+00 0.  1.
</event>
<event>
 5   0  0.1548000E-03  0.9878332E+03  0.7818609E-02  0.9321991E-01
       -3   -1    0    0    0  501  0.00000000000E+00  0.00000000000E+00  0.42485779031E+03  0.42485780232E+03  0.10100000352E+00 0.  1.
        3   -1    0    0  501    0  0.00000000000E+00  0.00000000000E+00 -0.57420060582E+03  0.57420061470E+03  0.10100000352E+00 0. -1.
    10030    2    1    2    0    0  0.00000000000E+00  0.00000000000E+00 -0.14934281551E+03  0.99905841702E+03  0.98783320661E+03 0.  0.
        2    1    3    3  502    0  0.25328761808E+03  0.12089942543E+03  0.33637328576E+03  0.43808478165E+03  0.25500000920E-02 0.  1.
       -2    1    3    3    0  502 -0.25328761808E+03 -0.12089942543E+03 -0.48571610127E+03  0.56097363537E+03  0.25500000920E-02 0. -1.
</event>
<event>
 5   0  0.2378609E-03  0.1000329E+04  0.7818609E-02  0.9308184E-01
        1   -1    0    0  501    0  0.00000000000E+00  0.00000000000E+00  0.71347691090E+03  0.71347691091E+03  0.50400001928E-02 0. -1.
       -1   -1    0    0    0  501  0.00000000000E+00  0.00000000000E+00 -0.35062758778E+03  0.35062758781E+03  0.50400001928E-02 0.  1.
    10030    2    1    2    0    0  0.00000000000E+00  0.00000000000E+00  0.36284932312E+03  0.10641044987E+04  0.10003293222E+04 0.  0.
        1    1    3    3  502    0  0.35715938871E+03 -0.26757289527E+03  0.42166973400E+03  0.61397349114E+03  0.50400001928E-02 0.  1.
       -1    1    3    3    0  502 -0.35715938871E+03  0.26757289527E+03 -0.58820410884E+02  0.45013100758E+03  0.50400001928E-02 0. -1.
</event>
<event>
 5   0  0.2350769E-03  0.9827966E+03  0.7818609E-02  0.9327617E-01
        1   -1    0    0  501    0  0.00000000000E+00  0.00000000000E+00  0.55617111744E+03  0.55617111747E+03  0.50400001928E-02 0.  1.
       -1   -1    0    0    0  501  0.00000000000E+00  0.00000000000E+00 -0.43416902556E+03  0.43416902559E+03  0.50400001928E-02 0. -1.
    10030    2    1    2    0    0  0.00000000000E+00  0.00000000000E+00  0.12200209188E+03  0.99034014306E+03  0.98279656518E+03 0.  0.
        2    1    3    3  502    0 -0.40222357787E+03 -0.27761944127E+03  0.11253960416E+03  0.50151921526E+03  0.25500000920E-02 0. -1.
       -2    1    3    3    0  502  0.40222357787E+03  0.27761944127E+03  0.94624877229E+01  0.48882092779E+03  0.25500000920E-02 0.  1.
</event>
<event>
 5   0  0.2327595E-03  0.9935745E+03  0.7818609E-02  0.9315620E-01
        1   -1    0    0  501    0  0.00000000000E+00  0.00000000000E+00  0.27042449019E+03  0.27042449024E+03  0.50400001928E-02 0.  1.
       -1   -1    0    0    0  501  0.00000000000E+00  0.00000000000E+00 -0.91263027104E+03  0.91263027105E+03  0.50400001928E-02 0. -1.
    10030    2    1    2    0    0  0.00000000000E+00  0.00000000000E+00 -0.64220578085E+03  0.11830547613E+04  0.99357450815E+03 0.  0.
        5    1    3    3  502    0 -0.33683990229E+03  0.23245101710E+03  0.14162456978E+02  0.40953297830E+03  0.46999998093E+01 0.  1.
       -5    1    3    3    0  502  0.33683990229E+03 -0.23245101710E+03 -0.65636823783E+03  0.77352178299E+03  0.46999998093E+01 0. -1.
</event>
<event>
 5   0  0.3873874E-03  0.1010117E+04  0.7818609E-02  0.9297518E-01
        2   -1    0    0  501    0  0.00000000000E+00  0.00000000000E+00  0.17397271673E+04  0.17397271673E+04  0.25500000920E-02 0. -1.
       -2   -1    0    0    0  501  0.00000000000E+00  0.00000000000E+00 -0.14662309917E+03  0.14662309919E+03  0.25500000920E-02 0.  1.
    10030    2    1    2    0    0  0.00000000000E+00  0.00000000000E+00  0.15931040682E+04  0.18863502665E+04  0.10101171991E+04 0.  0.
        5    1    3    3  502    0  0.17317353383E+03  0.43721844892E+03  0.45265057110E+03  0.65273553175E+03  0.46999998093E+01 0.  1.
       -5    1    3    3    0  502 -0.17317353383E+03 -0.43721844892E+03  0.11404534971E+04  0.12336147348E+04  0.46999998093E+01 0. -1.
</event>
<event>
 5   0  0.2327595E-03  0.9960680E+03  0.7818609E-02  0.9312868E-01
       -1   -1    0    0    0  501  0.00000000000E+00  0.00000000000E+00  0.21611410597E+03  0.21611410603E+03  0.50400001928E-02 0.  1.
        1   -1    0    0  501    0  0.00000000000E+00  0.00000000000E+00 -0.11477170898E+04  0.11477170898E+04  0.50400001928E-02 0. -1.
    10030    2    1    2    0    0  0.00000000000E+00  0.00000000000E+00 -0.93160298384E+03  0.13638311958E+04  0.99606797522E+03 0.  0.
        5    1    3    3  502    0 -0.13994315814E+03 -0.30661570867E+03 -0.96779850954E+03  0.10248186793E+04  0.46999998093E+01 0. -1.
       -5    1    3    3    0  502  0.13994315814E+03  0.30661570867E+03  0.36195525699E+02  0.33901251658E+03  0.46999998093E+01 0.  1.
</event>
<event>
 5   0  0.4026829E-03  0.9924580E+03  0.7818609E-02  0.9316856E-01
        2   -1    0    0  501    0  0.00000000000E+00  0.00000000000E+00  0.34062556733E+03  0.34062556733E+03  0.25500000920E-02 0. -1.
       -2   -1    0    0    0  501  0.00000000000E+00  0.00000000000E+00 -0.72291464498E+03  0.72291464498E+03  0.25500000920E-02 0.  1.
    10030    2    1    2    0    0  0.00000000000E+00  0.00000000000E+00 -0.38228907765E+03  0.10635402123E+04  0.99245798114E+03 0.  0.
        1    1    3    3  502    0 -0.16655297798E+02  0.26160503467E+03  0.26037440130E+03  0.36947181488E+03  0.50400001928E-02 0. -1.
       -1    1    3    3    0  502  0.16655297798E+02 -0.26160503467E+03 -0.64266347896E+03  0.69406839744E+03  0.50400001928E-02 0.  1.
</event>
<event>
 5   0  0.2378609E-03  0.1006784E+04  0.7818609E-02  0.9301135E-01
        1   -1    0    0  501    0  0.00000000000E+00  0.00000000000E+00  0.89530290780E+03  0.89530290781E+03  0.50400001928E-02 0.  1.
       -1   -1    0    0    0  501  0.00000000000E+00  0.00000000000E+00 -0.28303680897E+03  0.28303680902E+03  0.50400001928E-02 0. -1.
    10030    2    1    2    0    0  0.00000000000E+00  0.00000000000E+00  0.61226609882E+03  0.11783397168E+04  0.10067843426E+04 0.  0.
        1    1    3    3  502    0  0.12991195293E+02  0.47615013712E+03  0.49671759922E+03  0.68819771697E+03  0.50400001928E-02 0.  1.
       -1    1    3    3    0  502 -0.12991195293E+02 -0.47615013712E+03  0.11554849960E+03  0.49014199986E+03  0.50400001928E-02 0. -1.
</event>
<event>
 5   0  0.3826483E-03  0.1002588E+04  0.7818609E-02  0.9305711E-01
        2   -1    0    0  501    0  0.00000000000E+00  0.00000000000E+00  0.78404556283E+03  0.78404556284E+03  0.25500000920E-02 0. -1.
       -2   -1    0    0    0  501  0.00000000000E+00  0.00000000000E+00 -0.32051137749E+03  0.32051137750E+03  0.25500000920E-02 0.  1.
    10030    2    1    2    0    0  0.00000000000E+00  0.00000000000E+00  0.46353418534E+03  0.11045569403E+04  0.10025876986E+04 0.  0.
        4    1    3    3  502    0  0.25226502607E+03 -0.19282816103E+03  0.65912903625E+03  0.73162356604E+03  0.12699999809E+01 0. -1.
       -4    1    3    3    0  502 -0.25226502607E+03  0.19282816103E+03 -0.19559485090E+03  0.37293337430E+03  0.12699999809E+01 0.  1.
</event>
<event>
 5   0  0.4140860E-03  0.9948234E+03  0.7818609E-02  0.9314241E-01
       -2   -1    0    0    0  501  0.00000000000E+00  0.00000000000E+00  0.21922810578E+03  0.21922810579E+03  0.25500000920E-02 0. -1.
        2   -1    0    0  501    0  0.00000000000E+00  0.00000000000E+00 -0.11285889502E+04  0.11285889502E+04  0.25500000920E-02 0.  1.
    10030    2    1    2    0    0  0.00000000000E+00  0.00000000000E+00 -0.90936084444E+03  0.13478170560E+04  0.99482343714E+03 0.  0.
        3    1    3    3  502    0  0.10638609370E+03 -0.47977069571E+03 -0.55892743649E+03  0.74424311274E+03  0.10100000352E+00 0.  1.
       -3    1    3    3    0  502 -0.10638609370E+03  0.47977069571E+03 -0.35043340795E+03  0.60357394328E+03  0.10100000352E+00 0. -1.
</event>
<event>
 5   0  0.2313036E-03  0.1030240E+04  0.7818609E-02  0.9275986E-01
        1   -1    0    0  501    0  0.00000000000E+00  0.00000000000E+00  0.48335710656E+03  0.48335710659E+03  0.50400001928E-02 0.  1.
       -1   -1    0    0    0  501  0.00000000000E+00  0.00000000000E+00 -0.54897037483E+03  0.54897037485E+03  0.50400001928E-02 0. -1.
    10030    2    1    2    0    0  0.00000000000E+00  0.00000000000E+00 -0.65613268261E+02  0.10323274814E+04  0.10302402283E+04 0.  0.
        3    1    3    3  502    0  0.48868016668E+03  0.65570332524E+02  0.11662950275E+03  0.50666579214E+03  0.10100000352E+00 0.  1.
       -3    1    3    3    0  502 -0.48868016668E+03 -0.65570332524E+02 -0.18224277101E+03  0.52566168930E+03  0.10100000352E+00 0. -1.
</event>
<event>
 5   0  0.2327595E-03  0.9967901E+03  0.7818609E-02  0.9312072E-01
        1   -1    0    0  501    0  0.00000000000E+00  0.00000000000E+00  0.25949700740E+04  0.25949700740E+04  0.50400001928E-02 0. -1.
       -1   -1    0    0    0  501  0.00000000000E+00  0.00000000000E+00 -0.95722740872E+02  0.95722741005E+02  0.50400001928E-02 0.  1.
    10030    2    1    2    0    0  0.00000000000E+00  0.00000000000E+00  0.24992473331E+04  0.26906928150E+04  0.99679014471E+03 0.  0.
        5    1    3    3  502    0  0.16042220584E+03  0.17216224159E+03  0.24355003478E+04  0.24468467781E+04  0.46999998093E+01 0. -1.
       -5    1    3    3    0  502 -0.16042220584E+03 -0.17216224159E+03  0.63746985310E+02  0.24384603685E+03  0.46999998093E+01 0.  1.
</event>
<event>
 5   0  0.1548000E-03  0.1002358E+04  0.7818609E-02  0.9305963E-01
        3   -1    0    0  501    0  0.00000000000E+00  0.00000000000E+00  0.25123128850E+03  0.25123130881E+03  0.10100000352E+00 0.  1.
       -3   -1    0    0    0  501  0.00000000000E+00  0.00000000000E+00 -0.99979667863E+03  0.99979668374E+03  0.10100000352E+00 0. -1.
    10030    2    1    2    0    0  0.00000000000E+00  0.00000000000E+00 -0.74856539013E+03  0.12510279925E+04  0.10023576681E+04 0.  0.
        4    1    3    3  502    0  0.30077238952E+03  0.39081374212E+03 -0.48576962894E+03  0.69222334302E+03  0.12699999809E+01 0. -1.
       -4    1    3    3    0  502 -0.30077238952E+03 -0.39081374212E+03 -0.26279576119E+03  0.55880464952E+03  0.12699999809E+01 0.  1.
</event>
<event>
 5   0  0.2350769E-03  0.1011495E+04  0.7818609E-02  0.9296026E-01
       -1   -1    0    0    0  501  0.00000000000E+00  0.00000000000E+00  0.39917866684E+03  0.39917866687E+03  0.50400001928E-02 0.  1.
        1   -1    0    0  501    0  0.00000000000E+00  0.00000000000E+00 -0.64076700089E+03  0.64076700091E+03  0.50400001928E-02 0. -1.
    10030    2    1    2    0    0  0.00000000000E+00  0.00000000000E+00 -0.24158833404E+03  0.10399456678E+04  0.10114949673E+04 0.  0.
        2    1    3    3  502    0 -0.45731456055E+03 -0.20414018294E+03 -0.19328039628E+03  0.53681200916E+03  0.25500000920E-02 0. -1.
       -2    1    3    3    0  502  0.45731456055E+03  0.20414018294E+03 -0.48307937759E+02  0.50313365862E+03  0.25500000920E-02 0.  1.
</event>
<event>
 5   0  0.4140860E-03  0.1001252E+04  0.7818609E-02  0.9307173E-01
       -2   -1    0    0    0  501  0.00000000000E+00  0.00000000000E+00  0.15451873483E+03  0.15451873485E+03  0.25500000920E-02 0. -1.
        2   -1    0    0  501    0  0.00000000000E+00  0.00000000000E+00 -0.16219808024E+04  0.16219808024E+04  0.25500000920E-02 0.  1.
    10030    2    1    2    0    0  0.00000000000E+00  0.00000000000E+00 -0.14674620676E+04  0.17764995372E+04  0.10012520592E+04 0.  0.
        3    1    3    3  502    0  0.14047463391E+02  0.10216500716E+03 -0.16029306147E+04  0.16062445597E+04  0.10100000352E+00 0.  1.
       -3    1    3    3    0  502 -0.14047463391E+02 -0.10216500716E+03  0.13546854712E+03  0.17025497753E+03  0.10100000352E+00 0. -1.
</event>
<event>
 5   0  0.3895011E-03  0.9882608E+03  0.7818609E-02  0.9321515E-01
       -2   -1    0    0    0  501  0.00000000000E+00  0.00000000000E+00  0.70525135365E+03  0.70525135366E+03  0.25500000920E-02 0.  1.
        2   -1    0    0  501    0  0.00000000000E+00  0.00000000000E+00 -0.34620966774E+03  0.34620966775E+03  0.25500000920E-02 0. -1.
    10030    2    1    2    0    0  0.00000000000E+00  0.00000000000E+00  0.35904168591E+03  0.10514610214E+04  0.98826076889E+03 0.  0.
        2    1    3    3  502    0 -0.14302604332E+03  0.20248712248E+03  0.63429903942E+03  0.68102331476E+03  0.25500000920E-02 0.  1.
       -2    1    3    3    0  502  0.14302604332E+03 -0.20248712248E+03 -0.27525735351E+03  0.37043770665E+03  0.25500000920E-02 0. -1.
</event>
<event>
 5   0  0.4140860E-03  0.1022240E+04  0.7818609E-02  0.9284483E-01
        2   -1    0    0  501    0  0.00000000000E+00  0.00000000000E+00  0.38732895513E+03  0.38732895514E+03  0.25500000920E-02 0.  1.
       -2   -1    0    0    0  501  0.00000000000E+00  0.00000000000E+00 -0.67447519525E+03  0.67447519526E+03  0.25500000920E-02 0. -1.
    10030    2    1    2    0    0  0.00000000000E+00  0.00000000000E+00 -0.28714624012E+03  0.10618041504E+04  0.10222402313E+04 0.  0.
        3    1    3    3  502    0  0.23474307633E+03  0.31672869858E+03 -0.48146691472E+03  0.62227950357E+03  0.10100000352E+00 0. -1.
       -3    1    3    3    0  502 -0.23474307633E+03 -0.31672869858E+03  0.19432067460E+03  0.43952464683E+03  0.10100000352E+00 0.  1.
</event>
<event>
 5   0  0.3895011E-03  0.9943714E+03  0.7818609E-02  0.9314740E-01
        2   -1    0    0  501    0  0.00000000000E+00  0.00000000000E+00  0.11712606357E+04  0.11712606357E+04  0.25500000920E-02 0. -1.
       -2   -1    0    0    0  501  0.00000000000E+00  0.00000000000E+00 -0.21104920440E+03  0.21104920442E+03  0.25500000920E-02 0.  1.
    10030    2    1    2    0    0  0.00000000000E+00  0.00000000000E+00  0.96021143128E+03  0.13823098401E+04  0.99437141013E+03 0.  0.
        2    1    3    3  502    0 -0.10078485279E+03 -0.30422483161E+03 -0.48297658971E+02  0.32410337639E+03  0.25500000920E-02 0.  1.
       -2    1    3    3    0  502  0.10078485279E+03  0.30422483161E+03  0.10085090903E+04  0.10582064637E+04  0.25500000920E-02 0. -1.
</event>
<event>
 5   0  0.4140860E-03  0.1004631E+04  0.7818609E-02  0.9303481E-01
       -2   -1    0    0    0  501  0.00000000000E+00  0.00000000000E+00  0.42148563338E+03  0.42148563339E+03  0.25500000920E-02 0. -1.
        2   -1    0    0  501    0  0.00000000000E+00  0.00000000000E+00 -0.59864589534E+03  0.59864589534E+03  0.25500000920E-02 0.  1.
    10030    2    1    2    0    0  0.00000000000E+00  0.00000000000E+00 -0.17716026196E+03  0.10201315287E+04  0.10046305677E+04 0.  0.
        3    1    3    3  502    0  0.54388973240E+02  0.13139784961E+03 -0.57777807078E+03  0.59502190259E+03  0.10100000352E+00 0.  1.
       -3    1    3    3    0  502 -0.54388973240E+02 -0.13139784961E+03  0.40061780882E+03  0.42510962614E+03  0.10100000352E+00 0. -1.
</event>
<event>
 5   0  0.3873874E-03  0.9936039E+03  0.7818609E-02  0.9315588E-01
       -2   -1    0    0    0  501  0.00000000000E+00  0.00000000000E+00  0.39311366872E+03  0.39311366873E+03  0.25500000920E-02 0.  1.
        2   -1    0    0  501    0  0.00000000000E+00  0.00000000000E+00 -0.62783920198E+03  0.62783920198E+03  0.25500000920E-02 0. -1.
    10030    2    1    2    0    0  0.00000000000E+00  0.00000000000E+00 -0.23472553326E+03  0.10209528707E+04  0.99360388900E+03 0.  0.
        5    1    3    3  502    0 -0.29490965655E+03  0.25554225881E+03  0.19853481238E+03  0.43784896173E+03  0.46999998093E+01 0.  1.
       -5    1    3    3    0  502  0.29490965655E+03 -0.25554225881E+03 -0.43326034564E+03  0.58310390898E+03  0.46999998093E+01 0. -1.
</event>
<event>
 5   0  0.3826483E-03  0.1007383E+04  0.7818609E-02  0.9300484E-01
        2   -1    0    0  501    0  0.00000000000E+00  0.00000000000E+00  0.17586344047E+04  0.17586344047E+04  0.25500000920E-02 0.  1.
       -2   -1    0    0    0  501  0.00000000000E+00  0.00000000000E+00 -0.14426254895E+03  0.14426254897E+03  0.25500000920E-02 0. -1.
    10030    2    1    2    0    0  0.00000000000E+00  0.00000000000E+00  0.16143718557E+04  0.19028969536E+04  0.10073829102E+04 0.  0.
        4    1    3    3  502    0  0.46913446616E+01 -0.60884050674E+02 -0.13724157680E+03  0.15021897232E+03  0.12699999809E+01 0. -1.
       -4    1    3    3    0  502 -0.46913446616E+01  0.60884050674E+02  0.17516134325E+04  0.17526779813E+04  0.12699999809E+01 0.  1.
</event>
<event>
 5   0  0.3826483E-03  0.9986317E+03  0.7818609E-02  0.9310047E-01
        2   -1    0    0  501    0  0.00000000000E+00  0.00000000000E+00  0.36527484443E+03  0.36527484443E+03  0.25500000920E-02 0. -1.
       -2   -1    0    0    0  501  0.00000000000E+00  0.00000000000E+00 -0.68254439831E+03  0.68254439832E+03  0.25500000920E-02 0.  1.
    10030    2    1    2    0    0  0.00000000000E+00  0.00000000000E+00 -0.31726955389E+03  0.10478192428E+04  0.99863166165E+03 0.  0.
        4    1    3    3  502    0  0.22903017881E+03  0.44366048339E+03 -0.16390603672E+03  0.52550570796E+03  0.12699999809E+01 0. -1.
       -4    1    3    3    0  502 -0.22903017881E+03 -0.44366048339E+03 -0.15336351716E+03  0.52231353479E+03  0.12699999809E+01 0.  1.
</event>
<event>
 5   0  0.2378609E-03  0.1003720E+04  0.7818609E-02  0.9304474E-01
       -1   -1    0    0    0  501  0.00000000000E+00  0.00000000000E+00  0.23105382922E+03  0.23105382928E+03  0.50400001928E-02 0.  1.
        1   -1    0    0  501    0  0.00000000000E+00  0.00000000000E+00 -0.10900636946E+04  0.10900636947E+04  0.50400001928E-02 0. -1.
    10030    2    1    2    0    0  0.00000000000E+00  0.00000000000E+00 -0.85900986542E+03  0.13211175239E+04  0.10037198629E+04 0.  0.
        1    1    3    3  502    0 -0.16288386963E+03  0.12713542049E+03  0.17246861624E+03  0.26914678847E+03  0.50400001928E-02 0.  1.
       -1    1    3    3    0  502  0.16288386963E+03 -0.12713542049E+03 -0.10314784817E+04  0.10519707355E+04  0.50400001928E-02 0. -1.
</event>
<event>
 5   0  0.3895011E-03  0.1017561E+04  0.7818609E-02  0.9289491E-01
       -2   -1    0    0    0  501  0.00000000000E+00  0.00000000000E+00  0.33780590229E+03  0.33780590230E+03  0.25500000920E-02 0. -1.
        2   -1    0    0  501    0  0.00000000000E+00  0.00000000000E+00 -0.76629154502E+03  0.76629154502E+03  0.25500000920E-02 0.  1.
    10030    2    1    2    0    0  0.00000000000E+00  0.00000000000E+00 -0.42848564272E+03  0.11040974473E+04  0.10175614120E+04 0.  0.
        2    1    3    3  502    0 -0.40923164859E+03 -0.13828819945E+02 -0.54191135596E+03  0.67921255597E+03  0.25500000920E-02 0.  1.
       -2    1    3    3    0  502  0.40923164859E+03  0.13828819945E+02  0.11342571323E+03  0.42488489135E+03  0.25500000920E-02 0. -1.
</event>
<event>
 5   0  0.2327595E-03  0.9819715E+03  0.7818609E-02  0.9328542E-01
       -1   -1    0    0    0  501  0.00000000000E+00  0.00000000000E+00  0.56630690212E+03  0.56630690214E+03  0.50400001928E-02 0.  1.
        1   -1    0    0  501    0  0.00000000000E+00  0.00000000000E+00 -0.42568263828E+03  0.42568263831E+03  0.50400001928E-02 0. -1.
    10030    2    1    2    0    0  0.00000000000E+00  0.00000000000E+00  0.14062426384E+03  0.99198954045E+03  0.98197151933E+03 0.  0.
        5    1    3    3  502    0  0.94292460327E+02 -0.25621063529E+03  0.48253143089E+03  0.55443090598E+03  0.46999998093E+01 0.  1.
       -5    1    3    3    0  502 -0.94292460327E+02  0.25621063529E+03 -0.34190716706E+03  0.43755863446E+03  0.46999998093E+01 0. -1.
</event>
<event>
 5   0  0.2405022E-03  0.1001391E+04  0.7818609E-02  0.9307020E-01
       -1   -1    0    0    0  501  0.00000000000E+00  0.00000000000E+00  0.22702582487E+03  0.22702582492E+03  0.50400001928E-02 0.  1.
        1   -1    0    0  501    0  0.00000000000E+00  0.00000000000E+00 -0.11042624251E+04  0.11042624252E+04  0.50400001928E-02 0. -1.
    10030    2    1    2    0    0  0.00000000000E+00  0.00000000000E+00 -0.87723660028E+03  0.13312882501E+04  0.10013912082E+04 0.  0.
        4    1    3    3  502    0 -0.42334659870E+03  0.21323822474E+03 -0.22424618447E+03  0.52438616236E+03  0.12699999809E+01 0.  1.
       -4    1    3    3    0  502  0.42334659870E+03 -0.21323822474E+03 -0.65299041581E+03  0.80690208772E+03  0.12699999809E+01 0. -1.
</event>
<event>
 5   0  0.2327595E-03  0.1001469E+04  0.7818609E-02  0.9306935E-01
        1   -1    0    0  501    0  0.00000000000E+00  0.00000000000E+00  0.44684864190E+03  0.44684864193E+03  0.50400001928E-02 0. -1.
       -1   -1    0    0    0  501  0.00000000000E+00  0.00000000000E+00 -0.56111893299E+03  0.56111893301E+03  0.50400001928E-02 0.  1.
    10030    2    1    2    0    0  0.00000000000E+00  0.00000000000E+00 -0.11427029109E+03  0.10079675749E+04  0.10014693868E+04 0.  0.
        5    1    3    3  502    0 -0.34388161916E+03  0.34860387568E+03  0.48108695783E+02  0.49205260567E+03  0.46999998093E+01 0. -1.
       -5    1    3    3    0  502  0.34388161916E+03 -0.34860387568E+03 -0.16237898688E+03  0.51591496927E+03  0.46999998093E+01 0.  1.
</event>
<event>
 5   0  0.4026829E-03  0.9806329E+03  0.7818609E-02  0.9330045E-01
        2   -1    0    0  501    0  0.00000000000E+00  0.00000000000E+00  0.16554742595E+04  0.16554742595E+04  0.25500000920E-02 0.  1.
       -2   -1    0    0    0  501  0.00000000000E+00  0.00000000000E+00 -0.14522135075E+03  0.14522135077E+03  0.25500000920E-02 0. -1.
    10030    2    1    2    0    0  0.00000000000E+00  0.00000000000E+00  0.15102529088E+04  0.18006956103E+04  0.98063287345E+03 0.  0.
        1    1    3    3  502    0 -0.22610390359E+03  0.33636852158E+03  0.24842735213E+03  0.47537659475E+03  0.50400001928E-02 0. -1.
       -1    1    3    3    0  502  0.22610390359E+03 -0.33636852158E+03  0.12618255567E+04  0.13253190156E+04  0.50400001928E-02 0.  1.
</event>
<event>
 5   0  0.4140860E-03  0.1003046E+04  0.7818609E-02  0.9305210E-01
       -2   -1    0    0    0  501  0.00000000000E+00  0.00000000000E+00  0.36834926387E+03  0.36834926388E+03  0.25500000920E-02 0. -1.
        2   -1    0    0  501    0  0.00000000000E+00  0.00000000000E+00 -0.68284487142E+03  0.68284487142E+03  0.25500000920E-02 0.  1.
    10030    2    1    2    0    0  0.00000000000E+00  0.00000000000E+00 -0.31449560754E+03  0.10511941353E+04  0.10030461719E+04 0.  0.
        3    1    3    3  502    0  0.35368074685E+03  0.26722989310E+03 -0.40307851991E+03  0.59914454840E+03  0.10100000352E+00 0.  1.
       -3    1    3    3    0  502 -0.35368074685E+03 -0.26722989310E+03  0.88582912367E+02  0.45204958691E+03  0.10100000352E+00 0. -1.
</event>
<event>
 5   0  0.3873874E-03  0.1001098E+04  0.7818609E-02  0.9307342E-01
        2   -1    0    0  501    0  0.00000000000E+00  0.00000000000E+00  0.43708793764E+03  0.43708793765E+03  0.25500000920E-02 0.  1.
       -2   -1    0    0    0  501  0.00000000000E+00  0.00000000000E+00 -0.57322363520E+03  0.57322363520E+03  0.25500000920E-02 0. -1.
    10030    2    1    2    0    0  0.00000000000E+00  0.00000000000E+00 -0.13613569755E+03  0.10103115729E+04  0.10010976706E+04 0.  0.
        5    1    3    3  502    0 -0.21866790492E+03  0.41322002038E+03  0.11235286536E+03  0.48084477146E+03  0.46999998093E+01 0.  1.
       -5    1    3    3    0  502  0.21866790492E+03 -0.41322002038E+03 -0.24848856291E+03  0.52946680140E+03  0.46999998093E+01 0. -1.
</event>
<event>
 5   0  0.2327595E-03  0.1005463E+04  0.7818609E-02  0.9302573E-01
        1   -1    0    0  501    0  0.00000000000E+00  0.00000000000E+00  0.43576358152E+03  0.43576358155E+03  0.50400001928E-02 0. -1.
       -1   -1    0    0    0  501  0.00000000000E+00  0.00000000000E+00 -0.57999131476E+03  0.57999131478E+03  0.50400001928E-02 0.  1.
    10030    2    1    2    0    0  0.00000000000E+00  0.00000000000E+00 -0.14422773324E+03  0.10157548963E+04  0.10054632616E+04 0.  0.
        5    1    3    3  502    0  0.14553085094E+03  0.33813761847E+03 -0.41796393586E+03  0.55698493631E+03  0.46999998093E+01 0. -1.
       -5    1    3    3    0  502 -0.14553085094E+03 -0.33813761847E+03  0.27373620262E+03  0.45876996003E+03  0.46999998093E+01 0.  1.
</event>
<event>
 5   0  0.4140860E-03  0.1001049E+04  0.7818609E-02  0.9307395E-01
       -2   -1    0    0    0  501  0.00000000000E+00  0.00000000000E+00  0.38907482313E+03  0.38907482314E+03  0.25500000920E-02 0. -1.
        2   -1    0    0  501    0  0.00000000000E+00  0.00000000000E+00 -0.64389857939E+03  0.64389857940E+03  0.25500000920E-02 0.  1.
    10030    2    1    2    0    0  0.00000000000E+00  0.00000000000E+00 -0.25482375626E+03  0.10329734025E+04  0.10010489017E+04 0.  0.
        3    1    3    3  502    0 -0.61788057419E+01  0.90566634877E+02  0.38050940698E+03  0.39118782189E+03  0.10100000352E+00 0. -1.
       -3    1    3    3    0  502  0.61788057419E+01 -0.90566634877E+02 -0.63533316325E+03  0.64178558064E+03  0.10100000352E+00 0.  1.
</event>
<event>
 5   0  0.3826483E-03  0.1010545E+04  0.7818609E-02  0.9297054E-01
        2   -1    0    0  501    0  0.00000000000E+00  0.00000000000E+00  0.48528784379E+03  0.48528784379E+03  0.25500000920E-02 0. -1.
       -2   -1    0    0    0  501  0.00000000000E+00  0.00000000000E+00 -0.52608015484E+03  0.52608015485E+03  0.25500000920E-02 0.  1.
    10030    2    1    2    0    0  0.00000000000E+00  0.00000000000E+00 -0.40792311053E+02  0.10113679986E+04  0.10105450094E+04 0.  0.
        4    1    3    3  502    0  0.32393463598E+03  0.21359986031E+03 -0.34429554252E+03  0.51874809129E+03  0.12699999809E+01 0.  1.
       -4    1    3    3    0  502 -0.32393463598E+03 -0.21359986031E+03  0.30350323147E+03  0.49261990736E+03  0.12699999809E+01 0. -1.
</event>
<event>
 5   0  0.3873874E-03  0.9981899E+03  0.7818609E-02  0.9310532E-01
       -2   -1    0    0    0  501  0.00000000000E+00  0.00000000000E+00  0.15969918832E+03  0.15969918834E+03  0.25500000920E-02 0. -1.
        2   -1    0    0  501    0  0.00000000000E+00  0.00000000000E+00 -0.15597811015E+04  0.15597811015E+04  0.25500000920E-02 0.  1.
    10030    2    1    2    0    0  0.00000000000E+00  0.00000000000E+00 -0.14000819132E+04  0.17194802899E+04  0.99818991356E+03 0.  0.
        5    1    3    3  502    0  0.27964752277E+03 -0.38406788224E+03 -0.43674355691E+03  0.64535098951E+03  0.46999998093E+01 0.  1.
       -5    1    3    3    0  502 -0.27964752277E+03  0.38406788224E+03 -0.96333835630E+03  0.10741293004E+04  0.46999998093E+01 0. -1.
</event>
<event>
 5   0  0.2327595E-03  0.1000125E+04  0.7818609E-02  0.9308408E-01
       -1   -1    0    0    0  501  0.00000000000E+00  0.00000000000E+00  0.56773603851E+03  0.56773603853E+03  0.50400001928E-02 0. -1.
        1   -1    0    0  501    0  0.00000000000E+00  0.00000000000E+00 -0.44045567745E+03  0.44045567748E+03  0.50400001928E-02 0.  1.
    10030    2    1    2    0    0  0.00000000000E+00  0.00000000000E+00  0.12728036106E+03  0.10081917160E+04  0.10001251151E+04 0.  0.
        5    1    3    3  502    0 -0.12367927330E+03 -0.38142581788E+03 -0.23753070477E+03  0.46607418175E+03  0.46999998093E+01 0. -1.
       -5    1    3    3    0  502  0.12367927330E+03  0.38142581788E+03  0.36481106583E+03  0.54211753425E+03  0.46999998093E+01 0.  1.
</event>
<event>
 5   0  0.4140860E-03  0.1001839E+04  0.7818609E-02  0.9306530E-01
        2   -1    0    0  501    0  0.00000000000E+00  0.00000000000E+00  0.67776949051E+03  0.67776949051E+03  0.25500000920E-02 0. -1.
       -2   -1    0    0    0  501  0.00000000000E+00  0.00000000000E+00 -0.37021503020E+03  0.37021503021E+03  0.25500000920E-02 0.  1.
    10030    2    1    2    0    0  0.00000000000E+00  0.00000000000E+00  0.30755446031E+03  0.10479845207E+04  0.10018392135E+04 0.  0.
        3    1    3    3  502    0 -0.51327238022E+02 -0.20905417688E+03 -0.31936409098E+03  0.38513837389E+03  0.10100000352E+00 0.  1.
       -3    1    3    3    0  502  0.51327238022E+02  0.20905417688E+03  0.62691855129E+03  0.66284614684E+03  0.10100000352E+00 0. -1.
</event>
<event>
 5   0  0.4026829E-03  0.9995514E+03  0.7818609E-02  0.9309037E-01
        2   -1    0    0  501    0  0.00000000000E+00  0.00000000000E+00  0.12484220879E+04  0.12484220879E+04  0.25500000920E-02 0. -1.
       -2   -1    0    0    0  501  0.00000000000E+00  0.00000000000E+00 -0.20007315238E+03  0.20007315239E+03  0.25500000920E-02 0.  1.
    10030    2    1    2    0    0  0.00000000000E+00  0.00000000000E+00  0.10483489356E+04  0.14484952403E+04  0.99955138466E+03 0.  0.
        1    1    3    3  502    0  0.25044898822E+03 -0.34986440405E+03  0.89262788938E+03  0.99091591260E+03  0.50400001928E-02 0. -1.
       -1    1    3    3    0  502 -0.25044898822E+03  0.34986440405E+03  0.15572104619E+03  0.45757932774E+03  0.50400001928E-02 0.  1.
</event>
<event>
 5   0  0.3826483E-03  0.1124086E+04  0.7818609E-02  0.9182029E-01
        2   -1    0    0  501    0  0.00000000000E+00  0.00000000000E+00  0.10981525702E+04  0.10981525702E+04  0.25500000920E-02 0. -1.
       -2   -1    0    0    0  501  0.00000000000E+00  0.00000000000E+00 -0.28765776466E+03  0.28765776467E+03  0.25500000920E-02 0.  1.
    10030    2    1    2    0    0  0.00000000000E+00  0.00000000000E+00  0.81049480557E+03  0.13858103349E+04  0.11240856081E+04 0.  0.
        4    1    3    3  502    0 -0.25398619455E+03 -0.13535188045E+03  0.10004153951E+04  0.10409907273E+04  0.12699999809E+01 0. -1.
       -4    1    3    3    0  502  0.25398619455E+03  0.13535188045E+03 -0.18992058956E+03  0.34481960762E+03  0.12699999809E+01 0.  1.
</event>
<event>
 5   0  0.4026829E-03  0.9965288E+03  0.7818609E-02  0.9312360E-01
        2   -1    0    0  501    0  0.00000000000E+00  0.00000000000E+00  0.38079183638E+03  0.38079183638E+03  0.25500000920E-02 0. -1.
       -2   -1    0    0    0  501  0.00000000000E+00  0.00000000000E+00 -0.65197669719E+03  0.65197669720E+03  0.25500000920E-02 0.  1.
    10030    2    1    2    0    0  0.00000000000E+00  0.00000000000E+00 -0.27118486082E+03  0.10327685336E+04  0.99652878294E+03 0.  0.
        1    1    3    3  502    0  0.21716763980E+03 -0.44681070918E+03 -0.17527063520E+03  0.52680298899E+03  0.50400001928E-02 0.  1.
       -1    1    3    3    0  502 -0.21716763980E+03  0.44681070918E+03 -0.95914225620E+02  0.50596554460E+03  0.50400001928E-02 0. -1.
</event>
<event>
 5   0  0.4140860E-03  0.9909819E+03  0.7818609E-02  0.9318491E-01
       -2   -1    0    0    0  501  0.00000000000E+00  0.00000000000E+00  0.30872588788E+03  0.30872588789E+03  0.25500000920E-02 0. -1.
        2   -1    0    0  501    0  0.00000000000E+00  0.00000000000E+00 -0.79524035763E+03  0.79524035764E+03  0.25500000920E-02 0.  1.
    10030    2    1    2    0    0  0.00000000000E+00  0.00000000000E+00 -0.48651446975E+03  0.11039662455E+04  0.99098190800E+03 0.  0.
        3    1    3    3  502    0 -0.70651935077E+02 -0.25502005814E+03  0.22341209972E+03  0.34632340736E+03  0.10100000352E+00 0. -1.
       -3    1    3    3    0  502  0.70651935077E+02  0.25502005814E+03 -0.70992656947E+03  0.75764283817E+03  0.10100000352E+00 0.  1.
</event>
<event>
 5   0  0.3895011E-03  0.1014918E+04  0.7818609E-02  0.9292333E-01
       -2   -1    0    0    0  501  0.00000000000E+00  0.00000000000E+00  0.74429572575E+03  0.74429572575E+03  0.25500000920E-02 0. -1.
        2   -1    0    0  501    0  0.00000000000E+00  0.00000000000E+00 -0.34598431537E+03  0.34598431538E+03  0.25500000920E-02 0.  1.
    10030    2    1    2    0    0  0.00000000000E+00  0.00000000000E+00  0.39831141038E+03  0.10902800411E+04  0.10149180206E+04 0.  0.
        2    1    3    3  502    0 -0.40929493282E+03 -0.70523954353E+02 -0.11407495744E+03  0.43070763412E+03  0.25500000920E-02 0.  1.
       -2    1    3    3    0  502  0.40929493282E+03  0.70523954353E+02  0.51238636782E+03  0.65957240702E+03  0.25500000920E-02 0. -1.
</event>
<event>
 5   0  0.4026829E-03  0.9995534E+03  0.7818609E-02  0.9309035E-01
        2   -1    0    0  501    0  0.00000000000E+00  0.00000000000E+00  0.75463751327E+03  0.75463751327E+03  0.25500000920E-02 0.  1.
       -2   -1    0    0    0  501  0.00000000000E+00  0.00000000000E+00 -0.33098904755E+03  0.33098904756E+03  0.25500000920E-02 0. -1.
    10030    2    1    2    0    0  0.00000000000E+00  0.00000000000E+00  0.42364846572E+03  0.10856265608E+04  0.99955340382E+03 0.  0.
        1    1    3    3  502    0 -0.13876415819E+03 -0.33575002295E+03 -0.16094025786E+03  0.39734787798E+03  0.50400001928E-02 0. -1.
       -1    1    3    3    0  502  0.13876415819E+03  0.33575002295E+03  0.58458872358E+03  0.68827868286E+03  0.50400001928E-02 0.  1.
</event>
<event>
 5   0  0.3895011E-03  0.9982267E+03  0.7818609E-02  0.9310492E-01
        2   -1    0    0  501    0  0.00000000000E+00  0.00000000000E+00  0.92746545293E+03  0.92746545293E+03  0.25500000920E-02 0. -1.
       -2   -1    0    0    0  501  0.00000000000E+00  0.00000000000E+00 -0.26859666653E+03  0.26859666654E+03  0.25500000920E-02 0.  1.
    10030    2    1    2    0    0  0.00000000000E+00  0.00000000000E+00  0.65886878640E+03  0.11960621195E+04  0.99822668565E+03 0.  0.
        2    1    3    3  502    0 -0.75419602473E+02 -0.33650183184E+03 -0.10289781703E+03  0.35987436700E+03  0.25500000920E-02 0.  1.
       -2    1    3    3    0  502  0.75419602473E+02  0.33650183184E+03  0.76176660343E+03  0.83618775247E+03  0.25500000920E-02 0. -1.
</event>
<event>
 5   0  0.2378609E-03  0.9927705E+03  0.7818609E-02  0.9316510E-01
       -1   -1    0    0    0  501  0.00000000000E+00  0.00000000000E+00  0.46823683157E+03  0.46823683160E+03  0.50400001928E-02 0.  1.
        1   -1    0    0  501    0  0.00000000000E+00  0.00000000000E+00 -0.52622585493E+03  0.52622585495E+03  0.50400001928E-02 0. -1.
    10030    2    1    2    0    0  0.00000000000E+00  0.00000000000E+00 -0.57989023359E+02  0.99446268655E+03  0.99277052138E+03 0.  0.
        1    1    3    3  502    0 -0.49393874037E+03 -0.21322000990E+02 -0.73434756643E+02  0.49982273905E+03  0.50400001928E-02 0.  1.
       -1    1    3    3    0  502  0.49393874037E+03  0.21322000990E+02  0.15445733284E+02  0.49463994750E+03  0.50400001928E-02 0. -1.
</event>
<event>
 5   0  0.2350769E-03  0.1007544E+04  0.7818609E-02  0.9300309E-01
       -1   -1    0    0    0  501  0.00000000000E+00  0.00000000000E+00  0.26211320304E+03  0.26211320309E+03  0.50400001928E-02 0.  1.
        1   -1    0    0  501    0  0.00000000000E+00  0.00000000000E+00 -0.96823135890E+03  0.96823135891E+03  0.50400001928E-02 0. -1.
    10030    2    1    2    0    0  0.00000000000E+00  0.00000000000E+00 -0.70611815586E+03  0.12303445620E+04  0.10075439897E+04 0.  0.
        2    1    3    3  502    0 -0.14247895970E+03  0.32171393834E+03  0.87202932210E+02  0.36249753581E+03  0.25500000920E-02 0.  1.
       -2    1    3    3    0  502  0.14247895970E+03 -0.32171393834E+03 -0.79332108807E+03  0.86784702618E+03  0.25500000920E-02 0. -1.
</event>
<event>
 5   0  0.2405022E-03  0.1000626E+04  0.7818609E-02  0.9307858E-01
       -1   -1    0    0    0  501  0.00000000000E+00  0.00000000000E+00  0.35736094503E+03  0.35736094507E+03  0.50400001928E-02 0. -1.
        1   -1    0    0  501    0  0.00000000000E+00  0.00000000000E+00 -0.70044933360E+03  0.70044933362E+03  0.50400001928E-02 0.  1.
    10030    2    1    2    0    0  0.00000000000E+00  0.00000000000E+00 -0.34308838857E+03  0.10578102787E+04  0.10006262756E+04 0.  0.
        4    1    3    3  502    0  0.19833962058E+03  0.45883334156E+03 -0.14924406640E+03  0.52167235376E+03  0.12699999809E+01 0. -1.
       -4    1    3    3    0  502 -0.19833962058E+03 -0.45883334156E+03 -0.19384432217E+03  0.53613792494E+03  0.12699999809E+01 0.  1.
</event>
<event>
 5   0  0.2327595E-03  0.9961311E+03  0.7818609E-02  0.9312798E-01
        1   -1    0    0  501    0  0.00000000000E+00  0.00000000000E+00  0.37624923262E+03  0.37624923265E+03  0.50400001928E-02 0. -1.
       -1   -1    0    0    0  501  0.00000000000E+00  0.00000000000E+00 -0.65932173854E+03  0.65932173856E+03  0.50400001928E-02 0.  1.
    10030    2    1    2    0    0  0.00000000000E+00  0.00000000000E+00 -0.28307250592E+03  0.10355709712E+04  0.99613111226E+03 0.  0.
        5    1    3    3  502    0 -0.42250063463E+03 -0.18606297046E+03  0.52734156430E+02  0.46468182285E+03  0.46999998093E+01 0. -1.
       -5    1    3    3    0  502  0.42250063463E+03  0.18606297046E+03 -0.33580666235E+03  0.57088914836E+03  0.46999998093E+01 0.  1.
</event>
<event>
 5   0  0.4140860E-03  0.1011143E+04  0.7818609E-02  0.9296407E-01
        2   -1    0    0  501    0  0.00000000000E+00  0.00000000000E+00  0.12315677567E+04  0.12315677568E+04  0.25500000920E-02 0. -1.
       -2   -1    0    0    0  501  0.00000000000E+00  0.00000000000E+00 -0.20754253935E+03  0.20754253937E+03  0.25500000920E-02 0.  1.
    10030    2    1    2    0    0  0.00000000000E+00  0.00000000000E+00  0.10240252174E+04  0.14391102961E+04  0.10111433126E+04 0.  0.
        3    1    3    3  502    0  0.61107374016E+02  0.19792630737E+03 -0.14437252441E+03  0.25249231734E+03  0.10100000352E+00 0.  1.
       -3    1    3    3    0  502 -0.61107374016E+02 -0.19792630737E+03  0.11683977418E+04  0.11866179788E+04  0.10100000352E+00 0. -1.
</event>
<event>
 5   0  0.1548000E-03  0.9982835E+03  0.7818609E-02  0.9310429E-01
        3   -1    0    0  501    0  0.00000000000E+00  0.00000000000E+00  0.17039556005E+04  0.17039556035E+04  0.10100000352E+00 0.  1.
       -3   -1    0    0    0  501  0.00000000000E+00  0.00000000000E+00 -0.14621415571E+03  0.14621419060E+03  0.10100000352E+00 0. -1.
    10030    2    1    2    0    0  0.00000000000E+00  0.00000000000E+00  0.15577414448E+04  0.18501697941E+04  0.99828345581E+03 0.  0.
        1    1    3    3  502    0 -0.50087963364E+02  0.25022260049E+03  0.15739179955E+04  0.15944710755E+04  0.50400001928E-02 0.  1.
       -1    1    3    3    0  502  0.50087963364E+02 -0.25022260049E+03 -0.16176550753E+02  0.25569871860E+03  0.50400001928E-02 0. -1.
</event>
<event>
 5   0  0.4140860E-03  0.1010988E+04  0.7818609E-02  0.9296574E-01
       -2   -1    0    0    0  501  0.00000000000E+00  0.00000000000E+00  0.91581015528E+03  0.91581015529E+03  0.25500000920E-02 0. -1.
        2   -1    0    0  501    0  0.00000000000E+00  0.00000000000E+00 -0.27901461256E+03  0.27901461257E+03  0.25500000920E-02 0.  1.
    10030    2    1    2    0    0  0.00000000000E+00  0.00000000000E+00  0.63679554273E+03  0.11948247679E+04  0.10109884582E+04 0.  0.
        3    1    3    3  502    0 -0.20029075176E+03 -0.36400798060E+03 -0.21894081001E+02  0.41604994431E+03  0.10100000352E+00 0.  1.
       -3    1    3    3    0  502  0.20029075176E+03  0.36400798060E+03  0.65868962373E+03  0.77877482354E+03  0.10100000352E+00 0. -1.
</event>
<event>
 5   0  0.2313036E-03  0.1000670E+04  0.7818609E-02  0.9307811E-01
        1   -1    0    0  501    0  0.00000000000E+00  0.00000000000E+00  0.77245010975E+03  0.77245010977E+03  0.50400001928E-02 0.  1.
       -1   -1    0    0    0  501  0.00000000000E+00  0.00000000000E+00 -0.32407900911E+03  0.32407900915E+03  0.50400001928E-02 0. -1.
    10030    2    1    2    0    0  0.00000000000E+00  0.00000000000E+00  0.44837110064E+03  0.10965291189E+04  0.10006695083E+04 0.  0.
        3    1    3    3  502    0  0.33327764506E+03  0.37296543519E+03  0.23794428453E+03  0.55389051020E+03  0.10100000352E+00 0. -1.
       -3    1    3    3    0  502 -0.33327764506E+03 -0.37296543519E+03  0.21042681611E+03  0.54263860873E+03  0.10100000352E+00 0.  1.
</event>
<event>
 5   0  0.2405022E-03  0.1005596E+04  0.7818609E-02  0.9302429E-01
        1   -1    0    0  501    0  0.00000000000E+00  0.00000000000E+00  0.10209259810E+04  0.10209259810E+04  0.50400001928E-02 0. -1.
       -1   -1    0    0    0  501  0.00000000000E+00  0.00000000000E+00 -0.24762393395E+03  0.24762393401E+03  0.50400001928E-02 0.  1.
    10030    2    1    2    0    0  0.00000000000E+00  0.00000000000E+00  0.77330204702E+03  0.12685499150E+04  0.10055957592E+04 0.  0.
        4    1    3    3  502    0  0.38287024747E+03 -0.28399444716E+03  0.58833822270E+03  0.75722252317E+03  0.12699999809E+01 0.  1.
       -4    1    3    3    0  502 -0.38287024747E+03  0.28399444716E+03  0.18496382432E+03  0.51132739182E+03  0.12699999809E+01 0. -1.
</event>
<event>
 5   0  0.2327595E-03  0.9971395E+03  0.7818609E-02  0.9311688E-01
        1   -1    0    0  501    0  0.00000000000E+00  0.00000000000E+00  0.22984360560E+03  0.22984360566E+03  0.50400001928E-02 0. -1.
       -1   -1    0    0    0  501  0.00000000000E+00  0.00000000000E+00 -0.10814823092E+04  0.10814823092E+04  0.50400001928E-02 0.  1.
    10030    2    1    2    0    0  0.00000000000E+00  0.00000000000E+00 -0.85163870363E+03  0.13113259149E+04  0.99713949554E+03 0.  0.
        5    1    3    3  502    0 -0.24099891960E+03  0.40831556931E+03 -0.62847782713E+03  0.78727920879E+03  0.46999998093E+01 0.  1.
       -5    1    3    3    0  502  0.24099891960E+03 -0.40831556931E+03 -0.22316087650E+03  0.52404670611E+03  0.46999998093E+01 0. -1.
</event>
<event>
 5   0  0.3826483E-03  0.1007837E+04  0.7818609E-02  0.9299991E-01
        2   -1    0    0  501    0  0.00000000000E+00  0.00000000000E+00  0.48488947795E+03  0.48488947796E+03  0.25500000920E-02 0.  1.
       -2   -1    0    0    0  501  0.00000000000E+00  0.00000000000E+00 -0.52369399491E+03  0.52369399491E+03  0.25500000920E-02 0. -1.
    10030    2    1    2    0    0  0.00000000000E+00  0.00000000000E+00 -0.38804516954E+02  0.10085834729E+04  0.10078367086E+04 0.  0.
        4    1    3    3  502    0  0.13310621777E+03  0.48568856011E+03 -0.37344633206E+02  0.50498205628E+03  0.12699999809E+01 0.  1.
       -4    1    3    3    0  502 -0.13310621777E+03 -0.48568856011E+03 -0.14598837477E+01  0.50360141659E+03  0.12699999809E+01 0. -1.
</event>
<event>
 5   0  0.3826483E-03  0.9099587E+03  0.7818609E-02  0.9413218E-01
        2   -1    0    0  501    0  0.00000000000E+00  0.00000000000E+00  0.24135165762E+04  0.24135165762E+04  0.25500000920E-02 0. -1.
       -2   -1    0    0    0  501  0.00000000000E+00  0.00000000000E+00 -0.85769538230E+02  0.85769538268E+02  0.25500000920E-02 0.  1.
    10030    2    1    2    0    0  0.00000000000E+00  0.00000000000E+00  0.23277470379E+04  0.24992861144E+04  0.90995868543E+03 0.  0.
        4    1    3    3  502    0  0.21346228243E+03  0.32034763279E+03  0.49777043467E+03  0.62925811110E+03  0.12699999809E+01 0.  1.
       -4    1    3    3    0  502 -0.21346228243E+03 -0.32034763279E+03  0.18299766033E+04  0.18700280033E+04  0.12699999809E+01 0. -1.
</event>
<event>
 5   0  0.4140860E-03  0.9975246E+03  0.7818609E-02  0.9311264E-01
       -2   -1    0    0    0  501  0.00000000000E+00  0.00000000000E+00  0.26646027700E+03  0.26646027702E+03  0.25500000920E-02 0. -1.
        2   -1    0    0  501    0  0.00000000000E+00  0.00000000000E+00 -0.93358689930E+03  0.93358689931E+03  0.25500000920E-02 0.  1.
    10030    2    1    2    0    0  0.00000000000E+00  0.00000000000E+00 -0.66712662230E+03  0.12000471763E+04  0.99752458377E+03 0.  0.
        3    1    3    3  502    0  0.45391220406E+03  0.19497694346E+03 -0.25098708089E+03  0.55411805823E+03  0.10100000352E+00 0. -1.
       -3    1    3    3    0  502 -0.45391220406E+03 -0.19497694346E+03 -0.41613954141E+03  0.64592911809E+03  0.10100000352E+00 0.  1.
</event>
<event>
 5   0  0.2378609E-03  0.9988588E+03  0.7818609E-02  0.9309797E-01
        1   -1    0    0  501    0  0.00000000000E+00  0.00000000000E+00  0.14978471002E+04  0.14978471002E+04  0.50400001928E-02 0. -1.
       -1   -1    0    0    0  501  0.00000000000E+00  0.00000000000E+00 -0.16652547950E+03  0.16652547958E+03  0.50400001928E-02 0.  1.
    10030    2    1    2    0    0  0.00000000000E+00  0.00000000000E+00  0.13313216207E+04  0.16643725798E+04  0.99885876208E+03 0.  0.
        1    1    3    3  502    0  0.71087566565E+00 -0.47453527797E+03  0.40620596632E+03  0.62464991994E+03  0.50400001928E-02 0. -1.
       -1    1    3    3    0  502 -0.71087566565E+00  0.47453527797E+03  0.92511565437E+03  0.10397226598E+04  0.50400001928E-02 0.  1.
</event>
<event>
 5   0  0.3826483E-03  0.9977192E+03  0.7818609E-02  0.9311050E-01
        2   -1    0    0  501    0  0.00000000000E+00  0.00000000000E+00  0.29726487456E+04  0.29726487456E+04  0.25500000920E-02 0.  1.
       -2   -1    0    0    0  501  0.00000000000E+00  0.00000000000E+00 -0.83716890195E+02  0.83716890234E+02  0.25500000920E-02 0. -1.
    10030    2    1    2    0    0  0.00000000000E+00  0.00000000000E+00  0.28889318554E+04  0.30563656359E+04  0.99771921639E+03 0.  0.
        4    1    3    3  502    0 -0.16221510038E+02 -0.35474799028E+03  0.37119896761E+03  0.51371155374E+03  0.12699999809E+01 0. -1.
       -4    1    3    3    0  502  0.16221510038E+02  0.35474799028E+03  0.25177328878E+04  0.25426540821E+04  0.12699999809E+01 0.  1.
</event>
<event>
 5   0  0.2405022E-03  0.1007786E+04  0.7818609E-02  0.9300046E-01
       -1   -1    0    0    0  501  0.00000000000E+00  0.00000000000E+00  0.15320063075E+03  0.15320063083E+03  0.50400001928E-02 0. -1.
        1   -1    0    0  501    0  0.00000000000E+00  0.00000000000E+00 -0.16573586023E+04  0.16573586024E+04  0.50400001928E-02 0.  1.
    10030    2    1    2    0    0  0.00000000000E+00  0.00000000000E+00 -0.15041579716E+04  0.18105592332E+04  0.10077864523E+04 0.  0.
        4    1    3    3  502    0 -0.23563464182E+03  0.11640869985E+03 -0.15244623679E+04  0.15469524214E+04  0.12699999809E+01 0.  1.
       -4    1    3    3    0  502  0.23563464182E+03 -0.11640869985E+03  0.20304396333E+02  0.26360681182E+03  0.12699999809E+01 0. -1.
</event>
<event>
 5   0  0.4026829E-03  0.9959264E+03  0.7818609E-02  0.9313024E-01
       -2   -1    0    0    0  501  0.00000000000E+00  0.00000000000E+00  0.16696272821E+03  0.16696272823E+03  0.25500000920E-02 0. -1.
        2   -1    0    0  501    0  0.00000000000E+00  0.00000000000E+00 -0.14851659043E+04  0.14851659043E+04  0.25500000920E-02 0.  1.
    10030    2    1    2    0    0  0.00000000000E+00  0.00000000000E+00 -0.13182031761E+04  0.16521286325E+04  0.99592640540E+03 0.  0.
        1    1    3    3  502    0  0.16686077879E+03 -0.35124173118E+03 -0.11751034279E+04  0.12377727334E+04  0.50400001928E-02 0.  1.
       -1    1    3    3    0  502 -0.16686077879E+03  0.35124173118E+03 -0.14309974823E+03  0.41435589919E+03  0.50400001928E-02 0. -1.
</event>
<event>
 5   0  0.3873874E-03  0.1000776E+04  0.7818609E-02  0.9307694E-01
       -2   -1    0    0    0  501  0.00000000000E+00  0.00000000000E+00  0.14116413682E+03  0.14116413684E+03  0.25500000920E-02 0.  1.
        2   -1    0    0  501    0  0.00000000000E+00  0.00000000000E+00 -0.17737391758E+04  0.17737391758E+04  0.25500000920E-02 0. -1.
    10030    2    1    2    0    0  0.00000000000E+00  0.00000000000E+00 -0.16325750390E+04  0.19149033127E+04  0.10007764180E+04 0.  0.
        5    1    3    3  502    0 -0.35224061733E+03  0.16095850503E+03 -0.14225275105E+04  0.14743092284E+04  0.46999998093E+01 0. -1.
       -5    1    3    3    0  502  0.35224061733E+03 -0.16095850503E+03 -0.21004752847E+03  0.44059408423E+03  0.46999998093E+01 0.  1.
</event>
<event>
 5   0  0.2405022E-03  0.9999447E+03  0.7818609E-02  0.9308605E-01
        1   -1    0    0  501    0  0.00000000000E+00  0.00000000000E+00  0.33474559761E+03  0.33474559764E+03  0.50400001928E-02 0. -1.
       -1   -1    0    0    0  501  0.00000000000E+00  0.00000000000E+00 -0.74675327200E+03  0.74675327202E+03  0.50400001928E-02 0.  1.
    10030    2    1    2    0    0  0.00000000000E+00  0.00000000000E+00 -0.41200767440E+03  0.10814988697E+04  0.99994473914E+03 0.  0.
        4    1    3    3  502    0  0.50361470604E+02  0.45771102143E+03 -0.41665831245E+03  0.62100033743E+03  0.12699999809E+01 0.  1.
       -4    1    3    3    0  502 -0.50361470604E+02 -0.45771102143E+03  0.46506380478E+01  0.46049853224E+03  0.12699999809E+01 0. -1.
</event>
<event>
 5   0  0.2378609E-03  0.1005175E+04  0.7818609E-02  0.9302887E-01
       -1   -1    0    0    0  501  0.00000000000E+00  0.00000000000E+00  0.10934996442E+03  0.10934996454E+03  0.50400001928E-02 0.  1.
        1   -1    0    0  501    0  0.00000000000E+00  0.00000000000E+00 -0.23099620632E+04  0.23099620632E+04  0.50400001928E-02 0. -1.
    10030    2    1    2    0    0  0.00000000000E+00  0.00000000000E+00 -0.22006120988E+04  0.24193120278E+04  0.10051751481E+04 0.  0.
        1    1    3    3  502    0  0.17634446644E+03 -0.47050693240E+03 -0.10739265028E+04  0.11856611142E+04  0.50400001928E-02 0.  1.
       -1    1    3    3    0  502 -0.17634446644E+03  0.47050693240E+03 -0.11266855960E+04  0.12336509136E+04  0.50400001928E-02 0. -1.
</event>
<event>
 5   0  0.2405022E-03  0.1003168E+04  0.7818609E-02  0.9305077E-01
        1   -1    0    0  501    0  0.00000000000E+00  0.00000000000E+00  0.23210802927E+03  0.23210802933E+03  0.50400001928E-02 0. -1.
       -1   -1    0    0    0  501  0.00000000000E+00  0.00000000000E+00 -0.10839193318E+04  0.10839193318E+04  0.50400001928E-02 0.  1.
    10030    2    1    2    0    0  0.00000000000E+00  0.00000000000E+00 -0.85181130248E+03  0.13160273611E+04  0.10031677428E+04 0.  0.
        4    1    3    3  502    0 -0.47399382612E+03 -0.51415621631E+02 -0.22152693066E+03  0.52572759796E+03  0.12699999809E+01 0. -1.
       -4    1    3    3    0  502  0.47399382612E+03  0.51415621631E+02 -0.63028437182E+03  0.79029976313E+03  0.12699999809E+01 0.  1.
</event>
<event>
 5   0  0.3826483E-03  0.1001169E+04  0.7818609E-02  0.9307264E-01
        2   -1    0    0  501    0  0.00000000000E+00  0.00000000000E+00  0.15852865321E+04  0.15852865321E+04  0.25500000920E-02 0. -1.
       -2   -1    0    0    0  501  0.00000000000E+00  0.00000000000E+00 -0.15806907709E+03  0.15806907711E+03  0.25500000920E-02 0.  1.
    10030    2    1    2    0    0  0.00000000000E+00  0.00000000000E+00  0.14272174550E+04  0.17433556092E+04  0.10011688750E+04 0.  0.
        4    1    3    3  502    0  0.46797200113E+03 -0.83664220029E+02  0.98664457685E+03  0.10952016387E+04  0.12699999809E+01 0. -1.
       -4    1    3    3    0  502 -0.46797200113E+03  0.83664220029E+02  0.44057287812E+03  0.64815397044E+03  0.12699999809E+01 0.  1.
</event>
<event>
 5   0  0.2378609E-03  0.9900628E+03  0.7818609E-02  0.9319511E-01
       -1   -1    0    0    0  501  0.00000000000E+00  0.00000000000E+00  0.54923800820E+03  0.54923800823E+03  0.50400001928E-02 0. -1.
        1   -1    0    0  501    0  0.00000000000E+00  0.00000000000E+00 -0.44617462995E+03  0.44617462998E+03  0.50400001928E-02 0.  1.
    10030    2    1    2    0    0  0.00000000000E+00  0.00000000000E+00  0.10306337825E+03  0.99541263821E+03  0.99006275577E+03 0.  0.
        1    1    3    3  502    0 -0.17356451469E+03  0.37547431730E+03 -0.22187609231E+03  0.46939812960E+03  0.50400001928E-02 0.  1.
       -1    1    3    3    0  502  0.17356451469E+03 -0.37547431730E+03  0.32493947056E+03  0.52601450861E+03  0.50400001928E-02 0. -1.
</event>
<event>
 5   0  0.4026829E-03  0.9967009E+03  0.7818609E-02  0.9312171E-01
       -2   -1    0    0    0  501  0.00000000000E+00  0.00000000000E+00  0.11490289440E+03  0.11490289443E+03  0.25500000920E-02 0.  1.
        2   -1    0    0  501    0  0.00000000000E+00  0.00000000000E+00 -0.21614179679E+04  0.21614179679E+04  0.25500000920E-02 0. -1.
    10030    2    1    2    0    0  0.00000000000E+00  0.00000000000E+00 -0.20465150735E+04  0.22763208623E+04  0.99670091913E+03 0.  0.
        1    1    3    3  502    0  0.41204887097E+03 -0.12185841508E+01 -0.16634195143E+04  0.17136949079E+04  0.50400001928E-02 0. -1.
       -1    1    3    3    0  502 -0.41204887097E+03  0.12185841508E+01 -0.38309555920E+03  0.56262595435E+03  0.50400001928E-02 0.  1.
</event>
<event>
 5   0  0.1548000E-03  0.9996895E+03  0.7818609E-02  0.9308885E-01
        3   -1    0    0  501    0  0.00000000000E+00  0.00000000000E+00  0.36214818037E+03  0.36214819446E+03  0.10100000352E+00 0. -1.
       -3   -1    0    0    0  501  0.00000000000E+00  0.00000000000E+00 -0.68989650116E+03  0.68989650855E+03  0.10100000352E+00 0.  1.
    10030    2    1    2    0    0  0.00000000000E+00  0.00000000000E+00 -0.32774832079E+03  0.10520447030E+04  0.99968949947E+03 0.  0.
        4    1    3    3  502    0 -0.27580498883E+03  0.26341196554E+03  0.17613939828E+03  0.42009636511E+03  0.12699999809E+01 0. -1.
       -4    1    3    3    0  502  0.27580498883E+03 -0.26341196554E+03 -0.50388771906E+03  0.63194833790E+03  0.12699999809E+01 0.  1.
</event>
<event>
 5   0  0.2327595E-03  0.9784541E+03  0.7818609E-02  0.9332497E-01
       -1   -1    0    0    0  501  0.00000000000E+00  0.00000000000E+00  0.59740575631E+03  0.59740575633E+03  0.50400001928E-02 0.  1.
        1   -1    0    0  501    0  0.00000000000E+00  0.00000000000E+00 -0.40063746504E+03  0.40063746507E+03  0.50400001928E-02 0. -1.
    10030    2    1    2    0    0  0.00000000000E+00  0.00000000000E+00  0.19676829127E+03  0.99804322141E+03  0.97845414371E+03 0.  0.
        5    1    3    3  502    0 -0.18473153129E+03 -0.25696429437E+03 -0.28213221931E+03  0.42400125755E+03  0.46999998093E+01 0. -1.
       -5    1    3    3    0  502  0.18473153129E+03  0.25696429437E+03  0.47890051058E+03  0.57404196385E+03  0.46999998093E+01 0.  1.
</event>
<event>
 5   0  0.4140860E-03  0.1002483E+04  0.7818609E-02  0.9305826E-01
        2   -1    0    0  501    0  0.00000000000E+00  0.00000000000E+00  0.10103869069E+04  0.10103869069E+04  0.25500000920E-02 0.  1.
       -2   -1    0    0    0  501  0.00000000000E+00  0.00000000000E+00 -0.24866017629E+03  0.24866017631E+03  0.25500000920E-02 0. -1.
    10030    2    1    2    0    0  0.00000000000E+00  0.00000000000E+00  0.76172673059E+03  0.12590470832E+04  0.10024828904E+04 0.  0.
        3    1    3    3  502    0 -0.26554536660E+03 -0.36600306863E+03  0.10925040462E+03  0.46519700029E+03  0.10100000352E+00 0. -1.
       -3    1    3    3    0  502  0.26554536660E+03  0.36600306863E+03  0.65247632597E+03  0.79385008290E+03  0.10100000352E+00 0.  1.
</event>
<event>
 5   0  0.2378609E-03  0.9996239E+03  0.7818609E-02  0.9308957E-01
        1   -1    0    0  501    0  0.00000000000E+00  0.00000000000E+00  0.44154278575E+03  0.44154278577E+03  0.50400001928E-02 0. -1.
       -1   -1    0    0    0  501  0.00000000000E+00  0.00000000000E+00 -0.56577078413E+03  0.56577078415E+03  0.50400001928E-02 0.  1.
    10030    2    1    2    0    0  0.00000000000E+00  0.00000000000E+00 -0.12422799838E+03  0.10073135699E+04  0.99962394558E+03 0.  0.
        1    1    3    3  502    0  0.32839991782E+03  0.10246503499E+03  0.30325815842E+03  0.45859688191E+03  0.50400001928E-02 0. -1.
       -1    1    3    3    0  502 -0.32839991782E+03 -0.10246503499E+03 -0.42748615681E+03  0.54871668802E+03  0.50400001928E-02 0.  1.
</event>
<event>
 5   0  0.2327595E-03  0.1041827E+04  0.7818609E-02  0.9263823E-01
       -1   -1    0    0    0  501  0.00000000000E+00  0.00000000000E+00  0.40847952682E+03  0.40847952686E+03  0.50400001928E-02 0. -1.
        1   -1    0    0  501    0  0.00000000000E+00  0.00000000000E+00 -0.66429479448E+03  0.66429479450E+03  0.50400001928E-02 0.  1.
    10030    2    1    2    0    0  0.00000000000E+00  0.00000000000E+00 -0.25581526765E+03  0.10727743214E+04  0.10418269018E+04 0.  0.
        5    1    3    3  502    0 -0.45193556619E+03  0.13695966420E+03  0.98451934950E+02  0.48240914077E+03  0.46999998093E+01 0. -1.
       -5    1    3    3    0  502  0.45193556619E+03 -0.13695966420E+03 -0.35426720260E+03  0.59036518058E+03  0.46999998093E+01 0.  1.
</event>
<event>
 5   0  0.1548000E-03  0.1003462E+04  0.7818609E-02  0.9304756E-01
       -3   -1    0    0    0  501  0.00000000000E+00  0.00000000000E+00  0.68404710072E+03  0.68404710818E+03  0.10100000352E+00 0. -1.
        3   -1    0    0  501    0  0.00000000000E+00  0.00000000000E+00 -0.36800687731E+03  0.36800689117E+03  0.10100000352E+00 0.  1.
    10030    2    1    2    0    0  0.00000000000E+00  0.00000000000E+00  0.31604022341E+03  0.10520539994E+04  0.10034621043E+04 0.  0.
        1    1    3    3  502    0  0.17952619894E+03  0.24884294795E+03  0.57420832896E+03  0.65105120684E+03  0.50400001928E-02 0. -1.
       -1    1    3    3    0  502 -0.17952619894E+03 -0.24884294795E+03 -0.25816810555E+03  0.40100279251E+03  0.50400001928E-02 0.  1.
</event>
<event>
 5   0  0.3873874E-03  0.1009819E+04  0.7818609E-02  0.9297840E-01
       -2   -1    0    0    0  501  0.00000000000E+00  0.00000000000E+00  0.45975430633E+03  0.45975430633E+03  0.25500000920E-02 0.  1.
        2   -1    0    0  501    0  0.00000000000E+00  0.00000000000E+00 -0.55450004101E+03  0.55450004101E+03  0.25500000920E-02 0. -1.
    10030    2    1    2    0    0  0.00000000000E+00  0.00000000000E+00 -0.94745734681E+02  0.10142543473E+04  0.10098193536E+04 0.  0.
        5    1    3    3  502    0 -0.33932660029E+02 -0.47086834455E+03  0.13241964115E+03  0.49033200454E+03  0.46999998093E+01 0.  1.
       -5    1    3    3    0  502  0.33932660029E+02  0.47086834455E+03 -0.22716537583E+03  0.52392234281E+03  0.46999998093E+01 0. -1.
</event>
<event>
 5   0  0.2378609E-03  0.1001825E+04  0.7818609E-02  0.9306545E-01
       -1   -1    0    0    0  501  0.00000000000E+00  0.00000000000E+00  0.31237054699E+03  0.31237054703E+03  0.50400001928E-02 0.  1.
        1   -1    0    0  501    0  0.00000000000E+00  0.00000000000E+00 -0.80325570176E+03  0.80325570177E+03  0.50400001928E-02 0. -1.
    10030    2    1    2    0    0  0.00000000000E+00  0.00000000000E+00 -0.49088515476E+03  0.11156262488E+04  0.10018251803E+04 0.  0.
        1    1    3    3  502    0  0.64029394197E+02  0.15444462534E+03 -0.77126701061E+03  0.78918040226E+03  0.50400001928E-02 0. -1.
       -1    1    3    3    0  502 -0.64029394197E+02 -0.15444462534E+03  0.28038185585E+03  0.32644584655E+03  0.50400001928E-02 0.  1.
</event>
<event>
 5   0  0.2327595E-03  0.9960479E+03  0.7818609E-02  0.9312890E-01
        1   -1    0    0  501    0  0.00000000000E+00  0.00000000000E+00  0.29025505692E+03  0.29025505697E+03  0.50400001928E-02 0.  1.
       -1   -1    0    0    0  501  0.00000000000E+00  0.00000000000E+00 -0.85451684610E+03  0.85451684612E+03  0.50400001928E-02 0. -1.
    10030    2    1    2    0    0  0.00000000000E+00  0.00000000000E+00 -0.56426178918E+03  0.11447719031E+04  0.99604786198E+03 0.  0.
        5    1    3    3  502    0 -0.41235487208E+03  0.19660907485E+03 -0.54247439181E+02  0.46006145622E+03  0.46999998093E+01 0. -1.
       -5    1    3    3    0  502  0.41235487208E+03 -0.19660907485E+03 -0.51001435000E+03  0.68471044686E+03  0.46999998093E+01 0.  1.
</event>
<event>
 5   0  0.2313036E-03  0.1025423E+04  0.7818609E-02  0.9281092E-01
        1   -1    0    0  501    0  0.00000000000E+00  0.00000000000E+00  0.74688624095E+03  0.74688624097E+03  0.50400001928E-02 0.  1.
       -1   -1    0    0    0  501  0.00000000000E+00  0.00000000000E+00 -0.35195874762E+03  0.35195874766E+03  0.50400001928E-02 0. -1.
    10030    2    1    2    0    0  0.00000000000E+00  0.00000000000E+00  0.39492749333E+03  0.10988449886E+04  0.10254231244E+04 0.  0.
        3    1    3    3  502    0  0.35747978003E+03 -0.34938143712E+03  0.31971067623E+03  0.59335833054E+03  0.10100000352E+00 0.  1.
       -3    1    3    3    0  502 -0.35747978003E+03  0.34938143712E+03  0.75216817094E+02  0.50548665809E+03  0.10100000352E+00 0. -1.
</event>
<event>
 5   0  0.3826483E-03  0.1001063E+04  0.7818609E-02  0.9307380E-01
       -2   -1    0    0    0  501  0.00000000000E+00  0.00000000000E+00  0.51605785003E+03  0.51605785004E+03  0.25500000920E-02 0.  1.
        2   -1    0    0  501    0  0.00000000000E+00  0.00000000000E+00 -0.48547206442E+03  0.48547206442E+03  0.25500000920E-02 0. -1.
    10030    2    1    2    0    0  0.00000000000E+00  0.00000000000E+00  0.30585785619E+02  0.10015299145E+04  0.10010627749E+04 0.  0.
        4    1    3    3  502    0  0.21588649364E+03 -0.89821999976E+02  0.45805458809E+03  0.51428648474E+03  0.12699999809E+01 0.  1.
       -4    1    3    3    0  502 -0.21588649364E+03  0.89821999976E+02 -0.42746880247E+03  0.48724342972E+03  0.12699999809E+01 0. -1.
</event>
<event>
 5   0  0.2350769E-03  0.9969629E+03  0.7818609E-02  0.9311882E-01
        1   -1    0    0  501    0  0.00000000000E+00  0.00000000000E+00  0.15151152822E+04  0.15151152822E+04  0.50400001928E-02 0. -1.
       -1   -1    0    0    0  501  0.00000000000E+00  0.00000000000E+00 -0.16400319781E+03  0.16400319788E+03  0.50400001928E-02 0.  1.
    10030    2    1    2    0    0  0.00000000000E+00  0.00000000000E+00  0.13511120844E+04  0.16791184801E+04  0.99696289078E+03 0.  0.
        2    1    3    3  502    0  0.31987485156E+03 -0.38093039413E+03  0.62082840989E+03  0.79552234436E+03  0.25500000920E-02 0. -1.
       -2    1    3    3    0  502 -0.31987485156E+03  0.38093039413E+03  0.73028367450E+03  0.88359613574E+03  0.25500000920E-02 0.  1.
</event>
<event>
 5   0  0.1548000E-03  0.1013981E+04  0.7818609E-02  0.9293342E-01
        3   -1    0    0  501    0  0.00000000000E+00  0.00000000000E+00  0.47054974914E+03  0.47054975998E+03  0.10100000352E+00 0.  1.
       -3   -1    0    0    0  501  0.00000000000E+00  0.00000000000E+00 -0.54625371959E+03  0.54625372893E+03  0.10100000352E+00 0. -1.
    10030    2    1    2    0    0  0.00000000000E+00  0.00000000000E+00 -0.75703970453E+02  0.10168034889E+04  0.10139813824E+04 0.  0.
        2    1    3    3  502    0  0.22477709541E+03  0.20205064453E+03 -0.44603568839E+03  0.53879220568E+03  0.25500000920E-02 0. -1.
       -2    1    3    3    0  502 -0.22477709541E+03 -0.20205064453E+03  0.37033171794E+03  0.47801128322E+03  0.25500000920E-02 0.  1.
</event>
<event>
 5   0  0.4026829E-03  0.1002689E+04  0.7818609E-02  0.9305601E-01
       -2   -1    0    0    0  501  0.00000000000E+00  0.00000000000E+00  0.59389738491E+03  0.59389738492E+03  0.25500000920E-02 0. -1.
        2   -1    0    0  501    0  0.00000000000E+00  0.00000000000E+00 -0.42321497513E+03  0.42321497513E+03  0.25500000920E-02 0.  1.
    10030    2    1    2    0    0  0.00000000000E+00  0.00000000000E+00  0.17068240979E+03  0.10171123601E+04  0.10026889188E+04 0.  0.
        1    1    3    3  502    0  0.16860316103E+02  0.50105560830E+03  0.83011628913E+02  0.50816525208E+03  0.50400001928E-02 0.  1.
       -1    1    3    3    0  502 -0.16860316103E+02 -0.50105560830E+03  0.87670780872E+02  0.50894710797E+03  0.50400001928E-02 0. -1.
</event>
<event>
 5   0  0.3826483E-03  0.1003978E+04  0.7818609E-02  0.9304192E-01
       -2   -1    0    0    0  501  0.00000000000E+00  0.00000000000E+00  0.41927546725E+03  0.41927546726E+03  0.25500000920E-02 0. -1.
        2   -1    0    0  501    0  0.00000000000E+00  0.00000000000E+00 -0.60102023305E+03  0.60102023305E+03  0.25500000920E-02 0.  1.
    10030    2    1    2    0    0  0.00000000000E+00  0.00000000000E+00 -0.18174476580E+03  0.10202957003E+04  0.10039781652E+04 0.  0.
        4    1    3    3  502    0  0.37453444903E+03 -0.81954158489E+01  0.24869632863E+03  0.44966064441E+03  0.12699999809E+01 0. -1.
       -4    1    3    3    0  502 -0.37453444903E+03  0.81954158489E+01 -0.43044109443E+03  0.57063505590E+03  0.12699999809E+01 0.  1.
</event>
<event>
 5   0  0.3826483E-03  0.9987100E+03  0.7818609E-02  0.9309961E-01
       -2   -1    0    0    0  501  0.00000000000E+00  0.00000000000E+00  0.11780804125E+03  0.11780804128E+03  0.25500000920E-02 0.  1.
        2   -1    0    0  501    0  0.00000000000E+00  0.00000000000E+00 -0.21166246378E+04  0.21166246378E+04  0.25500000920E-02 0. -1.
    10030    2    1    2    0    0  0.00000000000E+00  0.00000000000E+00 -0.19988165965E+04  0.22344326791E+04  0.99870997325E+03 0.  0.
        4    1    3    3  502    0 -0.26667366328E+03 -0.19048524464E+03 -0.18423590307E+04  0.18712797444E+04  0.12699999809E+01 0. -1.
       -4    1    3    3    0  502  0.26667366328E+03  0.19048524464E+03 -0.15645756587E+03  0.36315293463E+03  0.12699999809E+01 0.  1.
</event>
<event>
 5   0  0.3895011E-03  0.1057283E+04  0.7818609E-02  0.9247857E-01
        2   -1    0    0  501    0  0.00000000000E+00  0.00000000000E+00  0.18722396015E+04  0.18722396015E+04  0.25500000920E-02 0.  1.
       -2   -1    0    0    0  501  0.00000000000E+00  0.00000000000E+00 -0.14926595969E+03  0.14926595971E+03  0.25500000920E-02 0. -1.
    10030    2    1    2    0    0  0.00000000000E+00  0.00000000000E+00  0.17229736419E+04  0.20215055613E+04  0.10572826319E+04 0.  0.
        2    1    3    3  502    0 -0.42519190331E+03  0.25093537015E+01  0.14620659295E+04  0.15226395614E+04  0.25500000920E-02 0.  1.
       -2    1    3    3    0  502  0.42519190331E+03 -0.25093537015E+01  0.26090771232E+03  0.49886599990E+03  0.25500000920E-02 0. -1.
</event>
<event>
 5   0  0.4140860E-03  0.9926799E+03  0.7818609E-02  0.9316610E-01
       -2   -1    0    0    0  501  0.00000000000E+00  0.00000000000E+00  0.19108293467E+03  0.19108293469E+03  0.25500000920E-02 0. -1.
        2   -1    0    0  501    0  0.00000000000E+00  0.00000000000E+00 -0.12892483885E+04  0.12892483886E+04  0.25500000920E-02 0.  1.
    10030    2    1    2    0    0  0.00000000000E+00  0.00000000000E+00 -0.10981654539E+04  0.14803313232E+04  0.99267993959E+03 0.  0.
        3    1    3    3  502    0  0.42203510146E+03 -0.18185403893E+03 -0.26942379992E+03  0.53270415101E+03  0.10100000352E+00 0. -1.
       -3    1    3    3    0  502 -0.42203510146E+03  0.18185403893E+03 -0.82874165396E+03  0.94762717223E+03  0.10100000352E+00 0.  1.
</event>
<event>
 5   0  0.2313036E-03  0.1053488E+04  0.7818609E-02  0.9251750E-01
        1   -1    0    0  501    0  0.00000000000E+00  0.00000000000E+00  0.12207555885E+04  0.12207555885E+04  0.50400001928E-02 0.  1.
       -1   -1    0    0    0  501  0.00000000000E+00  0.00000000000E+00 -0.22728494860E+03  0.22728494866E+03  0.50400001928E-02 0. -1.
    10030    2    1    2    0    0  0.00000000000E+00  0.00000000000E+00  0.99347063988E+03  0.14480405371E+04  0.10534882462E+04 0.  0.
        3    1    3    3  502    0 -0.12598669590E+03 -0.42174874515E+03  0.99038688482E+02  0.45116884156E+03  0.10100000352E+00 0. -1.
       -3    1    3    3    0  502  0.12598669590E+03  0.42174874515E+03  0.89443195139E+03  0.99687169558E+03  0.10100000352E+00 0.  1.
</event>
<event>
 5   0  0.2405022E-03  0.1002401E+04  0.7818609E-02  0.9305915E-01
       -1   -1    0    0    0  501  0.00000000000E+00  0.00000000000E+00  0.31222373140E+03  0.31222373144E+03  0.50400001928E-02 0. -1.
        1   -1    0    0  501    0  0.00000000000E+00  0.00000000000E+00 -0.80455814465E+03  0.80455814467E+03  0.50400001928E-02 0.  1.
    10030    2    1    2    0    0  0.00000000000E+00  0.00000000000E+00 -0.49233441325E+03  0.11167818761E+04  0.10024014088E+04 0.  0.
        4    1    3    3  502    0  0.44348736625E+03 -0.22978449875E+03 -0.19998116761E+03  0.53802977630E+03  0.12699999809E+01 0. -1.
       -4    1    3    3    0  502 -0.44348736625E+03  0.22978449875E+03 -0.29235324564E+03  0.57875209980E+03  0.12699999809E+01 0.  1.
</event>
<event>
 5   0  0.4140860E-03  0.9230353E+03  0.7818609E-02  0.9397236E-01
        2   -1    0    0  501    0  0.00000000000E+00  0.00000000000E+00  0.83560118239E+03  0.83560118239E+03  0.25500000920E-02 0. -1.
       -2   -1    0    0    0  501  0.00000000000E+00  0.00000000000E+00 -0.25490457060E+03  0.25490457061E+03  0.25500000920E-02 0.  1.
    10030    2    1    2    0    0  0.00000000000E+00  0.00000000000E+00  0.58069661179E+03  0.10905057530E+04  0.92303534189E+03 0.  0.
        3    1    3    3  502    0  0.16762124869E+02 -0.14188420593E+03  0.80881695338E+03  0.82133852399E+03  0.10100000352E+00 0. -1.
       -3    1    3    3    0  502 -0.16762124869E+02  0.14188420593E+03 -0.22812034159E+03  0.26916722900E+03  0.10100000352E+00 0.  1.
</event>
<event>
 5   0  0.3895011E-03  0.9990865E+03  0.7818609E-02  0.9309547E-01
        2   -1    0    0  501    0  0.00000000000E+00  0.00000000000E+00  0.10909467042E+04  0.10909467042E+04  0.25500000920E-02 0.  1.
       -2   -1    0    0    0  501  0.00000000000E+00  0.00000000000E+00 -0.22874029554E+03  0.22874029555E+03  0.25500000920E-02 0. -1.
    10030    2    1    2    0    0  0.00000000000E+00  0.00000000000E+00  0.86220640865E+03  0.13196869997E+04  0.99908652587E+03 0.  0.
        2    1    3    3  502    0 -0.21127917788E+02 -0.28410523106E+03  0.97312252313E+03  0.10139672659E+04  0.25500000920E-02 0.  1.
       -2    1    3    3    0  502  0.21127917788E+02  0.28410523106E+03 -0.11091611448E+03  0.30571973388E+03  0.25500000920E-02 0. -1.
</event>
<event>
 5   0  0.2378609E-03  0.1012429E+04  0.7818609E-02  0.9295017E-01
        1   -1    0    0  501    0  0.00000000000E+00  0.00000000000E+00  0.14514770348E+04  0.14514770348E+04  0.50400001928E-02 0. -1.
       -1   -1    0    0    0  501  0.00000000000E+00  0.00000000000E+00 -0.17654633989E+03  0.17654633996E+03  0.50400001928E-02 0.  1.
    10030    2    1    2    0    0  0.00000000000E+00  0.00000000000E+00  0.12749306949E+04  0.16280233747E+04  0.10124286799E+04 0.  0.
        1    1    3    3  502    0 -0.58605499893E+02 -0.49169497883E+03  0.46839641635E+03  0.68161114992E+03  0.50400001928E-02 0. -1.
       -1    1    3    3    0  502  0.58605499893E+02  0.49169497883E+03  0.80653427853E+03  0.94641222482E+03  0.50400001928E-02 0.  1.
</event>
<event>
 5   0  0.4026829E-03  0.1006741E+04  0.7818609E-02  0.9301182E-01
       -2   -1    0    0    0  501  0.00000000000E+00  0.00000000000E+00  0.15497910329E+03  0.15497910331E+03  0.25500000920E-02 0.  1.
        2   -1    0    0  501    0  0.00000000000E+00  0.00000000000E+00 -0.16349435111E+04  0.16349435111E+04  0.25500000920E-02 0. -1.
    10030    2    1    2    0    0  0.00000000000E+00  0.00000000000E+00 -0.14799644078E+04  0.17899226144E+04  0.10067414351E+04 0.  0.
        1    1    3    3  502    0  0.41215085572E+03  0.78998284431E+02 -0.12342135213E+04  0.13036073308E+04  0.50400001928E-02 0. -1.
       -1    1    3    3    0  502 -0.41215085572E+03 -0.78998284431E+02 -0.24575088656E+03  0.48631528362E+03  0.50400001928E-02 0.  1.
</event>
<event>
 5   0  0.2350769E-03  0.1013270E+04  0.7818609E-02  0.9294109E-01
        1   -1    0    0  501    0  0.00000000000E+00  0.00000000000E+00  0.96210368725E+03  0.96210368727E+03  0.50400001928E-02 0. -1.
       -1   -1    0    0    0  501  0.00000000000E+00  0.00000000000E+00 -0.26678929828E+03  0.26678929832E+03  0.50400001928E-02 0.  1.
    10030    2    1    2    0    0  0.00000000000E+00  0.00000000000E+00  0.69531438898E+03  0.12288929856E+04  0.10132698903E+04 0.  0.
        2    1    3    3  502    0  0.19807832439E+03 -0.38680184908E+03  0.31797426155E+02  0.43573130409E+03  0.25500000920E-02 0.  1.
       -2    1    3    3    0  502 -0.19807832439E+03  0.38680184908E+03  0.66351696282E+03  0.79316168150E+03  0.25500000920E-02 0. -1.
</event>
<event>
 5   0  0.3873874E-03  0.9939893E+03  0.7818609E-02  0.9315162E-01
        2   -1    0    0  501    0  0.00000000000E+00  0.00000000000E+00  0.10035836101E+04  0.10035836101E+04  0.25500000920E-02 0.  1.
       -2   -1    0    0    0  501  0.00000000000E+00  0.00000000000E+00 -0.24612166807E+03  0.24612166808E+03  0.25500000920E-02 0. -1.
    10030    2    1    2    0    0  0.00000000000E+00  0.00000000000E+00  0.75746194207E+03  0.12497052782E+04  0.99398927998E+03 0.  0.
        5    1    3    3  502    0 -0.46187898518E+02  0.48153418806E+03  0.23552947635E+03  0.53805642870E+03  0.46999998093E+01 0. -1.
       -5    1    3    3    0  502  0.46187898518E+02 -0.48153418806E+03  0.52193246573E+03  0.71164884952E+03  0.46999998093E+01 0.  1.
</event>
<event>
 5   0  0.2350769E-03  0.9972965E+03  0.7818609E-02  0.9311515E-01
       -1   -1    0    0    0  501  0.00000000000E+00  0.00000000000E+00  0.27123778936E+03  0.27123778941E+03  0.50400001928E-02 0. -1.
        1   -1    0    0  501    0  0.00000000000E+00  0.00000000000E+00 -0.91672359553E+03  0.91672359554E+03  0.50400001928E-02 0.  1.
    10030    2    1    2    0    0  0.00000000000E+00  0.00000000000E+00 -0.64548580617E+03  0.11879613850E+04  0.99729650866E+03 0.  0.
        2    1    3    3  502    0  0.59989763080E+02  0.43594378086E+03 -0.43375028323E+02  0.44218451447E+03  0.25500000920E-02 0.  1.
       -2    1    3    3    0  502 -0.59989763080E+02 -0.43594378086E+03 -0.60211077784E+03  0.74577687049E+03  0.25500000920E-02 0. -1.
</event>
<event>
 5   0  0.2313036E-03  0.1003005E+04  0.7818609E-02  0.9305255E-01
        1   -1    0    0  501    0  0.00000000000E+00  0.00000000000E+00  0.14521454749E+04  0.14521454749E+04  0.50400001928E-02 0.  1.
       -1   -1    0    0    0  501  0.00000000000E+00  0.00000000000E+00 -0.17319543441E+03  0.17319543448E+03  0.50400001928E-02 0. -1.
    10030    2    1    2    0    0  0.00000000000E+00  0.00000000000E+00  0.12789500405E+04  0.16253409094E+04  0.10030054166E+04 0.  0.
        3    1    3    3  502    0  0.21171290686E+02 -0.20847528841E+03  0.13778031411E+04  0.13936468976E+04  0.10100000352E+00 0.  1.
       -3    1    3    3    0  502 -0.21171290686E+02  0.20847528841E+03 -0.98853100547E+02  0.23169401182E+03  0.10100000352E+00 0. -1.
</event>
<event>
 5   0  0.2327595E-03  0.1001603E+04  0.7818609E-02  0.9306788E-01
        1   -1    0    0  501    0  0.00000000000E+00  0.00000000000E+00  0.66288724025E+03  0.66288724027E+03  0.50400001928E-02 0.  1.
       -1   -1    0    0    0  501  0.00000000000E+00  0.00000000000E+00 -0.37834818361E+03  0.37834818364E+03  0.50400001928E-02 0. -1.
    10030    2    1    2    0    0  0.00000000000E+00  0.00000000000E+00  0.28453905664E+03  0.10412354239E+04  0.10016030817E+04 0.  0.
        5    1    3    3  502    0 -0.45053350974E+03 -0.88025784353E+02 -0.65777045325E+02  0.46376469443E+03  0.46999998093E+01 0. -1.
       -5    1    3    3    0  502  0.45053350974E+03  0.88025784353E+02  0.35031610197E+03  0.57747072948E+03  0.46999998093E+01 0.  1.
</event>
<event>
 5   0  0.4026829E-03  0.9950225E+03  0.7818609E-02  0.9314021E-01
       -2   -1    0    0    0  501  0.00000000000E+00  0.00000000000E+00  0.12418986336E+03  0.12418986339E+03  0.25500000920E-02 0. -1.
        2   -1    0    0  501    0  0.00000000000E+00  0.00000000000E+00 -0.19930567715E+04  0.19930567715E+04  0.25500000920E-02 0.  1.
    10030    2    1    2    0    0  0.00000000000E+00  0.00000000000E+00 -0.18688669082E+04  0.21172466349E+04  0.99502250861E+03 0.  0.
        1    1    3    3  502    0  0.17286158187E+03 -0.96392542730E+02  0.36813966134E+02  0.20131546615E+03  0.50400001928E-02 0. -1.
       -1    1    3    3    0  502 -0.17286158187E+03  0.96392542730E+02 -0.19056808743E+04  0.19159311688E+04  0.50400001928E-02 0.  1.
</event>
<event>
 5   0  0.2313036E-03  0.1004523E+04  0.7818609E-02  0.9303598E-01
       -1   -1    0    0    0  501  0.00000000000E+00  0.00000000000E+00  0.77660690352E+03  0.77660690354E+03  0.50400001928E-02 0.  1.
        1   -1    0    0  501    0  0.00000000000E+00  0.00000000000E+00 -0.32483204189E+03  0.32483204193E+03  0.50400001928E-02 0. -1.
    10030    2    1    2    0    0  0.00000000000E+00  0.00000000000E+00  0.45177486163E+03  0.11014389455E+04  0.10045233820E+04 0.  0.
        3    1    3    3  502    0  0.61743042925E+02  0.40236007592E+03  0.54848524137E+03  0.68303872822E+03  0.10100000352E+00 0.  1.
       -3    1    3    3    0  502 -0.61743042925E+02 -0.40236007592E+03 -0.96710379734E+02  0.41840021725E+03  0.10100000352E+00 0. -1.
</event>
<event>
 5   0  0.3895011E-03  0.9184546E+03  0.7818609E-02  0.9402802E-01
       -2   -1    0    0    0  501  0.00000000000E+00  0.00000000000E+00  0.22321777309E+03  0.22321777310E+03  0.25500000920E-02 0.  1.
        2   -1    0    0  501    0  0.00000000000E+00  0.00000000000E+00 -0.94477120641E+03  0.94477120642E+03  0.25500000920E-02 0. -1.
    10030    2    1    2    0    0  0.00000000000E+00  0.00000000000E+00 -0.72155343333E+03  0.11679889795E+04  0.91845462551E+03 0.  0.
        2    1    3    3  502    0  0.93073634802E+02  0.19531587763E+03  0.15434182658E+03  0.26576755443E+03  0.25500000920E-02 0.  1.
       -2    1    3    3    0  502 -0.93073634802E+02 -0.19531587763E+03 -0.87589525991E+03  0.90222142509E+03  0.25500000920E-02 0. -1.
</event>
<event>
 5   0  0.2405022E-03  0.1005467E+04  0.7818609E-02  0.9302569E-01
       -1   -1    0    0    0  501  0.00000000000E+00  0.00000000000E+00  0.11521707838E+04  0.11521707838E+04  0.50400001928E-02 0.  1.
        1   -1    0    0  501    0  0.00000000000E+00  0.00000000000E+00 -0.21936083160E+03  0.21936083166E+03  0.50400001928E-02 0. -1.
    10030    2    1    2    0    0  0.00000000000E+00  0.00000000000E+00  0.93280995220E+03  0.13715316155E+04  0.10054673368E+04 0.  0.
        4    1    3    3  502    0  0.44191217342E+03 -0.16039009127E+03  0.70937932282E+03  0.85101820600E+03  0.12699999809E+01 0.  1.
       -4    1    3    3    0  502 -0.44191217342E+03  0.16039009127E+03  0.22343062938E+03  0.52051340947E+03  0.12699999809E+01 0. -1.
</event>
<event>
 5   0  0.2327595E-03  0.1012980E+04  0.7818609E-02  0.9294422E-01
       -1   -1    0    0    0  501  0.00000000000E+00  0.00000000000E+00  0.34426619445E+03  0.34426619449E+03  0.50400001928E-02 0. -1.
        1   -1    0    0  501    0  0.00000000000E+00  0.00000000000E+00 -0.74515672579E+03  0.74515672581E+03  0.50400001928E-02 0.  1.
    10030    2    1    2    0    0  0.00000000000E+00  0.00000000000E+00 -0.40089053134E+03  0.10894229203E+04  0.10129802965E+04 0.  0.
        5    1    3    3  502    0  0.16009133000E+03 -0.77948464099E+02  0.30947054393E+03  0.35707044761E+03  0.46999998093E+01 0. -1.
       -5    1    3    3    0  502 -0.16009133000E+03  0.77948464099E+02 -0.71036107527E+03  0.73235247269E+03  0.46999998093E+01 0.  1.
</event>
<event>
 5   0  0.3873874E-03  0.1002083E+04  0.7818609E-02  0.9306263E-01
       -2   -1    0    0    0  501  0.00000000000E+00  0.00000000000E+00  0.15695561041E+03  0.15695561043E+03  0.25500000920E-02 0.  1.
        2   -1    0    0  501    0  0.00000000000E+00  0.00000000000E+00 -0.15994486114E+04  0.15994486115E+04  0.25500000920E-02 0. -1.
    10030    2    1    2    0    0  0.00000000000E+00  0.00000000000E+00 -0.14424930010E+04  0.17564042219E+04  0.10020826975E+04 0.  0.
        5    1    3    3  502    0  0.86806665569E+02  0.33405835517E+03 -0.13577880828E+04  0.14009785686E+04  0.46999998093E+01 0. -1.
       -5    1    3    3    0  502 -0.86806665569E+02 -0.33405835517E+03 -0.84704918228E+02  0.35542565329E+03  0.46999998093E+01 0.  1.
</event>
<event>
 5   0  0.2327595E-03  0.1001573E+04  0.7818609E-02  0.9306821E-01
       -1   -1    0    0    0  501  0.00000000000E+00  0.00000000000E+00  0.27249401878E+03  0.27249401883E+03  0.50400001928E-02 0. -1.
        1   -1    0    0  501    0  0.00000000000E+00  0.00000000000E+00 -0.92033967166E+03  0.92033967167E+03  0.50400001928E-02 0.  1.
    10030    2    1    2    0    0  0.00000000000E+00  0.00000000000E+00 -0.64784565288E+03  0.11928336905E+04  0.10015728747E+04 0.  0.
        5    1    3    3  502    0  0.40879165504E+02  0.35677589194E+03  0.91728895945E+02  0.37067023564E+03  0.46999998093E+01 0. -1.
       -5    1    3    3    0  502 -0.40879165504E+02 -0.35677589194E+03 -0.73957454883E+03  0.82216345486E+03  0.46999998093E+01 0.  1.
</event>
<event>
 5   0  0.1548000E-03  0.9964115E+03  0.7818609E-02  0.9312489E-01
        4   -1    0    0  501    0  0.00000000000E+00  0.00000000000E+00  0.60634145922E+03  0.60634278925E+03  0.12699999809E+01 0.  1.
       -4   -1    0    0    0  501  0.00000000000E+00  0.00000000000E+00 -0.40935232715E+03  0.40935429721E+03  0.12699999809E+01 0. -1.
    10030    2    1    2    0    0  0.00000000000E+00  0.00000000000E+00  0.19698913207E+03  0.10156970865E+04  0.99641148794E+03 0.  0.
        5    1    3    3  502    0  0.26996804276E+03  0.41843747876E+03  0.11341360567E+03  0.51074201286E+03  0.46999998093E+01 0. -1.
       -5    1    3    3    0  502 -0.26996804276E+03 -0.41843747876E+03  0.83575526402E+02  0.50495507360E+03  0.46999998093E+01 0.  1.
</event>
<event>
 5   0  0.4026829E-03  0.1008919E+04  0.7818609E-02  0.9298816E-01
        2   -1    0    0  501    0  0.00000000000E+00  0.00000000000E+00  0.82754941159E+03  0.82754941160E+03  0.25500000920E-02 0. -1.
       -2   -1    0    0    0  501  0.00000000000E+00  0.00000000000E+00 -0.30750972195E+03  0.30750972196E+03  0.25500000920E-02 0.  1.
    10030    2    1    2    0    0  0.00000000000E+00  0.00000000000E+00  0.52003968964E+03  0.11350591336E+04  0.10089192028E+04 0.  0.
        1    1    3    3  502    0  0.29869659582E+03  0.14377217920E+02 -0.19704096015E+03  0.35812218690E+03  0.50400001928E-02 0.  1.
       -1    1    3    3    0  502 -0.29869659582E+03 -0.14377217920E+02  0.71708064979E+03  0.77693694666E+03  0.50400001928E-02 0. -1.
</event>
<event>
 5   0  0.2405022E-03  0.1005642E+04  0.7818609E-02  0.9302378E-01
        1   -1    0    0  501    0  0.00000000000E+00  0.00000000000E+00  0.42347003741E+03  0.42347003744E+03  0.50400001928E-02 0.  1.
       -1   -1    0    0    0  501  0.00000000000E+00  0.00000000000E+00 -0.59704108682E+03  0.59704108684E+03  0.50400001928E-02 0. -1.
    10030    2    1    2    0    0  0.00000000000E+00  0.00000000000E+00 -0.17357104941E+03  0.10205111243E+04  0.10056421061E+04 0.  0.
        4    1    3    3  502    0  0.17600929558E+03  0.10138658008E+03  0.37998153064E+03  0.43086666995E+03  0.12699999809E+01 0.  1.
       -4    1    3    3    0  502 -0.17600929558E+03 -0.10138658008E+03 -0.55355258004E+03  0.58964445433E+03  0.12699999809E+01 0. -1.
</event>
<event>
 5   0  0.4026829E-03  0.1006327E+04  0.7818609E-02  0.9301632E-01
        2   -1    0    0  501    0  0.00000000000E+00  0.00000000000E+00  0.13597518260E+04  0.13597518260E+04  0.25500000920E-02 0. -1.
       -2   -1    0    0    0  501  0.00000000000E+00  0.00000000000E+00 -0.18619109312E+03  0.18619109314E+03  0.25500000920E-02 0.  1.
    10030    2    1    2    0    0  0.00000000000E+00  0.00000000000E+00  0.11735607328E+04  0.15459429191E+04  0.10063273401E+04 0.  0.
        1    1    3    3  502    0  0.15928234508E+03 -0.44899330375E+03  0.83547687349E+03  0.96176268301E+03  0.50400001928E-02 0.  1.
       -1    1    3    3    0  502 -0.15928234508E+03  0.44899330375E+03  0.33808385934E+03  0.58418023609E+03  0.50400001928E-02 0. -1.
</event>
<event>
 5   0  0.4026829E-03  0.9855324E+03  0.7818609E-02  0.9324556E-01
       -2   -1    0    0    0  501  0.00000000000E+00  0.00000000000E+00  0.16291829644E+03  0.16291829646E+03  0.25500000920E-02 0.  1.
        2   -1    0    0  501    0  0.00000000000E+00  0.00000000000E+00 -0.14904313525E+04  0.14904313525E+04  0.25500000920E-02 0. -1.
    10030    2    1    2    0    0  0.00000000000E+00  0.00000000000E+00 -0.13275130561E+04  0.16533496490E+04  0.98553241840E+03 0.  0.
        1    1    3    3  502    0 -0.17962809802E+03  0.19062096268E+03  0.36468657013E+02  0.26444766587E+03  0.50400001928E-02 0.  1.
       -1    1    3    3    0  502  0.17962809802E+03 -0.19062096268E+03 -0.13639817131E+04  0.13889019831E+04  0.50400001928E-02 0. -1.
</event>
<event>
 5   0  0.2405022E-03  0.9986255E+03  0.7818609E-02  0.9310054E-01
        1   -1    0    0  501    0  0.00000000000E+00  0.00000000000E+00  0.56091836828E+03  0.56091836830E+03  0.50400001928E-02 0.  1.
       -1   -1    0    0    0  501  0.00000000000E+00  0.00000000000E+00 -0.44447328674E+03  0.44447328677E+03  0.50400001928E-02 0. -1.
    10030    2    1    2    0    0  0.00000000000E+00  0.00000000000E+00  0.11644508153E+03  0.10053916551E+04  0.99862551694E+03 0.  0.
        4    1    3    3  502    0 -0.13237109552E+03 -0.26048608697E+03 -0.34941151419E+03  0.45548339990E+03  0.12699999809E+01 0. -1.
       -4    1    3    3    0  502  0.13237109552E+03  0.26048608697E+03  0.46585659572E+03  0.54990825518E+03  0.12699999809E+01 0.  1.
</event>
<event>
 5   0  0.2313036E-03  0.1005470E+04  0.7818609E-02  0.9302566E-01
       -1   -1    0    0    0  501  0.00000000000E+00  0.00000000000E+00  0.39318558117E+03  0.39318558120E+03  0.50400001928E-02 0. -1.
        1   -1    0    0  501    0  0.00000000000E+00  0.00000000000E+00 -0.64280721066E+03  0.64280721068E+03  0.50400001928E-02 0.  1.
    10030    2    1    2    0    0  0.00000000000E+00  0.00000000000E+00 -0.24962162949E+03  0.10359927919E+04  0.10054700925E+04 0.  0.
        3    1    3    3  502    0 -0.73769516032E+02 -0.32854505409E+03  0.25982937020E+03  0.42531765292E+03  0.10100000352E+00 0. -1.
       -3    1    3    3    0  502  0.73769516032E+02  0.32854505409E+03 -0.50945099970E+03  0.61067513897E+03  0.10100000352E+00 0.  1.
</event>
<event>
 5   0  0.1548000E-03  0.1012591E+04  0.7818609E-02  0.9294842E-01
       -3   -1    0    0    0  501  0.00000000000E+00  0.00000000000E+00  0.35503305838E+03  0.35503307274E+03  0.10100000352E+00 0. -1.
        3   -1    0    0  501    0  0.00000000000E+00  0.00000000000E+00 -0.72200324363E+03  0.72200325069E+03  0.10100000352E+00 0.  1.
    10030    2    1    2    0    0  0.00000000000E+00  0.00000000000E+00 -0.36697018525E+03  0.10770363234E+04  0.10125907985E+04 0.  0.
        5    1    3    3  502    0 -0.20938659767E+03 -0.34829693706E+03 -0.50462715522E+03  0.64793839169E+03  0.46999998093E+01 0.  1.
       -5    1    3    3    0  502  0.20938659767E+03  0.34829693706E+03  0.13765696997E+03  0.42909793174E+03  0.46999998093E+01 0. -1.
</event>
<event>
 5   0  0.3826483E-03  0.9998210E+03  0.7818609E-02  0.9308741E-01
       -2   -1    0    0    0  501  0.00000000000E+00  0.00000000000E+00  0.93019309988E+02  0.93019310023E+02  0.25500000920E-02 0. -1.
        2   -1    0    0  501    0  0.00000000000E+00  0.00000000000E+00 -0.26866516683E+04  0.26866516683E+04  0.25500000920E-02 0.  1.
    10030    2    1    2    0    0  0.00000000000E+00  0.00000000000E+00 -0.25936323583E+04  0.27796709783E+04  0.99982095279E+03 0.  0.
        4    1    3    3  502    0 -0.16057285322E+03 -0.52044744829E+02 -0.26050224395E+04  0.26104857440E+04  0.12699999809E+01 0.  1.
       -4    1    3    3    0  502  0.16057285322E+03  0.52044744829E+02  0.11390081171E+02  0.16918523430E+03  0.12699999809E+01 0. -1.
</event>
<event>
 5   0  0.2405022E-03  0.9622828E+03  0.7818609E-02  0.9350908E-01
        1   -1    0    0  501    0  0.00000000000E+00  0.00000000000E+00  0.64290373638E+03  0.64290373640E+03  0.50400001928E-02 0. -1.
       -1   -1    0    0    0  501  0.00000000000E+00  0.00000000000E+00 -0.36008038830E+03  0.36008038834E+03  0.50400001928E-02 0.  1.
    10030    2    1    2    0    0  0.00000000000E+00  0.00000000000E+00  0.28282334808E+03  0.10029841247E+04  0.96228275899E+03 0.  0.
        4    1    3    3  502    0 -0.29836903028E+03 -0.54000899832E+01  0.53479020350E+03  0.61241767925E+03  0.12699999809E+01 0. -1.
       -4    1    3    3    0  502  0.29836903028E+03  0.54000899832E+01 -0.25196685542E+03  0.39056644548E+03  0.12699999809E+01 0.  1.
</event>
<event>
 5   0  0.2378609E-03  0.1007461E+04  0.7818609E-02  0.9300399E-01
        1   -1    0    0  501    0  0.00000000000E+00  0.00000000000E+00  0.53487037049E+03  0.53487037052E+03  0.50400001928E-02 0.  1.
       -1   -1    0    0    0  501  0.00000000000E+00  0.00000000000E+00 -0.47440348653E+03  0.47440348656E+03  0.50400001928E-02 0. -1.
    10030    2    1    2    0    0  0.00000000000E+00  0.00000000000E+00  0.60466883958E+02  0.10092738571E+04  0.10074609047E+04 0.  0.
        1    1    3    3  502    0 -0.42904868686E+03 -0.19381821615E+03 -0.14924277220E+03  0.49388427965E+03  0.50400001928E-02 0. -1.
       -1    1    3    3    0  502  0.42904868686E+03  0.19381821615E+03  0.20970965616E+03  0.51538957743E+03  0.50400001928E-02 0.  1.
</event>
<event>
 5   0  0.2327595E-03  0.1002211E+04  0.7818609E-02  0.9306123E-01
        1   -1    0    0  501    0  0.00000000000E+00  0.00000000000E+00  0.38022798942E+03  0.38022798946E+03  0.50400001928E-02 0. -1.
       -1   -1    0    0    0  501  0.00000000000E+00  0.00000000000E+00 -0.66041059224E+03  0.66041059226E+03  0.50400001928E-02 0.  1.
    10030    2    1    2    0    0  0.00000000000E+00  0.00000000000E+00 -0.28018260282E+03  0.10406385817E+04  0.10022107397E+04 0.  0.
        5    1    3    3  502    0 -0.24629713555E+03  0.17186251727E+03  0.27639365622E+03  0.40818445220E+03  0.46999998093E+01 0. -1.
       -5    1    3    3    0  502  0.24629713555E+03 -0.17186251727E+03 -0.55657625904E+03  0.63245412952E+03  0.46999998093E+01 0.  1.
</event>
<event>
 5   0  0.3826483E-03  0.9898277E+03  0.7818609E-02  0.9319773E-01
       -2   -1    0    0    0  501  0.00000000000E+00  0.00000000000E+00  0.12135484667E+03  0.12135484670E+03  0.25500000920E-02 0. -1.
        2   -1    0    0  501    0  0.00000000000E+00  0.00000000000E+00 -0.20183759886E+04  0.20183759886E+04  0.25500000920E-02 0.  1.
    10030    2    1    2    0    0  0.00000000000E+00  0.00000000000E+00 -0.18970211420E+04  0.21397308353E+04  0.98982767927E+03 0.  0.
        4    1    3    3  502    0 -0.20224338187E+03  0.97447091201E+02  0.49522333468E+01  0.22455391025E+03  0.12699999809E+01 0. -1.
       -4    1    3    3    0  502  0.20224338187E+03 -0.97447091201E+02 -0.19019733753E+04  0.19151769251E+04  0.12699999809E+01 0.  1.
</event>
<event>
 5   0  0.3895011E-03  0.9968143E+03  0.7818609E-02  0.9312046E-01
       -2   -1    0    0    0  501  0.00000000000E+00  0.00000000000E+00  0.12049024044E+03  0.12049024046E+03  0.25500000920E-02 0. -1.
        2   -1    0    0  501    0  0.00000000000E+00  0.00000000000E+00 -0.20616580883E+04  0.20616580883E+04  0.25500000920E-02 0.  1.
    10030    2    1    2    0    0  0.00000000000E+00  0.00000000000E+00 -0.19411678479E+04  0.21821483288E+04  0.99681428319E+03 0.  0.
        2    1    3    3  502    0  0.22260123359E+03 -0.42151458240E+03 -0.65196452053E+03  0.80764075454E+03  0.25500000920E-02 0. -1.
       -2    1    3    3    0  502 -0.22260123359E+03  0.42151458240E+03 -0.12892033274E+04  0.13745075743E+04  0.25500000920E-02 0.  1.
</event>
<event>
 5   0  0.2327595E-03  0.9974216E+03  0.7818609E-02  0.9311377E-01
       -1   -1    0    0    0  501  0.00000000000E+00  0.00000000000E+00  0.12765889513E+03  0.12765889523E+03  0.50400001928E-02 0. -1.
        1   -1    0    0  501    0  0.00000000000E+00  0.00000000000E+00 -0.19482581205E+04  0.19482581205E+04  0.50400001928E-02 0.  1.
    10030    2    1    2    0    0  0.00000000000E+00  0.00000000000E+00 -0.18205992254E+04  0.20759170157E+04  0.99742163441E+03 0.  0.
        5    1    3    3  502    0  0.27291216514E+03 -0.13022391253E+03 -0.84968889777E+02  0.31413551137E+03  0.46999998093E+01 0. -1.
       -5    1    3    3    0  502 -0.27291216514E+03  0.13022391253E+03 -0.17356303356E+04  0.17617815044E+04  0.46999998093E+01 0.  1.
</event>
<event>
 5   0  0.2378609E-03  0.9841546E+03  0.7818609E-02  0.9326097E-01
       -1   -1    0    0    0  501  0.00000000000E+00  0.00000000000E+00  0.41407051878E+03  0.41407051882E+03  0.50400001928E-02 0. -1.
        1   -1    0    0  501    0  0.00000000000E+00  0.00000000000E+00 -0.58477973645E+03  0.58477973647E+03  0.50400001928E-02 0.  1.
    10030    2    1    2    0    0  0.00000000000E+00  0.00000000000E+00 -0.17070921767E+03  0.99885025529E+03  0.98415455874E+03 0.  0.
        1    1    3    3  502    0 -0.47148781149E+02  0.21607193409E+01  0.41176786745E+03  0.41446405509E+03  0.50400001928E-02 0. -1.
       -1    1    3    3    0  502  0.47148781149E+02 -0.21607193409E+01 -0.58247708512E+03  0.58438620020E+03  0.50400001928E-02 0.  1.
</event>
<event>
 5   0  0.4140860E-03  0.9744982E+03  0.7818609E-02  0.9336966E-01
       -2   -1    0    0    0  501  0.00000000000E+00  0.00000000000E+00  0.34419376120E+03  0.34419376121E+03  0.25500000920E-02 0.  1.
        2   -1    0    0  501    0  0.00000000000E+00  0.00000000000E+00 -0.68976169485E+03  0.68976169485E+03  0.25500000920E-02 0. -1.
    10030    2    1    2    0    0  0.00000000000E+00  0.00000000000E+00 -0.34556793365E+03  0.10339554561E+04  0.97449817257E+03 0.  0.
        3    1    3    3  502    0  0.26313474950E+03 -0.40879832748E+03 -0.13831013104E+03  0.50545590460E+03  0.10100000352E+00 0. -1.
       -3    1    3    3    0  502 -0.26313474950E+03  0.40879832748E+03 -0.20725780261E+03  0.52849955146E+03  0.10100000352E+00 0.  1.
</event>
<event>
 5   0  0.3826483E-03  0.9920283E+03  0.7818609E-02  0.9317331E-01
       -2   -1    0    0    0  501  0.00000000000E+00  0.00000000000E+00  0.35271636436E+03  0.35271636437E+03  0.25500000920E-02 0.  1.
        2   -1    0    0  501    0  0.00000000000E+00  0.00000000000E+00 -0.69752943086E+03  0.69752943087E+03  0.25500000920E-02 0. -1.
    10030    2    1    2    0    0  0.00000000000E+00  0.00000000000E+00 -0.34481306650E+03  0.10502457952E+04  0.99202831592E+03 0.  0.
        4    1    3    3  502    0  0.45842906937E+03 -0.13162967689E+03 -0.28235328383E+02  0.47778910635E+03  0.12699999809E+01 0.  1.
       -4    1    3    3    0  502 -0.45842906937E+03  0.13162967689E+03 -0.31657773812E+03  0.57245668889E+03  0.12699999809E+01 0. -1.
</event>
<event>
 5   0  0.3826483E-03  0.1000377E+04  0.7818609E-02  0.9308131E-01
       -2   -1    0    0    0  501  0.00000000000E+00  0.00000000000E+00  0.33222040566E+03  0.33222040567E+03  0.25500000920E-02 0.  1.
        2   -1    0    0  501    0  0.00000000000E+00  0.00000000000E+00 -0.75308032785E+03  0.75308032785E+03  0.25500000920E-02 0. -1.
    10030    2    1    2    0    0  0.00000000000E+00  0.00000000000E+00 -0.42085992218E+03  0.10853007335E+04  0.10003772329E+04 0.  0.
        4    1    3    3  502    0 -0.22442491372E+03 -0.34648621114E+03  0.95978047190E+02  0.42383090361E+03  0.12699999809E+01 0.  1.
       -4    1    3    3    0  502  0.22442491372E+03  0.34648621114E+03 -0.51683796937E+03  0.66146982992E+03  0.12699999809E+01 0. -1.
</event>
<event>
 5   0  0.2313036E-03  0.1003955E+04  0.7818609E-02  0.9304218E-01
        1   -1    0    0  501    0  0.00000000000E+00  0.00000000000E+00  0.60125102623E+03  0.60125102625E+03  0.50400001928E-02 0. -1.
       -1   -1    0    0    0  501  0.00000000000E+00  0.00000000000E+00 -0.41909510910E+03  0.41909510913E+03  0.50400001928E-02 0.  1.
    10030    2    1    2    0    0  0.00000000000E+00  0.00000000000E+00  0.18215591713E+03  0.10203461354E+04  0.10039549083E+04 0.  0.
        3    1    3    3  502    0 -0.15075207783E+03  0.18504069923E+03 -0.35773712298E+03  0.43004896082E+03  0.10100000352E+00 0.  1.
       -3    1    3    3    0  502  0.15075207783E+03 -0.18504069923E+03  0.53989304011E+03  0.59029717456E+03  0.10100000352E+00 0. -1.
</event>
<event>
 5   0  0.2313036E-03  0.9549909E+03  0.7818609E-02  0.9359336E-01
       -1   -1    0    0    0  501  0.00000000000E+00  0.00000000000E+00  0.15747413405E+03  0.15747413413E+03  0.50400001928E-02 0.  1.
        1   -1    0    0  501    0  0.00000000000E+00  0.00000000000E+00 -0.14478689187E+04  0.14478689187E+04  0.50400001928E-02 0. -1.
    10030    2    1    2    0    0  0.00000000000E+00  0.00000000000E+00 -0.12903947846E+04  0.16053430528E+04  0.95499089894E+03 0.  0.
        3    1    3    3  502    0 -0.48013035258E+02 -0.27155462272E+03 -0.13004756089E+04  0.13293923364E+04  0.10100000352E+00 0. -1.
       -3    1    3    3    0  502  0.48013035258E+02  0.27155462272E+03  0.10080824221E+02  0.27595071642E+03  0.10100000352E+00 0.  1.
</event>
<event>
 5   0  0.2378609E-03  0.1001693E+04  0.7818609E-02  0.9306690E-01
       -1   -1    0    0    0  501  0.00000000000E+00  0.00000000000E+00  0.85686078471E+03  0.85686078472E+03  0.50400001928E-02 0.  1.
        1   -1    0    0  501    0  0.00000000000E+00  0.00000000000E+00 -0.29275142859E+03  0.29275142864E+03  0.50400001928E-02 0. -1.
    10030    2    1    2    0    0  0.00000000000E+00  0.00000000000E+00  0.56410935611E+03  0.11496122134E+04  0.10016930046E+04 0.  0.
        1    1    3    3  502    0 -0.30994956795E+03  0.28762200136E+03 -0.26008615908E+02  0.42364088385E+03  0.50400001928E-02 0. -1.
       -1    1    3    3    0  502  0.30994956795E+03 -0.28762200136E+03  0.59011797202E+03  0.72597132951E+03  0.50400001928E-02 0.  1.
</event>
<event>
 5   0  0.1548000E-03  0.9995055E+03  0.7818609E-02  0.9309087E-01
        4   -1    0    0  501    0  0.00000000000E+00  0.00000000000E+00  0.77680780561E+03  0.77680884377E+03  0.12699999809E+01 0.  1.
       -4   -1    0    0    0  501  0.00000000000E+00  0.00000000000E+00 -0.32150921351E+03  0.32151172183E+03  0.12699999809E+01 0. -1.
    10030    2    1    2    0    0  0.00000000000E+00  0.00000000000E+00  0.45529859211E+03  0.10983205656E+04  0.99950550616E+03 0.  0.
        3    1    3    3  502    0  0.46785734041E+03 -0.15018444448E+03  0.12749614686E+03  0.50764272477E+03  0.10100000352E+00 0. -1.
       -3    1    3    3    0  502 -0.46785734041E+03  0.15018444448E+03  0.32780244524E+03  0.59067784083E+03  0.10100000352E+00 0.  1.
</event>
<event>
 5   0  0.4140860E-03  0.1000863E+04  0.7818609E-02  0.9307599E-01
       -2   -1    0    0    0  501  0.00000000000E+00  0.00000000000E+00  0.36282761180E+03  0.36282761181E+03  0.25500000920E-02 0. -1.
        2   -1    0    0  501    0  0.00000000000E+00  0.00000000000E+00 -0.69022164255E+03  0.69022164256E+03  0.25500000920E-02 0.  1.
    10030    2    1    2    0    0  0.00000000000E+00  0.00000000000E+00 -0.32739403075E+03  0.10530492544E+04  0.10008625684E+04 0.  0.
        3    1    3    3  502    0 -0.45097642105E+03 -0.81973083788E+02  0.47603169539E+02  0.46083119552E+03  0.10100000352E+00 0. -1.
       -3    1    3    3    0  502  0.45097642105E+03  0.81973083788E+02 -0.37499720029E+03  0.59221805886E+03  0.10100000352E+00 0.  1.
</event>
<event>
 5   0  0.4140860E-03  0.9862551E+03  0.7818609E-02  0.9323750E-01
       -2   -1    0    0    0  501  0.00000000000E+00  0.00000000000E+00  0.30299432119E+03  0.30299432120E+03  0.25500000920E-02 0. -1.
        2   -1    0    0  501    0  0.00000000000E+00  0.00000000000E+00 -0.80257212028E+03  0.80257212028E+03  0.25500000920E-02 0.  1.
    10030    2    1    2    0    0  0.00000000000E+00  0.00000000000E+00 -0.49957779909E+03  0.11055664415E+04  0.98625512885E+03 0.  0.
        3    1    3    3  502    0 -0.46736285075E+03 -0.14529870783E+03 -0.18220396127E+03  0.52224327900E+03  0.10100000352E+00 0. -1.
       -3    1    3    3    0  502  0.46736285075E+03  0.14529870783E+03 -0.31737383782E+03  0.58332316248E+03  0.10100000352E+00 0.  1.
</event>
<event>
 5   0  0.2313036E-03  0.9942616E+03  0.7818609E-02  0.9314861E-01
       -1   -1    0    0    0  501  0.00000000000E+00  0.00000000000E+00  0.16283996026E+03  0.16283996034E+03  0.50400001928E-02 0.  1.
        1   -1    0    0  501    0  0.00000000000E+00  0.00000000000E+00 -0.15176806080E+04  0.15176806080E+04  0.50400001928E-02 0. -1.
    10030    2    1    2    0    0  0.00000000000E+00  0.00000000000E+00 -0.13548406478E+04  0.16805205684E+04  0.99426163553E+03 0.  0.
        3    1    3    3  502    0  0.11504877161E+03 -0.86226552579E+02 -0.14817727615E+04  0.14887315960E+04  0.10100000352E+00 0. -1.
       -3    1    3    3    0  502 -0.11504877161E+03  0.86226552579E+02  0.12693211370E+03  0.19178897233E+03  0.10100000352E+00 0.  1.
</event>
<event>
 5   0  0.3895011E-03  0.9968949E+03  0.7818609E-02  0.9311957E-01
        2   -1    0    0  501    0  0.00000000000E+00  0.00000000000E+00  0.10989796123E+04  0.10989796123E+04  0.25500000920E-02 0.  1.
       -2   -1    0    0    0  501  0.00000000000E+00  0.00000000000E+00 -0.22607320861E+03  0.22607320862E+03  0.25500000920E-02 0. -1.
    10030    2    1    2    0    0  0.00000000000E+00  0.00000000000E+00  0.87290640368E+03  0.13250528209E+04  0.99689487341E+03 0.  0.
        2    1    3    3  502    0  0.20294626759E+03  0.22968384519E+03 -0.86014322968E+02  0.31833994414E+03  0.25500000920E-02 0. -1.
       -2    1    3    3    0  502 -0.20294626759E+03 -0.22968384519E+03  0.95892072665E+03  0.10067128768E+04  0.25500000920E-02 0.  1.
</event>
<event>
 5   0  0.4026829E-03  0.9958564E+03  0.7818609E-02  0.9313101E-01
        2   -1    0    0  501    0  0.00000000000E+00  0.00000000000E+00  0.11463886377E+04  0.11463886377E+04  0.25500000920E-02 0.  1.
       -2   -1    0    0    0  501  0.00000000000E+00  0.00000000000E+00 -0.21627264882E+03  0.21627264883E+03  0.25500000920E-02 0. -1.
    10030    2    1    2    0    0  0.00000000000E+00  0.00000000000E+00  0.93011598883E+03  0.13626612865E+04  0.99585642992E+03 0.  0.
        1    1    3    3  502    0 -0.37416492672E+03 -0.52342474334E+01  0.15574845929E+02  0.37452552060E+03  0.50400001928E-02 0. -1.
       -1    1    3    3    0  502  0.37416492672E+03  0.52342474334E+01  0.91454114290E+03  0.98813576589E+03  0.50400001928E-02 0.  1.
</event>
<event>
 5   0  0.3826483E-03  0.9764772E+03  0.7818609E-02  0.9334727E-01
       -2   -1    0    0    0  501  0.00000000000E+00  0.00000000000E+00  0.15403939804E+03  0.15403939806E+03  0.25500000920E-02 0. -1.
        2   -1    0    0  501    0  0.00000000000E+00  0.00000000000E+00 -0.15475062505E+04  0.15475062505E+04  0.25500000920E-02 0.  1.
    10030    2    1    2    0    0  0.00000000000E+00  0.00000000000E+00 -0.13934668524E+04  0.17015456485E+04  0.97647720158E+03 0.  0.
        4    1    3    3  502    0 -0.32842442901E+02 -0.53359380526E+02  0.14700168708E+03  0.15980287372E+03  0.12699999809E+01 0. -1.
       -4    1    3    3    0  502  0.32842442901E+02  0.53359380526E+02 -0.15404685395E+04  0.15417427748E+04  0.12699999809E+01 0.  1.
</event>
<event>
 5   0  0.2327595E-03  0.1035796E+04  0.7818609E-02  0.9270133E-01
       -1   -1    0    0    0  501  0.00000000000E+00  0.00000000000E+00  0.16707809474E+03  0.16707809481E+03  0.50400001928E-02 0. -1.
        1   -1    0    0  501    0  0.00000000000E+00  0.00000000000E+00 -0.16053463037E+04  0.16053463037E+04  0.50400001928E-02 0.  1.
    10030    2    1    2    0    0  0.00000000000E+00  0.00000000000E+00 -0.14382682090E+04  0.17724243985E+04  0.10357957364E+04 0.  0.
        5    1    3    3  502    0 -0.34336302552E+03  0.31115482055E+03 -0.11148575908E+04  0.12073297095E+04  0.46999998093E+01 0.  1.
       -5    1    3    3    0  502  0.34336302552E+03 -0.31115482055E+03 -0.32341061818E+03  0.56509468905E+03  0.46999998093E+01 0. -1.
</event>
<event>
 5   0  0.4026829E-03  0.9993912E+03  0.7818609E-02  0.9309213E-01
       -2   -1    0    0    0  501  0.00000000000E+00  0.00000000000E+00  0.40173231142E+03  0.40173231142E+03  0.25500000920E-02 0.  1.
        2   -1    0    0  501    0  0.00000000000E+00  0.00000000000E+00 -0.62154740977E+03  0.62154740977E+03  0.25500000920E-02 0. -1.
    10030    2    1    2    0    0  0.00000000000E+00  0.00000000000E+00 -0.21981509835E+03  0.10232797212E+04  0.99939116984E+03 0.  0.
        1    1    3    3  502    0 -0.44194059825E+03 -0.22137558962E+03 -0.34826517617E+02  0.49551138273E+03  0.50400001928E-02 0. -1.
       -1    1    3    3    0  502  0.44194059825E+03  0.22137558962E+03 -0.18498858073E+03  0.52776833847E+03  0.50400001928E-02 0.  1.
</event>
<event>
 5   0  0.4140860E-03  0.1001359E+04  0.7818609E-02  0.9307056E-01
        2   -1    0    0  501    0  0.00000000000E+00  0.00000000000E+00  0.17948194978E+04  0.17948194978E+04  0.25500000920E-02 0.  1.
       -2   -1    0    0    0  501  0.00000000000E+00  0.00000000000E+00 -0.13966848115E+03  0.13966848117E+03  0.25500000920E-02 0. -1.
    10030    2    1    2    0    0  0.00000000000E+00  0.00000000000E+00  0.16551510167E+04  0.19344879790E+04  0.10013585037E+04 0.  0.
        3    1    3    3  502    0 -0.30357458995E+02  0.49946468861E+03  0.79449872424E+03  0.93894343999E+03  0.10100000352E+00 0. -1.
       -3    1    3    3    0  502  0.30357458995E+02 -0.49946468861E+03  0.86065229244E+03  0.99554453902E+03  0.10100000352E+00 0.  1.
</event>
<event>
 5   0  0.2405022E-03  0.9986763E+03  0.7818609E-02  0.9309998E-01
       -1   -1    0    0    0  501  0.00000000000E+00  0.00000000000E+00  0.18976859464E+03  0.18976859471E+03  0.50400001928E-02 0. -1.
        1   -1    0    0  501    0  0.00000000000E+00  0.00000000000E+00 -0.13139085807E+04  0.13139085807E+04  0.50400001928E-02 0.  1.
    10030    2    1    2    0    0  0.00000000000E+00  0.00000000000E+00 -0.11241399861E+04  0.15036771755E+04  0.99867629373E+03 0.  0.
        4    1    3    3  502    0  0.27302682443E+03 -0.40843823071E+03 -0.69650144700E+03  0.85233873181E+03  0.12699999809E+01 0.  1.
       -4    1    3    3    0  502 -0.27302682443E+03  0.40843823071E+03 -0.42763853909E+03  0.65133844365E+03  0.12699999809E+01 0. -1.
</event>
<event>
 5   0  0.3873874E-03  0.9976285E+03  0.7818609E-02  0.9311150E-01
       -2   -1    0    0    0  501  0.00000000000E+00  0.00000000000E+00  0.41286419867E+03  0.41286419868E+03  0.25500000920E-02 0. -1.
        2   -1    0    0  501    0  0.00000000000E+00  0.00000000000E+00 -0.60265732022E+03  0.60265732022E+03  0.25500000920E-02 0.  1.
    10030    2    1    2    0    0  0.00000000000E+00  0.00000000000E+00 -0.18979312154E+03  0.10155215189E+04  0.99762845107E+03 0.  0.
        5    1    3    3  502    0 -0.12963081717E+03 -0.35972758136E+03 -0.42093079901E+03  0.56869403822E+03  0.46999998093E+01 0.  1.
       -5    1    3    3    0  502  0.12963081717E+03  0.35972758136E+03  0.23113767747E+03  0.44682748069E+03  0.46999998093E+01 0. -1.
</event>
<event>
 5   0  0.3895011E-03  0.9778833E+03  0.7818609E-02  0.9333140E-01
        2   -1    0    0  501    0  0.00000000000E+00  0.00000000000E+00  0.47700969288E+03  0.47700969289E+03  0.25500000920E-02 0. -1.
       -2   -1    0    0    0  501  0.00000000000E+00  0.00000000000E+00 -0.50117210895E+03  0.50117210896E+03  0.25500000920E-02 0.  1.
    10030    2    1    2    0    0  0.00000000000E+00  0.00000000000E+00 -0.24162416066E+02  0.97818180185E+03  0.97788333410E+03 0.  0.
        2    1    3    3  502    0  0.20713226758E+03  0.75024555745E+02 -0.44871356898E+03  0.49987631193E+03  0.25500000920E-02 0.  1.
       -2    1    3    3    0  502 -0.20713226758E+03 -0.75024555745E+02  0.42455115291E+03  0.47830548992E+03  0.25500000920E-02 0. -1.
</event>
<event>
 5   0  0.3895011E-03  0.9978496E+03  0.7818609E-02  0.9310906E-01
        2   -1    0    0  501    0  0.00000000000E+00  0.00000000000E+00  0.11549384538E+04  0.11549384538E+04  0.25500000920E-02 0. -1.
       -2   -1    0    0    0  501  0.00000000000E+00  0.00000000000E+00 -0.21553181382E+03  0.21553181383E+03  0.25500000920E-02 0.  1.
    10030    2    1    2    0    0  0.00000000000E+00  0.00000000000E+00  0.93940663994E+03  0.13704702676E+04  0.99784964759E+03 0.  0.
        2    1    3    3  502    0  0.12025254203E+03 -0.48343916233E+03  0.43204339707E+03  0.65942065065E+03  0.25500000920E-02 0. -1.
       -2    1    3    3    0  502 -0.12025254203E+03  0.48343916233E+03  0.50736324287E+03  0.71104961694E+03  0.25500000920E-02 0.  1.
</event>
<event>
 5   0  0.2313036E-03  0.1004511E+04  0.7818609E-02  0.9303611E-01
        1   -1    0    0  501    0  0.00000000000E+00  0.00000000000E+00  0.14061309293E+04  0.14061309293E+04  0.50400001928E-02 0. -1.
       -1   -1    0    0    0  501  0.00000000000E+00  0.00000000000E+00 -0.17940063212E+03  0.17940063219E+03  0.50400001928E-02 0.  1.
    10030    2    1    2    0    0  0.00000000000E+00  0.00000000000E+00  0.12267302971E+04  0.15855315615E+04  0.10045113790E+04 0.  0.
        3    1    3    3  502    0 -0.25906288527E+03  0.41414995111E+03  0.42910973003E+03  0.65020683720E+03  0.10100000352E+00 0.  1.
       -3    1    3    3    0  502  0.25906288527E+03 -0.41414995111E+03  0.79762056711E+03  0.93532472426E+03  0.10100000352E+00 0. -1.
</event>
<event>
 5   0  0.2350769E-03  0.9971266E+03  0.7818609E-02  0.9311702E-01
        1   -1    0    0  501    0  0.00000000000E+00  0.00000000000E+00  0.50765759271E+03  0.50765759274E+03  0.50400001928E-02 0. -1.
       -1   -1    0    0    0  501  0.00000000000E+00  0.00000000000E+00 -0.48963197173E+03  0.48963197176E+03  0.50400001928E-02 0.  1.
    10030    2    1    2    0    0  0.00000000000E+00  0.00000000000E+00  0.18025620977E+02  0.99728956450E+03  0.99712664815E+03 0.  0.
        2    1    3    3  502    0  0.34483060307E+03  0.15853292589E+03  0.33236820808E+03  0.50448930529E+03  0.25500000920E-02 0. -1.
       -2    1    3    3    0  502 -0.34483060307E+03 -0.15853292589E+03 -0.31434258711E+03  0.49280025921E+03  0.25500000920E-02 0.  1.
</event>
<event>
 5   0  0.4026829E-03  0.1004101E+04  0.7818609E-02  0.9304059E-01
       -2   -1    0    0    0  501  0.00000000000E+00  0.00000000000E+00  0.27155183017E+03  0.27155183018E+03  0.25500000920E-02 0.  1.
        2   -1    0    0  501    0  0.00000000000E+00  0.00000000000E+00 -0.92820021253E+03  0.92820021254E+03  0.25500000920E-02 0. -1.
    10030    2    1    2    0    0  0.00000000000E+00  0.00000000000E+00 -0.65664838237E+03  0.11997520427E+04  0.10041005258E+04 0.  0.
        1    1    3    3  502    0 -0.49770450794E+03  0.56220019607E+02 -0.28721017493E+03  0.57737349475E+03  0.50400001928E-02 0.  1.
       -1    1    3    3    0  502  0.49770450794E+03 -0.56220019607E+02 -0.36943820744E+03  0.62237854797E+03  0.50400001928E-02 0. -1.
</event>
<event>
 5   0  0.1548000E-03  0.1007777E+04  0.7818609E-02  0.9300056E-01
       -4   -1    0    0    0  501  0.00000000000E+00  0.00000000000E+00  0.46920587706E+03  0.46920759582E+03  0.12699999809E+01 0.  1.
        4   -1    0    0  501    0  0.00000000000E+00  0.00000000000E+00 -0.54113161178E+03  0.54113310208E+03  0.12699999809E+01 0. -1.
    10030    2    1    2    0    0  0.00000000000E+00  0.00000000000E+00 -0.71925734719E+02  0.10103406979E+04  0.10077772643E+04 0.  0.
        1    1    3    3  502    0 -0.10703764727E+03 -0.44535470985E+03  0.17458532990E+03  0.49018151022E+03  0.50400001928E-02 0.  1.
       -1    1    3    3    0  502  0.10703764727E+03  0.44535470985E+03 -0.24651106462E+03  0.52015918768E+03  0.50400001928E-02 0. -1.
</event>
<event>
 5   0  0.2327595E-03  0.1005907E+04  0.7818609E-02  0.9302090E-01
        1   -1    0    0  501    0  0.00000000000E+00  0.00000000000E+00  0.11554089939E+04  0.11554089940E+04  0.50400001928E-02 0.  1.
       -1   -1    0    0    0  501  0.00000000000E+00  0.00000000000E+00 -0.21893724078E+03  0.21893724083E+03  0.50400001928E-02 0. -1.
    10030    2    1    2    0    0  0.00000000000E+00  0.00000000000E+00  0.93647175317E+03  0.13743462348E+04  0.10059066699E+04 0.  0.
        5    1    3    3  502    0 -0.19138875014E+03  0.23919807180E+03 -0.76726076894E+02  0.31583912377E+03  0.46999998093E+01 0. -1.
       -5    1    3    3    0  502  0.19138875014E+03 -0.23919807180E+03  0.10131978301E+04  0.10585071110E+04  0.46999998093E+01 0.  1.
</event>
<event>
 5   0  0.3873874E-03  0.9981952E+03  0.7818609E-02  0.9310527E-01
        2   -1    0    0  501    0  0.00000000000E+00  0.00000000000E+00  0.49523597316E+03  0.49523597317E+03  0.25500000920E-02 0. -1.
       -2   -1    0    0    0  501  0.00000000000E+00  0.00000000000E+00 -0.50298930941E+03  0.50298930942E+03  0.25500000920E-02 0.  1.
    10030    2    1    2    0    0  0.00000000000E+00  0.00000000000E+00 -0.77533362544E+01  0.99822528259E+03  0.99819517158E+03 0.  0.
        5    1    3    3  502    0 -0.21310452860E+03  0.45065526273E+03 -0.27806539747E+02  0.49929850749E+03  0.46999998093E+01 0. -1.
       -5    1    3    3    0  502  0.21310452860E+03 -0.45065526273E+03  0.20053203493E+02  0.49892677509E+03  0.46999998093E+01 0.  1.
</event>
<event>
 5   0  0.1548000E-03  0.9863336E+03  0.7818609E-02  0.9323662E-01
        4   -1    0    0  501    0  0.00000000000E+00  0.00000000000E+00  0.12356806456E+03  0.12357459075E+03  0.12699999809E+01 0. -1.
       -4   -1    0    0    0  501  0.00000000000E+00  0.00000000000E+00 -0.19681965229E+04  0.19681969327E+04  0.12699999809E+01 0.  1.
    10030    2    1    2    0    0  0.00000000000E+00  0.00000000000E+00 -0.18446284584E+04  0.20917715234E+04  0.98633359304E+03 0.  0.
        3    1    3    3  502    0  0.47654435749E+03  0.12695437238E+03 -0.91968102002E+03  0.10435636665E+04  0.10100000352E+00 0. -1.
       -3    1    3    3    0  502 -0.47654435749E+03 -0.12695437238E+03 -0.92494743835E+03  0.10482078569E+04  0.10100000352E+00 0.  1.
</event>
<event>
 5   0  0.2313036E-03  0.1001122E+04  0.7818609E-02  0.9307315E-01
        1   -1    0    0  501    0  0.00000000000E+00  0.00000000000E+00  0.51758376388E+03  0.51758376391E+03  0.50400001928E-02 0. -1.
       -1   -1    0    0    0  501  0.00000000000E+00  0.00000000000E+00 -0.48409831675E+03  0.48409831678E+03  0.50400001928E-02 0.  1.
    10030    2    1    2    0    0  0.00000000000E+00  0.00000000000E+00  0.33485447131E+02  0.10016820807E+04  0.10011222281E+04 0.  0.
        3    1    3    3  502    0  0.46424534570E+03  0.11121084184E+03 -0.13390649982E+03  0.49580495484E+03  0.10100000352E+00 0.  1.
       -3    1    3    3    0  502 -0.46424534570E+03 -0.11121084184E+03  0.16739194695E+03  0.50587712585E+03  0.10100000352E+00 0. -1.
</event>
<event>
 5   0  0.2313036E-03  0.1005968E+04  0.7818609E-02  0.9302023E-01
       -1   -1    0    0    0  501  0.00000000000E+00  0.00000000000E+00  0.42391630268E+03  0.42391630271E+03  0.50400001928E-02 0. -1.
        1   -1    0    0  501    0  0.00000000000E+00  0.00000000000E+00 -0.59679944923E+03  0.59679944925E+03  0.50400001928E-02 0.  1.
    10030    2    1    2    0    0  0.00000000000E+00  0.00000000000E+00 -0.17288314654E+03  0.10207157520E+04  0.10059682221E+04 0.  0.
        3    1    3    3  502    0  0.36852822374E+03 -0.85694431516E+02 -0.42271591924E+03  0.56731415095E+03  0.10100000352E+00 0.  1.
       -3    1    3    3    0  502 -0.36852822374E+03  0.85694431516E+02  0.24983277270E+03  0.45340160101E+03  0.10100000352E+00 0. -1.
</event>
<event>
 5   0  0.3895011E-03  0.1001793E+04  0.7818609E-02  0.9306581E-01
        2   -1    0    0  501    0  0.00000000000E+00  0.00000000000E+00  0.87469125973E+03  0.87469125973E+03  0.25500000920E-02 0.  1.
       -2   -1    0    0    0  501  0.00000000000E+00  0.00000000000E+00 -0.28684093745E+03  0.28684093746E+03  0.25500000920E-02 0. -1.
    10030    2    1    2    0    0  0.00000000000E+00  0.00000000000E+00  0.58785032228E+03  0.11615321972E+04  0.10017929146E+04 0.  0.
        2    1    3    3  502    0  0.13532090375E+03 -0.24177997727E+03 -0.18989899604E+03  0.33590316031E+03  0.25500000920E-02 0. -1.
       -2    1    3    3    0  502 -0.13532090375E+03  0.24177997727E+03  0.77774931832E+03  0.82562903689E+03  0.25500000920E-02 0.  1.
</event>
<event>
 5   0  0.4026829E-03  0.1000893E+04  0.7818609E-02  0.9307566E-01
       -2   -1    0    0    0  501  0.00000000000E+00  0.00000000000E+00  0.33223288796E+03  0.33223288797E+03  0.25500000920E-02 0. -1.
        2   -1    0    0  501    0  0.00000000000E+00  0.00000000000E+00 -0.75382894557E+03  0.75382894557E+03  0.25500000920E-02 0.  1.
    10030    2    1    2    0    0  0.00000000000E+00  0.00000000000E+00 -0.42159605761E+03  0.10860618335E+04  0.10008931364E+04 0.  0.
        1    1    3    3  502    0  0.26870731864E+03  0.69368416370E+02 -0.66268561862E+03  0.71844820929E+03  0.50400001928E-02 0.  1.
       -1    1    3    3    0  502 -0.26870731864E+03 -0.69368416370E+02  0.24108956101E+03  0.36761362425E+03  0.50400001928E-02 0. -1.
</event>
<event>
 5   0  0.2378609E-03  0.9967672E+03  0.7818609E-02  0.9312098E-01
       -1   -1    0    0    0  501  0.00000000000E+00  0.00000000000E+00  0.24004035462E+03  0.24004035467E+03  0.50400001928E-02 0. -1.
        1   -1    0    0  501    0  0.00000000000E+00  0.00000000000E+00 -0.10347686497E+04  0.10347686497E+04  0.50400001928E-02 0.  1.
    10030    2    1    2    0    0  0.00000000000E+00  0.00000000000E+00 -0.79472829506E+03  0.12748090044E+04  0.99676724195E+03 0.  0.
        1    1    3    3  502    0  0.29407828072E+03  0.31400923913E+03 -0.71914592062E+03  0.83800637982E+03  0.50400001928E-02 0.  1.
       -1    1    3    3    0  502 -0.29407828072E+03 -0.31400923913E+03 -0.75582374441E+02  0.43680262454E+03  0.50400001928E-02 0. -1.
</event>
<event>
 5   0  0.4026829E-03  0.1046591E+04  0.7818609E-02  0.9258871E-01
        2   -1    0    0  501    0  0.00000000000E+00  0.00000000000E+00  0.10506628652E+04  0.10506628652E+04  0.25500000920E-02 0. -1.
       -2   -1    0    0    0  501  0.00000000000E+00  0.00000000000E+00 -0.26063380830E+03  0.26063380832E+03  0.25500000920E-02 0.  1.
    10030    2    1    2    0    0  0.00000000000E+00  0.00000000000E+00  0.79002905693E+03  0.13112966736E+04  0.10465911596E+04 0.  0.
        1    1    3    3  502    0 -0.43230212922E+03  0.25719629136E+03  0.21430170322E+03  0.54677260653E+03  0.50400001928E-02 0.  1.
       -1    1    3    3    0  502  0.43230212922E+03 -0.25719629136E+03  0.57572735372E+03  0.76452406703E+03  0.50400001928E-02 0. -1.
</event>
<event>
 5   0  0.4026829E-03  0.9881813E+03  0.7818609E-02  0.9321603E-01
        2   -1    0    0  501    0  0.00000000000E+00  0.00000000000E+00  0.41743797345E+03  0.41743797345E+03  0.25500000920E-02 0. -1.
       -2   -1    0    0    0  501  0.00000000000E+00  0.00000000000E+00 -0.58481881559E+03  0.58481881560E+03  0.25500000920E-02 0.  1.
    10030    2    1    2    0    0  0.00000000000E+00  0.00000000000E+00 -0.16738084215E+03  0.10022567891E+04  0.98818132187E+03 0.  0.
        1    1    3    3  502    0  0.47411667261E+03  0.56799227747E+02  0.45053877225E+02  0.47962758824E+03  0.50400001928E-02 0. -1.
       -1    1    3    3    0  502 -0.47411667261E+03 -0.56799227747E+02 -0.21243471937E+03  0.52262920081E+03  0.50400001928E-02 0.  1.
</event>
<event>
 5   0  0.3873874E-03  0.1005317E+04  0.7818609E-02  0.9302733E-01
       -2   -1    0    0    0  501  0.00000000000E+00  0.00000000000E+00  0.56877589700E+03  0.56877589701E+03  0.25500000920E-02 0.  1.
        2   -1    0    0  501    0  0.00000000000E+00  0.00000000000E+00 -0.44422659277E+03  0.44422659278E+03  0.25500000920E-02 0. -1.
    10030    2    1    2    0    0  0.00000000000E+00  0.00000000000E+00  0.12454930423E+03  0.10130024898E+04  0.10053166243E+04 0.  0.
        5    1    3    3  502    0 -0.28132745340E+02 -0.47216314432E+03  0.23361524056E+03  0.52756767986E+03  0.46999998093E+01 0.  1.
       -5    1    3    3    0  502  0.28132745340E+02  0.47216314432E+03 -0.10906593633E+03  0.48543480992E+03  0.46999998093E+01 0. -1.
</event>
<event>
 5   0  0.4026829E-03  0.1002011E+04  0.7818609E-02  0.9306342E-01
       -2   -1    0    0    0  501  0.00000000000E+00  0.00000000000E+00  0.20723293020E+03  0.20723293021E+03  0.25500000920E-02 0. -1.
        2   -1    0    0  501    0  0.00000000000E+00  0.00000000000E+00 -0.12112291645E+04  0.12112291645E+04  0.25500000920E-02 0.  1.
    10030    2    1    2    0    0  0.00000000000E+00  0.00000000000E+00 -0.10039962343E+04  0.14184620947E+04  0.10020111155E+04 0.  0.
        1    1    3    3  502    0 -0.72970894942E+02 -0.45001775316E+03 -0.79611184096E+03  0.91740655819E+03  0.50400001928E-02 0.  1.
       -1    1    3    3    0  502  0.72970894942E+02  0.45001775316E+03 -0.20788439335E+03  0.50105553653E+03  0.50400001928E-02 0. -1.
</event>
<event>
 5   0  0.2405022E-03  0.9988937E+03  0.7818609E-02  0.9309759E-01
       -1   -1    0    0    0  501  0.00000000000E+00  0.00000000000E+00  0.57334510934E+03  0.57334510936E+03  0.50400001928E-02 0. -1.
        1   -1    0    0  501    0  0.00000000000E+00  0.00000000000E+00 -0.43507334812E+03  0.43507334815E+03  0.50400001928E-02 0.  1.
    10030    2    1    2    0    0  0.00000000000E+00  0.00000000000E+00  0.13827176122E+03  0.10084184575E+04  0.99889374084E+03 0.  0.
        4    1    3    3  502    0 -0.14794935658E+03 -0.46657303552E+03 -0.31139758107E+02  0.49045968949E+03  0.12699999809E+01 0. -1.
       -4    1    3    3    0  502  0.14794935658E+03  0.46657303552E+03  0.16941151933E+03  0.51795876801E+03  0.12699999809E+01 0.  1.
</event>
<event>
 5   0  0.2378609E-03  0.9976791E+03  0.7818609E-02  0.9311094E-01
        1   -1    0    0  501    0  0.00000000000E+00  0.00000000000E+00  0.88475698087E+03  0.88475698088E+03  0.50400001928E-02 0.  1.
       -1   -1    0    0    0  501  0.00000000000E+00  0.00000000000E+00 -0.28125340293E+03  0.28125340297E+03  0.50400001928E-02 0. -1.
    10030    2    1    2    0    0  0.00000000000E+00  0.00000000000E+00  0.60350357794E+03  0.11660103839E+04  0.99767913012E+03 0.  0.
        1    1    3    3  502    0 -0.21432791067E+03 -0.41334406385E+03  0.92517290188E+02  0.47470961378E+03  0.50400001928E-02 0. -1.
       -1    1    3    3    0  502  0.21432791067E+03  0.41334406385E+03  0.51098628775E+03  0.69130077007E+03  0.50400001928E-02 0.  1.
</event>
<event>
 5   0  0.2378609E-03  0.1007278E+04  0.7818609E-02  0.9300598E-01
        1   -1    0    0  501    0  0.00000000000E+00  0.00000000000E+00  0.65992829106E+03  0.65992829107E+03  0.50400001928E-02 0. -1.
       -1   -1    0    0    0  501  0.00000000000E+00  0.00000000000E+00 -0.38436325416E+03  0.38436325419E+03  0.50400001928E-02 0.  1.
    10030    2    1    2    0    0  0.00000000000E+00  0.00000000000E+00  0.27556503690E+03  0.10442915453E+04  0.10072778872E+04 0.  0.
        1    1    3    3  502    0  0.37941854898E+03  0.88558148475E+02  0.46865111295E+03  0.60945454849E+03  0.50400001928E-02 0. -1.
       -1    1    3    3    0  502 -0.37941854898E+03 -0.88558148475E+02 -0.19308607605E+03  0.43483699678E+03  0.50400001928E-02 0.  1.
</event>
<event>
 5   0  0.3873874E-03  0.9960872E+03  0.7818609E-02  0.9312847E-01
        2   -1    0    0  501    0  0.00000000000E+00  0.00000000000E+00  0.68104760555E+03  0.68104760555E+03  0.25500000920E-02 0.  1.
       -2   -1    0    0    0  501  0.00000000000E+00  0.00000000000E+00 -0.36421455732E+03  0.36421455733E+03  0.25500000920E-02 0. -1.
    10030    2    1    2    0    0  0.00000000000E+00  0.00000000000E+00  0.31683304822E+03  0.10452621629E+04  0.99608724955E+03 0.  0.
        5    1    3    3  502    0 -0.31160217222E+03 -0.38673083351E+03  0.11959400567E+03  0.51086345290E+03  0.46999998093E+01 0. -1.
       -5    1    3    3    0  502  0.31160217222E+03  0.38673083351E+03  0.19723904255E+03  0.53439870998E+03  0.46999998093E+01 0.  1.
</event>
<event>
 5   0  0.4026829E-03  0.9987246E+03  0.7818609E-02  0.9309945E-01
        2   -1    0    0  501    0  0.00000000000E+00  0.00000000000E+00  0.70790790275E+03  0.70790790276E+03  0.25500000920E-02 0.  1.
       -2   -1    0    0    0  501  0.00000000000E+00  0.00000000000E+00 -0.35225303161E+03  0.35225303162E+03  0.25500000920E-02 0. -1.
    10030    2    1    2    0    0  0.00000000000E+00  0.00000000000E+00  0.35565487114E+03  0.10601609344E+04  0.99872459639E+03 0.  0.
        1    1    3    3  502    0 -0.47173442895E+03  0.15420965893E+03  0.11921572085E+03  0.51041784695E+03  0.50400001928E-02 0.  1.
       -1    1    3    3    0  502  0.47173442895E+03 -0.15420965893E+03  0.23643915029E+03  0.54974308743E+03  0.50400001928E-02 0. -1.
</event>
<event>
 5   0  0.2327595E-03  0.9908330E+03  0.7818609E-02  0.9318657E-01
       -1   -1    0    0    0  501  0.00000000000E+00  0.00000000000E+00  0.27731817213E+03  0.27731817218E+03  0.50400001928E-02 0.  1.
        1   -1    0    0  501    0  0.00000000000E+00  0.00000000000E+00 -0.88503935977E+03  0.88503935979E+03  0.50400001928E-02 0. -1.
    10030    2    1    2    0    0  0.00000000000E+00  0.00000000000E+00 -0.60772118764E+03  0.11623575320E+04  0.99083297796E+03 0.  0.
        5    1    3    3  502    0 -0.41531867840E+03 -0.20005796956E+03 -0.51665218774E+03  0.69243365669E+03  0.46999998093E+01 0. -1.
       -5    1    3    3    0  502  0.41531867840E+03  0.20005796956E+03 -0.91068999899E+02  0.46992387528E+03  0.46999998093E+01 0.  1.
</event>
<event>
 5   0  0.2313036E-03  0.9980911E+03  0.7818609E-02  0.9310641E-01
        1   -1    0    0  501    0  0.00000000000E+00  0.00000000000E+00  0.60709874692E+03  0.60709874694E+03  0.50400001928E-02 0. -1.
       -1   -1    0    0    0  501  0.00000000000E+00  0.00000000000E+00 -0.41022397313E+03  0.41022397316E+03  0.50400001928E-02 0.  1.
    10030    2    1    2    0    0  0.00000000000E+00  0.00000000000E+00  0.19687477380E+03  0.10173227201E+04  0.99809109818E+03 0.  0.
        3    1    3    3  502    0 -0.56866638413E+02 -0.71275750406E+02  0.59853621498E+03  0.60544170488E+03  0.10100000352E+00 0. -1.
       -3    1    3    3    0  502  0.56866638413E+02  0.71275750406E+02 -0.40166144119E+03  0.41188101522E+03  0.10100000352E+00 0.  1.
</event>
<event>
 5   0  0.4026829E-03  0.1002698E+04  0.7818609E-02  0.9305590E-01
        2   -1    0    0  501    0  0.00000000000E+00  0.00000000000E+00  0.15075576192E+04  0.15075576192E+04  0.25500000920E-02 0.  1.
       -2   -1    0    0    0  501  0.00000000000E+00  0.00000000000E+00 -0.16672727889E+03  0.16672727891E+03  0.25500000920E-02 0. -1.
    10030    2    1    2    0    0  0.00000000000E+00  0.00000000000E+00  0.13408303403E+04  0.16742848981E+04  0.10026983188E+04 0.  0.
        1    1    3    3  502    0 -0.46241064346E+03 -0.10247467779E+03  0.94492158967E+03  0.10569775179E+04  0.50400001928E-02 0. -1.
       -1    1    3    3    0  502  0.46241064346E+03  0.10247467779E+03  0.39590875064E+03  0.61730738018E+03  0.50400001928E-02 0.  1.
</event>
<event>
 5   0  0.2378609E-03  0.1000027E+04  0.7818609E-02  0.9308515E-01
       -1   -1    0    0    0  501  0.00000000000E+00  0.00000000000E+00  0.14110745356E+03  0.14110745365E+03  0.50400001928E-02 0.  1.
        1   -1    0    0  501    0  0.00000000000E+00  0.00000000000E+00 -0.17717968574E+04  0.17717968574E+04  0.50400001928E-02 0. -1.
    10030    2    1    2    0    0  0.00000000000E+00  0.00000000000E+00 -0.16306894038E+04  0.19129043110E+04  0.10000274853E+04 0.  0.
        1    1    3    3  502    0  0.44159203322E+03 -0.14834484449E+03 -0.11628526728E+04  0.12526915244E+04  0.50400001928E-02 0. -1.
       -1    1    3    3    0  502 -0.44159203322E+03  0.14834484449E+03 -0.46783673106E+03  0.66021278664E+03  0.50400001928E-02 0.  1.
</event>
<event>
 5   0  0.2350769E-03  0.9940207E+03  0.7818609E-02  0.9315127E-01
       -1   -1    0    0    0  501  0.00000000000E+00  0.00000000000E+00  0.52204347170E+03  0.52204347172E+03  0.50400001928E-02 0. -1.
        1   -1    0    0  501    0  0.00000000000E+00  0.00000000000E+00 -0.47317765812E+03  0.47317765814E+03  0.50400001928E-02 0.  1.
    10030    2    1    2    0    0  0.00000000000E+00  0.00000000000E+00  0.48865813581E+02  0.99522112986E+03  0.99402073901E+03 0.  0.
        2    1    3    3  502    0  0.42130901916E+03  0.39087332517E+02  0.28549709207E+03  0.51042893607E+03  0.25500000920E-02 0. -1.
       -2    1    3    3    0  502 -0.42130901916E+03 -0.39087332517E+02 -0.23663127849E+03  0.48479219379E+03  0.25500000920E-02 0.  1.
</event>
<event>
 5   0  0.2405022E-03  0.1002013E+04  0.7818609E-02  0.9306340E-01
        1   -1    0    0  501    0  0.00000000000E+00  0.00000000000E+00  0.15788735723E+04  0.15788735723E+04  0.50400001928E-02 0. -1.
       -1   -1    0    0    0  501  0.00000000000E+00  0.00000000000E+00 -0.15897888858E+03  0.15897888866E+03  0.50400001928E-02 0.  1.
    10030    2    1    2    0    0  0.00000000000E+00  0.00000000000E+00  0.14198946837E+04  0.17378524609E+04  0.10020131053E+04 0.  0.
        4    1    3    3  502    0 -0.53077803238E+02  0.49817550591E+03  0.70449995076E+03  0.86447549497E+03  0.12699999809E+01 0.  1.
       -4    1    3    3    0  502  0.53077803238E+02 -0.49817550591E+03  0.71539473294E+03  0.87337696598E+03  0.12699999809E+01 0. -1.
</event>
<event>
 5   0  0.2350769E-03  0.1002800E+04  0.7818609E-02  0.9305479E-01
        1   -1    0    0  501    0  0.00000000000E+00  0.00000000000E+00  0.10390516200E+04  0.10390516200E+04  0.50400001928E-02 0.  1.
       -1   -1    0    0    0  501  0.00000000000E+00  0.00000000000E+00 -0.24195334781E+03  0.24195334786E+03  0.50400001928E-02 0. -1.
    10030    2    1    2    0    0  0.00000000000E+00  0.00000000000E+00  0.79709827223E+03  0.12810049679E+04  0.10028001158E+04 0.  0.
        2    1    3    3  502    0 -0.80035783959E+02 -0.38322570936E+03 -0.16231027971E+01  0.39149751659E+03  0.25500000920E-02 0. -1.
       -2    1    3    3    0  502  0.80035783959E+02  0.38322570936E+03  0.79872137502E+03  0.88950745132E+03  0.25500000920E-02 0.  1.
</event>
<event>
 5   0  0.2378609E-03  0.1003114E+04  0.7818609E-02  0.9305136E-01
        1   -1    0    0  501    0  0.00000000000E+00  0.00000000000E+00  0.49753042559E+03  0.49753042562E+03  0.50400001928E-02 0.  1.
       -1   -1    0    0    0  501  0.00000000000E+00  0.00000000000E+00 -0.50561588179E+03  0.50561588181E+03  0.50400001928E-02 0. -1.
    10030    2    1    2    0    0  0.00000000000E+00  0.00000000000E+00 -0.80854561960E+01  0.10031463074E+04  0.10031137221E+04 0.  0.
        1    1    3    3  502    0  0.23923846477E+03  0.40104570731E+03  0.17895661090E+03  0.50009816135E+03  0.50400001928E-02 0.  1.
       -1    1    3    3    0  502 -0.23923846477E+03 -0.40104570731E+03 -0.18704206709E+03  0.50304814607E+03  0.50400001928E-02 0. -1.
</event>
<event>
 5   0  0.2313036E-03  0.9800678E+03  0.7818609E-02  0.9330680E-01
       -1   -1    0    0    0  501  0.00000000000E+00  0.00000000000E+00  0.76443101922E+03  0.76443101924E+03  0.50400001928E-02 0.  1.
        1   -1    0    0  501    0  0.00000000000E+00  0.00000000000E+00 -0.31413330889E+03  0.31413330893E+03  0.50400001928E-02 0. -1.
    10030    2    1    2    0    0  0.00000000000E+00  0.00000000000E+00  0.45029771034E+03  0.10785643282E+04  0.98006784564E+03 0.  0.
        3    1    3    3  502    0 -0.41397952035E+02 -0.45504297578E+03  0.42001914661E+03  0.62063998740E+03  0.10100000352E+00 0.  1.
       -3    1    3    3    0  502  0.41397952035E+02  0.45504297578E+03  0.30278563724E+02  0.45792434076E+03  0.10100000352E+00 0. -1.
</event>
<event>
 5   0  0.2405022E-03  0.1009680E+04  0.7818609E-02  0.9297991E-01
       -1   -1    0    0    0  501  0.00000000000E+00  0.00000000000E+00  0.43950385015E+03  0.43950385017E+03  0.50400001928E-02 0. -1.
        1   -1    0    0  501    0  0.00000000000E+00  0.00000000000E+00 -0.57988896600E+03  0.57988896603E+03  0.50400001928E-02 0.  1.
    10030    2    1    2    0    0  0.00000000000E+00  0.00000000000E+00 -0.14038511586E+03  0.10193928162E+04  0.10096800151E+04 0.  0.
        4    1    3    3  502    0 -0.48031223184E+03  0.14493463237E+03 -0.12691065744E+03  0.51750730969E+03  0.12699999809E+01 0.  1.
       -4    1    3    3    0  502  0.48031223184E+03 -0.14493463237E+03 -0.13474458414E+02  0.50188550651E+03  0.12699999809E+01 0. -1.
</event>
<event>
 5   0  0.4140860E-03  0.9966387E+03  0.7818609E-02  0.9312239E-01
        2   -1    0    0  501    0  0.00000000000E+00  0.00000000000E+00  0.37407056473E+03  0.37407056474E+03  0.25500000920E-02 0. -1.
       -2   -1    0    0    0  501  0.00000000000E+00  0.00000000000E+00 -0.66383783629E+03  0.66383783630E+03  0.25500000920E-02 0.  1.
    10030    2    1    2    0    0  0.00000000000E+00  0.00000000000E+00 -0.28976727156E+03  0.10379084010E+04  0.99663873960E+03 0.  0.
        3    1    3    3  502    0  0.18217667358E+03 -0.42882473765E+03  0.39193112827E+02  0.46756294369E+03  0.10100000352E+00 0. -1.
       -3    1    3    3    0  502 -0.18217667358E+03  0.42882473765E+03 -0.32896038439E+03  0.57034545735E+03  0.10100000352E+00 0.  1.
</event>
<event>
 5   0  0.2350769E-03  0.9988002E+03  0.7818609E-02  0.9309862E-01
        1   -1    0    0  501    0  0.00000000000E+00  0.00000000000E+00  0.18888565281E+04  0.18888565281E+04  0.50400001928E-02 0.  1.
       -1   -1    0    0    0  501  0.00000000000E+00  0.00000000000E+00 -0.13203780515E+03  0.13203780525E+03  0.50400001928E-02 0. -1.
    10030    2    1    2    0    0  0.00000000000E+00  0.00000000000E+00  0.17568187229E+04  0.20208943334E+04  0.99880022091E+03 0.  0.
        2    1    3    3  502    0  0.37343806867E+03 -0.31899374205E+03  0.10614889310E+04  0.11696032444E+04  0.25500000920E-02 0. -1.
       -2    1    3    3    0  502 -0.37343806867E+03  0.31899374205E+03  0.69532979190E+03  0.85129108894E+03  0.25500000920E-02 0.  1.
</event>
<event>
 5   0  0.2313036E-03  0.1016809E+04  0.7818609E-02  0.9290299E-01
       -1   -1    0    0    0  501  0.00000000000E+00  0.00000000000E+00  0.13696503062E+03  0.13696503072E+03  0.50400001928E-02 0. -1.
        1   -1    0    0  501    0  0.00000000000E+00  0.00000000000E+00 -0.18871607026E+04  0.18871607026E+04  0.50400001928E-02 0.  1.
    10030    2    1    2    0    0  0.00000000000E+00  0.00000000000E+00 -0.17501956720E+04  0.20241257333E+04  0.10168087795E+04 0.  0.
        3    1    3    3  502    0  0.32943997256E+03  0.36633182468E+03 -0.11248871381E+04  0.12280475500E+04  0.10100000352E+00 0. -1.
       -3    1    3    3    0  502 -0.32943997256E+03 -0.36633182468E+03 -0.62530853387E+03  0.79607818337E+03  0.10100000352E+00 0.  1.
</event>
<event>
 5   0  0.1548000E-03  0.9859562E+03  0.7818609E-02  0.9324083E-01
        4   -1    0    0  501    0  0.00000000000E+00  0.00000000000E+00  0.97603323407E+03  0.97603406033E+03  0.12699999809E+01 0. -1.
       -4   -1    0    0    0  501  0.00000000000E+00  0.00000000000E+00 -0.24899243753E+03  0.24899567637E+03  0.12699999809E+01 0.  1.
    10030    2    1    2    0    0  0.00000000000E+00  0.00000000000E+00  0.72704079654E+03  0.12250297367E+04  0.98595615316E+03 0.  0.
        3    1    3    3  502    0 -0.27318111362E+03  0.60609914881E+02 -0.14075753261E+03  0.31323182438E+03  0.10100000352E+00 0.  1.
       -3    1    3    3    0  502  0.27318111362E+03 -0.60609914881E+02  0.86779832915E+03  0.91179791231E+03  0.10100000352E+00 0. -1.
</event>
<event>
 5   0  0.4026829E-03  0.1004618E+04  0.7818609E-02  0.9303495E-01
       -2   -1    0    0    0  501  0.00000000000E+00  0.00000000000E+00  0.17736473376E+03  0.17736473378E+03  0.25500000920E-02 0.  1.
        2   -1    0    0  501    0  0.00000000000E+00  0.00000000000E+00 -0.14225727435E+04  0.14225727435E+04  0.25500000920E-02 0. -1.
    10030    2    1    2    0    0  0.00000000000E+00  0.00000000000E+00 -0.12452080097E+04  0.15999374773E+04  0.10046178098E+04 0.  0.
        1    1    3    3  502    0 -0.28044321606E+02 -0.43794161042E+03 -0.10118428730E+04  0.11029076742E+04  0.50400001928E-02 0. -1.
       -1    1    3    3    0  502  0.28044321606E+02  0.43794161042E+03 -0.23336513676E+03  0.49702980312E+03  0.50400001928E-02 0.  1.
</event>
<event>
 5   0  0.1548000E-03  0.9958353E+03  0.7818609E-02  0.9313124E-01
        3   -1    0    0  501    0  0.00000000000E+00  0.00000000000E+00  0.28320148646E+03  0.28320150447E+03  0.10100000352E+00 0.  1.
       -3   -1    0    0    0  501  0.00000000000E+00  0.00000000000E+00 -0.87542614586E+03  0.87542615168E+03  0.10100000352E+00 0. -1.
    10030    2    1    2    0    0  0.00000000000E+00  0.00000000000E+00 -0.59222465939E+03  0.11586276562E+04  0.99583532696E+03 0.  0.
        5    1    3    3  502    0  0.11670682581E+03 -0.29676523695E+03  0.14876946510E+03  0.35191551940E+03  0.46999998093E+01 0.  1.
       -5    1    3    3    0  502 -0.11670682581E+03  0.29676523695E+03 -0.74099412449E+03  0.80671213675E+03  0.46999998093E+01 0. -1.
</event>
<event>
 5   0  0.2378609E-03  0.1005714E+04  0.7818609E-02  0.9302300E-01
        1   -1    0    0  501    0  0.00000000000E+00  0.00000000000E+00  0.38473839186E+03  0.38473839190E+03  0.50400001928E-02 0.  1.
       -1   -1    0    0    0  501  0.00000000000E+00  0.00000000000E+00 -0.65723907819E+03  0.65723907821E+03  0.50400001928E-02 0. -1.
    10030    2    1    2    0    0  0.00000000000E+00  0.00000000000E+00 -0.27250068632E+03  0.10419774701E+04  0.10057138878E+04 0.  0.
        1    1    3    3  502    0 -0.27577164428E+03  0.71820337297E+02 -0.56550456112E+03  0.63324842622E+03  0.50400001928E-02 0. -1.
       -1    1    3    3    0  502  0.27577164428E+03 -0.71820337297E+02  0.29300387479E+03  0.40872904388E+03  0.50400001928E-02 0.  1.
</event>
<event>
 5   0  0.3895011E-03  0.9617607E+03  0.7818609E-02  0.9351509E-01
        2   -1    0    0  501    0  0.00000000000E+00  0.00000000000E+00  0.13990651678E+04  0.13990651678E+04  0.25500000920E-02 0. -1.
       -2   -1    0    0    0  501  0.00000000000E+00  0.00000000000E+00 -0.16528602349E+03  0.16528602351E+03  0.25500000920E-02 0.  1.
    10030    2    1    2    0    0  0.00000000000E+00  0.00000000000E+00  0.12337791443E+04  0.15643511913E+04  0.96176071494E+03 0.  0.
        2    1    3    3  502    0 -0.22740938919E+03 -0.34216192881E+03  0.21039508237E+03  0.46157979431E+03  0.25500000920E-02 0.  1.
       -2    1    3    3    0  502  0.22740938919E+03  0.34216192881E+03  0.10233840619E+04  0.11027713970E+04  0.25500000920E-02 0. -1.
</event>
<event>
 5   0  0.2327595E-03  0.9984722E+03  0.7818609E-02  0.9310222E-01
        1   -1    0    0  501    0  0.00000000000E+00  0.00000000000E+00  0.44372448503E+03  0.44372448506E+03  0.50400001928E-02 0.  1.
       -1   -1    0    0    0  501  0.00000000000E+00  0.00000000000E+00 -0.56169240240E+03  0.56169240243E+03  0.50400001928E-02 0. -1.
    10030    2    1    2    0    0  0.00000000000E+00  0.00000000000E+00 -0.11796791737E+03  0.10054168875E+04  0.99847217694E+03 0.  0.
        5    1    3    3  502    0  0.43475510416E+03  0.16683626050E+03 -0.24014707188E+03  0.52396473597E+03  0.46999998093E+01 0. -1.
       -5    1    3    3    0  502 -0.43475510416E+03 -0.16683626050E+03  0.12217915451E+03  0.48145215152E+03  0.46999998093E+01 0.  1.
</event>
<event>
 5   0  0.2405022E-03  0.9951961E+03  0.7818609E-02  0.9313829E-01
        1   -1    0    0  501    0  0.00000000000E+00  0.00000000000E+00  0.52087256128E+03  0.52087256130E+03  0.50400001928E-02 0.  1.
       -1   -1    0    0    0  501  0.00000000000E+00  0.00000000000E+00 -0.47536352152E+03  0.47536352155E+03  0.50400001928E-02 0. -1.
    10030    2    1    2    0    0  0.00000000000E+00  0.00000000000E+00  0.45509039761E+02  0.99623608285E+03  0.99519609127E+03 0.  0.
        4    1    3    3  502    0  0.22611134637E+03 -0.28801066761E+03  0.36004239676E+03  0.51352568191E+03  0.12699999809E+01 0.  1.
       -4    1    3    3    0  502 -0.22611134637E+03  0.28801066761E+03 -0.31453335700E+03  0.48271040094E+03  0.12699999809E+01 0. -1.
</event>
<event>
 5   0  0.2313036E-03  0.9991199E+03  0.7818609E-02  0.9309511E-01
       -1   -1    0    0    0  501  0.00000000000E+00  0.00000000000E+00  0.14139527269E+03  0.14139527278E+03  0.50400001928E-02 0.  1.
        1   -1    0    0  501    0  0.00000000000E+00  0.00000000000E+00 -0.17649821158E+04  0.17649821158E+04  0.50400001928E-02 0. -1.
    10030    2    1    2    0    0  0.00000000000E+00  0.00000000000E+00 -0.16235868431E+04  0.19063773886E+04  0.99911986800E+03 0.  0.
        3    1    3    3  502    0 -0.29768329083E+03 -0.24371547115E+03 -0.20376203644E+03  0.43535221398E+03  0.10100000352E+00 0.  1.
       -3    1    3    3    0  502  0.29768329083E+03  0.24371547115E+03 -0.14198248067E+04  0.14710251746E+04  0.10100000352E+00 0. -1.
</event>
<event>
 5   0  0.1548000E-03  0.9957153E+03  0.7818609E-02  0.9313257E-01
        3   -1    0    0  501    0  0.00000000000E+00  0.00000000000E+00  0.18848572960E+03  0.18848575666E+03  0.10100000352E+00 0. -1.
       -3   -1    0    0    0  501  0.00000000000E+00  0.00000000000E+00 -0.13150184431E+04  0.13150184470E+04  0.10100000352E+00 0.  1.
    10030    2    1    2    0    0  0.00000000000E+00  0.00000000000E+00 -0.11265327135E+04  0.15035042037E+04  0.99571528852E+03 0.  0.
        1    1    3    3  502    0 -0.32824071369E+03  0.22106143570E+03 -0.10713395108E+03  0.40998513141E+03  0.50400001928E-02 0. -1.
       -1    1    3    3    0  502  0.32824071369E+03 -0.22106143570E+03 -0.10193987625E+04  0.10935190723E+04  0.50400001928E-02 0.  1.
</event>
<event>
 5   0  0.4140860E-03  0.1000398E+04  0.7818609E-02  0.9308109E-01
       -2   -1    0    0    0  501  0.00000000000E+00  0.00000000000E+00  0.23621185922E+03  0.23621185924E+03  0.25500000920E-02 0. -1.
        2   -1    0    0  501    0  0.00000000000E+00  0.00000000000E+00 -0.10592141805E+04  0.10592141805E+04  0.25500000920E-02 0.  1.
    10030    2    1    2    0    0  0.00000000000E+00  0.00000000000E+00 -0.82300232123E+03  0.12954260397E+04  0.10003978227E+04 0.  0.
        3    1    3    3  502    0  0.22958588802E+03 -0.10970061505E+03  0.14614562102E+03  0.29343220284E+03  0.10100000352E+00 0. -1.
       -3    1    3    3    0  502 -0.22958588802E+03  0.10970061505E+03 -0.96914794225E+03  0.10019938369E+04  0.10100000352E+00 0.  1.
</event>
<event>
 5   0  0.3826483E-03  0.1019851E+04  0.7818609E-02  0.9287037E-01
        2   -1    0    0  501    0  0.00000000000E+00  0.00000000000E+00  0.66735407353E+03  0.66735407353E+03  0.25500000920E-02 0.  1.
       -2   -1    0    0    0  501  0.00000000000E+00  0.00000000000E+00 -0.38963393613E+03  0.38963393614E+03  0.25500000920E-02 0. -1.
    10030    2    1    2    0    0  0.00000000000E+00  0.00000000000E+00  0.27772013739E+03  0.10569880097E+04  0.10198505664E+04 0.  0.
        4    1    3    3  502    0 -0.10918917106E+03  0.43681792481E+02 -0.37538521548E+03  0.39337774082E+03  0.12699999809E+01 0. -1.
       -4    1    3    3    0  502  0.10918917106E+03 -0.43681792481E+02  0.65310535288E+03  0.66361026885E+03  0.12699999809E+01 0.  1.
</event>
<event>
 5   0  0.2405022E-03  0.9999771E+03  0.7818609E-02  0.9308570E-01
        1   -1    0    0  501    0  0.00000000000E+00  0.00000000000E+00  0.37335046427E+03  0.37335046431E+03  0.50400001928E-02 0.  1.
       -1   -1    0    0    0  501  0.00000000000E+00  0.00000000000E+00 -0.66958142426E+03  0.66958142428E+03  0.50400001928E-02 0. -1.
    10030    2    1    2    0    0  0.00000000000E+00  0.00000000000E+00 -0.29623095999E+03  0.10429318886E+04  0.99997707102E+03 0.  0.
        4    1    3    3  502    0 -0.44120570755E+02 -0.23202053861E+03 -0.60773459760E+03  0.65201465407E+03  0.12699999809E+01 0. -1.
       -4    1    3    3    0  502  0.44120570755E+02  0.23202053861E+03  0.31150363761E+03  0.39091723452E+03  0.12699999809E+01 0.  1.
</event>
<event>
 5   0  0.2327595E-03  0.1012152E+04  0.7818609E-02  0.9295316E-01
        1   -1    0    0  501    0  0.00000000000E+00  0.00000000000E+00  0.66015004359E+03  0.66015004361E+03  0.50400001928E-02 0.  1.
       -1   -1    0    0    0  501  0.00000000000E+00  0.00000000000E+00 -0.38796167203E+03  0.38796167207E+03  0.50400001928E-02 0. -1.
    10030    2    1    2    0    0  0.00000000000E+00  0.00000000000E+00  0.27218837156E+03  0.10481117157E+04  0.10121519940E+04 0.  0.
        5    1    3    3  502    0  0.39592627930E+03 -0.31271329657E+03  0.17677871172E+03  0.53462138697E+03  0.46999998093E+01 0.  1.
       -5    1    3    3    0  502 -0.39592627930E+03  0.31271329657E+03  0.95409659841E+02  0.51349032871E+03  0.46999998093E+01 0. -1.
</event>
<event>
 5   0  0.4140860E-03  0.1002217E+04  0.7818609E-02  0.9306116E-01
       -2   -1    0    0    0  501  0.00000000000E+00  0.00000000000E+00  0.40845222734E+03  0.40845222735E+03  0.25500000920E-02 0.  1.
        2   -1    0    0  501    0  0.00000000000E+00  0.00000000000E+00 -0.61478368016E+03  0.61478368017E+03  0.25500000920E-02 0. -1.
    10030    2    1    2    0    0  0.00000000000E+00  0.00000000000E+00 -0.20633145282E+03  0.10232359075E+04  0.10022170693E+04 0.  0.
        3    1    3    3  502    0  0.38400678419E+02  0.16941831289E+03  0.37672665521E+03  0.41484956285E+03  0.10100000352E+00 0.  1.
       -3    1    3    3    0  502 -0.38400678419E+02 -0.16941831289E+03 -0.58305810803E+03  0.60838634468E+03  0.10100000352E+00 0. -1.
</event>
<event>
 5   0  0.2405022E-03  0.1002881E+04  0.7818609E-02  0.9305390E-01
        1   -1    0    0  501    0  0.00000000000E+00  0.00000000000E+00  0.46927367403E+03  0.46927367406E+03  0.50400001928E-02 0. -1.
       -1   -1    0    0    0  501  0.00000000000E+00  0.00000000000E+00 -0.53581266669E+03  0.53581266672E+03  0.50400001928E-02 0.  1.
    10030    2    1    2    0    0  0.00000000000E+00  0.00000000000E+00 -0.66538992661E+02  0.10050863408E+04  0.10028814062E+04 0.  0.
        4    1    3    3  502    0 -0.14145827675E+03  0.12117336492E+03 -0.49985482407E+03  0.53343217608E+03  0.12699999809E+01 0.  1.
       -4    1    3    3    0  502  0.14145827675E+03 -0.12117336492E+03  0.43331583141E+03  0.47165416470E+03  0.12699999809E+01 0. -1.
</event>
<event>
 5   0  0.4140860E-03  0.9778868E+03  0.7818609E-02  0.9333136E-01
       -2   -1    0    0    0  501  0.00000000000E+00  0.00000000000E+00  0.23225162900E+03  0.23225162901E+03  0.25500000920E-02 0. -1.
        2   -1    0    0  501    0  0.00000000000E+00  0.00000000000E+00 -0.10293389111E+04  0.10293389111E+04  0.25500000920E-02 0.  1.
    10030    2    1    2    0    0  0.00000000000E+00  0.00000000000E+00 -0.79708728209E+03  0.12615905401E+04  0.97788678057E+03 0.  0.
        3    1    3    3  502    0  0.93094434070E+02 -0.17633482028E+03 -0.97449928652E+03  0.99469061126E+03  0.10100000352E+00 0.  1.
       -3    1    3    3    0  502 -0.93094434070E+02  0.17633482028E+03  0.17741200443E+03  0.26689992884E+03  0.10100000352E+00 0. -1.
</event>
<event>
 5   0  0.2327595E-03  0.1000935E+04  0.7818609E-02  0.9307520E-01
       -1   -1    0    0    0  501  0.00000000000E+00  0.00000000000E+00  0.76989579784E+03  0.76989579786E+03  0.50400001928E-02 0.  1.
        1   -1    0    0  501    0  0.00000000000E+00  0.00000000000E+00 -0.32532687554E+03  0.32532687558E+03  0.50400001928E-02 0. -1.
    10030    2    1    2    0    0  0.00000000000E+00  0.00000000000E+00  0.44456892230E+03  0.10952226734E+04  0.10009351516E+04 0.  0.
        5    1    3    3  502    0  0.26997626770E+03  0.41869092849E+03  0.17030796433E+03  0.52651322057E+03  0.46999998093E+01 0. -1.
       -5    1    3    3    0  502 -0.26997626770E+03 -0.41869092849E+03  0.27426095797E+03  0.56870945287E+03  0.46999998093E+01 0.  1.
</event>
<event>
 5   0  0.2350769E-03  0.9946334E+03  0.7818609E-02  0.9314450E-01
       -1   -1    0    0    0  501  0.00000000000E+00  0.00000000000E+00  0.28211711941E+03  0.28211711945E+03  0.50400001928E-02 0. -1.
        1   -1    0    0  501    0  0.00000000000E+00  0.00000000000E+00 -0.87667103132E+03  0.87667103134E+03  0.50400001928E-02 0.  1.
    10030    2    1    2    0    0  0.00000000000E+00  0.00000000000E+00 -0.59455391191E+03  0.11587881508E+04  0.99463341199E+03 0.  0.
        2    1    3    3  502    0 -0.46132302271E+03  0.14616478783E+03 -0.16372434191E+03  0.51087056739E+03  0.25500000920E-02 0. -1.
       -2    1    3    3    0  502  0.46132302271E+03 -0.14616478783E+03 -0.43082957000E+03  0.64791758340E+03  0.25500000920E-02 0.  1.
</event>
<event>
 5   0  0.3873874E-03  0.1001466E+04  0.7818609E-02  0.9306939E-01
        2   -1    0    0  501    0  0.00000000000E+00  0.00000000000E+00  0.53178666788E+03  0.53178666788E+03  0.25500000920E-02 0. -1.
       -2   -1    0    0    0  501  0.00000000000E+00  0.00000000000E+00 -0.47149227396E+03  0.47149227396E+03  0.25500000920E-02 0.  1.
    10030    2    1    2    0    0  0.00000000000E+00  0.00000000000E+00  0.60294393921E+02  0.10032789418E+04  0.10014655367E+04 0.  0.
        5    1    3    3  502    0 -0.67496499832E+02 -0.35732218270E+03 -0.31467992824E+03  0.48091627855E+03  0.46999998093E+01 0.  1.
       -5    1    3    3    0  502  0.67496499832E+02  0.35732218270E+03  0.37497432216E+03  0.52236266330E+03  0.46999998093E+01 0. -1.
</event>
<event>
 5   0  0.2378609E-03  0.9782513E+03  0.7818609E-02  0.9332725E-01
        1   -1    0    0  501    0  0.00000000000E+00  0.00000000000E+00  0.27292141562E+03  0.27292141567E+03  0.50400001928E-02 0. -1.
       -1   -1    0    0    0  501  0.00000000000E+00  0.00000000000E+00 -0.87660370640E+03  0.87660370642E+03  0.50400001928E-02 0.  1.
    10030    2    1    2    0    0  0.00000000000E+00  0.00000000000E+00 -0.60368229078E+03  0.11495251221E+04  0.97825134710E+03 0.  0.
        1    1    3    3  502    0  0.80692813139E+02 -0.14865876519E+03  0.23746005885E+03  0.29154423015E+03  0.50400001928E-02 0. -1.
       -1    1    3    3    0  502 -0.80692813139E+02  0.14865876519E+03 -0.84114234963E+03  0.85798089194E+03  0.50400001928E-02 0.  1.
</event>
<event>
 5   0  0.2378609E-03  0.1003038E+04  0.7818609E-02  0.9305219E-01
       -1   -1    0    0    0  501  0.00000000000E+00  0.00000000000E+00  0.15302215075E+03  0.15302215083E+03  0.50400001928E-02 0.  1.
        1   -1    0    0  501    0  0.00000000000E+00  0.00000000000E+00 -0.16436927432E+04  0.16436927432E+04  0.50400001928E-02 0. -1.
    10030    2    1    2    0    0  0.00000000000E+00  0.00000000000E+00 -0.14906705925E+04  0.17967148941E+04  0.10030381824E+04 0.  0.
        1    1    3    3  502    0 -0.97493457997E+02  0.49047061220E+03 -0.81366250000E+03  0.95504610345E+03  0.50400001928E-02 0.  1.
       -1    1    3    3    0  502  0.97493457997E+02 -0.49047061220E+03 -0.67700809249E+03  0.84166879062E+03  0.50400001928E-02 0. -1.
</event>
<event>
 5   0  0.4140860E-03  0.9618772E+03  0.7818609E-02  0.9351375E-01
        2   -1    0    0  501    0  0.00000000000E+00  0.00000000000E+00  0.16412565277E+04  0.16412565277E+04  0.25500000920E-02 0.  1.
       -2   -1    0    0    0  501  0.00000000000E+00  0.00000000000E+00 -0.14092979414E+03  0.14092979416E+03  0.25500000920E-02 0. -1.
    10030    2    1    2    0    0  0.00000000000E+00  0.00000000000E+00  0.15003267336E+04  0.17821863219E+04  0.96187721586E+03 0.  0.
        3    1    3    3  502    0  0.21348849942E+03  0.36461864038E+03  0.11758198801E+04  0.12494304674E+04  0.10100000352E+00 0.  1.
       -3    1    3    3    0  502 -0.21348849942E+03 -0.36461864038E+03  0.32450685348E+03  0.53275585445E+03  0.10100000352E+00 0. -1.
</event>
<event>
 5   0  0.2405022E-03  0.1089469E+04  0.7818609E-02  0.9215518E-01
        1   -1    0    0  501    0  0.00000000000E+00  0.00000000000E+00  0.37306677220E+03  0.37306677224E+03  0.50400001928E-02 0.  1.
       -1   -1    0    0    0  501  0.00000000000E+00  0.00000000000E+00 -0.79539520144E+03  0.79539520146E+03  0.50400001928E-02 0. -1.
    10030    2    1    2    0    0  0.00000000000E+00  0.00000000000E+00 -0.42232842924E+03  0.11684619737E+04  0.10894687154E+04 0.  0.
        4    1    3    3  502    0 -0.28685644288E+02 -0.78266061501E+02 -0.78851281687E+03  0.79290763512E+03  0.12699999809E+01 0. -1.
       -4    1    3    3    0  502  0.28685644288E+02  0.78266061501E+02  0.36618438763E+03  0.37555433857E+03  0.12699999809E+01 0.  1.
</event>
<event>
 5   0  0.2378609E-03  0.9904430E+03  0.7818609E-02  0.9319089E-01
        1   -1    0    0  501    0  0.00000000000E+00  0.00000000000E+00  0.11475705726E+04  0.11475705726E+04  0.50400001928E-02 0. -1.
       -1   -1    0    0    0  501  0.00000000000E+00  0.00000000000E+00 -0.21370741281E+03  0.21370741287E+03  0.50400001928E-02 0.  1.
    10030    2    1    2    0    0  0.00000000000E+00  0.00000000000E+00  0.93386315979E+03  0.13612779855E+04  0.99044300823E+03 0.  0.
        1    1    3    3  502    0 -0.25067512131E+03 -0.12063722498E+03 -0.96163666021E+02  0.29434470809E+03  0.50400001928E-02 0.  1.
       -1    1    3    3    0  502  0.25067512131E+03  0.12063722498E+03  0.10300268258E+04  0.10669332774E+04  0.50400001928E-02 0. -1.
</event>
<event>
 5   0  0.3873874E-03  0.1006863E+04  0.7818609E-02  0.9301049E-01
        2   -1    0    0  501    0  0.00000000000E+00  0.00000000000E+00  0.33399219814E+03  0.33399219815E+03  0.25500000920E-02 0. -1.
       -2   -1    0    0    0  501  0.00000000000E+00  0.00000000000E+00 -0.75882988292E+03  0.75882988293E+03  0.25500000920E-02 0.  1.
    10030    2    1    2    0    0  0.00000000000E+00  0.00000000000E+00 -0.42483768478E+03  0.10928220811E+04  0.10068629711E+04 0.  0.
        5    1    3    3  502    0  0.25539786300E+03  0.68402962254E+02  0.25253929740E+03  0.36565724443E+03  0.46999998093E+01 0. -1.
       -5    1    3    3    0  502 -0.25539786300E+03 -0.68402962254E+02 -0.67737698219E+03  0.72716483665E+03  0.46999998093E+01 0.  1.
</event>
<event>
 5   0  0.2327595E-03  0.1001973E+04  0.7818609E-02  0.9306383E-01
       -1   -1    0    0    0  501  0.00000000000E+00  0.00000000000E+00  0.24428754432E+03  0.24428754437E+03  0.50400001928E-02 0. -1.
        1   -1    0    0  501    0  0.00000000000E+00  0.00000000000E+00 -0.10274273614E+04  0.10274273614E+04  0.50400001928E-02 0.  1.
    10030    2    1    2    0    0  0.00000000000E+00  0.00000000000E+00 -0.78313981706E+03  0.12717149058E+04  0.10019734669E+04 0.  0.
        5    1    3    3  502    0  0.10767819379E+02 -0.77367564681E+02 -0.10196224093E+04  0.10226209628E+04  0.46999998093E+01 0.  1.
       -5    1    3    3    0  502 -0.10767819379E+02  0.77367564681E+02  0.23648259223E+03  0.24909394297E+03  0.46999998093E+01 0. -1.
</event>
<event>
 5   0  0.4140860E-03  0.9995837E+03  0.7818609E-02  0.9309002E-01
        2   -1    0    0  501    0  0.00000000000E+00  0.00000000000E+00  0.94753285398E+03  0.94753285398E+03  0.25500000920E-02 0. -1.
       -2   -1    0    0    0  501  0.00000000000E+00  0.00000000000E+00 -0.26362345603E+03  0.26362345604E+03  0.25500000920E-02 0.  1.
    10030    2    1    2    0    0  0.00000000000E+00  0.00000000000E+00  0.68390939795E+03  0.12111563100E+04  0.99958368468E+03 0.  0.
        3    1    3    3  502    0 -0.37825643223E+03 -0.25915561735E+03  0.10098247831E+03  0.46950722428E+03  0.10100000352E+00 0. -1.
       -3    1    3    3    0  502  0.37825643223E+03  0.25915561735E+03  0.58292691964E+03  0.74164908573E+03  0.10100000352E+00 0.  1.
</event>
<event>
 5   0  0.2350769E-03  0.1002444E+04  0.7818609E-02  0.9305868E-01
       -1   -1    0    0    0  501  0.00000000000E+00  0.00000000000E+00  0.31681464286E+03  0.31681464290E+03  0.50400001928E-02 0. -1.
        1   -1    0    0  501    0  0.00000000000E+00  0.00000000000E+00 -0.79296726490E+03  0.79296726491E+03  0.50400001928E-02 0.  1.
    10030    2    1    2    0    0  0.00000000000E+00  0.00000000000E+00 -0.47615262204E+03  0.11097819078E+04  0.10024442944E+04 0.  0.
        2    1    3    3  502    0  0.50395707299E+02  0.23131961286E+03  0.25101466880E+03  0.34504616295E+03  0.25500000920E-02 0. -1.
       -2    1    3    3    0  502 -0.50395707299E+02 -0.23131961286E+03 -0.72716729084E+03  0.76473574487E+03  0.25500000920E-02 0.  1.
</event>
<event>
 5   0  0.2405022E-03  0.9770615E+03  0.7818609E-02  0.9334067E-01
        1   -1    0    0  501    0  0.00000000000E+00  0.00000000000E+00  0.73697705164E+03  0.73697705166E+03  0.50400001928E-02 0. -1.
       -1   -1    0    0    0  501  0.00000000000E+00  0.00000000000E+00 -0.32383952344E+03  0.32383952348E+03  0.50400001928E-02 0.  1.
    10030    2    1    2    0    0  0.00000000000E+00  0.00000000000E+00  0.41313752821E+03  0.10608165751E+04  0.97706150721E+03 0.  0.
        4    1    3    3  502    0 -0.13203641741E+03  0.81776192209E+02  0.70945789703E+03  0.72625965171E+03  0.12699999809E+01 0. -1.
       -4    1    3    3    0  502  0.13203641741E+03 -0.81776192209E+02 -0.29632036883E+03  0.33455692343E+03  0.12699999809E+01 0.  1.
</event>
<event>
 5   0  0.2378609E-03  0.1005599E+04  0.7818609E-02  0.9302426E-01
       -1   -1    0    0    0  501  0.00000000000E+00  0.00000000000E+00  0.29104200885E+03  0.29104200889E+03  0.50400001928E-02 0. -1.
        1   -1    0    0  501    0  0.00000000000E+00  0.00000000000E+00 -0.86862776345E+03  0.86862776347E+03  0.50400001928E-02 0.  1.
    10030    2    1    2    0    0  0.00000000000E+00  0.00000000000E+00 -0.57758575460E+03  0.11596697724E+04  0.10055986660E+04 0.  0.
        1    1    3    3  502    0  0.28863543603E+03  0.24435194883E+03 -0.67090324789E+03  0.77014898421E+03  0.50400001928E-02 0.  1.
       -1    1    3    3    0  502 -0.28863543603E+03 -0.24435194883E+03  0.93317493281E+02  0.38952078815E+03  0.50400001928E-02 0. -1.
</event>
<event>
 5   0  0.2405022E-03  0.1004626E+04  0.7818609E-02  0.9303485E-01
       -1   -1    0    0    0  501  0.00000000000E+00  0.00000000000E+00  0.24517717571E+03  0.24517717576E+03  0.50400001928E-02 0.  1.
        1   -1    0    0  501    0  0.00000000000E+00  0.00000000000E+00 -0.10291275038E+04  0.10291275038E+04  0.50400001928E-02 0. -1.
    10030    2    1    2    0    0  0.00000000000E+00  0.00000000000E+00 -0.78395032807E+03  0.12743046796E+04  0.10046264477E+04 0.  0.
        4    1    3    3  502    0 -0.13123183806E+03 -0.37688536761E+03 -0.50447260002E+01  0.39911331449E+03  0.12699999809E+01 0.  1.
       -4    1    3    3    0  502  0.13123183806E+03  0.37688536761E+03 -0.77890560207E+03  0.87519136506E+03  0.12699999809E+01 0. -1.
</event>
<event>
 5   0  0.3895011E-03  0.9978053E+03  0.7818609E-02  0.9310955E-01
       -2   -1    0    0    0  501  0.00000000000E+00  0.00000000000E+00  0.33809617311E+03  0.33809617311E+03  0.25500000920E-02 0.  1.
        2   -1    0    0  501    0  0.00000000000E+00  0.00000000000E+00 -0.73619244014E+03  0.73619244014E+03  0.25500000920E-02 0. -1.
    10030    2    1    2    0    0  0.00000000000E+00  0.00000000000E+00 -0.39809626703E+03  0.10742886133E+04  0.99780528499E+03 0.  0.
        2    1    3    3  502    0  0.10151056642E+03 -0.16591774556E+03  0.29559183139E+03  0.35384689369E+03  0.25500000920E-02 0.  1.
       -2    1    3    3    0  502 -0.10151056642E+03  0.16591774556E+03 -0.69368809842E+03  0.72044171956E+03  0.25500000920E-02 0. -1.
</event>
<event>
 5   0  0.4026829E-03  0.9623668E+03  0.7818609E-02  0.9350811E-01
        2   -1    0    0  501    0  0.00000000000E+00  0.00000000000E+00  0.10954925607E+04  0.10954925607E+04  0.25500000920E-02 0. -1.
       -2   -1    0    0    0  501  0.00000000000E+00  0.00000000000E+00 -0.21135468616E+03  0.21135468617E+03  0.25500000920E-02 0.  1.
    10030    2    1    2    0    0  0.00000000000E+00  0.00000000000E+00  0.88413787449E+03  0.13068472468E+04  0.96236684556E+03 0.  0.
        1    1    3    3  502    0 -0.15971079908E+03 -0.19328483822E+03  0.99977360481E+03  0.10307346064E+04  0.50400001928E-02 0. -1.
       -1    1    3    3    0  502  0.15971079908E+03  0.19328483822E+03 -0.11563573031E+03  0.27611264039E+03  0.50400001928E-02 0.  1.
</event>
<event>
 5   0  0.4140860E-03  0.1003675E+04  0.7818609E-02  0.9304523E-01
       -2   -1    0    0    0  501  0.00000000000E+00  0.00000000000E+00  0.62912764671E+03  0.62912764672E+03  0.25500000920E-02 0. -1.
        2   -1    0    0  501    0  0.00000000000E+00  0.00000000000E+00 -0.40030182905E+03  0.40030182906E+03  0.25500000920E-02 0.  1.
    10030    2    1    2    0    0  0.00000000000E+00  0.00000000000E+00  0.22882581766E+03  0.10294294758E+04  0.10036751420E+04 0.  0.
        3    1    3    3  502    0  0.15113075604E+02  0.31636404878E+03 -0.28483943162E+03  0.42596728562E+03  0.10100000352E+00 0.  1.
       -3    1    3    3    0  502 -0.15113075604E+02 -0.31636404878E+03  0.51366524929E+03  0.60346219015E+03  0.10100000352E+00 0. -1.
</event>
<event>
 5   0  0.4026829E-03  0.9977595E+03  0.7818609E-02  0.9311006E-01
        2   -1    0    0  501    0  0.00000000000E+00  0.00000000000E+00  0.29228368104E+04  0.29228368104E+04  0.25500000920E-02 0.  1.
       -2   -1    0    0    0  501  0.00000000000E+00  0.00000000000E+00 -0.85150495073E+02  0.85150495111E+02  0.25500000920E-02 0. -1.
    10030    2    1    2    0    0  0.00000000000E+00  0.00000000000E+00  0.28376863153E+04  0.30079873055E+04  0.99775949303E+03 0.  0.
        1    1    3    3  502    0 -0.38135984706E+03 -0.22566392842E+03  0.21097484594E+04  0.21557824806E+04  0.50400001928E-02 0.  1.
       -1    1    3    3    0  502  0.38135984706E+03  0.22566392842E+03  0.72793785590E+03  0.85220482492E+03  0.50400001928E-02 0. -1.
</event>
<event>
 5   0  0.3826483E-03  0.9869288E+03  0.7818609E-02  0.9322998E-01
        2   -1    0    0  501    0  0.00000000000E+00  0.00000000000E+00  0.58161905408E+03  0.58161905409E+03  0.25500000920E-02 0. -1.
       -2   -1    0    0    0  501  0.00000000000E+00  0.00000000000E+00 -0.41867111122E+03  0.41867111123E+03  0.25500000920E-02 0.  1.
    10030    2    1    2    0    0  0.00000000000E+00  0.00000000000E+00  0.16294794286E+03  0.10002901653E+04  0.98692876275E+03 0.  0.
        4    1    3    3  502    0  0.12311579032E+03 -0.46940527039E+03 -0.92174794190E+01  0.48537138412E+03  0.12699999809E+01 0.  1.
       -4    1    3    3    0  502 -0.12311579032E+03  0.46940527039E+03  0.17216542228E+03  0.51491878120E+03  0.12699999809E+01 0. -1.
</event>
<event>
 5   0  0.2313036E-03  0.1018310E+04  0.7818609E-02  0.9288688E-01
       -1   -1    0    0    0  501  0.00000000000E+00  0.00000000000E+00  0.29914218483E+03  0.29914218487E+03  0.50400001928E-02 0.  1.
        1   -1    0    0  501    0  0.00000000000E+00  0.00000000000E+00 -0.86660697535E+03  0.86660697536E+03  0.50400001928E-02 0. -1.
    10030    2    1    2    0    0  0.00000000000E+00  0.00000000000E+00 -0.56746479051E+03  0.11657491602E+04  0.10183097840E+04 0.  0.
        3    1    3    3  502    0  0.12903356238E+02 -0.49790806920E+03 -0.16279726866E+03  0.52400563247E+03  0.10100000352E+00 0.  1.
       -3    1    3    3    0  502 -0.12903356238E+02  0.49790806920E+03 -0.40466752185E+03  0.64174352776E+03  0.10100000352E+00 0. -1.
</event>
<event>
 5   0  0.2378609E-03  0.9778682E+03  0.7818609E-02  0.9333157E-01
       -1   -1    0    0    0  501  0.00000000000E+00  0.00000000000E+00  0.42074406052E+03  0.42074406055E+03  0.50400001928E-02 0.  1.
        1   -1    0    0  501    0  0.00000000000E+00  0.00000000000E+00 -0.56817571981E+03  0.56817571983E+03  0.50400001928E-02 0. -1.
    10030    2    1    2    0    0  0.00000000000E+00  0.00000000000E+00 -0.14743165929E+03  0.98891978038E+03  0.97786821089E+03 0.  0.
        1    1    3    3  502    0  0.37351698649E+03 -0.24404317747E+03 -0.27593709796E+03  0.52460775225E+03  0.50400001928E-02 0. -1.
       -1    1    3    3    0  502 -0.37351698649E+03  0.24404317747E+03  0.12850543867E+03  0.46431202812E+03  0.50400001928E-02 0.  1.
</event>
<event>
 5   0  0.2327595E-03  0.1001261E+04  0.7818609E-02  0.9307163E-01
       -1   -1    0    0    0  501  0.00000000000E+00  0.00000000000E+00  0.22376106621E+03  0.22376106626E+03  0.50400001928E-02 0. -1.
        1   -1    0    0  501    0  0.00000000000E+00  0.00000000000E+00 -0.11200832258E+04  0.11200832258E+04  0.50400001928E-02 0.  1.
    10030    2    1    2    0    0  0.00000000000E+00  0.00000000000E+00 -0.89632215960E+03  0.13438442921E+04  0.10012612384E+04 0.  0.
        5    1    3    3  502    0 -0.38649088726E+03  0.18035570280E+03 -0.79996237209E+03  0.90656785308E+03  0.46999998093E+01 0.  1.
       -5    1    3    3    0  502  0.38649088726E+03 -0.18035570280E+03 -0.96359787508E+02  0.43727643901E+03  0.46999998093E+01 0. -1.
</event>
<event>
 5   0  0.2378609E-03  0.1001993E+04  0.7818609E-02  0.9306362E-01
       -1   -1    0    0    0  501  0.00000000000E+00  0.00000000000E+00  0.20244353067E+03  0.20244353073E+03  0.50400001928E-02 0.  1.
        1   -1    0    0  501    0  0.00000000000E+00  0.00000000000E+00 -0.12398385251E+04  0.12398385251E+04  0.50400001928E-02 0. -1.
    10030    2    1    2    0    0  0.00000000000E+00  0.00000000000E+00 -0.10373949944E+04  0.14422820558E+04  0.10019925918E+04 0.  0.
        1    1    3    3  502    0 -0.36707890298E+03 -0.32815212049E+03 -0.65192342411E+03  0.81696688190E+03  0.50400001928E-02 0. -1.
       -1    1    3    3    0  502  0.36707890298E+03  0.32815212049E+03 -0.38547157030E+03  0.62531517391E+03  0.50400001928E-02 0.  1.
</event>
<event>
 5   0  0.2405022E-03  0.9967888E+03  0.7818609E-02  0.9312074E-01
       -1   -1    0    0    0  501  0.00000000000E+00  0.00000000000E+00  0.89963531970E+03  0.89963531971E+03  0.50400001928E-02 0. -1.
        1   -1    0    0  501    0  0.00000000000E+00  0.00000000000E+00 -0.27610850328E+03  0.27610850333E+03  0.50400001928E-02 0.  1.
    10030    2    1    2    0    0  0.00000000000E+00  0.00000000000E+00  0.62352681642E+03  0.11757438230E+04  0.99678876730E+03 0.  0.
        4    1    3    3  502    0  0.22210700101E+03 -0.40610667330E+02  0.83584536428E+03  0.86580588592E+03  0.12699999809E+01 0. -1.
       -4    1    3    3    0  502 -0.22210700101E+03  0.40610667330E+02 -0.21231854786E+03  0.30993793712E+03  0.12699999809E+01 0.  1.
</event>
<event>
 5   0  0.2313036E-03  0.9977467E+03  0.7818609E-02  0.9311020E-01
       -1   -1    0    0    0  501  0.00000000000E+00  0.00000000000E+00  0.61812193067E+03  0.61812193069E+03  0.50400001928E-02 0. -1.
        1   -1    0    0  501    0  0.00000000000E+00  0.00000000000E+00 -0.40263031196E+03  0.40263031199E+03  0.50400001928E-02 0.  1.
    10030    2    1    2    0    0  0.00000000000E+00  0.00000000000E+00  0.21549161871E+03  0.10207522427E+04  0.99774671295E+03 0.  0.
        3    1    3    3  502    0 -0.16689470457E+01  0.22901484675E+03 -0.34567071742E+03  0.41465508619E+03  0.10100000352E+00 0.  1.
       -3    1    3    3    0  502  0.16689470457E+01 -0.22901484675E+03  0.56116233613E+03  0.60609715649E+03  0.10100000352E+00 0. -1.
</event>
<event>
 5   0  0.3826483E-03  0.1008762E+04  0.7818609E-02  0.9298987E-01
        2   -1    0    0  501    0  0.00000000000E+00  0.00000000000E+00  0.13204137095E+04  0.13204137095E+04  0.25500000920E-02 0. -1.
       -2   -1    0    0    0  501  0.00000000000E+00  0.00000000000E+00 -0.19266708437E+03  0.19266708439E+03  0.25500000920E-02 0.  1.
    10030    2    1    2    0    0  0.00000000000E+00  0.00000000000E+00  0.11277466251E+04  0.15130807939E+04  0.10087621317E+04 0.  0.
        4    1    3    3  502    0  0.47204562214E+03  0.15890162822E+03  0.44461313916E+03  0.66765204504E+03  0.12699999809E+01 0.  1.
       -4    1    3    3    0  502 -0.47204562214E+03 -0.15890162822E+03  0.68313348598E+03  0.84542874886E+03  0.12699999809E+01 0. -1.
</event>
<event>
 5   0  0.2350769E-03  0.9328368E+03  0.7818609E-02  0.9385440E-01
        1   -1    0    0  501    0  0.00000000000E+00  0.00000000000E+00  0.11291945603E+04  0.11291945603E+04  0.50400001928E-02 0. -1.
       -1   -1    0    0    0  501  0.00000000000E+00  0.00000000000E+00 -0.19265599661E+03  0.19265599668E+03  0.50400001928E-02 0.  1.
    10030    2    1    2    0    0  0.00000000000E+00  0.00000000000E+00  0.93653856368E+03  0.13218505570E+04  0.93283675621E+03 0.  0.
        2    1    3    3  502    0 -0.44903359294E+02 -0.25326345581E+03 -0.83073372898E+02  0.27029590270E+03  0.25500000920E-02 0.  1.
       -2    1    3    3    0  502  0.44903359294E+02  0.25326345581E+03  0.10196119366E+04  0.10515546543E+04  0.25500000920E-02 0. -1.
</event>
<event>
 5   0  0.2313036E-03  0.1018345E+04  0.7818609E-02  0.9288650E-01
        1   -1    0    0  501    0  0.00000000000E+00  0.00000000000E+00  0.94686773861E+03  0.94686773863E+03  0.50400001928E-02 0.  1.
       -1   -1    0    0    0  501  0.00000000000E+00  0.00000000000E+00 -0.27380442150E+03  0.27380442155E+03  0.50400001928E-02 0. -1.
    10030    2    1    2    0    0  0.00000000000E+00  0.00000000000E+00  0.67306331711E+03  0.12206721602E+04  0.10183448796E+04 0.  0.
        3    1    3    3  502    0  0.21556727588E+03  0.45330540361E+03  0.43895782314E+03  0.66681258241E+03  0.10100000352E+00 0. -1.
       -3    1    3    3    0  502 -0.21556727588E+03 -0.45330540361E+03  0.23410549398E+03  0.55385957776E+03  0.10100000352E+00 0.  1.
</event>
<event>
 5   0  0.3873874E-03  0.1004300E+04  0.7818609E-02  0.9303841E-01
       -2   -1    0    0    0  501  0.00000000000E+00  0.00000000000E+00  0.70850499425E+03  0.70850499425E+03  0.25500000920E-02 0.  1.
        2   -1    0    0  501    0  0.00000000000E+00  0.00000000000E+00 -0.35589697589E+03  0.35589697590E+03  0.25500000920E-02 0. -1.
    10030    2    1    2    0    0  0.00000000000E+00  0.00000000000E+00  0.35260801835E+03  0.10644019702E+04  0.10043003233E+04 0.  0.
        5    1    3    3  502    0  0.42073139315E+03  0.26059718217E+03  0.26627785099E+03  0.56200692208E+03  0.46999998093E+01 0.  1.
       -5    1    3    3    0  502 -0.42073139315E+03 -0.26059718217E+03  0.86330167367E+02  0.50239504808E+03  0.46999998093E+01 0. -1.
</event>
<event>
 5   0  0.2350769E-03  0.9948356E+03  0.7818609E-02  0.9314227E-01
       -1   -1    0    0    0  501  0.00000000000E+00  0.00000000000E+00  0.31359977916E+03  0.31359977920E+03  0.50400001928E-02 0.  1.
        1   -1    0    0  501    0  0.00000000000E+00  0.00000000000E+00 -0.78898165904E+03  0.78898165906E+03  0.50400001928E-02 0. -1.
    10030    2    1    2    0    0  0.00000000000E+00  0.00000000000E+00 -0.47538187988E+03  0.11025814383E+04  0.99483561268E+03 0.  0.
        2    1    3    3  502    0 -0.12195861644E+03  0.34938927331E+02  0.29536794111E+03  0.32146050054E+03  0.25500000920E-02 0.  1.
       -2    1    3    3    0  502  0.12195861644E+03 -0.34938927331E+02 -0.77074982099E+03  0.78112093771E+03  0.25500000920E-02 0. -1.
</event>
<event>
 5   0  0.2313036E-03  0.9987844E+03  0.7818609E-02  0.9309879E-01
       -1   -1    0    0    0  501  0.00000000000E+00  0.00000000000E+00  0.48686238033E+03  0.48686238035E+03  0.50400001928E-02 0. -1.
        1   -1    0    0  501    0  0.00000000000E+00  0.00000000000E+00 -0.51224452629E+03  0.51224452632E+03  0.50400001928E-02 0.  1.
    10030    2    1    2    0    0  0.00000000000E+00  0.00000000000E+00 -0.25382145964E+02  0.99910690667E+03  0.99878444002E+03 0.  0.
        3    1    3    3  502    0 -0.15157128486E+03 -0.21872520072E+03  0.41003027858E+03  0.48881428721E+03  0.10100000352E+00 0. -1.
       -3    1    3    3    0  502  0.15157128486E+03  0.21872520072E+03 -0.43541242455E+03  0.51029261946E+03  0.10100000352E+00 0.  1.
</event>
<event>
 5   0  0.2327595E-03  0.9945200E+03  0.7818609E-02  0.9314576E-01
       -1   -1    0    0    0  501  0.00000000000E+00  0.00000000000E+00  0.52999850298E+03  0.52999850300E+03  0.50400001928E-02 0.  1.
        1   -1    0    0  501    0  0.00000000000E+00  0.00000000000E+00 -0.46654380262E+03  0.46654380265E+03  0.50400001928E-02 0. -1.
    10030    2    1    2    0    0  0.00000000000E+00  0.00000000000E+00  0.63454700362E+02  0.99654230565E+03  0.99452001888E+03 0.  0.
        5    1    3    3  502    0  0.27830656482E+03 -0.19581092993E+03 -0.33156879722E+03  0.47513831838E+03  0.46999998093E+01 0. -1.
       -5    1    3    3    0  502 -0.27830656482E+03  0.19581092993E+03  0.39502349758E+03  0.52140398727E+03  0.46999998093E+01 0.  1.
</event>
<event>
 5   0  0.3895011E-03  0.9993763E+03  0.7818609E-02  0.9309229E-01
        2   -1    0    0  501    0  0.00000000000E+00  0.00000000000E+00  0.57645337168E+03  0.57645337168E+03  0.25500000920E-02 0.  1.
       -2   -1    0    0    0  501  0.00000000000E+00  0.00000000000E+00 -0.43314562003E+03  0.43314562003E+03  0.25500000920E-02 0. -1.
    10030    2    1    2    0    0  0.00000000000E+00  0.00000000000E+00  0.14330775165E+03  0.10095989917E+04  0.99937631170E+03 0.  0.
        2    1    3    3  502    0  0.46241922206E+03  0.79896645258E+02 -0.10177995376E+03  0.48018139265E+03  0.25500000920E-02 0.  1.
       -2    1    3    3    0  502 -0.46241922206E+03 -0.79896645258E+02  0.24508770541E+03  0.52941759907E+03  0.25500000920E-02 0. -1.
</event>
<event>
 5   0  0.3895011E-03  0.9419962E+03  0.7818609E-02  0.9374555E-01
       -2   -1    0    0    0  501  0.00000000000E+00  0.00000000000E+00  0.26006403115E+03  0.26006403116E+03  0.25500000920E-02 0.  1.
        2   -1    0    0  501    0  0.00000000000E+00  0.00000000000E+00 -0.85301770701E+03  0.85301770701E+03  0.25500000920E-02 0. -1.
    10030    2    1    2    0    0  0.00000000000E+00  0.00000000000E+00 -0.59295367586E+03  0.11130817382E+04  0.94199622831E+03 0.  0.
        2    1    3    3  502    0  0.37036411612E+03 -0.26551085623E+03 -0.43715233003E+03  0.63148060378E+03  0.25500000920E-02 0. -1.
       -2    1    3    3    0  502 -0.37036411612E+03  0.26551085623E+03 -0.15580134582E+03  0.48160113440E+03  0.25500000920E-02 0.  1.
</event>
<event>
 5   0  0.3873874E-03  0.1000966E+04  0.7818609E-02  0.9307486E-01
       -2   -1    0    0    0  501  0.00000000000E+00  0.00000000000E+00  0.20360324412E+03  0.20360324414E+03  0.25500000920E-02 0. -1.
        2   -1    0    0  501    0  0.00000000000E+00  0.00000000000E+00 -0.12302506215E+04  0.12302506215E+04  0.25500000920E-02 0.  1.
    10030    2    1    2    0    0  0.00000000000E+00  0.00000000000E+00 -0.10266473774E+04  0.14338538656E+04  0.10009655691E+04 0.  0.
        5    1    3    3  502    0  0.43665219102E+03  0.13215020474E+03 -0.21859613682E+03  0.50590035932E+03  0.46999998093E+01 0.  1.
       -5    1    3    3    0  502 -0.43665219102E+03 -0.13215020474E+03 -0.80805124056E+03  0.92795350632E+03  0.46999998093E+01 0. -1.
</event>
<event>
 5   0  0.3826483E-03  0.9996407E+03  0.7818609E-02  0.9308939E-01
       -2   -1    0    0    0  501  0.00000000000E+00  0.00000000000E+00  0.17466883919E+03  0.17466883921E+03  0.25500000920E-02 0. -1.
        2   -1    0    0  501    0  0.00000000000E+00  0.00000000000E+00 -0.14302516875E+04  0.14302516875E+04  0.25500000920E-02 0.  1.
    10030    2    1    2    0    0  0.00000000000E+00  0.00000000000E+00 -0.12555828483E+04  0.16049205267E+04  0.99964073950E+03 0.  0.
        4    1    3    3  502    0  0.10630621378E+03  0.31080226886E+03 -0.12326181441E+04  0.12756363759E+04  0.12699999809E+01 0.  1.
       -4    1    3    3    0  502 -0.10630621378E+03 -0.31080226886E+03 -0.22964704163E+02  0.32928415078E+03  0.12699999809E+01 0. -1.
</event>
<event>
 5   0  0.2378609E-03  0.1011052E+04  0.7818609E-02  0.9296505E-01
        1   -1    0    0  501    0  0.00000000000E+00  0.00000000000E+00  0.25181641596E+04  0.25181641596E+04  0.50400001928E-02 0.  1.
       -1   -1    0    0    0  501  0.00000000000E+00  0.00000000000E+00 -0.10148531300E+03  0.10148531313E+03  0.50400001928E-02 0. -1.
    10030    2    1    2    0    0  0.00000000000E+00  0.00000000000E+00  0.24166788466E+04  0.26196494727E+04  0.10110522798E+04 0.  0.
        1    1    3    3  502    0 -0.27675464249E+02 -0.22648788430E+03  0.39525546518E+02  0.23157064130E+03  0.50400001928E-02 0. -1.
       -1    1    3    3    0  502  0.27675464249E+02  0.22648788430E+03  0.23771533001E+04  0.23880788315E+04  0.50400001928E-02 0.  1.
</event>
<event>
 5   0  0.3826483E-03  0.9980594E+03  0.7818609E-02  0.9310676E-01
       -2   -1    0    0    0  501  0.00000000000E+00  0.00000000000E+00  0.12011391929E+03  0.12011391932E+03  0.25500000920E-02 0. -1.
        2   -1    0    0  501    0  0.00000000000E+00  0.00000000000E+00 -0.20732871021E+04  0.20732871021E+04  0.25500000920E-02 0.  1.
    10030    2    1    2    0    0  0.00000000000E+00  0.00000000000E+00 -0.19531731828E+04  0.21934010214E+04  0.99805939639E+03 0.  0.
        4    1    3    3  502    0  0.24339327905E+03  0.21936731597E+02 -0.20393537013E+02  0.24523257886E+03  0.12699999809E+01 0. -1.
       -4    1    3    3    0  502 -0.24339327905E+03 -0.21936731597E+02 -0.19327796458E+04  0.19481684426E+04  0.12699999809E+01 0.  1.
</event>
<event>
 5   0  0.2405022E-03  0.9847522E+03  0.7818609E-02  0.9325428E-01
       -1   -1    0    0    0  501  0.00000000000E+00  0.00000000000E+00  0.14904335567E+04  0.14904335567E+04  0.50400001928E-02 0. -1.
        1   -1    0    0  501    0  0.00000000000E+00  0.00000000000E+00 -0.16266018667E+03  0.16266018675E+03  0.50400001928E-02 0.  1.
    10030    2    1    2    0    0  0.00000000000E+00  0.00000000000E+00  0.13277733700E+04  0.16530937435E+04  0.98475215284E+03 0.  0.
        4    1    3    3  502    0  0.33422268760E+03 -0.88867190354E+02  0.75553310079E+02  0.35399448864E+03  0.12699999809E+01 0.  1.
       -4    1    3    3    0  502 -0.33422268760E+03  0.88867190354E+02  0.12522200600E+04  0.12990992548E+04  0.12699999809E+01 0. -1.
</event>
<event>
 5   0  0.4026829E-03  0.9983457E+03  0.7818609E-02  0.9310361E-01
       -2   -1    0    0    0  501  0.00000000000E+00  0.00000000000E+00  0.22194112930E+03  0.22194112931E+03  0.25500000920E-02 0. -1.
        2   -1    0    0  501    0  0.00000000000E+00  0.00000000000E+00 -0.11227010979E+04  0.11227010979E+04  0.25500000920E-02 0.  1.
    10030    2    1    2    0    0  0.00000000000E+00  0.00000000000E+00 -0.90075996861E+03  0.13446422272E+04  0.99834573079E+03 0.  0.
        1    1    3    3  502    0 -0.16971590887E+03 -0.43389767569E+03 -0.20905755463E+03  0.51066206425E+03  0.50400001928E-02 0. -1.
       -1    1    3    3    0  502  0.16971590887E+03  0.43389767569E+03 -0.69170241398E+03  0.83398016297E+03  0.50400001928E-02 0.  1.
</event>
<event>
 5   0  0.2313036E-03  0.9969646E+03  0.7818609E-02  0.9311880E-01
        1   -1    0    0  501    0  0.00000000000E+00  0.00000000000E+00  0.67479278577E+03  0.67479278579E+03  0.50400001928E-02 0. -1.
       -1   -1    0    0    0  501  0.00000000000E+00  0.00000000000E+00 -0.36823840186E+03  0.36823840190E+03  0.50400001928E-02 0.  1.
    10030    2    1    2    0    0  0.00000000000E+00  0.00000000000E+00  0.30655438390E+03  0.10430311877E+04  0.99696462735E+03 0.  0.
        3    1    3    3  502    0  0.36384602032E+01 -0.13555654757E+03 -0.34857044312E+03  0.37401895673E+03  0.10100000352E+00 0.  1.
       -3    1    3    3    0  502 -0.36384602032E+01  0.13555654757E+03  0.65512482702E+03  0.66901223095E+03  0.10100000352E+00 0. -1.
</event>
<event>
 5   0  0.4140860E-03  0.1005133E+04  0.7818609E-02  0.9302932E-01
       -2   -1    0    0    0  501  0.00000000000E+00  0.00000000000E+00  0.53513768829E+03  0.53513768830E+03  0.25500000920E-02 0.  1.
        2   -1    0    0  501    0  0.00000000000E+00  0.00000000000E+00 -0.47197808620E+03  0.47197808621E+03  0.25500000920E-02 0. -1.
    10030    2    1    2    0    0  0.00000000000E+00  0.00000000000E+00  0.63159602088E+02  0.10071157745E+04  0.10051333483E+04 0.  0.
        3    1    3    3  502    0 -0.54209510991E+01  0.49393045576E+03  0.12437222784E+03  0.50937721101E+03  0.10100000352E+00 0.  1.
       -3    1    3    3    0  502  0.54209510991E+01 -0.49393045576E+03 -0.61212625751E+02  0.49773856350E+03  0.10100000352E+00 0. -1.
</event>
<event>
 5   0  0.2327595E-03  0.1001373E+04  0.7818609E-02  0.9307040E-01
       -1   -1    0    0    0  501  0.00000000000E+00  0.00000000000E+00  0.67390315059E+03  0.67390315061E+03  0.50400001928E-02 0.  1.
        1   -1    0    0  501    0  0.00000000000E+00  0.00000000000E+00 -0.37199269202E+03  0.37199269205E+03  0.50400001928E-02 0. -1.
    10030    2    1    2    0    0  0.00000000000E+00  0.00000000000E+00  0.30191045857E+03  0.10458958427E+04  0.10013731516E+04 0.  0.
        5    1    3    3  502    0  0.44782474057E+03  0.19242626095E+03  0.31456342421E+02  0.48845312533E+03  0.46999998093E+01 0. -1.
       -5    1    3    3    0  502 -0.44782474057E+03 -0.19242626095E+03  0.27045411615E+03  0.55744271734E+03  0.46999998093E+01 0.  1.
</event>
<event>
 5   0  0.4026829E-03  0.9898225E+03  0.7818609E-02  0.9319778E-01
       -2   -1    0    0    0  501  0.00000000000E+00  0.00000000000E+00  0.21666434587E+03  0.21666434589E+03  0.25500000920E-02 0. -1.
        2   -1    0    0  501    0  0.00000000000E+00  0.00000000000E+00 -0.11304912450E+04  0.11304912450E+04  0.25500000920E-02 0.  1.
    10030    2    1    2    0    0  0.00000000000E+00  0.00000000000E+00 -0.91382689911E+03  0.13471555909E+04  0.98982250150E+03 0.  0.
        1    1    3    3  502    0 -0.30708873761E+03  0.41055885381E+02 -0.98217773438E+03  0.10298845471E+04  0.50400001928E-02 0.  1.
       -1    1    3    3    0  502  0.30708873761E+03 -0.41055885381E+02  0.68350835266E+02  0.31727104374E+03  0.50400001928E-02 0. -1.
</event>
<event>
 5   0  0.4140860E-03  0.1004048E+04  0.7818609E-02  0.9304116E-01
        2   -1    0    0  501    0  0.00000000000E+00  0.00000000000E+00  0.49170979082E+03  0.49170979082E+03  0.25500000920E-02 0. -1.
       -2   -1    0    0    0  501  0.00000000000E+00  0.00000000000E+00 -0.51255453714E+03  0.51255453715E+03  0.25500000920E-02 0.  1.
    10030    2    1    2    0    0  0.00000000000E+00  0.00000000000E+00 -0.20844746324E+02  0.10042643280E+04  0.10040479754E+04 0.  0.
        3    1    3    3  502    0  0.35441780554E+03 -0.12806247931E+03 -0.34218058671E+03  0.50901821540E+03  0.10100000352E+00 0.  1.
       -3    1    3    3    0  502 -0.35441780554E+03  0.12806247931E+03  0.32133584039E+03  0.49524611256E+03  0.10100000352E+00 0. -1.
</event>
<event>
 5   0  0.2327595E-03  0.9976628E+03  0.7818609E-02  0.9311112E-01
       -1   -1    0    0    0  501  0.00000000000E+00  0.00000000000E+00  0.72396903517E+03  0.72396903518E+03  0.50400001928E-02 0. -1.
        1   -1    0    0  501    0  0.00000000000E+00  0.00000000000E+00 -0.34370638160E+03  0.34370638164E+03  0.50400001928E-02 0.  1.
    10030    2    1    2    0    0  0.00000000000E+00  0.00000000000E+00  0.38026265357E+03  0.10676754168E+04  0.99766282379E+03 0.  0.
        5    1    3    3  502    0 -0.26679655109E+03  0.35170147969E+03 -0.58408653097E+02  0.44531785417E+03  0.46999998093E+01 0.  1.
       -5    1    3    3    0  502  0.26679655109E+03 -0.35170147969E+03  0.43867130667E+03  0.62235756265E+03  0.46999998093E+01 0. -1.
</event>
<event>
 5   0  0.2405022E-03  0.1007935E+04  0.7818609E-02  0.9299884E-01
        1   -1    0    0  501    0  0.00000000000E+00  0.00000000000E+00  0.43770456162E+03  0.43770456164E+03  0.50400001928E-02 0. -1.
       -1   -1    0    0    0  501  0.00000000000E+00  0.00000000000E+00 -0.58026232800E+03  0.58026232803E+03  0.50400001928E-02 0.  1.
    10030    2    1    2    0    0  0.00000000000E+00  0.00000000000E+00 -0.14255776639E+03  0.10179668897E+04  0.10079354502E+04 0.  0.
        4    1    3    3  502    0  0.11782092026E+01  0.21945830611E+02 -0.57977650582E+03  0.58019429269E+03  0.12699999809E+01 0.  1.
       -4    1    3    3    0  502 -0.11782092026E+01 -0.21945830611E+02  0.43721873944E+03  0.43777259699E+03  0.12699999809E+01 0. -1.
</event>
<event>
 5   0  0.2350769E-03  0.1008484E+04  0.7818609E-02  0.9299288E-01
       -1   -1    0    0    0  501  0.00000000000E+00  0.00000000000E+00  0.29373850634E+03  0.29373850638E+03  0.50400001928E-02 0.  1.
        1   -1    0    0  501    0  0.00000000000E+00  0.00000000000E+00 -0.86560056898E+03  0.86560056900E+03  0.50400001928E-02 0. -1.
    10030    2    1    2    0    0  0.00000000000E+00  0.00000000000E+00 -0.57186206264E+03  0.11593390754E+04  0.10084844436E+04 0.  0.
        2    1    3    3  502    0 -0.21502689351E+03 -0.42393509730E+03 -0.92531640542E+02  0.48427227482E+03  0.25500000920E-02 0.  1.
       -2    1    3    3    0  502  0.21502689351E+03  0.42393509730E+03 -0.47933042210E+03  0.67506680056E+03  0.25500000920E-02 0. -1.
</event>
<event>
 5   0  0.3826483E-03  0.9991160E+03  0.7818609E-02  0.9309515E-01
       -2   -1    0    0    0  501  0.00000000000E+00  0.00000000000E+00  0.76796295897E+03  0.76796295897E+03  0.25500000920E-02 0. -1.
        2   -1    0    0  501    0  0.00000000000E+00  0.00000000000E+00 -0.32496122094E+03  0.32496122095E+03  0.25500000920E-02 0.  1.
    10030    2    1    2    0    0  0.00000000000E+00  0.00000000000E+00  0.44300173803E+03  0.10929241799E+04  0.99911597082E+03 0.  0.
        4    1    3    3  502    0 -0.19335845689E+03 -0.34937008551E+03 -0.10686628465E+03  0.41336299447E+03  0.12699999809E+01 0.  1.
       -4    1    3    3    0  502  0.19335845689E+03  0.34937008551E+03  0.54986802268E+03  0.67956118545E+03  0.12699999809E+01 0. -1.
</event>
<event>
 5   0  0.4026829E-03  0.1000503E+04  0.7818609E-02  0.9307993E-01
       -2   -1    0    0    0  501  0.00000000000E+00  0.00000000000E+00  0.17006135261E+04  0.17006135261E+04  0.25500000920E-02 0.  1.
        2   -1    0    0  501    0  0.00000000000E+00  0.00000000000E+00 -0.14715376574E+03  0.14715376576E+03  0.25500000920E-02 0. -1.
    10030    2    1    2    0    0  0.00000000000E+00  0.00000000000E+00  0.15534597603E+04  0.18477672918E+04  0.10005032423E+04 0.  0.
        1    1    3    3  502    0  0.13867575718E+03  0.52246739792E+02  0.16591454597E+04  0.16657503846E+04  0.50400001928E-02 0.  1.
       -1    1    3    3    0  502 -0.13867575718E+03 -0.52246739792E+02 -0.10568569933E+03  0.18201690723E+03  0.50400001928E-02 0. -1.
</event>
<event>
 5   0  0.2378609E-03  0.1015952E+04  0.7818609E-02  0.9291220E-01
       -1   -1    0    0    0  501  0.00000000000E+00  0.00000000000E+00  0.39625156675E+03  0.39625156678E+03  0.50400001928E-02 0. -1.
        1   -1    0    0  501    0  0.00000000000E+00  0.00000000000E+00 -0.65120193219E+03  0.65120193221E+03  0.50400001928E-02 0.  1.
    10030    2    1    2    0    0  0.00000000000E+00  0.00000000000E+00 -0.25495036545E+03  0.10474534990E+04  0.10159523334E+04 0.  0.
        1    1    3    3  502    0  0.44388034318E+03  0.54125543730E+02  0.12099622175E+03  0.46324876605E+03  0.50400001928E-02 0. -1.
       -1    1    3    3    0  502 -0.44388034318E+03 -0.54125543730E+02 -0.37594658719E+03  0.58420473294E+03  0.50400001928E-02 0.  1.
</event>
<event>
 5   0  0.3873874E-03  0.9709439E+03  0.7818609E-02  0.9341000E-01
       -2   -1    0    0    0  501  0.00000000000E+00  0.00000000000E+00  0.24081171256E+03  0.24081171257E+03  0.25500000920E-02 0. -1.
        2   -1    0    0  501    0  0.00000000000E+00  0.00000000000E+00 -0.97870249751E+03  0.97870249751E+03  0.25500000920E-02 0.  1.
    10030    2    1    2    0    0  0.00000000000E+00  0.00000000000E+00 -0.73789078495E+03  0.12195142101E+04  0.97094392118E+03 0.  0.
        5    1    3    3  502    0  0.25868277933E+03 -0.30988288029E+03 -0.70764131031E+03  0.81469165570E+03  0.46999998093E+01 0.  1.
       -5    1    3    3    0  502 -0.25868277933E+03  0.30988288029E+03 -0.30249474643E+02  0.40482255438E+03  0.46999998093E+01 0. -1.
</event>
<event>
 5   0  0.2405022E-03  0.1028908E+04  0.7818609E-02  0.9277395E-01
        1   -1    0    0  501    0  0.00000000000E+00  0.00000000000E+00  0.95577268016E+03  0.95577268017E+03  0.50400001928E-02 0.  1.
       -1   -1    0    0    0  501  0.00000000000E+00  0.00000000000E+00 -0.27691014532E+03  0.27691014537E+03  0.50400001928E-02 0. -1.
    10030    2    1    2    0    0  0.00000000000E+00  0.00000000000E+00  0.67886253484E+03  0.12326828255E+04  0.10289084542E+04 0.  0.
        4    1    3    3  502    0 -0.29840365349E+03  0.73282122244E+02  0.83375759644E+03  0.88857658779E+03  0.12699999809E+01 0.  1.
       -4    1    3    3    0  502  0.29840365349E+03 -0.73282122244E+02 -0.15489506160E+03  0.34410623776E+03  0.12699999809E+01 0. -1.
</event>
<event>
 5   0  0.2313036E-03  0.9974077E+03  0.7818609E-02  0.9311393E-01
       -1   -1    0    0    0  501  0.00000000000E+00  0.00000000000E+00  0.65320794895E+03  0.65320794897E+03  0.50400001928E-02 0.  1.
        1   -1    0    0  501    0  0.00000000000E+00  0.00000000000E+00 -0.38074476627E+03  0.38074476631E+03  0.50400001928E-02 0. -1.
    10030    2    1    2    0    0  0.00000000000E+00  0.00000000000E+00  0.27246318268E+03  0.10339527153E+04  0.99740765563E+03 0.  0.
        3    1    3    3  502    0  0.32366982492E+03 -0.25877536752E+02 -0.25615233785E+03  0.41357687660E+03  0.10100000352E+00 0. -1.
       -3    1    3    3    0  502 -0.32366982492E+03  0.25877536752E+02  0.52861552053E+03  0.62037583868E+03  0.10100000352E+00 0.  1.
</event>
<event>
 5   0  0.1548000E-03  0.1002068E+04  0.7818609E-02  0.9306280E-01
        3   -1    0    0  501    0  0.00000000000E+00  0.00000000000E+00  0.28883726964E+03  0.28883728730E+03  0.10100000352E+00 0.  1.
       -3   -1    0    0    0  501  0.00000000000E+00  0.00000000000E+00 -0.86912203471E+03  0.86912204058E+03  0.10100000352E+00 0. -1.
    10030    2    1    2    0    0  0.00000000000E+00  0.00000000000E+00 -0.58028476507E+03  0.11579593279E+04  0.10020675608E+04 0.  0.
        1    1    3    3  502    0 -0.22548920818E+03 -0.43461980159E+03 -0.41295450299E+03  0.64052414201E+03  0.50400001928E-02 0. -1.
       -1    1    3    3    0  502  0.22548920818E+03  0.43461980159E+03 -0.16733026208E+03  0.51743518586E+03  0.50400001928E-02 0.  1.
</event>
<event>
 5   0  0.2350769E-03  0.9995835E+03  0.7818609E-02  0.9309002E-01
       -1   -1    0    0    0  501  0.00000000000E+00  0.00000000000E+00  0.19757317220E+03  0.19757317226E+03  0.50400001928E-02 0.  1.
        1   -1    0    0  501    0  0.00000000000E+00  0.00000000000E+00 -0.12643002410E+04  0.12643002410E+04  0.50400001928E-02 0. -1.
    10030    2    1    2    0    0  0.00000000000E+00  0.00000000000E+00 -0.10667270688E+04  0.14618734133E+04  0.99958353186E+03 0.  0.
        2    1    3    3  502    0 -0.33102380640E+03  0.24134275850E+03 -0.95207490682E+03  0.10364698335E+04  0.25500000920E-02 0. -1.
       -2    1    3    3    0  502  0.33102380640E+03 -0.24134275850E+03 -0.11465216202E+03  0.42540357985E+03  0.25500000920E-02 0.  1.
</event>
<event>
 5   0  0.1548000E-03  0.9970260E+03  0.7818609E-02  0.9311813E-01
       -3   -1    0    0    0  501  0.00000000000E+00  0.00000000000E+00  0.12138539551E+04  0.12138539593E+04  0.10100000352E+00 0. -1.
        3   -1    0    0  501    0  0.00000000000E+00  0.00000000000E+00 -0.20473235394E+03  0.20473237885E+03  0.10100000352E+00 0.  1.
    10030    2    1    2    0    0  0.00000000000E+00  0.00000000000E+00  0.10091216012E+04  0.14185863382E+04  0.99702597403E+03 0.  0.
        3    1    3    3  502    0 -0.19961804541E+03 -0.10709099527E+01 -0.14538306736E+03  0.24695092099E+03  0.10100000352E+00 0.  1.
       -3    1    3    3    0  502  0.19961804541E+03  0.10709099527E+01  0.11545046686E+04  0.11716354172E+04  0.10100000352E+00 0. -1.
</event>
<event>
 5   0  0.3826483E-03  0.9982944E+03  0.7818609E-02  0.9310417E-01
       -2   -1    0    0    0  501  0.00000000000E+00  0.00000000000E+00  0.82499585885E+03  0.82499585886E+03  0.25500000920E-02 0.  1.
        2   -1    0    0  501    0  0.00000000000E+00  0.00000000000E+00 -0.30199897866E+03  0.30199897867E+03  0.25500000920E-02 0. -1.
    10030    2    1    2    0    0  0.00000000000E+00  0.00000000000E+00  0.52299688019E+03  0.11269948375E+04  0.99829435896E+03 0.  0.
        4    1    3    3  502    0  0.44824561502E+03  0.21419546632E+03  0.31613707457E+03  0.58885320072E+03  0.12699999809E+01 0.  1.
       -4    1    3    3    0  502 -0.44824561502E+03 -0.21419546632E+03  0.20685980562E+03  0.53814163681E+03  0.12699999809E+01 0. -1.
</event>
<event>
 5   0  0.2378609E-03  0.9701918E+03  0.7818609E-02  0.9341856E-01
        1   -1    0    0  501    0  0.00000000000E+00  0.00000000000E+00  0.83057903430E+03  0.83057903432E+03  0.50400001928E-02 0. -1.
       -1   -1    0    0    0  501  0.00000000000E+00  0.00000000000E+00 -0.28331804033E+03  0.28331804037E+03  0.50400001928E-02 0.  1.
    10030    2    1    2    0    0  0.00000000000E+00  0.00000000000E+00  0.54726099397E+03  0.11138970747E+04  0.97019178386E+03 0.  0.
        1    1    3    3  502    0  0.21472918614E+03  0.39637001842E+03  0.47933386574E+03  0.65801122312E+03  0.50400001928E-02 0. -1.
       -1    1    3    3    0  502 -0.21472918614E+03 -0.39637001842E+03  0.67927128231E+02  0.45588585156E+03  0.50400001928E-02 0.  1.
</event>
<event>
 5   0  0.2313036E-03  0.1004551E+04  0.7818609E-02  0.9303567E-01
       -1   -1    0    0    0  501  0.00000000000E+00  0.00000000000E+00  0.61386758121E+03  0.61386758123E+03  0.50400001928E-02 0. -1.
        1   -1    0    0  501    0  0.00000000000E+00  0.00000000000E+00 -0.41096946069E+03  0.41096946072E+03  0.50400001928E-02 0.  1.
    10030    2    1    2    0    0  0.00000000000E+00  0.00000000000E+00  0.20289812053E+03  0.10248370420E+04  0.10045513005E+04 0.  0.
        3    1    3    3  502    0 -0.21813677626E+03  0.23910512216E+03  0.49329634281E+03  0.58999678358E+03  0.10100000352E+00 0. -1.
       -3    1    3    3    0  502  0.21813677626E+03 -0.23910512216E+03 -0.29039822228E+03  0.43484025838E+03  0.10100000352E+00 0.  1.
</event>
<event>
 5   0  0.3895011E-03  0.1001989E+04  0.7818609E-02  0.9306366E-01
       -2   -1    0    0    0  501  0.00000000000E+00  0.00000000000E+00  0.38053995220E+03  0.38053995220E+03  0.25500000920E-02 0.  1.
        2   -1    0    0  501    0  0.00000000000E+00  0.00000000000E+00 -0.65957723197E+03  0.65957723197E+03  0.25500000920E-02 0. -1.
    10030    2    1    2    0    0  0.00000000000E+00  0.00000000000E+00 -0.27903727977E+03  0.10401171842E+04  0.10019889986E+04 0.  0.
        2    1    3    3  502    0 -0.34143469569E+03  0.13603750183E+03 -0.49293189515E+03  0.61487047952E+03  0.25500000920E-02 0. -1.
       -2    1    3    3    0  502  0.34143469569E+03 -0.13603750183E+03  0.21389461538E+03  0.42524670465E+03  0.25500000920E-02 0.  1.
</event>
<event>
 5   0  0.3826483E-03  0.9753945E+03  0.7818609E-02  0.9335951E-01
       -2   -1    0    0    0  501  0.00000000000E+00  0.00000000000E+00  0.75471992713E+03  0.75471992713E+03  0.25500000920E-02 0.  1.
        2   -1    0    0  501    0  0.00000000000E+00  0.00000000000E+00 -0.31514817375E+03  0.31514817376E+03  0.25500000920E-02 0. -1.
    10030    2    1    2    0    0  0.00000000000E+00  0.00000000000E+00  0.43957175338E+03  0.10698681009E+04  0.97539449811E+03 0.  0.
        4    1    3    3  502    0  0.31562405461E+03  0.31465180736E+03  0.43701528817E+03  0.62418609302E+03  0.12699999809E+01 0.  1.
       -4    1    3    3    0  502 -0.31562405461E+03 -0.31465180736E+03  0.25564652113E+01  0.44568200787E+03  0.12699999809E+01 0. -1.
</event>
<event>
 5   0  0.2327595E-03  0.9969852E+03  0.7818609E-02  0.9311858E-01
       -1   -1    0    0    0  501  0.00000000000E+00  0.00000000000E+00  0.29682176759E+03  0.29682176763E+03  0.50400001928E-02 0. -1.
        1   -1    0    0  501    0  0.00000000000E+00  0.00000000000E+00 -0.83718551405E+03  0.83718551407E+03  0.50400001928E-02 0.  1.
    10030    2    1    2    0    0  0.00000000000E+00  0.00000000000E+00 -0.54036374647E+03  0.11340072817E+04  0.99698522379E+03 0.  0.
        5    1    3    3  502    0  0.26648227687E+03 -0.41844026821E+03 -0.21483495949E+03  0.54063038368E+03  0.46999998093E+01 0.  1.
       -5    1    3    3    0  502 -0.26648227687E+03  0.41844026821E+03 -0.32552878698E+03  0.59337689801E+03  0.46999998093E+01 0. -1.
</event>
<event>
 5   0  0.3826483E-03  0.1013254E+04  0.7818609E-02  0.9294126E-01
        2   -1    0    0  501    0  0.00000000000E+00  0.00000000000E+00  0.13968027756E+04  0.13968027756E+04  0.25500000920E-02 0. -1.
       -2   -1    0    0    0  501  0.00000000000E+00  0.00000000000E+00 -0.18375606973E+03  0.18375606975E+03  0.25500000920E-02 0.  1.
    10030    2    1    2    0    0  0.00000000000E+00  0.00000000000E+00  0.12130467059E+04  0.15805588454E+04  0.10132541404E+04 0.  0.
        4    1    3    3  502    0 -0.16349945558E+03 -0.43198817889E+03  0.93120230352E+03  0.10394639011E+04  0.12699999809E+01 0. -1.
       -4    1    3    3    0  502  0.16349945558E+03  0.43198817889E+03  0.28184440236E+03  0.54109494428E+03  0.12699999809E+01 0.  1.
</event>
<event>
 5   0  0.2350769E-03  0.1000252E+04  0.7818609E-02  0.9308268E-01
       -1   -1    0    0    0  501  0.00000000000E+00  0.00000000000E+00  0.23950883310E+03  0.23950883315E+03  0.50400001928E-02 0. -1.
        1   -1    0    0  501    0  0.00000000000E+00  0.00000000000E+00 -0.10443299775E+04  0.10443299775E+04  0.50400001928E-02 0.  1.
    10030    2    1    2    0    0  0.00000000000E+00  0.00000000000E+00 -0.80482114436E+03  0.12838388106E+04  0.10002524768E+04 0.  0.
        2    1    3    3  502    0  0.19578339005E+03  0.22566612064E+03 -0.91721027614E+03  0.96464036018E+03  0.25500000920E-02 0.  1.
       -2    1    3    3    0  502 -0.19578339005E+03 -0.22566612064E+03  0.11238913178E+03  0.31919845045E+03  0.25500000920E-02 0. -1.
</event>
<event>
 5   0  0.3873874E-03  0.1003141E+04  0.7818609E-02  0.9305106E-01
       -2   -1    0    0    0  501  0.00000000000E+00  0.00000000000E+00  0.47807196524E+03  0.47807196525E+03  0.25500000920E-02 0. -1.
        2   -1    0    0  501    0  0.00000000000E+00  0.00000000000E+00 -0.52622423423E+03  0.52622423424E+03  0.25500000920E-02 0.  1.
    10030    2    1    2    0    0  0.00000000000E+00  0.00000000000E+00 -0.48152268994E+02  0.10042961995E+04  0.10031411742E+04 0.  0.
        5    1    3    3  502    0  0.17899671625E+02 -0.29506048458E+03 -0.42972148066E+03  0.52159728598E+03  0.46999998093E+01 0.  1.
       -5    1    3    3    0  502 -0.17899671625E+02  0.29506048458E+03  0.38156921167E+03  0.48269891350E+03  0.46999998093E+01 0. -1.
</event>
<event>
 5   0  0.2350769E-03  0.9844206E+03  0.7818609E-02  0.9325799E-01
       -1   -1    0    0    0  501  0.00000000000E+00  0.00000000000E+00  0.96886827654E+03  0.96886827655E+03  0.50400001928E-02 0.  1.
        1   -1    0    0  501    0  0.00000000000E+00  0.00000000000E+00 -0.25005566746E+03  0.25005566752E+03  0.50400001928E-02 0. -1.
    10030    2    1    2    0    0  0.00000000000E+00  0.00000000000E+00  0.71881260907E+03  0.12189239441E+04  0.98442064914E+03 0.  0.
        2    1    3    3  502    0 -0.30208439025E+03 -0.37400167573E+03  0.49008793293E+03  0.68652633911E+03  0.25500000920E-02 0.  1.
       -2    1    3    3    0  502  0.30208439025E+03  0.37400167573E+03  0.22872467614E+03  0.53239760496E+03  0.25500000920E-02 0. -1.
</event>
<event>
 5   0  0.4140860E-03  0.1005198E+04  0.7818609E-02  0.9302862E-01
       -2   -1    0    0    0  501  0.00000000000E+00  0.00000000000E+00  0.24019444758E+03  0.24019444759E+03  0.25500000920E-02 0.  1.
        2   -1    0    0  501    0  0.00000000000E+00  0.00000000000E+00 -0.10516720448E+04  0.10516720448E+04  0.25500000920E-02 0. -1.
    10030    2    1    2    0    0  0.00000000000E+00  0.00000000000E+00 -0.81147759719E+03  0.12918664924E+04  0.10051980618E+04 0.  0.
        3    1    3    3  502    0 -0.40787208355E+03  0.23128191901E+01 -0.78315657743E+03  0.88300578744E+03  0.10100000352E+00 0. -1.
       -3    1    3    3    0  502  0.40787208355E+03 -0.23128191901E+01 -0.28321019763E+02  0.40886070493E+03  0.10100000352E+00 0.  1.
</event>
<event>
 5   0  0.1548000E-03  0.9946784E+03  0.7818609E-02  0.9314401E-01
       -4   -1    0    0    0  501  0.00000000000E+00  0.00000000000E+00  0.47857672483E+03  0.47857840992E+03  0.12699999809E+01 0.  1.
        4   -1    0    0  501    0  0.00000000000E+00  0.00000000000E+00 -0.51683391781E+03  0.51683547817E+03  0.12699999809E+01 0. -1.
    10030    2    1    2    0    0  0.00000000000E+00  0.00000000000E+00 -0.38257192983E+02  0.99541388810E+03  0.99467843839E+03 0.  0.
        2    1    3    3  502    0 -0.46235178661E+03 -0.63919857430E+01 -0.20239309823E+03  0.50475043168E+03  0.25500000920E-02 0. -1.
       -2    1    3    3    0  502  0.46235178661E+03  0.63919857430E+01  0.16413590525E+03  0.49066345642E+03  0.25500000920E-02 0.  1.
</event>
<event>
 5   0  0.3895011E-03  0.1009630E+04  0.7818609E-02  0.9298045E-01
        2   -1    0    0  501    0  0.00000000000E+00  0.00000000000E+00  0.13663680520E+04  0.13663680520E+04  0.25500000920E-02 0.  1.
       -2   -1    0    0    0  501  0.00000000000E+00  0.00000000000E+00 -0.18650770169E+03  0.18650770170E+03  0.25500000920E-02 0. -1.
    10030    2    1    2    0    0  0.00000000000E+00  0.00000000000E+00  0.11798603503E+04  0.15528757537E+04  0.10096299620E+04 0.  0.
        2    1    3    3  502    0  0.45386020630E+03 -0.87840559121E+02  0.90186960586E+03  0.10134465140E+04  0.25500000920E-02 0.  1.
       -2    1    3    3    0  502 -0.45386020630E+03  0.87840559121E+02  0.27799074449E+03  0.53942923978E+03  0.25500000920E-02 0. -1.
</event>
<event>
 5   0  0.1548000E-03  0.9951233E+03  0.7818609E-02  0.9313910E-01
        3   -1    0    0  501    0  0.00000000000E+00  0.00000000000E+00  0.29729439291E+03  0.29729441006E+03  0.10100000352E+00 0.  1.
       -3   -1    0    0    0  501  0.00000000000E+00  0.00000000000E+00 -0.83273552842E+03  0.83273553454E+03  0.10100000352E+00 0. -1.
    10030    2    1    2    0    0  0.00000000000E+00  0.00000000000E+00 -0.53544113551E+03  0.11300299446E+04  0.99512334215E+03 0.  0.
        2    1    3    3  502    0 -0.36973710570E+03  0.28575049369E+03 -0.46179551815E+03  0.65697334235E+03  0.25500000920E-02 0. -1.
       -2    1    3    3    0  502  0.36973710570E+03 -0.28575049369E+03 -0.73645617358E+02  0.47305660225E+03  0.25500000920E-02 0.  1.
</event>
<event>
 5   0  0.3826483E-03  0.9836001E+03  0.7818609E-02  0.9326717E-01
        2   -1    0    0  501    0  0.00000000000E+00  0.00000000000E+00  0.11306577356E+04  0.11306577356E+04  0.25500000920E-02 0. -1.
       -2   -1    0    0    0  501  0.00000000000E+00  0.00000000000E+00 -0.21391733203E+03  0.21391733205E+03  0.25500000920E-02 0.  1.
    10030    2    1    2    0    0  0.00000000000E+00  0.00000000000E+00  0.91674040355E+03  0.13445750676E+04  0.98360009404E+03 0.  0.
        4    1    3    3  502    0  0.15976424867E+03  0.14111255366E+03  0.10642249659E+04  0.10853634225E+04  0.12699999809E+01 0. -1.
       -4    1    3    3    0  502 -0.15976424867E+03 -0.14111255366E+03 -0.14748456233E+03  0.25921164515E+03  0.12699999809E+01 0.  1.
</event>
<event>
 5   0  0.3873874E-03  0.1109394E+04  0.7818609E-02  0.9196084E-01
       -2   -1    0    0    0  501  0.00000000000E+00  0.00000000000E+00  0.55089621455E+03  0.55089621455E+03  0.25500000920E-02 0.  1.
        2   -1    0    0  501    0  0.00000000000E+00  0.00000000000E+00 -0.55852413227E+03  0.55852413227E+03  0.25500000920E-02 0. -1.
    10030    2    1    2    0    0  0.00000000000E+00  0.00000000000E+00 -0.76279177178E+01  0.11094203468E+04  0.11093941233E+04 0.  0.
        5    1    3    3  502    0  0.45941746156E+02 -0.47536755073E+03  0.27829515157E+03  0.55277050727E+03  0.46999998093E+01 0.  1.
       -5    1    3    3    0  502 -0.45941746156E+02  0.47536755073E+03 -0.28592306929E+03  0.55664983955E+03  0.46999998093E+01 0. -1.
</event>
<event>
 5   0  0.2405022E-03  0.1004495E+04  0.7818609E-02  0.9303629E-01
        1   -1    0    0  501    0  0.00000000000E+00  0.00000000000E+00  0.98253372784E+03  0.98253372785E+03  0.50400001928E-02 0.  1.
       -1   -1    0    0    0  501  0.00000000000E+00  0.00000000000E+00 -0.25673661105E+03  0.25673661110E+03  0.50400001928E-02 0. -1.
    10030    2    1    2    0    0  0.00000000000E+00  0.00000000000E+00  0.72579711679E+03  0.12392703390E+04  0.10044946582E+04 0.  0.
        4    1    3    3  502    0 -0.15212199929E+03  0.12061213966E+03 -0.20857377316E+03  0.28494389387E+03  0.12699999809E+01 0. -1.
       -4    1    3    3    0  502  0.15212199929E+03 -0.12061213966E+03  0.93437088995E+03  0.95432644509E+03  0.12699999809E+01 0.  1.
</event>
<event>
 5   0  0.1548000E-03  0.1026096E+04  0.7818609E-02  0.9280378E-01
       -4   -1    0    0    0  501  0.00000000000E+00  0.00000000000E+00  0.15482215631E+03  0.15482736510E+03  0.12699999809E+01 0. -1.
        4   -1    0    0  501    0  0.00000000000E+00  0.00000000000E+00 -0.17000983651E+04  0.17000988395E+04  0.12699999809E+01 0.  1.
    10030    2    1    2    0    0  0.00000000000E+00  0.00000000000E+00 -0.15452762088E+04  0.18549262046E+04  0.10260958352E+04 0.  0.
        4    1    3    3  502    0 -0.82447786434E+02 -0.42311684676E+03 -0.26973527468E+03  0.50851178434E+03  0.12699999809E+01 0. -1.
       -4    1    3    3    0  502  0.82447786434E+02  0.42311684676E+03 -0.12755409341E+04  0.13464144203E+04  0.12699999809E+01 0.  1.
</event>
<event>
 5   0  0.3873874E-03  0.9937562E+03  0.7818609E-02  0.9315419E-01
       -2   -1    0    0    0  501  0.00000000000E+00  0.00000000000E+00  0.25863535801E+03  0.25863535803E+03  0.25500000920E-02 0. -1.
        2   -1    0    0  501    0  0.00000000000E+00  0.00000000000E+00 -0.95457893135E+03  0.95457893136E+03  0.25500000920E-02 0.  1.
    10030    2    1    2    0    0  0.00000000000E+00  0.00000000000E+00 -0.69594357334E+03  0.12132142894E+04  0.99375623504E+03 0.  0.
        5    1    3    3  502    0 -0.32036582399E+03 -0.70958248103E+02  0.10751073216E+03  0.34532590647E+03  0.46999998093E+01 0. -1.
       -5    1    3    3    0  502  0.32036582399E+03  0.70958248103E+02 -0.80345430550E+03  0.86788838291E+03  0.46999998093E+01 0.  1.
</event>
<event>
 5   0  0.2313036E-03  0.9986229E+03  0.7818609E-02  0.9310056E-01
       -1   -1    0    0    0  501  0.00000000000E+00  0.00000000000E+00  0.22812362813E+03  0.22812362819E+03  0.50400001928E-02 0. -1.
        1   -1    0    0  501    0  0.00000000000E+00  0.00000000000E+00 -0.10928807747E+04  0.10928807747E+04  0.50400001928E-02 0.  1.
    10030    2    1    2    0    0  0.00000000000E+00  0.00000000000E+00 -0.86475714656E+03  0.13210044029E+04  0.99862290677E+03 0.  0.
        3    1    3    3  502    0 -0.14362507564E+03  0.14024020533E+03  0.17239522094E+03  0.26460461059E+03  0.10100000352E+00 0. -1.
       -3    1    3    3    0  502  0.14362507564E+03 -0.14024020533E+03 -0.10371523675E+04  0.10563997923E+04  0.10100000352E+00 0.  1.
</event>
<event>
 5   0  0.4026829E-03  0.1001035E+04  0.7818609E-02  0.9307411E-01
        2   -1    0    0  501    0  0.00000000000E+00  0.00000000000E+00  0.91662060585E+03  0.91662060585E+03  0.25500000920E-02 0. -1.
       -2   -1    0    0    0  501  0.00000000000E+00  0.00000000000E+00 -0.27330564856E+03  0.27330564857E+03  0.25500000920E-02 0.  1.
    10030    2    1    2    0    0  0.00000000000E+00  0.00000000000E+00  0.64331495729E+03  0.11899262544E+04  0.10010346431E+04 0.  0.
        1    1    3    3  502    0 -0.44097207004E+03  0.20469258286E+03  0.18019677064E+03  0.51848461521E+03  0.50400001928E-02 0. -1.
       -1    1    3    3    0  502  0.44097207004E+03 -0.20469258286E+03  0.46311818665E+03  0.67144163921E+03  0.50400001928E-02 0.  1.
</event>
<event>
 5   0  0.2378609E-03  0.1000639E+04  0.7818609E-02  0.9307844E-01
        1   -1    0    0  501    0  0.00000000000E+00  0.00000000000E+00  0.93259376083E+03  0.93259376085E+03  0.50400001928E-02 0.  1.
       -1   -1    0    0    0  501  0.00000000000E+00  0.00000000000E+00 -0.26841238224E+03  0.26841238229E+03  0.50400001928E-02 0. -1.
    10030    2    1    2    0    0  0.00000000000E+00  0.00000000000E+00  0.66418137859E+03  0.12010061431E+04  0.10006392218E+04 0.  0.
        1    1    3    3  502    0 -0.31033164153E+03  0.39218086535E+03  0.31477418462E+03  0.59092668429E+03  0.50400001928E-02 0.  1.
       -1    1    3    3    0  502  0.31033164153E+03 -0.39218086535E+03  0.34940719397E+03  0.61007945884E+03  0.50400001928E-02 0. -1.
</event>
<event>
 5   0  0.4026829E-03  0.1002648E+04  0.7818609E-02  0.9305645E-01
        2   -1    0    0  501    0  0.00000000000E+00  0.00000000000E+00  0.13894723203E+04  0.13894723203E+04  0.25500000920E-02 0. -1.
       -2   -1    0    0    0  501  0.00000000000E+00  0.00000000000E+00 -0.18087868994E+03  0.18087868996E+03  0.25500000920E-02 0.  1.
    10030    2    1    2    0    0  0.00000000000E+00  0.00000000000E+00  0.12085936304E+04  0.15703510103E+04  0.10026483591E+04 0.  0.
        1    1    3    3  502    0 -0.15686265027E+03 -0.26324654999E+03  0.12257090968E+04  0.12634347736E+04  0.50400001928E-02 0. -1.
       -1    1    3    3    0  502  0.15686265027E+03  0.26324654999E+03 -0.17115466404E+02  0.30691623670E+03  0.50400001928E-02 0.  1.
</event>
<event>
 5   0  0.4026829E-03  0.9982354E+03  0.7818609E-02  0.9310482E-01
       -2   -1    0    0    0  501  0.00000000000E+00  0.00000000000E+00  0.65966755616E+03  0.65966755617E+03  0.25500000920E-02 0. -1.
        2   -1    0    0  501    0  0.00000000000E+00  0.00000000000E+00 -0.37764246358E+03  0.37764246359E+03  0.25500000920E-02 0.  1.
    10030    2    1    2    0    0  0.00000000000E+00  0.00000000000E+00  0.28202509259E+03  0.10373100198E+04  0.99823540522E+03 0.  0.
        1    1    3    3  502    0 -0.14457571952E+03  0.28350304106E+03 -0.25854106358E+03  0.41002389510E+03  0.50400001928E-02 0.  1.
       -1    1    3    3    0  502  0.14457571952E+03 -0.28350304106E+03  0.54056615617E+03  0.62728612466E+03  0.50400001928E-02 0. -1.
</event>
<event>
 5   0  0.3873874E-03  0.1000763E+04  0.7818609E-02  0.9307708E-01
        2   -1    0    0  501    0  0.00000000000E+00  0.00000000000E+00  0.96803114365E+03  0.96803114365E+03  0.25500000920E-02 0.  1.
       -2   -1    0    0    0  501  0.00000000000E+00  0.00000000000E+00 -0.25865059105E+03  0.25865059107E+03  0.25500000920E-02 0. -1.
    10030    2    1    2    0    0  0.00000000000E+00  0.00000000000E+00  0.70938055260E+03  0.12266817347E+04  0.10007633636E+04 0.  0.
        5    1    3    3  502    0  0.31565995502E+03 -0.26438990165E+03  0.70314836241E+03  0.81485148147E+03  0.46999998093E+01 0.  1.
       -5    1    3    3    0  502 -0.31565995502E+03  0.26438990165E+03  0.62321901882E+01  0.41183025325E+03  0.46999998093E+01 0. -1.
</event>
<event>
 5   0  0.4140860E-03  0.1042684E+04  0.7818609E-02  0.9262930E-01
       -2   -1    0    0    0  501  0.00000000000E+00  0.00000000000E+00  0.14726875215E+03  0.14726875218E+03  0.25500000920E-02 0. -1.
        2   -1    0    0  501    0  0.00000000000E+00  0.00000000000E+00 -0.18455880730E+04  0.18455880730E+04  0.25500000920E-02 0.  1.
    10030    2    1    2    0    0  0.00000000000E+00  0.00000000000E+00 -0.16983193209E+04  0.19928568252E+04  0.10426839455E+04 0.  0.
        3    1    3    3  502    0  0.30060405069E+03  0.31365077413E+03 -0.13999847646E+04  0.14658434278E+04  0.10100000352E+00 0.  1.
       -3    1    3    3    0  502 -0.30060405069E+03 -0.31365077413E+03 -0.29833455624E+03  0.52701339741E+03  0.10100000352E+00 0. -1.
</event>
<event>
 5   0  0.2350769E-03  0.9937526E+03  0.7818609E-02  0.9315423E-01
       -1   -1    0    0    0  501  0.00000000000E+00  0.00000000000E+00  0.17540450896E+03  0.17540450903E+03  0.50400001928E-02 0.  1.
        1   -1    0    0  501    0  0.00000000000E+00  0.00000000000E+00 -0.14075240950E+04  0.14075240950E+04  0.50400001928E-02 0. -1.
    10030    2    1    2    0    0  0.00000000000E+00  0.00000000000E+00 -0.12321195860E+04  0.15829286040E+04  0.99375263076E+03 0.  0.
        2    1    3    3  502    0  0.30017292695E+02  0.41384651628E+03 -0.10514614936E+04  0.11303721730E+04  0.25500000920E-02 0. -1.
       -2    1    3    3    0  502 -0.30017292695E+02 -0.41384651628E+03 -0.18065809239E+03  0.45255643101E+03  0.25500000920E-02 0.  1.
</event>
<event>
 5   0  0.2313036E-03  0.1015436E+04  0.7818609E-02  0.9291775E-01
       -1   -1    0    0    0  501  0.00000000000E+00  0.00000000000E+00  0.20831883255E+03  0.20831883261E+03  0.50400001928E-02 0.  1.
        1   -1    0    0  501    0  0.00000000000E+00  0.00000000000E+00 -0.12374194459E+04  0.12374194459E+04  0.50400001928E-02 0. -1.
    10030    2    1    2    0    0  0.00000000000E+00  0.00000000000E+00 -0.10291006133E+04  0.14457382785E+04  0.10154364074E+04 0.  0.
        3    1    3    3  502    0  0.42963792494E+03 -0.37822368698E+02 -0.89594406657E+03  0.99435157703E+03  0.10100000352E+00 0. -1.
       -3    1    3    3    0  502 -0.42963792494E+03  0.37822368698E+02 -0.13315654675E+03  0.45138670147E+03  0.10100000352E+00 0.  1.
</event>
<event>
 5   0  0.1548000E-03  0.9889162E+03  0.7818609E-02  0.9320786E-01
       -3   -1    0    0    0  501  0.00000000000E+00  0.00000000000E+00  0.30837807528E+03  0.30837809182E+03  0.10100000352E+00 0.  1.
        3   -1    0    0  501    0  0.00000000000E+00  0.00000000000E+00 -0.79282156276E+03  0.79282156919E+03  0.10100000352E+00 0. -1.
    10030    2    1    2    0    0  0.00000000000E+00  0.00000000000E+00 -0.48444348748E+03  0.11011996610E+04  0.98891617484E+03 0.  0.
        4    1    3    3  502    0 -0.14083071147E+03  0.42805138271E+03 -0.15578578558E+02  0.45089420105E+03  0.12699999809E+01 0.  1.
       -4    1    3    3    0  502  0.14083071147E+03 -0.42805138271E+03 -0.46886490892E+03  0.65030545996E+03  0.12699999809E+01 0. -1.
</event>
<event>
 5   0  0.1548000E-03  0.9871605E+03  0.7818609E-02  0.9322740E-01
        3   -1    0    0  501    0  0.00000000000E+00  0.00000000000E+00  0.52793821580E+03  0.52793822546E+03  0.10100000352E+00 0. -1.
       -3   -1    0    0    0  501  0.00000000000E+00  0.00000000000E+00 -0.46145824280E+03  0.46145825386E+03  0.10100000352E+00 0.  1.
    10030    2    1    2    0    0  0.00000000000E+00  0.00000000000E+00  0.66479973000E+02  0.98939647932E+03  0.98716047656E+03 0.  0.
        5    1    3    3  502    0 -0.23207363852E+03  0.40706526811E+03  0.18863651086E+03  0.50513971278E+03  0.46999998093E+01 0. -1.
       -5    1    3    3    0  502  0.23207363852E+03 -0.40706526811E+03 -0.12215653786E+03  0.48425676654E+03  0.46999998093E+01 0.  1.
</event>
<event>
 5   0  0.2350769E-03  0.9907907E+03  0.7818609E-02  0.9318703E-01
        1   -1    0    0  501    0  0.00000000000E+00  0.00000000000E+00  0.11620310885E+04  0.11620310885E+04  0.50400001928E-02 0. -1.
       -1   -1    0    0    0  501  0.00000000000E+00  0.00000000000E+00 -0.21119620351E+03  0.21119620357E+03  0.50400001928E-02 0.  1.
    10030    2    1    2    0    0  0.00000000000E+00  0.00000000000E+00  0.95083488498E+03  0.13732272921E+04  0.99079070303E+03 0.  0.
        2    1    3    3  502    0  0.14507611899E+03  0.26519193916E+03 -0.68560234067E+02  0.30995862723E+03  0.25500000920E-02 0.  1.
       -2    1    3    3    0  502 -0.14507611899E+03 -0.26519193916E+03  0.10193951190E+04  0.10632686648E+04  0.25500000920E-02 0. -1.
</event>
<event>
 5   0  0.2378609E-03  0.1005378E+04  0.7818609E-02  0.9302666E-01
       -1   -1    0    0    0  501  0.00000000000E+00  0.00000000000E+00  0.32264852555E+03  0.32264852559E+03  0.50400001928E-02 0.  1.
        1   -1    0    0  501    0  0.00000000000E+00  0.00000000000E+00 -0.78319311719E+03  0.78319311720E+03  0.50400001928E-02 0. -1.
    10030    2    1    2    0    0  0.00000000000E+00  0.00000000000E+00 -0.46054459163E+03  0.11058416428E+04  0.10053777489E+04 0.  0.
        1    1    3    3  502    0 -0.15834727441E+03 -0.46176783642E+03 -0.98314526682E+02  0.49796499902E+03  0.50400001928E-02 0.  1.
       -1    1    3    3    0  502  0.15834727441E+03  0.46176783642E+03 -0.36223006495E+03  0.60787664377E+03  0.50400001928E-02 0. -1.
</event>
<event>
 5   0  0.3826483E-03  0.9799460E+03  0.7818609E-02  0.9330817E-01
       -2   -1    0    0    0  501  0.00000000000E+00  0.00000000000E+00  0.10564827735E+03  0.10564827738E+03  0.25500000920E-02 0.  1.
        2   -1    0    0  501    0  0.00000000000E+00  0.00000000000E+00 -0.22723847486E+04  0.22723847486E+04  0.25500000920E-02 0. -1.
    10030    2    1    2    0    0  0.00000000000E+00  0.00000000000E+00 -0.21667364713E+04  0.23780330260E+04  0.97994598668E+03 0.  0.
        4    1    3    3  502    0 -0.34056425614E+03  0.28770112644E+02 -0.19353438384E+04  0.19652911026E+04  0.12699999809E+01 0. -1.
       -4    1    3    3    0  502  0.34056425614E+03 -0.28770112644E+02 -0.23139263286E+03  0.41274192346E+03  0.12699999809E+01 0.  1.
</event>
<event>
 5   0  0.2313036E-03  0.1000072E+04  0.7818609E-02  0.9308466E-01
       -1   -1    0    0    0  501  0.00000000000E+00  0.00000000000E+00  0.29704959425E+03  0.29704959429E+03  0.50400001928E-02 0. -1.
        1   -1    0    0  501    0  0.00000000000E+00  0.00000000000E+00 -0.84173189608E+03  0.84173189610E+03  0.50400001928E-02 0.  1.
    10030    2    1    2    0    0  0.00000000000E+00  0.00000000000E+00 -0.54468230183E+03  0.11387814904E+04  0.10000722339E+04 0.  0.
        3    1    3    3  502    0 -0.39066458818E+03 -0.11888772216E+03 -0.60095601424E+03  0.72656813320E+03  0.10100000352E+00 0.  1.
       -3    1    3    3    0  502  0.39066458818E+03  0.11888772216E+03  0.56273712406E+02  0.41221335719E+03  0.10100000352E+00 0. -1.
</event>
<event>
 5   0  0.3895011E-03  0.9884913E+03  0.7818609E-02  0.9321258E-01
        2   -1    0    0  501    0  0.00000000000E+00  0.00000000000E+00  0.60572769582E+03  0.60572769583E+03  0.25500000920E-02 0.  1.
       -2   -1    0    0    0  501  0.00000000000E+00  0.00000000000E+00 -0.40328151225E+03  0.40328151226E+03  0.25500000920E-02 0. -1.
    10030    2    1    2    0    0  0.00000000000E+00  0.00000000000E+00  0.20244618357E+03  0.10090092081E+04  0.98849133773E+03 0.  0.
        2    1    3    3  502    0  0.12525938491E+03  0.47780347361E+03  0.83759250766E+02  0.50100068363E+03  0.25500000920E-02 0. -1.
       -2    1    3    3    0  502 -0.12525938491E+03 -0.47780347361E+03  0.11868693281E+03  0.50800852446E+03  0.25500000920E-02 0.  1.
</event>
<event>
 5   0  0.2327595E-03  0.1002365E+04  0.7818609E-02  0.9305955E-01
        1   -1    0    0  501    0  0.00000000000E+00  0.00000000000E+00  0.15894893456E+04  0.15894893456E+04  0.50400001928E-02 0.  1.
       -1   -1    0    0    0  501  0.00000000000E+00  0.00000000000E+00 -0.15802794008E+03  0.15802794017E+03  0.50400001928E-02 0. -1.
    10030    2    1    2    0    0  0.00000000000E+00  0.00000000000E+00  0.14314614055E+04  0.17475172857E+04  0.10023646585E+04 0.  0.
        5    1    3    3  502    0 -0.17652872013E+03 -0.76841916678E+02  0.15224056302E+04  0.15345383873E+04  0.46999998093E+01 0.  1.
       -5    1    3    3    0  502  0.17652872013E+03  0.76841916678E+02 -0.90944224698E+02  0.21297889847E+03  0.46999998093E+01 0. -1.
</event>
<event>
 5   0  0.3826483E-03  0.1000366E+04  0.7818609E-02  0.9308143E-01
       -2   -1    0    0    0  501  0.00000000000E+00  0.00000000000E+00  0.37701057064E+03  0.37701057065E+03  0.25500000920E-02 0.  1.
        2   -1    0    0  501    0  0.00000000000E+00  0.00000000000E+00 -0.66359683887E+03  0.66359683888E+03  0.25500000920E-02 0. -1.
    10030    2    1    2    0    0  0.00000000000E+00  0.00000000000E+00 -0.28658626823E+03  0.10406074095E+04  0.10003659788E+04 0.  0.
        4    1    3    3  502    0 -0.70677402573E+01 -0.49387148789E+03 -0.61237703319E+02  0.49770540354E+03  0.12699999809E+01 0.  1.
       -4    1    3    3    0  502  0.70677402573E+01  0.49387148789E+03 -0.22534856491E+03  0.54290200599E+03  0.12699999809E+01 0. -1.
</event>
<event>
 5   0  0.4026829E-03  0.9979413E+03  0.7818609E-02  0.9310806E-01
        2   -1    0    0  501    0  0.00000000000E+00  0.00000000000E+00  0.60737629228E+03  0.60737629228E+03  0.25500000920E-02 0.  1.
       -2   -1    0    0    0  501  0.00000000000E+00  0.00000000000E+00 -0.40991341983E+03  0.40991341984E+03  0.25500000920E-02 0. -1.
    10030    2    1    2    0    0  0.00000000000E+00  0.00000000000E+00  0.19746287245E+03  0.10172897121E+04  0.99794126701E+03 0.  0.
        1    1    3    3  502    0 -0.23297303012E+02 -0.21892241613E+03 -0.35772456524E+03  0.42004363251E+03  0.50400001928E-02 0. -1.
       -1    1    3    3    0  502  0.23297303012E+02  0.21892241613E+03  0.55518743769E+03  0.59724607961E+03  0.50400001928E-02 0.  1.
</event>
<event>
 5   0  0.4026829E-03  0.9201971E+03  0.7818609E-02  0.9400680E-01
        2   -1    0    0  501    0  0.00000000000E+00  0.00000000000E+00  0.12839758943E+04  0.12839758943E+04  0.25500000920E-02 0. -1.
       -2   -1    0    0    0  501  0.00000000000E+00  0.00000000000E+00 -0.16487120995E+03  0.16487120996E+03  0.25500000920E-02 0.  1.
    10030    2    1    2    0    0  0.00000000000E+00  0.00000000000E+00  0.11191046844E+04  0.14488471043E+04  0.92019706423E+03 0.  0.
        1    1    3    3  502    0 -0.41008855274E+03 -0.15071286174E+03  0.78664950420E+03  0.89983577961E+03  0.50400001928E-02 0. -1.
       -1    1    3    3    0  502  0.41008855274E+03  0.15071286174E+03  0.33245518019E+03  0.54901132469E+03  0.50400001928E-02 0.  1.
</event>
<event>
 5   0  0.2405022E-03  0.9986460E+03  0.7818609E-02  0.9310031E-01
       -1   -1    0    0    0  501  0.00000000000E+00  0.00000000000E+00  0.30181634599E+03  0.30181634603E+03  0.50400001928E-02 0. -1.
        1   -1    0    0  501    0  0.00000000000E+00  0.00000000000E+00 -0.82607675551E+03  0.82607675553E+03  0.50400001928E-02 0.  1.
    10030    2    1    2    0    0  0.00000000000E+00  0.00000000000E+00 -0.52426040953E+03  0.11278931016E+04  0.99864601914E+03 0.  0.
        4    1    3    3  502    0 -0.24030636957E+03  0.44897972628E+02 -0.75386215503E+03  0.79251040427E+03  0.12699999809E+01 0.  1.
       -4    1    3    3    0  502  0.24030636957E+03 -0.44897972628E+02  0.22960174550E+03  0.33538269728E+03  0.12699999809E+01 0. -1.
</event>
<event>
 5   0  0.3826483E-03  0.1010034E+04  0.7818609E-02  0.9297607E-01
       -2   -1    0    0    0  501  0.00000000000E+00  0.00000000000E+00  0.86500800629E+03  0.86500800629E+03  0.25500000920E-02 0.  1.
        2   -1    0    0  501    0  0.00000000000E+00  0.00000000000E+00 -0.29484379686E+03  0.29484379687E+03  0.25500000920E-02 0. -1.
    10030    2    1    2    0    0  0.00000000000E+00  0.00000000000E+00  0.57016420943E+03  0.11598518032E+04  0.10100341477E+04 0.  0.
        4    1    3    3  502    0  0.25765782338E+03 -0.21630566713E+03 -0.14743568903E+03  0.36730721594E+03  0.12699999809E+01 0. -1.
       -4    1    3    3    0  502 -0.25765782338E+03  0.21630566713E+03  0.71759989846E+03  0.79254458723E+03  0.12699999809E+01 0.  1.
</event>
<event>
 5   0  0.3826483E-03  0.1033276E+04  0.7818609E-02  0.9272783E-01
       -2   -1    0    0    0  501  0.00000000000E+00  0.00000000000E+00  0.15164790900E+03  0.15164790902E+03  0.25500000920E-02 0. -1.
        2   -1    0    0  501    0  0.00000000000E+00  0.00000000000E+00 -0.17600966838E+04  0.17600966838E+04  0.25500000920E-02 0.  1.
    10030    2    1    2    0    0  0.00000000000E+00  0.00000000000E+00 -0.16084487748E+04  0.19117445928E+04  0.10332763072E+04 0.  0.
        4    1    3    3  502    0 -0.36089470210E+03  0.36149287940E+03 -0.94743435401E+03  0.10763621862E+04  0.12699999809E+01 0.  1.
       -4    1    3    3    0  502  0.36089470210E+03 -0.36149287940E+03 -0.66101442074E+03  0.83538240656E+03  0.12699999809E+01 0. -1.
</event>
<event>
 5   0  0.1548000E-03  0.9972842E+03  0.7818609E-02  0.9311528E-01
        4   -1    0    0  501    0  0.00000000000E+00  0.00000000000E+00  0.13653837873E+04  0.13653843779E+04  0.12699999809E+01 0.  1.
       -4   -1    0    0    0  501  0.00000000000E+00  0.00000000000E+00 -0.18210270741E+03  0.18210713590E+03  0.12699999809E+01 0. -1.
    10030    2    1    2    0    0  0.00000000000E+00  0.00000000000E+00  0.11832810799E+04  0.15474915138E+04  0.99728424802E+03 0.  0.
        1    1    3    3  502    0  0.72917527346E+02 -0.46184742827E+03  0.32276997047E+03  0.56815531913E+03  0.50400001928E-02 0. -1.
       -1    1    3    3    0  502 -0.72917527346E+02  0.46184742827E+03  0.86051110939E+03  0.97933619468E+03  0.50400001928E-02 0.  1.
</event>
<event>
 5   0  0.3826483E-03  0.1016686E+04  0.7818609E-02  0.9290431E-01
        2   -1    0    0  501    0  0.00000000000E+00  0.00000000000E+00  0.55303016361E+03  0.55303016361E+03  0.25500000920E-02 0.  1.
       -2   -1    0    0    0  501  0.00000000000E+00  0.00000000000E+00 -0.46726699277E+03  0.46726699278E+03  0.25500000920E-02 0. -1.
    10030    2    1    2    0    0  0.00000000000E+00  0.00000000000E+00  0.85763170832E+02  0.10202971564E+04  0.10166862672E+04 0.  0.
        4    1    3    3  502    0 -0.15465458822E+03 -0.40626275041E+03 -0.22157600350E+03  0.48791905297E+03  0.12699999809E+01 0.  1.
       -4    1    3    3    0  502  0.15465458822E+03  0.40626275041E+03  0.30733917433E+03  0.53237810342E+03  0.12699999809E+01 0. -1.
</event>
<event>
 5   0  0.2313036E-03  0.1002667E+04  0.7818609E-02  0.9305624E-01
        1   -1    0    0  501    0  0.00000000000E+00  0.00000000000E+00  0.41350314004E+03  0.41350314007E+03  0.50400001928E-02 0.  1.
       -1   -1    0    0    0  501  0.00000000000E+00  0.00000000000E+00 -0.60781988282E+03  0.60781988284E+03  0.50400001928E-02 0. -1.
    10030    2    1    2    0    0  0.00000000000E+00  0.00000000000E+00 -0.19431674277E+03  0.10213230229E+04  0.10026673031E+04 0.  0.
        3    1    3    3  502    0 -0.13336480196E+03  0.22780992966E+03 -0.53129479494E+03  0.59326023277E+03  0.10100000352E+00 0. -1.
       -3    1    3    3    0  502  0.13336480196E+03 -0.22780992966E+03  0.33697805217E+03  0.42806279014E+03  0.10100000352E+00 0.  1.
</event>
<event>
 5   0  0.2327595E-03  0.1006297E+04  0.7818609E-02  0.9301666E-01
       -1   -1    0    0    0  501  0.00000000000E+00  0.00000000000E+00  0.42247608164E+03  0.42247608167E+03  0.50400001928E-02 0.  1.
        1   -1    0    0  501    0  0.00000000000E+00  0.00000000000E+00 -0.59922486862E+03  0.59922486864E+03  0.50400001928E-02 0. -1.
    10030    2    1    2    0    0  0.00000000000E+00  0.00000000000E+00 -0.17674878698E+03  0.10217009503E+04  0.10062965260E+04 0.  0.
        5    1    3    3  502    0 -0.32955076378E+03  0.26842890583E+03 -0.36171353530E+03  0.55813668130E+03  0.46999998093E+01 0. -1.
       -5    1    3    3    0  502  0.32955076378E+03 -0.26842890583E+03  0.18496474833E+03  0.46356426902E+03  0.46999998093E+01 0.  1.
</event>
<event>
 5   0  0.2327595E-03  0.1000935E+04  0.7818609E-02  0.9307520E-01
       -1   -1    0    0    0  501  0.00000000000E+00  0.00000000000E+00  0.67225952823E+03  0.67225952825E+03  0.50400001928E-02 0. -1.
        1   -1    0    0  501    0  0.00000000000E+00  0.00000000000E+00 -0.37257586144E+03  0.37257586147E+03  0.50400001928E-02 0.  1.
    10030    2    1    2    0    0  0.00000000000E+00  0.00000000000E+00  0.29968366679E+03  0.10448353897E+04  0.10009349087E+04 0.  0.
        5    1    3    3  502    0  0.16340756583E+03 -0.16510322323E+02 -0.34361888322E+03  0.38088141228E+03  0.46999998093E+01 0.  1.
       -5    1    3    3    0  502 -0.16340756583E+03  0.16510322323E+02  0.64330255001E+03  0.66395397744E+03  0.46999998093E+01 0. -1.
</event>
<event>
 5   0  0.1548000E-03  0.1008329E+04  0.7818609E-02  0.9299457E-01
       -4   -1    0    0    0  501  0.00000000000E+00  0.00000000000E+00  0.54689121773E+03  0.54689269233E+03  0.12699999809E+01 0. -1.
        4   -1    0    0  501    0  0.00000000000E+00  0.00000000000E+00 -0.46477275414E+03  0.46477448928E+03  0.12699999809E+01 0.  1.
    10030    2    1    2    0    0  0.00000000000E+00  0.00000000000E+00  0.82118463591E+02  0.10116671816E+04  0.10083288374E+04 0.  0.
        5    1    3    3  502    0  0.39345638670E+03 -0.31473598213E+03  0.23885189017E+02  0.50443954934E+03  0.46999998093E+01 0.  1.
       -5    1    3    3    0  502 -0.39345638670E+03  0.31473598213E+03  0.58233274574E+02  0.50722763228E+03  0.46999998093E+01 0. -1.
</event>
<event>
 5   0  0.4140860E-03  0.9963379E+03  0.7818609E-02  0.9312570E-01
       -2   -1    0    0    0  501  0.00000000000E+00  0.00000000000E+00  0.17751984545E+03  0.17751984547E+03  0.25500000920E-02 0. -1.
        2   -1    0    0  501    0  0.00000000000E+00  0.00000000000E+00 -0.13979975943E+04  0.13979975943E+04  0.25500000920E-02 0.  1.
    10030    2    1    2    0    0  0.00000000000E+00  0.00000000000E+00 -0.12204777489E+04  0.15755174398E+04  0.99633792843E+03 0.  0.
        3    1    3    3  502    0  0.16506869584E+03 -0.38612182121E+03 -0.10340606870E+04  0.11160731381E+04  0.10100000352E+00 0.  1.
       -3    1    3    3    0  502 -0.16506869584E+03  0.38612182121E+03 -0.18641706193E+03  0.45944430167E+03  0.10100000352E+00 0. -1.
</event>
<event>
 5   0  0.3873874E-03  0.9989608E+03  0.7818609E-02  0.9309685E-01
       -2   -1    0    0    0  501  0.00000000000E+00  0.00000000000E+00  0.28512475223E+03  0.28512475224E+03  0.25500000920E-02 0.  1.
        2   -1    0    0  501    0  0.00000000000E+00  0.00000000000E+00 -0.87498784126E+03  0.87498784127E+03  0.25500000920E-02 0. -1.
    10030    2    1    2    0    0  0.00000000000E+00  0.00000000000E+00 -0.58986308904E+03  0.11601125935E+04  0.99896084298E+03 0.  0.
        5    1    3    3  502    0  0.24437501419E+03  0.14460156345E+03 -0.77210500693E+03  0.82267672353E+03  0.46999998093E+01 0. -1.
       -5    1    3    3    0  502 -0.24437501419E+03 -0.14460156345E+03  0.18224191789E+03  0.33743586998E+03  0.46999998093E+01 0.  1.
</event>
<event>
 5   0  0.3895011E-03  0.9989423E+03  0.7818609E-02  0.9309706E-01
       -2   -1    0    0    0  501  0.00000000000E+00  0.00000000000E+00  0.26182102338E+03  0.26182102339E+03  0.25500000920E-02 0.  1.
        2   -1    0    0  501    0  0.00000000000E+00  0.00000000000E+00 -0.95283197379E+03  0.95283197379E+03  0.25500000920E-02 0. -1.
    10030    2    1    2    0    0  0.00000000000E+00  0.00000000000E+00 -0.69101095041E+03  0.12146529972E+04  0.99894232566E+03 0.  0.
        2    1    3    3  502    0 -0.13461321034E+03  0.13027859852E+03 -0.90849735954E+03  0.92761019934E+03  0.25500000920E-02 0. -1.
       -2    1    3    3    0  502  0.13461321034E+03 -0.13027859852E+03  0.21748640913E+03  0.28704279784E+03  0.25500000920E-02 0.  1.
</event>
<event>
 5   0  0.2350769E-03  0.1011678E+04  0.7818609E-02  0.9295829E-01
        1   -1    0    0  501    0  0.00000000000E+00  0.00000000000E+00  0.10180899224E+04  0.10180899224E+04  0.50400001928E-02 0.  1.
       -1   -1    0    0    0  501  0.00000000000E+00  0.00000000000E+00 -0.25132652156E+03  0.25132652161E+03  0.50400001928E-02 0. -1.
    10030    2    1    2    0    0  0.00000000000E+00  0.00000000000E+00  0.76676340083E+03  0.12694164440E+04  0.10116778121E+04 0.  0.
        2    1    3    3  502    0 -0.25347816625E+03 -0.37378286141E+03  0.66925911118E+03  0.80738625586E+03  0.25500000920E-02 0.  1.
       -2    1    3    3    0  502  0.25347816625E+03  0.37378286141E+03  0.97504289647E+02  0.46203018815E+03  0.25500000920E-02 0. -1.
</event>
<event>
 5   0  0.4026829E-03  0.9988019E+03  0.7818609E-02  0.9309860E-01
        2   -1    0    0  501    0  0.00000000000E+00  0.00000000000E+00  0.16325980842E+04  0.16325980842E+04  0.25500000920E-02 0. -1.
       -2   -1    0    0    0  501  0.00000000000E+00  0.00000000000E+00 -0.15276345622E+03  0.15276345624E+03  0.25500000920E-02 0.  1.
    10030    2    1    2    0    0  0.00000000000E+00  0.00000000000E+00  0.14798346280E+04  0.17853615404E+04  0.99880193427E+03 0.  0.
        1    1    3    3  502    0 -0.26153633595E+03 -0.30622560314E+03  0.21199544030E+03  0.45510157303E+03  0.50400001928E-02 0.  1.
       -1    1    3    3    0  502  0.26153633595E+03  0.30622560314E+03  0.12678391877E+04  0.13302599674E+04  0.50400001928E-02 0. -1.
</event>
<event>
 5   0  0.1548000E-03  0.1004702E+04  0.7818609E-02  0.9303403E-01
        3   -1    0    0  501    0  0.00000000000E+00  0.00000000000E+00  0.10556840477E+04  0.10556840525E+04  0.10100000352E+00 0. -1.
       -3   -1    0    0    0  501  0.00000000000E+00  0.00000000000E+00 -0.23904545810E+03  0.23904547944E+03  0.10100000352E+00 0.  1.
    10030    2    1    2    0    0  0.00000000000E+00  0.00000000000E+00  0.81663858961E+03  0.12947295320E+04  0.10047019334E+04 0.  0.
        4    1    3    3  502    0  0.48547824712E+03 -0.12757625957E+03  0.43377013848E+03  0.66341764852E+03  0.12699999809E+01 0.  1.
       -4    1    3    3    0  502 -0.48547824712E+03  0.12757625957E+03  0.38286845113E+03  0.63131188346E+03  0.12699999809E+01 0. -1.
</event>
<event>
 5   0  0.1548000E-03  0.9057070E+03  0.7818609E-02  0.9418475E-01
        4   -1    0    0  501    0  0.00000000000E+00  0.00000000000E+00  0.61623907757E+03  0.61624038623E+03  0.12699999809E+01 0. -1.
       -4   -1    0    0    0  501  0.00000000000E+00  0.00000000000E+00 -0.33278399646E+03  0.33278641980E+03  0.12699999809E+01 0.  1.
    10030    2    1    2    0    0  0.00000000000E+00  0.00000000000E+00  0.28345508111E+03  0.94902680602E+03  0.90570695898E+03 0.  0.
        4    1    3    3  502    0 -0.18480527889E+03  0.37144893333E+02  0.57317640687E+03  0.60337843888E+03  0.12699999809E+01 0. -1.
       -4    1    3    3    0  502  0.18480527889E+03 -0.37144893333E+02 -0.28972132577E+03  0.34564836715E+03  0.12699999809E+01 0.  1.
</event>
<event>
 5   0  0.2378609E-03  0.1013637E+04  0.7818609E-02  0.9293713E-01
       -1   -1    0    0    0  501  0.00000000000E+00  0.00000000000E+00  0.59187381602E+03  0.59187381604E+03  0.50400001928E-02 0. -1.
        1   -1    0    0  501    0  0.00000000000E+00  0.00000000000E+00 -0.43398612652E+03  0.43398612655E+03  0.50400001928E-02 0.  1.
    10030    2    1    2    0    0  0.00000000000E+00  0.00000000000E+00  0.15788768951E+03  0.10258599426E+04  0.10136370649E+04 0.  0.
        1    1    3    3  502    0 -0.22926339080E+03 -0.59983053269E+02  0.53234755546E+03  0.58271226937E+03  0.50400001928E-02 0. -1.
       -1    1    3    3    0  502  0.22926339080E+03  0.59983053269E+02 -0.37445986596E+03  0.44314767322E+03  0.50400001928E-02 0.  1.
</event>
<event>
 5   0  0.2313036E-03  0.9614902E+03  0.7818609E-02  0.9351820E-01
        1   -1    0    0  501    0  0.00000000000E+00  0.00000000000E+00  0.74415442889E+03  0.74415442891E+03  0.50400001928E-02 0. -1.
       -1   -1    0    0    0  501  0.00000000000E+00  0.00000000000E+00 -0.31057514382E+03  0.31057514386E+03  0.50400001928E-02 0.  1.
    10030    2    1    2    0    0  0.00000000000E+00  0.00000000000E+00  0.43357928507E+03  0.10547295728E+04  0.96149023668E+03 0.  0.
        3    1    3    3  502    0  0.16112223546E+03  0.37248410439E+03 -0.65904299711E+02  0.41115467856E+03  0.10100000352E+00 0.  1.
       -3    1    3    3    0  502 -0.16112223546E+03 -0.37248410439E+03  0.49948358478E+03  0.64357489421E+03  0.10100000352E+00 0. -1.
</event>
<event>
 5   0  0.2350769E-03  0.1007553E+04  0.7818609E-02  0.9300299E-01
       -1   -1    0    0    0  501  0.00000000000E+00  0.00000000000E+00  0.36229593245E+03  0.36229593248E+03  0.50400001928E-02 0. -1.
        1   -1    0    0  501    0  0.00000000000E+00  0.00000000000E+00 -0.70050717484E+03  0.70050717486E+03  0.50400001928E-02 0.  1.
    10030    2    1    2    0    0  0.00000000000E+00  0.00000000000E+00 -0.33821124240E+03  0.10628031073E+04  0.10075532743E+04 0.  0.
        2    1    3    3  502    0  0.25760840715E+03  0.21886262286E+03  0.22491179671E+03  0.40601509261E+03  0.25500000920E-02 0. -1.
       -2    1    3    3    0  502 -0.25760840715E+03 -0.21886262286E+03 -0.56312303911E+03  0.65678801474E+03  0.25500000920E-02 0.  1.
</event>
<event>
 5   0  0.2313036E-03  0.1002895E+04  0.7818609E-02  0.9305376E-01
        1   -1    0    0  501    0  0.00000000000E+00  0.00000000000E+00  0.72894934126E+03  0.72894934127E+03  0.50400001928E-02 0.  1.
       -1   -1    0    0    0  501  0.00000000000E+00  0.00000000000E+00 -0.34494765526E+03  0.34494765530E+03  0.50400001928E-02 0. -1.
    10030    2    1    2    0    0  0.00000000000E+00  0.00000000000E+00  0.38400168600E+03  0.10738969966E+04  0.10028945430E+04 0.  0.
        3    1    3    3  502    0  0.60176460972E+02  0.21035292282E+03  0.67514273797E+03  0.70970929642E+03  0.10100000352E+00 0.  1.
       -3    1    3    3    0  502 -0.60176460972E+02 -0.21035292282E+03 -0.29114105197E+03  0.36418770015E+03  0.10100000352E+00 0. -1.
</event>
<event>
 5   0  0.2405022E-03  0.1002121E+04  0.7818609E-02  0.9306221E-01
       -1   -1    0    0    0  501  0.00000000000E+00  0.00000000000E+00  0.15788821337E+03  0.15788821345E+03  0.50400001928E-02 0.  1.
        1   -1    0    0  501    0  0.00000000000E+00  0.00000000000E+00 -0.15901241972E+04  0.15901241972E+04  0.50400001928E-02 0. -1.
    10030    2    1    2    0    0  0.00000000000E+00  0.00000000000E+00 -0.14322359838E+04  0.17480124107E+04  0.10021214869E+04 0.  0.
        4    1    3    3  502    0  0.50170066591E+01 -0.30088358101E+02  0.15626428660E+03  0.15921877972E+03  0.12699999809E+01 0.  1.
       -4    1    3    3    0  502 -0.50170066591E+01  0.30088358101E+02 -0.15885002704E+04  0.15887936309E+04  0.12699999809E+01 0. -1.
</event>
<event>
 5   0  0.2350769E-03  0.1001617E+04  0.7818609E-02  0.9306773E-01
        1   -1    0    0  501    0  0.00000000000E+00  0.00000000000E+00  0.43776226589E+03  0.43776226592E+03  0.50400001928E-02 0.  1.
       -1   -1    0    0    0  501  0.00000000000E+00  0.00000000000E+00 -0.57293496429E+03  0.57293496431E+03  0.50400001928E-02 0. -1.
    10030    2    1    2    0    0  0.00000000000E+00  0.00000000000E+00 -0.13517269840E+03  0.10106972302E+04  0.10016173086E+04 0.  0.
        2    1    3    3  502    0 -0.31586049797E+03  0.15252221962E+03  0.29311521255E+03  0.45710765634E+03  0.25500000920E-02 0.  1.
       -2    1    3    3    0  502  0.31586049797E+03 -0.15252221962E+03 -0.42828791095E+03  0.55358957389E+03  0.25500000920E-02 0. -1.
</event>
<event>
 5   0  0.3895011E-03  0.9993064E+03  0.7818609E-02  0.9309306E-01
        2   -1    0    0  501    0  0.00000000000E+00  0.00000000000E+00  0.11079455685E+04  0.11079455685E+04  0.25500000920E-02 0. -1.
       -2   -1    0    0    0  501  0.00000000000E+00  0.00000000000E+00 -0.22532994318E+03  0.22532994320E+03  0.25500000920E-02 0.  1.
    10030    2    1    2    0    0  0.00000000000E+00  0.00000000000E+00  0.88261562532E+03  0.13332755117E+04  0.99930638347E+03 0.  0.
        2    1    3    3  502    0 -0.92632851212E+02  0.24661799157E+03 -0.12514185563E+03  0.29165349805E+03  0.25500000920E-02 0.  1.
       -2    1    3    3    0  502  0.92632851212E+02 -0.24661799157E+03  0.10077574810E+04  0.10416220136E+04  0.25500000920E-02 0. -1.
</event>
<event>
 5   0  0.2350769E-03  0.1004310E+04  0.7818609E-02  0.9303830E-01
       -1   -1    0    0    0  501  0.00000000000E+00  0.00000000000E+00  0.19208046680E+03  0.19208046687E+03  0.50400001928E-02 0. -1.
        1   -1    0    0  501    0  0.00000000000E+00  0.00000000000E+00 -0.13127819924E+04  0.13127819924E+04  0.50400001928E-02 0.  1.
    10030    2    1    2    0    0  0.00000000000E+00  0.00000000000E+00 -0.11207015256E+04  0.15048624592E+04  0.10043102667E+04 0.  0.
        2    1    3    3  502    0  0.39107189700E+03  0.31435942867E+03 -0.59034501227E+03  0.77476855417E+03  0.25500000920E-02 0. -1.
       -2    1    3    3    0  502 -0.39107189700E+03 -0.31435942867E+03 -0.53035651328E+03  0.73009390506E+03  0.25500000920E-02 0.  1.
</event>
<event>
 5   0  0.2327595E-03  0.1002204E+04  0.7818609E-02  0.9306131E-01
       -1   -1    0    0    0  501  0.00000000000E+00  0.00000000000E+00  0.99994811187E+03  0.99994811188E+03  0.50400001928E-02 0.  1.
        1   -1    0    0  501    0  0.00000000000E+00  0.00000000000E+00 -0.25111635109E+03  0.25111635114E+03  0.50400001928E-02 0. -1.
    10030    2    1    2    0    0  0.00000000000E+00  0.00000000000E+00  0.74883176078E+03  0.12510644630E+04  0.10022042131E+04 0.  0.
        5    1    3    3  502    0  0.45514058705E+03 -0.67661997358E+02  0.62204205965E+03  0.77375029166E+03  0.46999998093E+01 0.  1.
       -5    1    3    3    0  502 -0.45514058705E+03  0.67661997358E+02  0.12678970113E+03  0.47731417136E+03  0.46999998093E+01 0. -1.
</event>
<event>
 5   0  0.1548000E-03  0.9942882E+03  0.7818609E-02  0.9314832E-01
       -3   -1    0    0    0  501  0.00000000000E+00  0.00000000000E+00  0.60693652818E+03  0.60693653659E+03  0.10100000352E+00 0.  1.
        3   -1    0    0  501    0  0.00000000000E+00  0.00000000000E+00 -0.40721265546E+03  0.40721266798E+03  0.10100000352E+00 0. -1.
    10030    2    1    2    0    0  0.00000000000E+00  0.00000000000E+00  0.19972387273E+03  0.10141492046E+04  0.99428817945E+03 0.  0.
        2    1    3    3  502    0  0.22171771069E+02  0.20279408607E+03  0.56227777502E+03  0.59814155939E+03  0.25500000920E-02 0.  1.
       -2    1    3    3    0  502 -0.22171771069E+02 -0.20279408607E+03 -0.36255390229E+03  0.41600764518E+03  0.25500000920E-02 0. -1.
</event>
<event>
 5   0  0.4140860E-03  0.9972690E+03  0.7818609E-02  0.9311545E-01
        2   -1    0    0  501    0  0.00000000000E+00  0.00000000000E+00  0.15412591604E+04  0.15412591604E+04  0.25500000920E-02 0. -1.
       -2   -1    0    0    0  501  0.00000000000E+00  0.00000000000E+00 -0.16132027141E+03  0.16132027143E+03  0.25500000920E-02 0.  1.
    10030    2    1    2    0    0  0.00000000000E+00  0.00000000000E+00  0.13799388890E+04  0.17025794319E+04  0.99726896291E+03 0.  0.
        3    1    3    3  502    0  0.32518523229E+03 -0.17396623449E+03  0.11702084467E+03  0.38691546148E+03  0.10100000352E+00 0.  1.
       -3    1    3    3    0  502 -0.32518523229E+03  0.17396623449E+03  0.12629180443E+04  0.13156639704E+04  0.10100000352E+00 0. -1.
</event>
<event>
 5   0  0.4140860E-03  0.9972951E+03  0.7818609E-02  0.9311516E-01
        2   -1    0    0  501    0  0.00000000000E+00  0.00000000000E+00  0.30164005188E+03  0.30164005189E+03  0.25500000920E-02 0. -1.
       -2   -1    0    0    0  501  0.00000000000E+00  0.00000000000E+00 -0.82432488078E+03  0.82432488079E+03  0.25500000920E-02 0.  1.
    10030    2    1    2    0    0  0.00000000000E+00  0.00000000000E+00 -0.52268482891E+03  0.11259649327E+04  0.99729514149E+03 0.  0.
        3    1    3    3  502    0  0.84469666441E+02 -0.48109857908E+03 -0.37457361022E+03  0.61554558484E+03  0.10100000352E+00 0. -1.
       -3    1    3    3    0  502 -0.84469666441E+02  0.48109857908E+03 -0.14811121869E+03  0.51041934784E+03  0.10100000352E+00 0.  1.
</event>
<event>
 5   0  0.3826483E-03  0.9569367E+03  0.7818609E-02  0.9357079E-01
       -2   -1    0    0    0  501  0.00000000000E+00  0.00000000000E+00  0.17673710818E+03  0.17673710820E+03  0.25500000920E-02 0. -1.
        2   -1    0    0  501    0  0.00000000000E+00  0.00000000000E+00 -0.12953248996E+04  0.12953248996E+04  0.25500000920E-02 0.  1.
    10030    2    1    2    0    0  0.00000000000E+00  0.00000000000E+00 -0.11185877914E+04  0.14720620078E+04  0.95693673129E+03 0.  0.
        4    1    3    3  502    0  0.16137475818E+03 -0.19757777967E+03 -0.11819785831E+04  0.12091955075E+04  0.12699999809E+01 0.  1.
       -4    1    3    3    0  502 -0.16137475818E+03  0.19757777967E+03  0.63390791689E+02  0.26286650028E+03  0.12699999809E+01 0. -1.
</event>
<event>
 5   0  0.4140860E-03  0.9980704E+03  0.7818609E-02  0.9310664E-01
       -2   -1    0    0    0  501  0.00000000000E+00  0.00000000000E+00  0.18450985186E+03  0.18450985188E+03  0.25500000920E-02 0.  1.
        2   -1    0    0  501    0  0.00000000000E+00  0.00000000000E+00 -0.13497171239E+04  0.13497171239E+04  0.25500000920E-02 0. -1.
    10030    2    1    2    0    0  0.00000000000E+00  0.00000000000E+00 -0.11652072720E+04  0.15342269758E+04  0.99807035142E+03 0.  0.
        3    1    3    3  502    0  0.11487042718E+03 -0.77077623299E+02  0.15444792646E+03  0.20734113736E+03  0.10100000352E+00 0.  1.
       -3    1    3    3    0  502 -0.11487042718E+03  0.77077623299E+02 -0.13196551985E+04  0.13268858384E+04  0.10100000352E+00 0. -1.
</event>
<event>
 5   0  0.4026829E-03  0.9988821E+03  0.7818609E-02  0.9309772E-01
       -2   -1    0    0    0  501  0.00000000000E+00  0.00000000000E+00  0.28448326939E+03  0.28448326940E+03  0.25500000920E-02 0. -1.
        2   -1    0    0  501    0  0.00000000000E+00  0.00000000000E+00 -0.87682255128E+03  0.87682255128E+03  0.25500000920E-02 0.  1.
    10030    2    1    2    0    0  0.00000000000E+00  0.00000000000E+00 -0.59233928189E+03  0.11613058207E+04  0.99888206725E+03 0.  0.
        1    1    3    3  502    0 -0.15888967418E+03  0.75538468014E+01 -0.84658491660E+03  0.86139944869E+03  0.50400001928E-02 0.  1.
       -1    1    3    3    0  502  0.15888967418E+03 -0.75538468014E+01  0.25424563471E+03  0.29990637199E+03  0.50400001928E-02 0. -1.
</event>
<event>
 5   0  0.4140860E-03  0.1000198E+04  0.7818609E-02  0.9308327E-01
        2   -1    0    0  501    0  0.00000000000E+00  0.00000000000E+00  0.10081904171E+04  0.10081904171E+04  0.25500000920E-02 0. -1.
       -2   -1    0    0    0  501  0.00000000000E+00  0.00000000000E+00 -0.24806736077E+03  0.24806736078E+03  0.25500000920E-02 0.  1.
    10030    2    1    2    0    0  0.00000000000E+00  0.00000000000E+00  0.76012305632E+03  0.12562577779E+04  0.10001982522E+04 0.  0.
        3    1    3    3  502    0 -0.54603940302E+02  0.35349150303E+01  0.10044192307E+04  0.10059085879E+04  0.10100000352E+00 0. -1.
       -3    1    3    3    0  502  0.54603940302E+02 -0.35349150303E+01 -0.24429617439E+03  0.25034919002E+03  0.10100000352E+00 0.  1.
</event>
<event>
 5   0  0.3873874E-03  0.1001831E+04  0.7818609E-02  0.9306539E-01
        2   -1    0    0  501    0  0.00000000000E+00  0.00000000000E+00  0.12070704375E+04  0.12070704375E+04  0.25500000920E-02 0.  1.
       -2   -1    0    0    0  501  0.00000000000E+00  0.00000000000E+00 -0.20787224110E+03  0.20787224112E+03  0.25500000920E-02 0. -1.
    10030    2    1    2    0    0  0.00000000000E+00  0.00000000000E+00  0.99919819639E+03  0.14149426786E+04  0.10018311974E+04 0.  0.
        5    1    3    3  502    0 -0.27702673534E+03  0.36125319338E+03  0.20453265044E+03  0.49910257154E+03  0.46999998093E+01 0.  1.
       -5    1    3    3    0  502  0.27702673534E+03 -0.36125319338E+03  0.79466554595E+03  0.91584010708E+03  0.46999998093E+01 0. -1.
</event>
<event>
 5   0  0.2313036E-03  0.1001385E+04  0.7818609E-02  0.9307027E-01
       -1   -1    0    0    0  501  0.00000000000E+00  0.00000000000E+00  0.13640111301E+03  0.13640111310E+03  0.50400001928E-02 0.  1.
        1   -1    0    0  501    0  0.00000000000E+00  0.00000000000E+00 -0.18379101309E+04  0.18379101309E+04  0.50400001928E-02 0. -1.
    10030    2    1    2    0    0  0.00000000000E+00  0.00000000000E+00 -0.17015090179E+04  0.19743112440E+04  0.10013850160E+04 0.  0.
        3    1    3    3  502    0  0.45668113814E+03 -0.20478845517E+03 -0.87842724654E+03  0.10110046543E+04  0.10100000352E+00 0.  1.
       -3    1    3    3    0  502 -0.45668113814E+03  0.20478845517E+03 -0.82308177136E+03  0.96330658974E+03  0.10100000352E+00 0. -1.
</event>
<event>
 5   0  0.2378609E-03  0.1009266E+04  0.7818609E-02  0.9298440E-01
        1   -1    0    0  501    0  0.00000000000E+00  0.00000000000E+00  0.12938039684E+04  0.12938039684E+04  0.50400001928E-02 0.  1.
       -1   -1    0    0    0  501  0.00000000000E+00  0.00000000000E+00 -0.19682617630E+03  0.19682617636E+03  0.50400001928E-02 0. -1.
    10030    2    1    2    0    0  0.00000000000E+00  0.00000000000E+00  0.10969777921E+04  0.14906301448E+04  0.10092660463E+04 0.  0.
        1    1    3    3  502    0  0.48063868573E+02  0.48436993244E+02  0.12869586060E+04  0.12887663603E+04  0.50400001928E-02 0.  1.
       -1    1    3    3    0  502 -0.48063868573E+02 -0.48436993244E+02 -0.18998081395E+03  0.20186378445E+03  0.50400001928E-02 0. -1.
</event>
<event>
 5   0  0.2313036E-03  0.9886451E+03  0.7818609E-02  0.9321087E-01
        1   -1    0    0  501    0  0.00000000000E+00  0.00000000000E+00  0.77901801662E+03  0.77901801664E+03  0.50400001928E-02 0. -1.
       -1   -1    0    0    0  501  0.00000000000E+00  0.00000000000E+00 -0.31367027538E+03  0.31367027542E+03  0.50400001928E-02 0.  1.
    10030    2    1    2    0    0  0.00000000000E+00  0.00000000000E+00  0.46534774124E+03  0.10926882921E+04  0.98864512507E+03 0.  0.
        3    1    3    3  502    0 -0.22521862383E+03  0.39586868693E+03  0.44503881279E+03  0.63678489375E+03  0.10100000352E+00 0. -1.
       -3    1    3    3    0  502  0.22521862383E+03 -0.39586868693E+03  0.20308928451E+02  0.45590339831E+03  0.10100000352E+00 0.  1.
</event>
<event>
 5   0  0.2378609E-03  0.1003979E+04  0.7818609E-02  0.9304192E-01
        1   -1    0    0  501    0  0.00000000000E+00  0.00000000000E+00  0.11677612245E+04  0.11677612245E+04  0.50400001928E-02 0. -1.
       -1   -1    0    0    0  501  0.00000000000E+00  0.00000000000E+00 -0.21579191274E+03  0.21579191280E+03  0.50400001928E-02 0.  1.
    10030    2    1    2    0    0  0.00000000000E+00  0.00000000000E+00  0.95196931177E+03  0.13835531373E+04  0.10039789406E+04 0.  0.
        1    1    3    3  502    0  0.29551814834E+03  0.17211112921E+03  0.98239526455E+03  0.10402180890E+04  0.50400001928E-02 0. -1.
       -1    1    3    3    0  502 -0.29551814834E+03 -0.17211112921E+03 -0.30425952779E+02  0.34333504835E+03  0.50400001928E-02 0.  1.
</event>
<event>
 5   0  0.2405022E-03  0.9625524E+03  0.7818609E-02  0.9350598E-01
       -1   -1    0    0    0  501  0.00000000000E+00  0.00000000000E+00  0.37924199887E+03  0.37924199890E+03  0.50400001928E-02 0.  1.
        1   -1    0    0  501    0  0.00000000000E+00  0.00000000000E+00 -0.61076249205E+03  0.61076249207E+03  0.50400001928E-02 0. -1.
    10030    2    1    2    0    0  0.00000000000E+00  0.00000000000E+00 -0.23152049319E+03  0.99000449097E+03  0.96255241591E+03 0.  0.
        4    1    3    3  502    0 -0.34875952790E+03  0.79019418023E+02 -0.44704574912E+03  0.57247601821E+03  0.12699999809E+01 0. -1.
       -4    1    3    3    0  502  0.34875952790E+03 -0.79019418023E+02  0.21552525593E+03  0.41752847276E+03  0.12699999809E+01 0.  1.
</event>
<event>
 5   0  0.3826483E-03  0.9996332E+03  0.7818609E-02  0.9308947E-01
        2   -1    0    0  501    0  0.00000000000E+00  0.00000000000E+00  0.17509454557E+04  0.17509454557E+04  0.25500000920E-02 0.  1.
       -2   -1    0    0    0  501  0.00000000000E+00  0.00000000000E+00 -0.14267529282E+03  0.14267529284E+03  0.25500000920E-02 0. -1.
    10030    2    1    2    0    0  0.00000000000E+00  0.00000000000E+00  0.16082701629E+04  0.18936207485E+04  0.99963324400E+03 0.  0.
        4    1    3    3  502    0  0.23777819714E+03  0.15487761205E+03  0.15835474980E+04  0.16087727736E+04  0.12699999809E+01 0.  1.
       -4    1    3    3    0  502 -0.23777819714E+03 -0.15487761205E+03  0.24722664833E+02  0.28484797490E+03  0.12699999809E+01 0. -1.
</event>
<event>
 5   0  0.3873874E-03  0.9951724E+03  0.7818609E-02  0.9313856E-01
        2   -1    0    0  501    0  0.00000000000E+00  0.00000000000E+00  0.91978795759E+03  0.91978795759E+03  0.25500000920E-02 0.  1.
       -2   -1    0    0    0  501  0.00000000000E+00  0.00000000000E+00 -0.26918381678E+03  0.26918381679E+03  0.25500000920E-02 0. -1.
    10030    2    1    2    0    0  0.00000000000E+00  0.00000000000E+00  0.65060414081E+03  0.11889717744E+04  0.99517241332E+03 0.  0.
        5    1    3    3  502    0 -0.11489859486E+03 -0.36513881383E+03  0.70507497290E+03  0.80229723163E+03  0.46999998093E+01 0. -1.
       -5    1    3    3    0  502  0.11489859486E+03  0.36513881383E+03 -0.54470832093E+02  0.38667454275E+03  0.46999998093E+01 0.  1.
</event>
<event>
 5   0  0.2405022E-03  0.9898658E+03  0.7818609E-02  0.9319730E-01
       -1   -1    0    0    0  501  0.00000000000E+00  0.00000000000E+00  0.39054662562E+03  0.39054662565E+03  0.50400001928E-02 0.  1.
        1   -1    0    0  501    0  0.00000000000E+00  0.00000000000E+00 -0.62721977491E+03  0.62721977493E+03  0.50400001928E-02 0. -1.
    10030    2    1    2    0    0  0.00000000000E+00  0.00000000000E+00 -0.23667314930E+03  0.10177664006E+04  0.98986578209E+03 0.  0.
        4    1    3    3  502    0 -0.29061899758E+03  0.38745775644E+03 -0.13612692101E+02  0.48453052852E+03  0.12699999809E+01 0. -1.
       -4    1    3    3    0  502  0.29061899758E+03 -0.38745775644E+03 -0.22306045720E+03  0.53323587206E+03  0.12699999809E+01 0.  1.
</event>
<event>
 5   0  0.4140860E-03  0.9930414E+03  0.7818609E-02  0.9316210E-01
        2   -1    0    0  501    0  0.00000000000E+00  0.00000000000E+00  0.11914412414E+04  0.11914412414E+04  0.25500000920E-02 0.  1.
       -2   -1    0    0    0  501  0.00000000000E+00  0.00000000000E+00 -0.20691981196E+03  0.20691981197E+03  0.25500000920E-02 0. -1.
    10030    2    1    2    0    0  0.00000000000E+00  0.00000000000E+00  0.98452142943E+03  0.13983610534E+04  0.99304138411E+03 0.  0.
        3    1    3    3  502    0  0.87085596579E+02  0.43479031613E+03  0.17768186784E+03  0.47770009053E+03  0.10100000352E+00 0. -1.
       -3    1    3    3    0  502 -0.87085596579E+02 -0.43479031613E+03  0.80683956159E+03  0.92066096283E+03  0.10100000352E+00 0.  1.
</event>
<event>
 5   0  0.4026829E-03  0.1025852E+04  0.7818609E-02  0.9280637E-01
        2   -1    0    0  501    0  0.00000000000E+00  0.00000000000E+00  0.51570718823E+03  0.51570718824E+03  0.25500000920E-02 0. -1.
       -2   -1    0    0    0  501  0.00000000000E+00  0.00000000000E+00 -0.51015940728E+03  0.51015940729E+03  0.25500000920E-02 0.  1.
    10030    2    1    2    0    0  0.00000000000E+00  0.00000000000E+00  0.55477809535E+01  0.10258665955E+04  0.10258515945E+04 0.  0.
        1    1    3    3  502    0  0.15061485808E+03  0.39761143501E+03  0.28968083024E+03  0.51448486096E+03  0.50400001928E-02 0.  1.
       -1    1    3    3    0  502 -0.15061485808E+03 -0.39761143501E+03 -0.28413304929E+03  0.51138173456E+03  0.50400001928E-02 0. -1.
</event>
<event>
 5   0  0.3895011E-03  0.1060367E+04  0.7818609E-02  0.9244706E-01
        2   -1    0    0  501    0  0.00000000000E+00  0.00000000000E+00  0.67883522147E+03  0.67883522148E+03  0.25500000920E-02 0.  1.
       -2   -1    0    0    0  501  0.00000000000E+00  0.00000000000E+00 -0.41408323431E+03  0.41408323432E+03  0.25500000920E-02 0. -1.
    10030    2    1    2    0    0  0.00000000000E+00  0.00000000000E+00  0.26475198716E+03  0.10929184558E+04  0.10603665104E+04 0.  0.
        2    1    3    3  502    0 -0.17286998431E+03 -0.37624675856E+03 -0.20892170545E+03  0.46378220515E+03  0.25500000920E-02 0. -1.
       -2    1    3    3    0  502  0.17286998431E+03  0.37624675856E+03  0.47367369261E+03  0.62913625065E+03  0.25500000920E-02 0.  1.
</event>
<event>
 5   0  0.1548000E-03  0.9981184E+03  0.7818609E-02  0.9310611E-01
       -4   -1    0    0    0  501  0.00000000000E+00  0.00000000000E+00  0.46112435740E+03  0.46112610628E+03  0.12699999809E+01 0.  1.
        4   -1    0    0  501    0  0.00000000000E+00  0.00000000000E+00 -0.54011127052E+03  0.54011276364E+03  0.12699999809E+01 0. -1.
    10030    2    1    2    0    0  0.00000000000E+00  0.00000000000E+00 -0.78986913117E+02  0.10012388699E+04  0.99811840088E+03 0.  0.
        1    1    3    3  502    0 -0.88438047066E+02  0.15594538373E+03 -0.50669607873E+03  0.53747666657E+03  0.50400001928E-02 0. -1.
       -1    1    3    3    0  502  0.88438047066E+02 -0.15594538373E+03  0.42770916562E+03  0.46376220335E+03  0.50400001928E-02 0.  1.
</event>
<event>
 5   0  0.2405022E-03  0.1006921E+04  0.7818609E-02  0.9300987E-01
       -1   -1    0    0    0  501  0.00000000000E+00  0.00000000000E+00  0.65346216782E+03  0.65346216784E+03  0.50400001928E-02 0. -1.
        1   -1    0    0  501    0  0.00000000000E+00  0.00000000000E+00 -0.38789123565E+03  0.38789123568E+03  0.50400001928E-02 0.  1.
    10030    2    1    2    0    0  0.00000000000E+00  0.00000000000E+00  0.26557093217E+03  0.10413534035E+04  0.10069205485E+04 0.  0.
        4    1    3    3  502    0  0.31691277276E+03  0.32580067037E+03  0.35673336970E+03  0.57778896866E+03  0.12699999809E+01 0. -1.
       -4    1    3    3    0  502 -0.31691277276E+03 -0.32580067037E+03 -0.91162437530E+02  0.46356443486E+03  0.12699999809E+01 0.  1.
</event>
<event>
 5   0  0.3873874E-03  0.9972525E+03  0.7818609E-02  0.9311563E-01
        2   -1    0    0  501    0  0.00000000000E+00  0.00000000000E+00  0.30488716838E+03  0.30488716839E+03  0.25500000920E-02 0.  1.
       -2   -1    0    0    0  501  0.00000000000E+00  0.00000000000E+00 -0.81547585715E+03  0.81547585715E+03  0.25500000920E-02 0. -1.
    10030    2    1    2    0    0  0.00000000000E+00  0.00000000000E+00 -0.51058868877E+03  0.11203630255E+04  0.99725247551E+03 0.  0.
        5    1    3    3  502    0  0.37496303217E+02  0.47531776356E+02  0.30071770582E+03  0.30678733858E+03  0.46999998093E+01 0.  1.
       -5    1    3    3    0  502 -0.37496303217E+02 -0.47531776356E+02 -0.81130639459E+03  0.81357568697E+03  0.46999998093E+01 0. -1.
</event>
<event>
 5   0  0.1548000E-03  0.1010581E+04  0.7818609E-02  0.9297015E-01
        4   -1    0    0  501    0  0.00000000000E+00  0.00000000000E+00  0.62252113517E+03  0.62252243063E+03  0.12699999809E+01 0.  1.
       -4   -1    0    0    0  501  0.00000000000E+00  0.00000000000E+00 -0.41013371271E+03  0.41013567901E+03  0.12699999809E+01 0. -1.
    10030    2    1    2    0    0  0.00000000000E+00  0.00000000000E+00  0.21238742246E+03  0.10326581096E+04  0.10105811962E+04 0.  0.
        2    1    3    3  502    0 -0.12973633992E+03 -0.12846671922E+03  0.58763747950E+03  0.61534788792E+03  0.25500000920E-02 0.  1.
       -2    1    3    3    0  502  0.12973633992E+03  0.12846671922E+03 -0.37525005704E+03  0.41731022173E+03  0.25500000920E-02 0. -1.
</event>
<event>
 5   0  0.2327595E-03  0.9994217E+03  0.7818609E-02  0.9309179E-01
        1   -1    0    0  501    0  0.00000000000E+00  0.00000000000E+00  0.81749000270E+03  0.81749000271E+03  0.50400001928E-02 0. -1.
       -1   -1    0    0    0  501  0.00000000000E+00  0.00000000000E+00 -0.30546055396E+03  0.30546055400E+03  0.50400001928E-02 0.  1.
    10030    2    1    2    0    0  0.00000000000E+00  0.00000000000E+00  0.51202944874E+03  0.11229505567E+04  0.99942173103E+03 0.  0.
        5    1    3    3  502    0 -0.27407900638E+03  0.11720284400E+03  0.70662334541E+03  0.76693836170E+03  0.46999998093E+01 0. -1.
       -5    1    3    3    0  502  0.27407900638E+03 -0.11720284400E+03 -0.19459389666E+03  0.35601219501E+03  0.46999998093E+01 0.  1.
</event>
<event>
 5   0  0.2405022E-03  0.1003708E+04  0.7818609E-02  0.9304487E-01
       -1   -1    0    0    0  501  0.00000000000E+00  0.00000000000E+00  0.21319413911E+03  0.21319413917E+03  0.50400001928E-02 0.  1.
        1   -1    0    0  501    0  0.00000000000E+00  0.00000000000E+00 -0.11813526845E+04  0.11813526845E+04  0.50400001928E-02 0. -1.
    10030    2    1    2    0    0  0.00000000000E+00  0.00000000000E+00 -0.96815854539E+03  0.13945468237E+04  0.10037080623E+04 0.  0.
        4    1    3    3  502    0  0.26657144071E+02 -0.41503124620E+03 -0.93824207376E+02  0.42634039621E+03  0.12699999809E+01 0.  1.
       -4    1    3    3    0  502 -0.26657144071E+02  0.41503124620E+03 -0.87433433801E+03  0.96820642746E+03  0.12699999809E+01 0. -1.
</event>
<event>
 5   0  0.2313036E-03  0.9989417E+03  0.7818609E-02  0.9309706E-01
       -1   -1    0    0    0  501  0.00000000000E+00  0.00000000000E+00  0.17935552710E+03  0.17935552717E+03  0.50400001928E-02 0. -1.
        1   -1    0    0  501    0  0.00000000000E+00  0.00000000000E+00 -0.13909308320E+04  0.13909308320E+04  0.50400001928E-02 0.  1.
    10030    2    1    2    0    0  0.00000000000E+00  0.00000000000E+00 -0.12115753049E+04  0.15702863592E+04  0.99894170518E+03 0.  0.
        3    1    3    3  502    0  0.46796061313E+03  0.14441109381E+03 -0.76004250814E+03  0.90416056308E+03  0.10100000352E+00 0.  1.
       -3    1    3    3    0  502 -0.46796061313E+03 -0.14441109381E+03 -0.45153279674E+03  0.66612579607E+03  0.10100000352E+00 0. -1.
</event>
<event>
 5   0  0.1548000E-03  0.9895176E+03  0.7818609E-02  0.9320117E-01
        3   -1    0    0  501    0  0.00000000000E+00  0.00000000000E+00  0.56874873550E+03  0.56874874447E+03  0.10100000352E+00 0.  1.
       -3   -1    0    0    0  501  0.00000000000E+00  0.00000000000E+00 -0.43039436853E+03  0.43039438038E+03  0.10100000352E+00 0. -1.
    10030    2    1    2    0    0  0.00000000000E+00  0.00000000000E+00  0.13835436697E+03  0.99914312485E+03  0.98951758603E+03 0.  0.
        3    1    3    3  502    0 -0.48867736940E+03 -0.66674561550E+02  0.29614614733E+02  0.49409321401E+03  0.10100000352E+00 0. -1.
       -3    1    3    3    0  502  0.48867736940E+03  0.66674561550E+02  0.10873975223E+03  0.50504991084E+03  0.10100000352E+00 0.  1.
</event>
<event>
 5   0  0.2327595E-03  0.1001946E+04  0.7818609E-02  0.9306413E-01
       -1   -1    0    0    0  501  0.00000000000E+00  0.00000000000E+00  0.26816648125E+03  0.26816648130E+03  0.50400001928E-02 0.  1.
        1   -1    0    0  501    0  0.00000000000E+00  0.00000000000E+00 -0.93588886612E+03  0.93588886613E+03  0.50400001928E-02 0. -1.
    10030    2    1    2    0    0  0.00000000000E+00  0.00000000000E+00 -0.66772238487E+03  0.12040553474E+04  0.10019461544E+04 0.  0.
        5    1    3    3  502    0  0.32749668834E+03  0.28471882397E+03 -0.33112443507E+02  0.43524408498E+03  0.46999998093E+01 0.  1.
       -5    1    3    3    0  502 -0.32749668834E+03 -0.28471882397E+03 -0.63460994136E+03  0.76881126245E+03  0.46999998093E+01 0. -1.
</event>
<event>
 5   0  0.2378609E-03  0.9992646E+03  0.7818609E-02  0.9309352E-01
        1   -1    0    0  501    0  0.00000000000E+00  0.00000000000E+00  0.68496327925E+03  0.68496327926E+03  0.50400001928E-02 0.  1.
       -1   -1    0    0    0  501  0.00000000000E+00  0.00000000000E+00 -0.36444645408E+03  0.36444645412E+03  0.50400001928E-02 0. -1.
    10030    2    1    2    0    0  0.00000000000E+00  0.00000000000E+00  0.32051682516E+03  0.10494097334E+04  0.99926460625E+03 0.  0.
        1    1    3    3  502    0  0.46695131164E+02  0.49644738752E+03  0.19333488635E+03  0.53480727571E+03  0.50400001928E-02 0.  1.
       -1    1    3    3    0  502 -0.46695131164E+02 -0.49644738752E+03  0.12718193882E+03  0.51460245767E+03  0.50400001928E-02 0. -1.
</event>
<event>
 5   0  0.1548000E-03  0.9976541E+03  0.7818609E-02  0.9311121E-01
       -3   -1    0    0    0  501  0.00000000000E+00  0.00000000000E+00  0.46253672874E+03  0.46253673976E+03  0.10100000352E+00 0. -1.
        3   -1    0    0  501    0  0.00000000000E+00  0.00000000000E+00 -0.53796469282E+03  0.53796470230E+03  0.10100000352E+00 0.  1.
    10030    2    1    2    0    0  0.00000000000E+00  0.00000000000E+00 -0.75427964081E+02  0.10005014421E+04  0.99765412734E+03 0.  0.
        2    1    3    3  502    0  0.20741517047E+02 -0.12663534947E+03  0.44570088649E+03  0.46380599661E+03  0.25500000920E-02 0. -1.
       -2    1    3    3    0  502 -0.20741517047E+02  0.12663534947E+03 -0.52112885057E+03  0.53669544545E+03  0.25500000920E-02 0.  1.
</event>
<event>
 5   0  0.4026829E-03  0.1011615E+04  0.7818609E-02  0.9295897E-01
        2   -1    0    0  501    0  0.00000000000E+00  0.00000000000E+00  0.77822962950E+03  0.77822962950E+03  0.25500000920E-02 0.  1.
       -2   -1    0    0    0  501  0.00000000000E+00  0.00000000000E+00 -0.32874747296E+03  0.32874747297E+03  0.25500000920E-02 0. -1.
    10030    2    1    2    0    0  0.00000000000E+00  0.00000000000E+00  0.44948215653E+03  0.11069771025E+04  0.10116145987E+04 0.  0.
        1    1    3    3  502    0  0.60544962452E+02 -0.24658417954E+03 -0.25395763936E+03  0.35911548657E+03  0.50400001928E-02 0. -1.
       -1    1    3    3    0  502 -0.60544962452E+02  0.24658417954E+03  0.70343979589E+03  0.74786161591E+03  0.50400001928E-02 0.  1.
</event>
<event>
 5   0  0.2378609E-03  0.9837116E+03  0.7818609E-02  0.9326592E-01
       -1   -1    0    0    0  501  0.00000000000E+00  0.00000000000E+00  0.33993193143E+03  0.33993193147E+03  0.50400001928E-02 0. -1.
        1   -1    0    0  501    0  0.00000000000E+00  0.00000000000E+00 -0.71167815738E+03  0.71167815740E+03  0.50400001928E-02 0.  1.
    10030    2    1    2    0    0  0.00000000000E+00  0.00000000000E+00 -0.37174622595E+03  0.10516100889E+04  0.98371160535E+03 0.  0.
        1    1    3    3  502    0  0.36511567191E+03 -0.24698345308E+03  0.47389147634E+02  0.44334637847E+03  0.50400001928E-02 0. -1.
       -1    1    3    3    0  502 -0.36511567191E+03  0.24698345308E+03 -0.41913537358E+03  0.60826371039E+03  0.50400001928E-02 0.  1.
</event>
<event>
 5   0  0.3826483E-03  0.9996815E+03  0.7818609E-02  0.9308894E-01
        2   -1    0    0  501    0  0.00000000000E+00  0.00000000000E+00  0.14376421066E+04  0.14376421066E+04  0.25500000920E-02 0. -1.
       -2   -1    0    0    0  501  0.00000000000E+00  0.00000000000E+00 -0.17378510054E+03  0.17378510055E+03  0.25500000920E-02 0.  1.
    10030    2    1    2    0    0  0.00000000000E+00  0.00000000000E+00  0.12638570060E+04  0.16114272071E+04  0.99968150536E+03 0.  0.
        4    1    3    3  502    0 -0.49732799592E+03 -0.46099332848E+02  0.60055229057E+03  0.78110495494E+03  0.12699999809E+01 0.  1.
       -4    1    3    3    0  502  0.49732799592E+03  0.46099332848E+02  0.66330471545E+03  0.83032225218E+03  0.12699999809E+01 0. -1.
</event>
<event>
 5   0  0.3873874E-03  0.9990112E+03  0.7818609E-02  0.9309630E-01
       -2   -1    0    0    0  501  0.00000000000E+00  0.00000000000E+00  0.10990072657E+03  0.10990072660E+03  0.25500000920E-02 0. -1.
        2   -1    0    0  501    0  0.00000000000E+00  0.00000000000E+00 -0.22702839903E+04  0.22702839903E+04  0.25500000920E-02 0.  1.
    10030    2    1    2    0    0  0.00000000000E+00  0.00000000000E+00 -0.21603832637E+04  0.23801847169E+04  0.99901123136E+03 0.  0.
        5    1    3    3  502    0  0.37977666891E+03 -0.39104988754E+02 -0.18475185729E+04  0.18865594307E+04  0.46999998093E+01 0.  1.
       -5    1    3    3    0  502 -0.37977666891E+03  0.39104988754E+02 -0.31286469081E+03  0.49362528617E+03  0.46999998093E+01 0. -1.
</event>
<event>
 5   0  0.1548000E-03  0.1007393E+04  0.7818609E-02  0.9300473E-01
       -4   -1    0    0    0  501  0.00000000000E+00  0.00000000000E+00  0.38077982907E+03  0.38078194695E+03  0.12699999809E+01 0.  1.
        4   -1    0    0  501    0  0.00000000000E+00  0.00000000000E+00 -0.66628675729E+03  0.66628796765E+03  0.12699999809E+01 0. -1.
    10030    2    1    2    0    0  0.00000000000E+00  0.00000000000E+00 -0.28550692822E+03  0.10470699146E+04  0.10073932698E+04 0.  0.
        5    1    3    3  502    0 -0.10290255175E+02  0.36594545786E+03  0.21679916059E+03  0.42549492771E+03  0.46999998093E+01 0.  1.
       -5    1    3    3    0  502  0.10290255175E+02 -0.36594545786E+03 -0.50230608881E+03  0.62157498689E+03  0.46999998093E+01 0. -1.
</event>
<event>
 5   0  0.2378609E-03  0.1001180E+04  0.7818609E-02  0.9307251E-01
        1   -1    0    0  501    0  0.00000000000E+00  0.00000000000E+00  0.17466689459E+04  0.17466689459E+04  0.50400001928E-02 0.  1.
       -1   -1    0    0    0  501  0.00000000000E+00  0.00000000000E+00 -0.14346760126E+03  0.14346760135E+03  0.50400001928E-02 0. -1.
    10030    2    1    2    0    0  0.00000000000E+00  0.00000000000E+00  0.16032013446E+04  0.18901365472E+04  0.10011801116E+04 0.  0.
        1    1    3    3  502    0  0.15427689499E+02  0.23511890511E+03 -0.32230001512E+02  0.23781859929E+03  0.50400001928E-02 0. -1.
       -1    1    3    3    0  502 -0.15427689499E+02 -0.23511890511E+03  0.16354313461E+04  0.16523179479E+04  0.50400001928E-02 0.  1.
</event>
<event>
 5   0  0.3895011E-03  0.9987907E+03  0.7818609E-02  0.9309872E-01
       -2   -1    0    0    0  501  0.00000000000E+00  0.00000000000E+00  0.80191532587E+03  0.80191532587E+03  0.25500000920E-02 0.  1.
        2   -1    0    0  501    0  0.00000000000E+00  0.00000000000E+00 -0.31100004404E+03  0.31100004405E+03  0.25500000920E-02 0. -1.
    10030    2    1    2    0    0  0.00000000000E+00  0.00000000000E+00  0.49091528182E+03  0.11129153699E+04  0.99879067210E+03 0.  0.
        2    1    3    3  502    0  0.16739835902E+03 -0.26595931909E+03  0.67792821652E+03  0.74722368590E+03  0.25500000920E-02 0.  1.
       -2    1    3    3    0  502 -0.16739835902E+03  0.26595931909E+03 -0.18701293469E+03  0.36569168402E+03  0.25500000920E-02 0. -1.
</event>
<event>
 5   0  0.2313036E-03  0.9959058E+03  0.7818609E-02  0.9313047E-01
        1   -1    0    0  501    0  0.00000000000E+00  0.00000000000E+00  0.39689186665E+03  0.39689186668E+03  0.50400001928E-02 0. -1.
       -1   -1    0    0    0  501  0.00000000000E+00  0.00000000000E+00 -0.62474722270E+03  0.62474722272E+03  0.50400001928E-02 0.  1.
    10030    2    1    2    0    0  0.00000000000E+00  0.00000000000E+00 -0.22785535605E+03  0.10216390894E+04  0.99590580162E+03 0.  0.
        3    1    3    3  502    0 -0.22561010720E+03 -0.37845348699E+03  0.12408051582E+03  0.45773676594E+03  0.10100000352E+00 0. -1.
       -3    1    3    3    0  502  0.22561010720E+03  0.37845348699E+03 -0.35193587187E+03  0.56390232346E+03  0.10100000352E+00 0.  1.
</event>
<event>
 5   0  0.2313036E-03  0.9892723E+03  0.7818609E-02  0.9320390E-01
       -1   -1    0    0    0  501  0.00000000000E+00  0.00000000000E+00  0.24745767816E+03  0.24745767821E+03  0.50400001928E-02 0. -1.
        1   -1    0    0  501    0  0.00000000000E+00  0.00000000000E+00 -0.98871422434E+03  0.98871422436E+03  0.50400001928E-02 0.  1.
    10030    2    1    2    0    0  0.00000000000E+00  0.00000000000E+00 -0.74125654618E+03  0.12361719026E+04  0.98927231107E+03 0.  0.
        3    1    3    3  502    0  0.45554452163E+02  0.18269187574E+03 -0.94218290574E+03  0.96081224370E+03  0.10100000352E+00 0.  1.
       -3    1    3    3    0  502 -0.45554452163E+02 -0.18269187574E+03  0.20092635955E+03  0.27535965888E+03  0.10100000352E+00 0. -1.
</event>
<event>
 5   0  0.3895011E-03  0.9949888E+03  0.7818609E-02  0.9314058E-01
        2   -1    0    0  501    0  0.00000000000E+00  0.00000000000E+00  0.83430560258E+03  0.83430560259E+03  0.25500000920E-02 0.  1.
       -2   -1    0    0    0  501  0.00000000000E+00  0.00000000000E+00 -0.29665468487E+03  0.29665468488E+03  0.25500000920E-02 0. -1.
    10030    2    1    2    0    0  0.00000000000E+00  0.00000000000E+00  0.53765091771E+03  0.11309602875E+04  0.99498877507E+03 0.  0.
        2    1    3    3  502    0  0.32839287599E+03  0.18521516997E+03 -0.10011386475E+03  0.39008886951E+03  0.25500000920E-02 0. -1.
       -2    1    3    3    0  502 -0.32839287599E+03 -0.18521516997E+03  0.63776478246E+03  0.74087141796E+03  0.25500000920E-02 0.  1.
</event>
<event>
 5   0  0.2327595E-03  0.1000015E+04  0.7818609E-02  0.9308529E-01
        1   -1    0    0  501    0  0.00000000000E+00  0.00000000000E+00  0.51203025218E+03  0.51203025221E+03  0.50400001928E-02 0. -1.
       -1   -1    0    0    0  501  0.00000000000E+00  0.00000000000E+00 -0.48826688405E+03  0.48826688407E+03  0.50400001928E-02 0.  1.
    10030    2    1    2    0    0  0.00000000000E+00  0.00000000000E+00  0.23763368135E+02  0.10002971363E+04  0.10000148315E+04 0.  0.
        5    1    3    3  502    0  0.73184405918E+02  0.41276784822E+03  0.28445094267E+03  0.50662380775E+03  0.46999998093E+01 0. -1.
       -5    1    3    3    0  502 -0.73184405918E+02 -0.41276784822E+03 -0.26068757453E+03  0.49367332854E+03  0.46999998093E+01 0.  1.
</event>
<event>
 5   0  0.4140860E-03  0.9488573E+03  0.7818609E-02  0.9366487E-01
       -2   -1    0    0    0  501  0.00000000000E+00  0.00000000000E+00  0.58331166252E+03  0.58331166252E+03  0.25500000920E-02 0. -1.
        2   -1    0    0  501    0  0.00000000000E+00  0.00000000000E+00 -0.38587011996E+03  0.38587011997E+03  0.25500000920E-02 0.  1.
    10030    2    1    2    0    0  0.00000000000E+00  0.00000000000E+00  0.19744154255E+03  0.96918178250E+03  0.94885729422E+03 0.  0.
        3    1    3    3  502    0  0.42132625160E+03  0.12894016152E+02  0.32110072884E+03  0.52989409716E+03  0.10100000352E+00 0. -1.
       -3    1    3    3    0  502 -0.42132625160E+03 -0.12894016152E+02 -0.12365918629E+03  0.43928768534E+03  0.10100000352E+00 0.  1.
</event>
<event>
 5   0  0.4140860E-03  0.9864406E+03  0.7818609E-02  0.9323543E-01
        2   -1    0    0  501    0  0.00000000000E+00  0.00000000000E+00  0.47912362942E+03  0.47912362943E+03  0.25500000920E-02 0.  1.
       -2   -1    0    0    0  501  0.00000000000E+00  0.00000000000E+00 -0.50773174300E+03  0.50773174300E+03  0.25500000920E-02 0. -1.
    10030    2    1    2    0    0  0.00000000000E+00  0.00000000000E+00 -0.28608113574E+02  0.98685537243E+03  0.98644062261E+03 0.  0.
        3    1    3    3  502    0  0.83870937391E+01  0.13598275319E+03 -0.48853354448E+03  0.50717520325E+03  0.10100000352E+00 0. -1.
       -3    1    3    3    0  502 -0.83870937391E+01 -0.13598275319E+03  0.45992543091E+03  0.47968016918E+03  0.10100000352E+00 0.  1.
</event>
<event>
 5   0  0.3895011E-03  0.9997821E+03  0.7818609E-02  0.9308784E-01
       -2   -1    0    0    0  501  0.00000000000E+00  0.00000000000E+00  0.14976196496E+04  0.14976196496E+04  0.25500000920E-02 0.  1.
        2   -1    0    0  501    0  0.00000000000E+00  0.00000000000E+00 -0.16685881308E+03  0.16685881310E+03  0.25500000920E-02 0. -1.
    10030    2    1    2    0    0  0.00000000000E+00  0.00000000000E+00  0.13307608365E+04  0.16644784627E+04  0.99978205063E+03 0.  0.
        2    1    3    3  502    0  0.56130101942E+02 -0.39832052021E+03  0.17128083730E+03  0.43720355716E+03  0.25500000920E-02 0. -1.
       -2    1    3    3    0  502 -0.56130101942E+02  0.39832052021E+03  0.11594799992E+04  0.12272749055E+04  0.25500000920E-02 0.  1.
</event>
<event>
 5   0  0.2405022E-03  0.9931295E+03  0.7818609E-02  0.9316112E-01
       -1   -1    0    0    0  501  0.00000000000E+00  0.00000000000E+00  0.29045229086E+03  0.29045229091E+03  0.50400001928E-02 0. -1.
        1   -1    0    0  501    0  0.00000000000E+00  0.00000000000E+00 -0.84893999487E+03  0.84893999489E+03  0.50400001928E-02 0.  1.
    10030    2    1    2    0    0  0.00000000000E+00  0.00000000000E+00 -0.55848770401E+03  0.11393922858E+04  0.99312953102E+03 0.  0.
        4    1    3    3  502    0  0.10350035123E+03 -0.26407042176E+03 -0.74686127413E+03  0.79890480412E+03  0.12699999809E+01 0.  1.
       -4    1    3    3    0  502 -0.10350035123E+03  0.26407042176E+03  0.18837357012E+03  0.34048748167E+03  0.12699999809E+01 0. -1.
</event>
<event>
 5   0  0.4026829E-03  0.1000111E+04  0.7818609E-02  0.9308423E-01
       -2   -1    0    0    0  501  0.00000000000E+00  0.00000000000E+00  0.96298937800E+02  0.96298937834E+02  0.25500000920E-02 0.  1.
        2   -1    0    0  501    0  0.00000000000E+00  0.00000000000E+00 -0.25966610438E+04  0.25966610438E+04  0.25500000920E-02 0. -1.
    10030    2    1    2    0    0  0.00000000000E+00  0.00000000000E+00 -0.25003621060E+04  0.26929599817E+04  0.10001113946E+04 0.  0.
        1    1    3    3  502    0  0.44995473453E+03 -0.18398716804E+03 -0.93449426082E+03  0.10533708106E+04  0.50400001928E-02 0.  1.
       -1    1    3    3    0  502 -0.44995473453E+03  0.18398716804E+03 -0.15658678452E+04  0.16395891710E+04  0.50400001928E-02 0. -1.
</event>
<event>
 5   0  0.3895011E-03  0.9933674E+03  0.7818609E-02  0.9315849E-01
        2   -1    0    0  501    0  0.00000000000E+00  0.00000000000E+00  0.14287221612E+04  0.14287221612E+04  0.25500000920E-02 0.  1.
       -2   -1    0    0    0  501  0.00000000000E+00  0.00000000000E+00 -0.17266807524E+03  0.17266807526E+03  0.25500000920E-02 0. -1.
    10030    2    1    2    0    0  0.00000000000E+00  0.00000000000E+00  0.12560540859E+04  0.16013902364E+04  0.99336741569E+03 0.  0.
        2    1    3    3  502    0  0.38308528781E+03  0.29472154302E+03  0.81239445731E+03  0.94530412034E+03  0.25500000920E-02 0.  1.
       -2    1    3    3    0  502 -0.38308528781E+03 -0.29472154302E+03  0.44365962863E+03  0.65608611610E+03  0.25500000920E-02 0. -1.
</event>
<event>
 5   0  0.3826483E-03  0.9977852E+03  0.7818609E-02  0.9310977E-01
        2   -1    0    0  501    0  0.00000000000E+00  0.00000000000E+00  0.14125100462E+04  0.14125100462E+04  0.25500000920E-02 0.  1.
       -2   -1    0    0    0  501  0.00000000000E+00  0.00000000000E+00 -0.17620676617E+03  0.17620676619E+03  0.25500000920E-02 0. -1.
    10030    2    1    2    0    0  0.00000000000E+00  0.00000000000E+00  0.12363032801E+04  0.15887168124E+04  0.99778520222E+03 0.  0.
        4    1    3    3  502    0 -0.41029872532E+03 -0.11985741558E+03  0.20853526419E+03  0.47560426132E+03  0.12699999809E+01 0. -1.
       -4    1    3    3    0  502  0.41029872532E+03  0.11985741558E+03  0.10277680159E+04  0.11131125511E+04  0.12699999809E+01 0.  1.
</event>
<event>
 5   0  0.4140860E-03  0.8843863E+03  0.7818609E-02  0.9445313E-01
        2   -1    0    0  501    0  0.00000000000E+00  0.00000000000E+00  0.12894043405E+04  0.12894043405E+04  0.25500000920E-02 0. -1.
       -2   -1    0    0    0  501  0.00000000000E+00  0.00000000000E+00 -0.15164738148E+03  0.15164738150E+03  0.25500000920E-02 0.  1.
    10030    2    1    2    0    0  0.00000000000E+00  0.00000000000E+00  0.11377569590E+04  0.14410517220E+04  0.88438632265E+03 0.  0.
        3    1    3    3  502    0  0.41519807588E+03 -0.67587851749E+02  0.34678902647E+03  0.54517905224E+03  0.10100000352E+00 0.  1.
       -3    1    3    3    0  502 -0.41519807588E+03  0.67587851749E+02  0.79096793257E+03  0.89587266979E+03  0.10100000352E+00 0. -1.
</event>
<event>
 5   0  0.1548000E-03  0.1004870E+04  0.7818609E-02  0.9303219E-01
       -4   -1    0    0    0  501  0.00000000000E+00  0.00000000000E+00  0.31857895443E+03  0.31858148581E+03  0.12699999809E+01 0. -1.
        4   -1    0    0  501    0  0.00000000000E+00  0.00000000000E+00 -0.79239122537E+03  0.79239224311E+03  0.12699999809E+01 0.  1.
    10030    2    1    2    0    0  0.00000000000E+00  0.00000000000E+00 -0.47381227095E+03  0.11109737289E+04  0.10048704186E+04 0.  0.
        3    1    3    3  502    0 -0.45985183525E+02 -0.16115509436E+03  0.28676919435E+03  0.33214783240E+03  0.10100000352E+00 0. -1.
       -3    1    3    3    0  502  0.45985183525E+02  0.16115509436E+03 -0.76058146530E+03  0.77882589652E+03  0.10100000352E+00 0.  1.
</event>
<event>
 5   0  0.4026829E-03  0.1004722E+04  0.7818609E-02  0.9303381E-01
       -2   -1    0    0    0  501  0.00000000000E+00  0.00000000000E+00  0.64947592955E+03  0.64947592956E+03  0.25500000920E-02 0. -1.
        2   -1    0    0  501    0  0.00000000000E+00  0.00000000000E+00 -0.38856950164E+03  0.38856950165E+03  0.25500000920E-02 0.  1.
    10030    2    1    2    0    0  0.00000000000E+00  0.00000000000E+00  0.26090642791E+03  0.10380454312E+04  0.10047219283E+04 0.  0.
        1    1    3    3  502    0  0.78767649326E+02 -0.49605073449E+03  0.12033743430E+03  0.51648017570E+03  0.50400001928E-02 0.  1.
       -1    1    3    3    0  502 -0.78767649326E+02  0.49605073449E+03  0.14056899361E+03  0.52156525551E+03  0.50400001928E-02 0. -1.
</event>
<event>
 5   0  0.3826483E-03  0.9973762E+03  0.7818609E-02  0.9311427E-01
       -2   -1    0    0    0  501  0.00000000000E+00  0.00000000000E+00  0.39830638776E+03  0.39830638777E+03  0.25500000920E-02 0. -1.
        2   -1    0    0  501    0  0.00000000000E+00  0.00000000000E+00 -0.62436813016E+03  0.62436813016E+03  0.25500000920E-02 0.  1.
    10030    2    1    2    0    0  0.00000000000E+00  0.00000000000E+00 -0.22606174239E+03  0.10226745179E+04  0.99737618693E+03 0.  0.
        4    1    3    3  502    0  0.32219879306E+03  0.26432195298E+03 -0.39385741280E+03  0.57341383973E+03  0.12699999809E+01 0.  1.
       -4    1    3    3    0  502 -0.32219879306E+03 -0.26432195298E+03  0.16779567041E+03  0.44926067821E+03  0.12699999809E+01 0. -1.
</event>
<event>
 5   0  0.2378609E-03  0.9988403E+03  0.7818609E-02  0.9309818E-01
        1   -1    0    0  501    0  0.00000000000E+00  0.00000000000E+00  0.45644002754E+03  0.45644002757E+03  0.50400001928E-02 0. -1.
       -1   -1    0    0    0  501  0.00000000000E+00  0.00000000000E+00 -0.54644747358E+03  0.54644747360E+03  0.50400001928E-02 0.  1.
    10030    2    1    2    0    0  0.00000000000E+00  0.00000000000E+00 -0.90007446042E+02  0.10028875012E+04  0.99884032741E+03 0.  0.
        1    1    3    3  502    0  0.16667817472E+03  0.98525144623E+02  0.41722198117E+03  0.45995978047E+03  0.50400001928E-02 0. -1.
       -1    1    3    3    0  502 -0.16667817472E+03 -0.98525144623E+02 -0.50722942721E+03  0.54292772070E+03  0.50400001928E-02 0.  1.
</event>
<event>
 5   0  0.2350769E-03  0.1001425E+04  0.7818609E-02  0.9306984E-01
       -1   -1    0    0    0  501  0.00000000000E+00  0.00000000000E+00  0.12223164496E+04  0.12223164497E+04  0.50400001928E-02 0.  1.
        1   -1    0    0  501    0  0.00000000000E+00  0.00000000000E+00 -0.20511285496E+03  0.20511285503E+03  0.50400001928E-02 0. -1.
    10030    2    1    2    0    0  0.00000000000E+00  0.00000000000E+00  0.10172035947E+04  0.14274293047E+04  0.10014246186E+04 0.  0.
        2    1    3    3  502    0 -0.36000871659E+03 -0.34743418530E+03  0.48023573506E+03  0.69350064915E+03  0.25500000920E-02 0.  1.
       -2    1    3    3    0  502  0.36000871659E+03  0.34743418530E+03  0.53696785963E+03  0.73392865554E+03  0.25500000920E-02 0. -1.
</event>
<event>
 5   0  0.2327595E-03  0.9791399E+03  0.7818609E-02  0.9331724E-01
       -1   -1    0    0    0  501  0.00000000000E+00  0.00000000000E+00  0.12928970937E+04  0.12928970937E+04  0.50400001928E-02 0.  1.
        1   -1    0    0  501    0  0.00000000000E+00  0.00000000000E+00 -0.18538114365E+03  0.18538114371E+03  0.50400001928E-02 0. -1.
    10030    2    1    2    0    0  0.00000000000E+00  0.00000000000E+00  0.11075159501E+04  0.14782782374E+04  0.97913991219E+03 0.  0.
        5    1    3    3  502    0 -0.14662572278E+02  0.31176528592E+03 -0.15656509944E+02  0.31253767906E+03  0.46999998093E+01 0. -1.
       -5    1    3    3    0  502  0.14662572278E+02 -0.31176528592E+03  0.11231724600E+04  0.11657405584E+04  0.46999998093E+01 0.  1.
</event>
<event>
 5   0  0.1548000E-03  0.1000448E+04  0.7818609E-02  0.9308054E-01
        3   -1    0    0  501    0  0.00000000000E+00  0.00000000000E+00  0.95899254747E+03  0.95899255279E+03  0.10100000352E+00 0.  1.
       -3   -1    0    0    0  501  0.00000000000E+00  0.00000000000E+00 -0.26092367140E+03  0.26092369095E+03  0.10100000352E+00 0. -1.
    10030    2    1    2    0    0  0.00000000000E+00  0.00000000000E+00  0.69806887607E+03  0.12199162437E+04  0.10004476428E+04 0.  0.
        2    1    3    3  502    0 -0.40179397092E+03  0.55755840220E+01  0.71230530374E+03  0.81783147894E+03  0.25500000920E-02 0.  1.
       -2    1    3    3    0  502  0.40179397092E+03 -0.55755840220E+01 -0.14236427670E+02  0.40208476480E+03  0.25500000920E-02 0. -1.
</event>
<event>
 5   0  0.2313036E-03  0.1004551E+04  0.7818609E-02  0.9303567E-01
       -1   -1    0    0    0  501  0.00000000000E+00  0.00000000000E+00  0.34213593152E+03  0.34213593156E+03  0.50400001928E-02 0. -1.
        1   -1    0    0  501    0  0.00000000000E+00  0.00000000000E+00 -0.73737023648E+03  0.73737023650E+03  0.50400001928E-02 0.  1.
    10030    2    1    2    0    0  0.00000000000E+00  0.00000000000E+00 -0.39523430496E+03  0.10795061681E+04  0.10045513481E+04 0.  0.
        3    1    3    3  502    0  0.26714026911E+03  0.13020908981E+03  0.23751910197E+03  0.38043877885E+03  0.10100000352E+00 0. -1.
       -3    1    3    3    0  502 -0.26714026911E+03 -0.13020908981E+03 -0.63275340694E+03  0.69906738920E+03  0.10100000352E+00 0.  1.
</event>
<event>
 5   0  0.3826483E-03  0.1003772E+04  0.7818609E-02  0.9304417E-01
        2   -1    0    0  501    0  0.00000000000E+00  0.00000000000E+00  0.87801937764E+03  0.87801937764E+03  0.25500000920E-02 0.  1.
       -2   -1    0    0    0  501  0.00000000000E+00  0.00000000000E+00 -0.28688393267E+03  0.28688393268E+03  0.25500000920E-02 0. -1.
    10030    2    1    2    0    0  0.00000000000E+00  0.00000000000E+00  0.59113544497E+03  0.11649033103E+04  0.10037721893E+04 0.  0.
        4    1    3    3  502    0 -0.46941016448E+01  0.67372859169E+02  0.87271998122E+03  0.87533017500E+03  0.12699999809E+01 0.  1.
       -4    1    3    3    0  502  0.46941016448E+01 -0.67372859169E+02 -0.28158453625E+03  0.28957313532E+03  0.12699999809E+01 0. -1.
</event>
<event>
 5   0  0.2378609E-03  0.9977594E+03  0.7818609E-02  0.9311006E-01
       -1   -1    0    0    0  501  0.00000000000E+00  0.00000000000E+00  0.15431572216E+03  0.15431572225E+03  0.50400001928E-02 0.  1.
        1   -1    0    0  501    0  0.00000000000E+00  0.00000000000E+00 -0.16128037725E+04  0.16128037725E+04  0.50400001928E-02 0. -1.
    10030    2    1    2    0    0  0.00000000000E+00  0.00000000000E+00 -0.14584880503E+04  0.17671194947E+04  0.99775944783E+03 0.  0.
        1    1    3    3  502    0  0.40077465459E+03 -0.19106514149E+03 -0.32632734451E+03  0.55101338265E+03  0.50400001928E-02 0.  1.
       -1    1    3    3    0  502 -0.40077465459E+03  0.19106514149E+03 -0.11321607058E+04  0.12161061121E+04  0.50400001928E-02 0. -1.
</event>
<event>
 5   0  0.3873874E-03  0.9958917E+03  0.7818609E-02  0.9313062E-01
       -2   -1    0    0    0  501  0.00000000000E+00  0.00000000000E+00  0.33384268810E+03  0.33384268811E+03  0.25500000920E-02 0.  1.
        2   -1    0    0  501    0  0.00000000000E+00  0.00000000000E+00 -0.74271533631E+03  0.74271533632E+03  0.25500000920E-02 0. -1.
    10030    2    1    2    0    0  0.00000000000E+00  0.00000000000E+00 -0.40887264821E+03  0.10765580244E+04  0.99589172981E+03 0.  0.
        5    1    3    3  502    0 -0.42258118556E+03  0.26288982296E+03 -0.22125539704E+03  0.54466683222E+03  0.46999998093E+01 0. -1.
       -5    1    3    3    0  502  0.42258118556E+03 -0.26288982296E+03 -0.18761725117E+03  0.53189119221E+03  0.46999998093E+01 0.  1.
</event>
<event>
 5   0  0.3873874E-03  0.9986782E+03  0.7818609E-02  0.9309996E-01
        2   -1    0    0  501    0  0.00000000000E+00  0.00000000000E+00  0.13338783175E+04  0.13338783175E+04  0.25500000920E-02 0.  1.
       -2   -1    0    0    0  501  0.00000000000E+00  0.00000000000E+00 -0.18692824466E+03  0.18692824468E+03  0.25500000920E-02 0. -1.
    10030    2    1    2    0    0  0.00000000000E+00  0.00000000000E+00  0.11469500728E+04  0.15208065621E+04  0.99867819139E+03 0.  0.
        5    1    3    3  502    0  0.23314950361E+03 -0.43963593574E+03  0.51107667674E+03  0.71334417116E+03  0.46999998093E+01 0. -1.
       -5    1    3    3    0  502 -0.23314950361E+03  0.43963593574E+03  0.63587339605E+03  0.80746239097E+03  0.46999998093E+01 0.  1.
</event>
<event>
 5   0  0.3873874E-03  0.9928975E+03  0.7818609E-02  0.9316369E-01
       -2   -1    0    0    0  501  0.00000000000E+00  0.00000000000E+00  0.26650877216E+03  0.26650877217E+03  0.25500000920E-02 0.  1.
        2   -1    0    0  501    0  0.00000000000E+00  0.00000000000E+00 -0.92477771359E+03  0.92477771359E+03  0.25500000920E-02 0. -1.
    10030    2    1    2    0    0  0.00000000000E+00  0.00000000000E+00 -0.65826894143E+03  0.11912864858E+04  0.99289752337E+03 0.  0.
        5    1    3    3  502    0  0.13809349448E+03  0.17131015436E+03 -0.86304543403E+03  0.89066631990E+03  0.46999998093E+01 0. -1.
       -5    1    3    3    0  502 -0.13809349448E+03 -0.17131015436E+03  0.20477649260E+03  0.30062016586E+03  0.46999998093E+01 0.  1.
</event>
<event>
 5   0  0.3895011E-03  0.1011635E+04  0.7818609E-02  0.9295875E-01
        2   -1    0    0  501    0  0.00000000000E+00  0.00000000000E+00  0.41098450139E+03  0.41098450139E+03  0.25500000920E-02 0. -1.
       -2   -1    0    0    0  501  0.00000000000E+00  0.00000000000E+00 -0.62253335278E+03  0.62253335278E+03  0.25500000920E-02 0.  1.
    10030    2    1    2    0    0  0.00000000000E+00  0.00000000000E+00 -0.21154885139E+03  0.10335178542E+04  0.10116354276E+04 0.  0.
        2    1    3    3  502    0  0.34645937222E+02  0.27565943970E+03  0.32605414852E+03  0.42836873769E+03  0.25500000920E-02 0. -1.
       -2    1    3    3    0  502 -0.34645937222E+02 -0.27565943970E+03 -0.53760299991E+03  0.60514911648E+03  0.25500000920E-02 0.  1.
</event>
<event>
 5   0  0.2405022E-03  0.1014997E+04  0.7818609E-02  0.9292247E-01
        1   -1    0    0  501    0  0.00000000000E+00  0.00000000000E+00  0.12081423573E+04  0.12081423573E+04  0.50400001928E-02 0.  1.
       -1   -1    0    0    0  501  0.00000000000E+00  0.00000000000E+00 -0.21318256750E+03  0.21318256756E+03  0.50400001928E-02 0. -1.
    10030    2    1    2    0    0  0.00000000000E+00  0.00000000000E+00  0.99495978977E+03  0.14213249248E+04  0.10149973196E+04 0.  0.
        4    1    3    3  502    0  0.34465260385E+02  0.12288838838E+03  0.11852996078E+04  0.11921519129E+04  0.12699999809E+01 0.  1.
       -4    1    3    3    0  502 -0.34465260385E+02 -0.12288838838E+03 -0.19033981806E+03  0.22917301196E+03  0.12699999809E+01 0. -1.
</event>
<event>
 5   0  0.4026829E-03  0.1009668E+04  0.7818609E-02  0.9298004E-01
       -2   -1    0    0    0  501  0.00000000000E+00  0.00000000000E+00  0.40199262628E+03  0.40199262629E+03  0.25500000920E-02 0.  1.
        2   -1    0    0  501    0  0.00000000000E+00  0.00000000000E+00 -0.63398512521E+03  0.63398512522E+03  0.25500000920E-02 0. -1.
    10030    2    1    2    0    0  0.00000000000E+00  0.00000000000E+00 -0.23199249894E+03  0.10359777515E+04  0.10096679563E+04 0.  0.
        1    1    3    3  502    0 -0.41757509233E+03 -0.14223840582E+03 -0.36786497927E+03  0.57439129940E+03  0.50400001928E-02 0.  1.
       -1    1    3    3    0  502  0.41757509233E+03  0.14223840582E+03  0.13587248034E+03  0.46158645210E+03  0.50400001928E-02 0. -1.
</event>
<event>
 5   0  0.3873874E-03  0.1000698E+04  0.7818609E-02  0.9307780E-01
        2   -1    0    0  501    0  0.00000000000E+00  0.00000000000E+00  0.47106179118E+03  0.47106179119E+03  0.25500000920E-02 0. -1.
       -2   -1    0    0    0  501  0.00000000000E+00  0.00000000000E+00 -0.53145683722E+03  0.53145683723E+03  0.25500000920E-02 0.  1.
    10030    2    1    2    0    0  0.00000000000E+00  0.00000000000E+00 -0.60395046045E+02  0.10025186284E+04  0.10006977759E+04 0.  0.
        5    1    3    3  502    0  0.31900723925E+03  0.37346222385E+03  0.65303097464E+02  0.49550604020E+03  0.46999998093E+01 0. -1.
       -5    1    3    3    0  502 -0.31900723925E+03 -0.37346222385E+03 -0.12569814351E+03  0.50701258822E+03  0.46999998093E+01 0.  1.
</event>
<event>
 5   0  0.3826483E-03  0.9990502E+03  0.7818609E-02  0.9309587E-01
       -2   -1    0    0    0  501  0.00000000000E+00  0.00000000000E+00  0.45253202743E+03  0.45253202744E+03  0.25500000920E-02 0. -1.
        2   -1    0    0  501    0  0.00000000000E+00  0.00000000000E+00 -0.55139815276E+03  0.55139815276E+03  0.25500000920E-02 0.  1.
    10030    2    1    2    0    0  0.00000000000E+00  0.00000000000E+00 -0.98866125324E+02  0.10039301802E+04  0.99905019693E+03 0.  0.
        4    1    3    3  502    0  0.21835649624E+03  0.44589157164E+03 -0.10470041955E+03  0.50740776883E+03  0.12699999809E+01 0. -1.
       -4    1    3    3    0  502 -0.21835649624E+03 -0.44589157164E+03  0.58342942310E+01  0.49652241138E+03  0.12699999809E+01 0.  1.
</event>
<event>
 5   0  0.4140860E-03  0.9963481E+03  0.7818609E-02  0.9312559E-01
       -2   -1    0    0    0  501  0.00000000000E+00  0.00000000000E+00  0.20181528596E+03  0.20181528598E+03  0.25500000920E-02 0.  1.
        2   -1    0    0  501    0  0.00000000000E+00  0.00000000000E+00 -0.12297253444E+04  0.12297253444E+04  0.25500000920E-02 0. -1.
    10030    2    1    2    0    0  0.00000000000E+00  0.00000000000E+00 -0.10279100584E+04  0.14315406303E+04  0.99634807581E+03 0.  0.
        3    1    3    3  502    0  0.31534716476E+03 -0.12284671926E+03  0.11292984281E+02  0.33861880109E+03  0.10100000352E+00 0.  1.
       -3    1    3    3    0  502 -0.31534716476E+03  0.12284671926E+03 -0.10392030427E+04  0.10929218293E+04  0.10100000352E+00 0. -1.
</event>
<event>
 5   0  0.3873874E-03  0.9812199E+03  0.7818609E-02  0.9329386E-01
       -2   -1    0    0    0  501  0.00000000000E+00  0.00000000000E+00  0.11144306605E+03  0.11144306608E+03  0.25500000920E-02 0.  1.
        2   -1    0    0  501    0  0.00000000000E+00  0.00000000000E+00 -0.21598305643E+04  0.21598305643E+04  0.25500000920E-02 0. -1.
    10030    2    1    2    0    0  0.00000000000E+00  0.00000000000E+00 -0.20483874982E+04  0.22712736304E+04  0.98121993513E+03 0.  0.
        5    1    3    3  502    0 -0.17442456796E+03  0.41834852974E+03 -0.58968325812E+03  0.74376599623E+03  0.46999998093E+01 0.  1.
       -5    1    3    3    0  502  0.17442456796E+03 -0.41834852974E+03 -0.14587042401E+04  0.15275076341E+04  0.46999998093E+01 0. -1.
</event>
<event>
 5   0  0.2405022E-03  0.9926846E+03  0.7818609E-02  0.9316605E-01
       -1   -1    0    0    0  501  0.00000000000E+00  0.00000000000E+00  0.30634783574E+03  0.30634783578E+03  0.50400001928E-02 0.  1.
        1   -1    0    0  501    0  0.00000000000E+00  0.00000000000E+00 -0.80416980900E+03  0.80416980902E+03  0.50400001928E-02 0. -1.
    10030    2    1    2    0    0  0.00000000000E+00  0.00000000000E+00 -0.49782197326E+03  0.11105176448E+04  0.99268460366E+03 0.  0.
        4    1    3    3  502    0 -0.46448233356E+03  0.11190795667E+03 -0.39936213618E+03  0.62270294497E+03  0.12699999809E+01 0. -1.
       -4    1    3    3    0  502  0.46448233356E+03 -0.11190795667E+03 -0.98459837080E+02  0.48781469983E+03  0.12699999809E+01 0.  1.
</event>
<event>
 5   0  0.2313036E-03  0.9952564E+03  0.7818609E-02  0.9313763E-01
       -1   -1    0    0    0  501  0.00000000000E+00  0.00000000000E+00  0.11503898773E+03  0.11503898784E+03  0.50400001928E-02 0.  1.
        1   -1    0    0  501    0  0.00000000000E+00  0.00000000000E+00 -0.21526076500E+04  0.21526076500E+04  0.50400001928E-02 0. -1.
    10030    2    1    2    0    0  0.00000000000E+00  0.00000000000E+00 -0.20375686622E+04  0.22676466378E+04  0.99525635928E+03 0.  0.
        3    1    3    3  502    0 -0.18451536709E+03  0.43717662914E+03 -0.67728606737E+03  0.82697385267E+03  0.10100000352E+00 0.  1.
       -3    1    3    3    0  502  0.18451536709E+03 -0.43717662914E+03 -0.13602825949E+04  0.14406727852E+04  0.10100000352E+00 0. -1.
</event>
<event>
 5   0  0.2327595E-03  0.1000064E+04  0.7818609E-02  0.9308475E-01
        1   -1    0    0  501    0  0.00000000000E+00  0.00000000000E+00  0.54645881969E+03  0.54645881971E+03  0.50400001928E-02 0.  1.
       -1   -1    0    0    0  501  0.00000000000E+00  0.00000000000E+00 -0.45754947910E+03  0.45754947913E+03  0.50400001928E-02 0. -1.
    10030    2    1    2    0    0  0.00000000000E+00  0.00000000000E+00  0.88909340587E+02  0.10040082988E+04  0.10000638946E+04 0.  0.
        5    1    3    3  502    0  0.21233571655E+03 -0.38394560340E+03 -0.19630188714E+03  0.48068409978E+03  0.46999998093E+01 0. -1.
       -5    1    3    3    0  502 -0.21233571655E+03  0.38394560340E+03  0.28521122773E+03  0.52332419905E+03  0.46999998093E+01 0.  1.
</event>
<event>
 5   0  0.4026829E-03  0.9951526E+03  0.7818609E-02  0.9313877E-01
        2   -1    0    0  501    0  0.00000000000E+00  0.00000000000E+00  0.76673096908E+03  0.76673096909E+03  0.25500000920E-02 0. -1.
       -2   -1    0    0    0  501  0.00000000000E+00  0.00000000000E+00 -0.32290618303E+03  0.32290618304E+03  0.25500000920E-02 0.  1.
    10030    2    1    2    0    0  0.00000000000E+00  0.00000000000E+00  0.44382478606E+03  0.10896371521E+04  0.99515259261E+03 0.  0.
        1    1    3    3  502    0 -0.20709064134E+03 -0.44270819724E+02  0.71492425973E+03  0.74562935590E+03  0.50400001928E-02 0. -1.
       -1    1    3    3    0  502  0.20709064134E+03  0.44270819724E+02 -0.27109947368E+03  0.34400779622E+03  0.50400001928E-02 0.  1.
</event>
<event>
 5   0  0.3873874E-03  0.9864654E+03  0.7818609E-02  0.9323515E-01
       -2   -1    0    0    0  501  0.00000000000E+00  0.00000000000E+00  0.17988617638E+03  0.17988617639E+03  0.25500000920E-02 0.  1.
        2   -1    0    0  501    0  0.00000000000E+00  0.00000000000E+00 -0.13524024834E+04  0.13524024834E+04  0.25500000920E-02 0. -1.
    10030    2    1    2    0    0  0.00000000000E+00  0.00000000000E+00 -0.11725163070E+04  0.15322886598E+04  0.98646543106E+03 0.  0.
        5    1    3    3  502    0  0.21577791583E+03 -0.36399268078E+02 -0.12728351013E+04  0.12915170540E+04  0.46999998093E+01 0. -1.
       -5    1    3    3    0  502 -0.21577791583E+03  0.36399268078E+02  0.10031879427E+03  0.24077160580E+03  0.46999998093E+01 0.  1.
</event>
<event>
 5   0  0.2327595E-03  0.9855451E+03  0.7818609E-02  0.9324542E-01
       -1   -1    0    0    0  501  0.00000000000E+00  0.00000000000E+00  0.71555302242E+03  0.71555302244E+03  0.50400001928E-02 0. -1.
        1   -1    0    0  501    0  0.00000000000E+00  0.00000000000E+00 -0.33935258104E+03  0.33935258108E+03  0.50400001928E-02 0.  1.
    10030    2    1    2    0    0  0.00000000000E+00  0.00000000000E+00  0.37620044137E+03  0.10549056035E+04  0.98554505744E+03 0.  0.
        5    1    3    3  502    0  0.35810815855E+03 -0.18846645867E+03 -0.11282945689E+03  0.42013525870E+03  0.46999998093E+01 0.  1.
       -5    1    3    3    0  502 -0.35810815855E+03  0.18846645867E+03  0.48902989826E+03  0.63477034482E+03  0.46999998093E+01 0. -1.
</event>
<event>
 5   0  0.2378609E-03  0.9991336E+03  0.7818609E-02  0.9309496E-01
        1   -1    0    0  501    0  0.00000000000E+00  0.00000000000E+00  0.80694558824E+03  0.80694558826E+03  0.50400001928E-02 0. -1.
       -1   -1    0    0    0  501  0.00000000000E+00  0.00000000000E+00 -0.30927361478E+03  0.30927361482E+03  0.50400001928E-02 0.  1.
    10030    2    1    2    0    0  0.00000000000E+00  0.00000000000E+00  0.49767197347E+03  0.11162192031E+04  0.99913358274E+03 0.  0.
        1    1    3    3  502    0  0.14378129697E+03  0.12379167940E+03 -0.26745624061E+03  0.32791810245E+03  0.50400001928E-02 0.  1.
       -1    1    3    3    0  502 -0.14378129697E+03 -0.12379167940E+03  0.76512821408E+03  0.78830110063E+03  0.50400001928E-02 0. -1.
</event>
<event>
 5   0  0.3895011E-03  0.9989251E+03  0.7818609E-02  0.9309725E-01
        2   -1    0    0  501    0  0.00000000000E+00  0.00000000000E+00  0.16850423728E+04  0.16850423728E+04  0.25500000920E-02 0.  1.
       -2   -1    0    0    0  501  0.00000000000E+00  0.00000000000E+00 -0.14804543315E+03  0.14804543318E+03  0.25500000920E-02 0. -1.
    10030    2    1    2    0    0  0.00000000000E+00  0.00000000000E+00  0.15369969396E+04  0.18330878060E+04  0.99892507824E+03 0.  0.
        2    1    3    3  502    0  0.31828624509E+03  0.12197721237E+03  0.98567586135E+02  0.35482410176E+03  0.25500000920E-02 0. -1.
       -2    1    3    3    0  502 -0.31828624509E+03 -0.12197721237E+03  0.14384293535E+04  0.14782637042E+04  0.25500000920E-02 0.  1.
</event>
<event>
 5   0  0.2378609E-03  0.1000939E+04  0.7818609E-02  0.9307516E-01
       -1   -1    0    0    0  501  0.00000000000E+00  0.00000000000E+00  0.13028910136E+03  0.13028910146E+03  0.50400001928E-02 0. -1.
        1   -1    0    0  501    0  0.00000000000E+00  0.00000000000E+00 -0.19224132256E+04  0.19224132256E+04  0.50400001928E-02 0.  1.
    10030    2    1    2    0    0  0.00000000000E+00  0.00000000000E+00 -0.17921241243E+04  0.20527023271E+04  0.10009385430E+04 0.  0.
        1    1    3    3  502    0  0.87290374234E+02  0.43731923241E+03 -0.13619171749E+04  0.14330687743E+04  0.50400001928E-02 0.  1.
       -1    1    3    3    0  502 -0.87290374234E+02 -0.43731923241E+03 -0.43020694933E+03  0.61963355280E+03  0.50400001928E-02 0. -1.
</event>
<event>
 5   0  0.3826483E-03  0.1000695E+04  0.7818609E-02  0.9307782E-01
       -2   -1    0    0    0  501  0.00000000000E+00  0.00000000000E+00  0.24611016628E+03  0.24611016629E+03  0.25500000920E-02 0.  1.
        2   -1    0    0  501    0  0.00000000000E+00  0.00000000000E+00 -0.10172186188E+04  0.10172186188E+04  0.25500000920E-02 0. -1.
    10030    2    1    2    0    0  0.00000000000E+00  0.00000000000E+00 -0.77110845251E+03  0.12633287851E+04  0.10006954450E+04 0.  0.
        4    1    3    3  502    0 -0.21901403251E+03  0.14811962695E+03  0.15071202818E+03  0.30433911786E+03  0.12699999809E+01 0.  1.
       -4    1    3    3    0  502  0.21901403251E+03 -0.14811962695E+03 -0.92182048069E+03  0.95898966722E+03  0.12699999809E+01 0. -1.
</event>
<event>
 5   0  0.4026829E-03  0.1007732E+04  0.7818609E-02  0.9300105E-01
        2   -1    0    0  501    0  0.00000000000E+00  0.00000000000E+00  0.19043268274E+04  0.19043268274E+04  0.25500000920E-02 0. -1.
       -2   -1    0    0    0  501  0.00000000000E+00  0.00000000000E+00 -0.13331791314E+03  0.13331791317E+03  0.25500000920E-02 0.  1.
    10030    2    1    2    0    0  0.00000000000E+00  0.00000000000E+00  0.17710089143E+04  0.20376447406E+04  0.10077318663E+04 0.  0.
        1    1    3    3  502    0  0.45202759384E+03  0.83862865165E+02  0.13024456033E+04  0.13812047188E+04  0.50400001928E-02 0. -1.
       -1    1    3    3    0  502 -0.45202759384E+03 -0.83862865165E+02  0.46856331096E+03  0.65644002174E+03  0.50400001928E-02 0.  1.
</event>
<event>
 5   0  0.1548000E-03  0.9985130E+03  0.7818609E-02  0.9310177E-01
        4   -1    0    0  501    0  0.00000000000E+00  0.00000000000E+00  0.25896171631E+03  0.25896483046E+03  0.12699999809E+01 0. -1.
       -4   -1    0    0    0  501  0.00000000000E+00  0.00000000000E+00 -0.96251531518E+03  0.96251615304E+03  0.12699999809E+01 0.  1.
    10030    2    1    2    0    0  0.00000000000E+00  0.00000000000E+00 -0.70355359887E+03  0.12214809835E+04  0.99851295763E+03 0.  0.
        2    1    3    3  502    0 -0.12048352522E+03  0.22058425601E+03 -0.87947637971E+03  0.91468704830E+03  0.25500000920E-02 0.  1.
       -2    1    3    3    0  502  0.12048352522E+03 -0.22058425601E+03  0.17592278084E+03  0.30679393520E+03  0.25500000920E-02 0. -1.
</event>
<event>
 5   0  0.2378609E-03  0.9991124E+03  0.7818609E-02  0.9309519E-01
       -1   -1    0    0    0  501  0.00000000000E+00  0.00000000000E+00  0.57613708351E+03  0.57613708353E+03  0.50400001928E-02 0. -1.
        1   -1    0    0  501    0  0.00000000000E+00  0.00000000000E+00 -0.43315456798E+03  0.43315456801E+03  0.50400001928E-02 0.  1.
    10030    2    1    2    0    0  0.00000000000E+00  0.00000000000E+00  0.14298251552E+03  0.10092916515E+04  0.99911242517E+03 0.  0.
        1    1    3    3  502    0  0.18326874596E+03  0.45128807810E+03  0.18356319804E+03  0.52052263196E+03  0.50400001928E-02 0.  1.
       -1    1    3    3    0  502 -0.18326874596E+03 -0.45128807810E+03 -0.40580682521E+02  0.48876901958E+03  0.50400001928E-02 0. -1.
</event>
<event>
 5   0  0.2327595E-03  0.9988378E+03  0.7818609E-02  0.9309820E-01
       -1   -1    0    0    0  501  0.00000000000E+00  0.00000000000E+00  0.33406133237E+03  0.33406133240E+03  0.50400001928E-02 0.  1.
        1   -1    0    0  501    0  0.00000000000E+00  0.00000000000E+00 -0.74662709611E+03  0.74662709613E+03  0.50400001928E-02 0. -1.
    10030    2    1    2    0    0  0.00000000000E+00  0.00000000000E+00 -0.41256576375E+03  0.10806884285E+04  0.99883780973E+03 0.  0.
        5    1    3    3  502    0  0.32681761599E+03  0.32007659133E+03  0.10480249290E+02  0.45759229022E+03  0.46999998093E+01 0.  1.
       -5    1    3    3    0  502 -0.32681761599E+03 -0.32007659133E+03 -0.42304601304E+03  0.62309613832E+03  0.46999998093E+01 0. -1.
</event>
<event>
 5   0  0.3826483E-03  0.9750978E+03  0.7818609E-02  0.9336287E-01
        2   -1    0    0  501    0  0.00000000000E+00  0.00000000000E+00  0.81060728797E+03  0.81060728797E+03  0.25500000920E-02 0. -1.
       -2   -1    0    0    0  501  0.00000000000E+00  0.00000000000E+00 -0.29324176832E+03  0.29324176833E+03  0.25500000920E-02 0.  1.
    10030    2    1    2    0    0  0.00000000000E+00  0.00000000000E+00  0.51736551965E+03  0.11038490563E+04  0.97509776852E+03 0.  0.
        4    1    3    3  502    0  0.19362131405E+03 -0.41967145185E+03  0.82983245336E+02  0.46957552391E+03  0.12699999809E+01 0.  1.
       -4    1    3    3    0  502 -0.19362131405E+03  0.41967145185E+03  0.43438227431E+03  0.63427353239E+03  0.12699999809E+01 0. -1.
</event>
<event>
 5   0  0.2405022E-03  0.9979556E+03  0.7818609E-02  0.9310790E-01
       -1   -1    0    0    0  501  0.00000000000E+00  0.00000000000E+00  0.10930362420E+04  0.10930362420E+04  0.50400001928E-02 0. -1.
        1   -1    0    0  501    0  0.00000000000E+00  0.00000000000E+00 -0.22778644052E+03  0.22778644058E+03  0.50400001928E-02 0.  1.
    10030    2    1    2    0    0  0.00000000000E+00  0.00000000000E+00  0.86524980144E+03  0.13208226826E+04  0.99795558010E+03 0.  0.
        4    1    3    3  502    0 -0.35465582459E+03  0.14541199891E+03  0.85543337388E+03  0.93738640559E+03  0.12699999809E+01 0. -1.
       -4    1    3    3    0  502  0.35465582459E+03 -0.14541199891E+03  0.98164275672E+01  0.38343627696E+03  0.12699999809E+01 0.  1.
</event>
<event>
 5   0  0.3826483E-03  0.1003711E+04  0.7818609E-02  0.9304484E-01
        2   -1    0    0  501    0  0.00000000000E+00  0.00000000000E+00  0.42927837828E+03  0.42927837828E+03  0.25500000920E-02 0.  1.
       -2   -1    0    0    0  501  0.00000000000E+00  0.00000000000E+00 -0.58670331227E+03  0.58670331228E+03  0.25500000920E-02 0. -1.
    10030    2    1    2    0    0  0.00000000000E+00  0.00000000000E+00 -0.15742493400E+03  0.10159816906E+04  0.10037112063E+04 0.  0.
        4    1    3    3  502    0  0.94573276420E+02 -0.42680539349E+03  0.17077686668E+03  0.46933282393E+03  0.12699999809E+01 0.  1.
       -4    1    3    3    0  502 -0.94573276420E+02  0.42680539349E+03 -0.32820180068E+03  0.54664886663E+03  0.12699999809E+01 0. -1.
</event>
<event>
 5   0  0.1548000E-03  0.1000590E+04  0.7818609E-02  0.9307898E-01
        4   -1    0    0  501    0  0.00000000000E+00  0.00000000000E+00  0.33198422297E+03  0.33198665214E+03  0.12699999809E+01 0.  1.
       -4   -1    0    0    0  501  0.00000000000E+00  0.00000000000E+00 -0.75393141353E+03  0.75393248319E+03  0.12699999809E+01 0. -1.
    10030    2    1    2    0    0  0.00000000000E+00  0.00000000000E+00 -0.42194719056E+03  0.10859191353E+04  0.10005902942E+04 0.  0.
        5    1    3    3  502    0  0.21159071558E+03 -0.45284530102E+03 -0.18837355613E+03  0.53417804543E+03  0.46999998093E+01 0.  1.
       -5    1    3    3    0  502 -0.21159071558E+03  0.45284530102E+03 -0.23357363443E+03  0.55174108989E+03  0.46999998093E+01 0. -1.
</event>
<event>
 5   0  0.4026829E-03  0.1009816E+04  0.7818609E-02  0.9297843E-01
        2   -1    0    0  501    0  0.00000000000E+00  0.00000000000E+00  0.18523978696E+04  0.18523978696E+04  0.25500000920E-02 0. -1.
       -2   -1    0    0    0  501  0.00000000000E+00  0.00000000000E+00 -0.13762286585E+03  0.13762286588E+03  0.25500000920E-02 0.  1.
    10030    2    1    2    0    0  0.00000000000E+00  0.00000000000E+00  0.17147750037E+04  0.19900207355E+04  0.10098164260E+04 0.  0.
        1    1    3    3  502    0 -0.37147212041E+03  0.64015827930E+02  0.19539665538E+03  0.42458145912E+03  0.50400001928E-02 0.  1.
       -1    1    3    3    0  502  0.37147212041E+03 -0.64015827930E+02  0.15193783484E+04  0.15654392764E+04  0.50400001928E-02 0. -1.
</event>
<event>
 5   0  0.2378609E-03  0.9998123E+03  0.7818609E-02  0.9308751E-01
        1   -1    0    0  501    0  0.00000000000E+00  0.00000000000E+00  0.64847351020E+03  0.64847351022E+03  0.50400001928E-02 0.  1.
       -1   -1    0    0    0  501  0.00000000000E+00  0.00000000000E+00 -0.38537603848E+03  0.38537603851E+03  0.50400001928E-02 0. -1.
    10030    2    1    2    0    0  0.00000000000E+00  0.00000000000E+00  0.26309747172E+03  0.10338495487E+04  0.99981228728E+03 0.  0.
        1    1    3    3  502    0 -0.39600272790E+03  0.25527730141E+03 -0.41237115821E+02  0.47295365615E+03  0.50400001928E-02 0.  1.
       -1    1    3    3    0  502  0.39600272790E+03 -0.25527730141E+03  0.30433458754E+03  0.56089589258E+03  0.50400001928E-02 0. -1.
</event>
<event>
 5   0  0.2378609E-03  0.9919853E+03  0.7818609E-02  0.9317379E-01
        1   -1    0    0  501    0  0.00000000000E+00  0.00000000000E+00  0.36565061934E+03  0.36565061937E+03  0.50400001928E-02 0.  1.
       -1   -1    0    0    0  501  0.00000000000E+00  0.00000000000E+00 -0.67279713895E+03  0.67279713897E+03  0.50400001928E-02 0. -1.
    10030    2    1    2    0    0  0.00000000000E+00  0.00000000000E+00 -0.30714651961E+03  0.10384477583E+04  0.99198526315E+03 0.  0.
        1    1    3    3  502    0 -0.26507240104E+03 -0.96891647104E+02 -0.58054623964E+03  0.64551166175E+03  0.50400001928E-02 0. -1.
       -1    1    3    3    0  502  0.26507240104E+03  0.96891647104E+02  0.27339972003E+03  0.39293609660E+03  0.50400001928E-02 0.  1.
</event>
<event>
 5   0  0.2313036E-03  0.1001062E+04  0.7818609E-02  0.9307381E-01
       -1   -1    0    0    0  501  0.00000000000E+00  0.00000000000E+00  0.30414589155E+03  0.30414589159E+03  0.50400001928E-02 0. -1.
        1   -1    0    0  501    0  0.00000000000E+00  0.00000000000E+00 -0.82372111685E+03  0.82372111687E+03  0.50400001928E-02 0.  1.
    10030    2    1    2    0    0  0.00000000000E+00  0.00000000000E+00 -0.51957522530E+03  0.11278670085E+04  0.10010622229E+04 0.  0.
        3    1    3    3  502    0  0.27831472789E+03  0.37100056977E+03 -0.47186176789E+03  0.66162984268E+03  0.10100000352E+00 0.  1.
       -3    1    3    3    0  502 -0.27831472789E+03 -0.37100056977E+03 -0.47713457418E+02  0.46623716578E+03  0.10100000352E+00 0. -1.
</event>
<event>
 5   0  0.4140860E-03  0.9947391E+03  0.7818609E-02  0.9314334E-01
       -2   -1    0    0    0  501  0.00000000000E+00  0.00000000000E+00  0.44879948180E+03  0.44879948181E+03  0.25500000920E-02 0.  1.
        2   -1    0    0  501    0  0.00000000000E+00  0.00000000000E+00 -0.55119594979E+03  0.55119594980E+03  0.25500000920E-02 0. -1.
    10030    2    1    2    0    0  0.00000000000E+00  0.00000000000E+00 -0.10239646799E+03  0.99999543161E+03  0.99473907462E+03 0.  0.
        3    1    3    3  502    0 -0.34890359637E+02 -0.48779536093E+03 -0.14231267304E+03  0.50932755517E+03  0.10100000352E+00 0. -1.
       -3    1    3    3    0  502  0.34890359637E+02  0.48779536093E+03  0.39916205054E+02  0.49066787644E+03  0.10100000352E+00 0.  1.
</event>
<event>
 5   0  0.3895011E-03  0.1006395E+04  0.7818609E-02  0.9301558E-01
       -2   -1    0    0    0  501  0.00000000000E+00  0.00000000000E+00  0.32319354040E+03  0.32319354041E+03  0.25500000920E-02 0.  1.
        2   -1    0    0  501    0  0.00000000000E+00  0.00000000000E+00 -0.78345578175E+03  0.78345578175E+03  0.25500000920E-02 0. -1.
    10030    2    1    2    0    0  0.00000000000E+00  0.00000000000E+00 -0.46026224135E+03  0.11066493222E+04  0.10063952461E+04 0.  0.
        2    1    3    3  502    0 -0.42049640936E+03  0.26945319252E+03 -0.29778746027E+03  0.58146334773E+03  0.25500000920E-02 0. -1.
       -2    1    3    3    0  502  0.42049640936E+03 -0.26945319252E+03 -0.16247478108E+03  0.52518597443E+03  0.25500000920E-02 0.  1.
</event>
<event>
 5   0  0.2350769E-03  0.1048450E+04  0.7818609E-02  0.9256946E-01
        1   -1    0    0  501    0  0.00000000000E+00  0.00000000000E+00  0.14657554683E+04  0.14657554683E+04  0.50400001928E-02 0. -1.
       -1   -1    0    0    0  501  0.00000000000E+00  0.00000000000E+00 -0.18748808628E+03  0.18748808634E+03  0.50400001928E-02 0.  1.
    10030    2    1    2    0    0  0.00000000000E+00  0.00000000000E+00  0.12782673820E+04  0.16532435546E+04  0.10484496893E+04 0.  0.
        2    1    3    3  502    0  0.12304252773E+03 -0.31121512189E+03  0.12754010047E+04  0.13185757614E+04  0.25500000920E-02 0. -1.
       -2    1    3    3    0  502 -0.12304252773E+03  0.31121512189E+03  0.28663773297E+01  0.33466779327E+03  0.25500000920E-02 0.  1.
</event>
<event>
 5   0  0.3826483E-03  0.1045477E+04  0.7818609E-02  0.9260026E-01
        2   -1    0    0  501    0  0.00000000000E+00  0.00000000000E+00  0.11536553406E+04  0.11536553406E+04  0.25500000920E-02 0.  1.
       -2   -1    0    0    0  501  0.00000000000E+00  0.00000000000E+00 -0.23686065658E+03  0.23686065659E+03  0.25500000920E-02 0. -1.
    10030    2    1    2    0    0  0.00000000000E+00  0.00000000000E+00  0.91679468402E+03  0.13905159972E+04  0.10454770422E+04 0.  0.
        4    1    3    3  502    0  0.17612775397E+03  0.49166104979E+03  0.48820826898E+03  0.71491293204E+03  0.12699999809E+01 0.  1.
       -4    1    3    3    0  502 -0.17612775397E+03 -0.49166104979E+03  0.42858641504E+03  0.67560306516E+03  0.12699999809E+01 0. -1.
</event>
<event>
 5   0  0.3873874E-03  0.9987857E+03  0.7818609E-02  0.9309878E-01
       -2   -1    0    0    0  501  0.00000000000E+00  0.00000000000E+00  0.99874531407E+03  0.99874531408E+03  0.25500000920E-02 0.  1.
        2   -1    0    0  501    0  0.00000000000E+00  0.00000000000E+00 -0.24970650677E+03  0.24970650678E+03  0.25500000920E-02 0. -1.
    10030    2    1    2    0    0  0.00000000000E+00  0.00000000000E+00  0.74903880731E+03  0.12484518209E+04  0.99878566977E+03 0.  0.
        5    1    3    3  502    0  0.30248007519E+03  0.85560911075E+02  0.85952737477E+03  0.91521815070E+03  0.46999998093E+01 0.  1.
       -5    1    3    3    0  502 -0.30248007519E+03 -0.85560911075E+02 -0.11048856746E+03  0.33323367016E+03  0.46999998093E+01 0. -1.
</event>
<event>
 5   0  0.2405022E-03  0.9999615E+03  0.7818609E-02  0.9308587E-01
        1   -1    0    0  501    0  0.00000000000E+00  0.00000000000E+00  0.17927875477E+04  0.17927875477E+04  0.50400001928E-02 0.  1.
       -1   -1    0    0    0  501  0.00000000000E+00  0.00000000000E+00 -0.13943689391E+03  0.13943689400E+03  0.50400001928E-02 0. -1.
    10030    2    1    2    0    0  0.00000000000E+00  0.00000000000E+00  0.16533506537E+04  0.19322244417E+04  0.99996145361E+03 0.  0.
        4    1    3    3  502    0  0.34562289084E+03  0.32096713244E+03  0.50621631404E+03  0.69190436643E+03  0.12699999809E+01 0.  1.
       -4    1    3    3    0  502 -0.34562289084E+03 -0.32096713244E+03  0.11471343397E+04  0.12403200752E+04  0.12699999809E+01 0. -1.
</event>
<event>
 5   0  0.4026829E-03  0.9824619E+03  0.7818609E-02  0.9327992E-01
        2   -1    0    0  501    0  0.00000000000E+00  0.00000000000E+00  0.11044873603E+04  0.11044873603E+04  0.25500000920E-02 0.  1.
       -2   -1    0    0    0  501  0.00000000000E+00  0.00000000000E+00 -0.21847950976E+03  0.21847950977E+03  0.25500000920E-02 0. -1.
    10030    2    1    2    0    0  0.00000000000E+00  0.00000000000E+00  0.88600785051E+03  0.13229668700E+04  0.98246192194E+03 0.  0.
        1    1    3    3  502    0 -0.34096663076E+03 -0.24635852644E+02 -0.32022679846E+02  0.34335203593E+03  0.50400001928E-02 0. -1.
       -1    1    3    3    0  502  0.34096663076E+03  0.24635852644E+02  0.91803053035E+03  0.97961483411E+03  0.50400001928E-02 0.  1.
</event>
<event>
 5   0  0.2378609E-03  0.1002489E+04  0.7818609E-02  0.9305819E-01
        1   -1    0    0  501    0  0.00000000000E+00  0.00000000000E+00  0.85665098614E+03  0.85665098616E+03  0.50400001928E-02 0. -1.
       -1   -1    0    0    0  501  0.00000000000E+00  0.00000000000E+00 -0.29328893763E+03  0.29328893767E+03  0.50400001928E-02 0.  1.
    10030    2    1    2    0    0  0.00000000000E+00  0.00000000000E+00  0.56336204851E+03  0.11499399238E+04  0.10024894168E+04 0.  0.
        1    1    3    3  502    0  0.46142477696E+03 -0.56416716441E+02  0.49674201712E+03  0.68032955418E+03  0.50400001928E-02 0. -1.
       -1    1    3    3    0  502 -0.46142477696E+03  0.56416716441E+02  0.66620031389E+02  0.46961036966E+03  0.50400001928E-02 0.  1.
</event>
<event>
 5   0  0.4026829E-03  0.9968987E+03  0.7818609E-02  0.9311953E-01
       -2   -1    0    0    0  501  0.00000000000E+00  0.00000000000E+00  0.16586538081E+04  0.16586538081E+04  0.25500000920E-02 0. -1.
        2   -1    0    0  501    0  0.00000000000E+00  0.00000000000E+00 -0.14979119127E+03  0.14979119129E+03  0.25500000920E-02 0.  1.
    10030    2    1    2    0    0  0.00000000000E+00  0.00000000000E+00  0.15088626168E+04  0.18084449994E+04  0.99689865051E+03 0.  0.
        1    1    3    3  502    0 -0.36830539102E+03 -0.30704293093E+03  0.10013550185E+04  0.11102414583E+04  0.50400001928E-02 0. -1.
       -1    1    3    3    0  502  0.36830539102E+03  0.30704293093E+03  0.50750759830E+03  0.69820354113E+03  0.50400001928E-02 0.  1.
</event>
<event>
 5   0  0.2405022E-03  0.1001472E+04  0.7818609E-02  0.9306932E-01
       -1   -1    0    0    0  501  0.00000000000E+00  0.00000000000E+00  0.40445104826E+03  0.40445104829E+03  0.50400001928E-02 0. -1.
        1   -1    0    0  501    0  0.00000000000E+00  0.00000000000E+00 -0.61994313382E+03  0.61994313384E+03  0.50400001928E-02 0.  1.
    10030    2    1    2    0    0  0.00000000000E+00  0.00000000000E+00 -0.21549208556E+03  0.10243941821E+04  0.10014722170E+04 0.  0.
        4    1    3    3  502    0  0.27911139958E+03  0.45158860058E+01 -0.53296682405E+03  0.60164675270E+03  0.12699999809E+01 0.  1.
       -4    1    3    3    0  502 -0.27911139958E+03 -0.45158860058E+01  0.31747473849E+03  0.42274742942E+03  0.12699999809E+01 0. -1.
</event>
<event>
 5   0  0.3895011E-03  0.9967274E+03  0.7818609E-02  0.9312141E-01
        2   -1    0    0  501    0  0.00000000000E+00  0.00000000000E+00  0.35625810340E+03  0.35625810341E+03  0.25500000920E-02 0. -1.
       -2   -1    0    0    0  501  0.00000000000E+00  0.00000000000E+00 -0.69715290803E+03  0.69715290804E+03  0.25500000920E-02 0.  1.
    10030    2    1    2    0    0  0.00000000000E+00  0.00000000000E+00 -0.34089480464E+03  0.10534110114E+04  0.99672739062E+03 0.  0.
        2    1    3    3  502    0  0.27279926222E+03 -0.29183540489E+02  0.26926027021E+03  0.38441151079E+03  0.25500000920E-02 0. -1.
       -2    1    3    3    0  502 -0.27279926222E+03  0.29183540489E+02 -0.61015507485E+03  0.66899950066E+03  0.25500000920E-02 0.  1.
</event>
<event>
 5   0  0.3895011E-03  0.1003113E+04  0.7818609E-02  0.9305137E-01
       -2   -1    0    0    0  501  0.00000000000E+00  0.00000000000E+00  0.20303647867E+03  0.20303647868E+03  0.25500000920E-02 0.  1.
        2   -1    0    0  501    0  0.00000000000E+00  0.00000000000E+00 -0.12389835242E+04  0.12389835242E+04  0.25500000920E-02 0. -1.
    10030    2    1    2    0    0  0.00000000000E+00  0.00000000000E+00 -0.10359470455E+04  0.14420200029E+04  0.10031128588E+04 0.  0.
        2    1    3    3  502    0  0.47196182863E+03 -0.35156591698E+02 -0.27925921693E+03  0.54951766474E+03  0.25500000920E-02 0.  1.
       -2    1    3    3    0  502 -0.47196182863E+03  0.35156591698E+02 -0.75668782862E+03  0.89250233815E+03  0.25500000920E-02 0. -1.
</event>
<event>
 5   0  0.2405022E-03  0.1002559E+04  0.7818609E-02  0.9305743E-01
        1   -1    0    0  501    0  0.00000000000E+00  0.00000000000E+00  0.57238919294E+03  0.57238919296E+03  0.50400001928E-02 0. -1.
       -1   -1    0    0    0  501  0.00000000000E+00  0.00000000000E+00 -0.43900368653E+03  0.43900368656E+03  0.50400001928E-02 0.  1.
    10030    2    1    2    0    0  0.00000000000E+00  0.00000000000E+00  0.13338550641E+03  0.10113928795E+04  0.10025586583E+04 0.  0.
        4    1    3    3  502    0  0.46780779642E+03 -0.60858225428E+02 -0.10430453051E+03  0.48314480850E+03  0.12699999809E+01 0.  1.
       -4    1    3    3    0  502 -0.46780779642E+03  0.60858225428E+02  0.23769003692E+03  0.52824807103E+03  0.12699999809E+01 0. -1.
</event>
<event>
 5   0  0.2327595E-03  0.1001263E+04  0.7818609E-02  0.9307161E-01
        1   -1    0    0  501    0  0.00000000000E+00  0.00000000000E+00  0.76140613108E+03  0.76140613109E+03  0.50400001928E-02 0. -1.
       -1   -1    0    0    0  501  0.00000000000E+00  0.00000000000E+00 -0.32916948944E+03  0.32916948948E+03  0.50400001928E-02 0.  1.
    10030    2    1    2    0    0  0.00000000000E+00  0.00000000000E+00  0.43223664164E+03  0.10905756206E+04  0.10012625379E+04 0.  0.
        5    1    3    3  502    0 -0.31730668272E+03  0.34042500036E+03  0.15170825202E+02  0.46564466678E+03  0.46999998093E+01 0.  1.
       -5    1    3    3    0  502  0.31730668272E+03 -0.34042500036E+03  0.41706581643E+03  0.62493095379E+03  0.46999998093E+01 0. -1.
</event>
<event>
 5   0  0.1548000E-03  0.1002727E+04  0.7818609E-02  0.9305559E-01
        4   -1    0    0  501    0  0.00000000000E+00  0.00000000000E+00  0.11446939019E+04  0.11446946064E+04  0.12699999809E+01 0. -1.
       -4   -1    0    0    0  501  0.00000000000E+00  0.00000000000E+00 -0.21958929744E+03  0.21959296994E+03  0.12699999809E+01 0.  1.
    10030    2    1    2    0    0  0.00000000000E+00  0.00000000000E+00  0.92510460443E+03  0.13642875763E+04  0.10027273118E+04 0.  0.
        3    1    3    3  502    0  0.44521340883E+03 -0.14382132009E+03  0.70770527433E+03  0.84837864013E+03  0.10100000352E+00 0. -1.
       -3    1    3    3    0  502 -0.44521340883E+03  0.14382132009E+03  0.21739933010E+03  0.51590893619E+03  0.10100000352E+00 0.  1.
</event>
<event>
 5   0  0.4140860E-03  0.9944552E+03  0.7818609E-02  0.9314647E-01
        2   -1    0    0  501    0  0.00000000000E+00  0.00000000000E+00  0.53334247874E+03  0.53334247875E+03  0.25500000920E-02 0.  1.
       -2   -1    0    0    0  501  0.00000000000E+00  0.00000000000E+00 -0.46355822166E+03  0.46355822167E+03  0.25500000920E-02 0. -1.
    10030    2    1    2    0    0  0.00000000000E+00  0.00000000000E+00  0.69784257084E+02  0.99690070042E+03  0.99445520963E+03 0.  0.
        3    1    3    3  502    0  0.14840905765E+03  0.47441881292E+03  0.46618001530E+02  0.49927117553E+03  0.10100000352E+00 0.  1.
       -3    1    3    3    0  502 -0.14840905765E+03 -0.47441881292E+03  0.23166255554E+02  0.49762952489E+03  0.10100000352E+00 0. -1.
</event>
<event>
 5   0  0.2350769E-03  0.1000272E+04  0.7818609E-02  0.9308246E-01
        1   -1    0    0  501    0  0.00000000000E+00  0.00000000000E+00  0.67488615130E+03  0.67488615132E+03  0.50400001928E-02 0.  1.
       -1   -1    0    0    0  501  0.00000000000E+00  0.00000000000E+00 -0.37063460639E+03  0.37063460642E+03  0.50400001928E-02 0. -1.
    10030    2    1    2    0    0  0.00000000000E+00  0.00000000000E+00  0.30425154491E+03  0.10455207577E+04  0.10002722891E+04 0.  0.
        2    1    3    3  502    0  0.23420109702E+03  0.34691309726E+03 -0.13400428239E+03  0.43949516334E+03  0.25500000920E-02 0. -1.
       -2    1    3    3    0  502 -0.23420109702E+03 -0.34691309726E+03  0.43825582731E+03  0.60602559440E+03  0.25500000920E-02 0.  1.
</event>
<event>
 5   0  0.2378609E-03  0.9984665E+03  0.7818609E-02  0.9310228E-01
       -1   -1    0    0    0  501  0.00000000000E+00  0.00000000000E+00  0.28267330740E+03  0.28267330744E+03  0.50400001928E-02 0. -1.
        1   -1    0    0  501    0  0.00000000000E+00  0.00000000000E+00 -0.88170284955E+03  0.88170284956E+03  0.50400001928E-02 0.  1.
    10030    2    1    2    0    0  0.00000000000E+00  0.00000000000E+00 -0.59902954215E+03  0.11643761570E+04  0.99846654558E+03 0.  0.
        1    1    3    3  502    0  0.23902460651E+03 -0.32933349822E+03  0.37747851590E+02  0.40867862177E+03  0.50400001928E-02 0. -1.
       -1    1    3    3    0  502 -0.23902460651E+03  0.32933349822E+03 -0.63677739374E+03  0.75569753524E+03  0.50400001928E-02 0.  1.
</event>
<event>
 5   0  0.4026829E-03  0.9956999E+03  0.7818609E-02  0.9313274E-01
        2   -1    0    0  501    0  0.00000000000E+00  0.00000000000E+00  0.92198808086E+03  0.92198808086E+03  0.25500000920E-02 0. -1.
       -2   -1    0    0    0  501  0.00000000000E+00  0.00000000000E+00 -0.26882620401E+03  0.26882620402E+03  0.25500000920E-02 0.  1.
    10030    2    1    2    0    0  0.00000000000E+00  0.00000000000E+00  0.65316187685E+03  0.11908142849E+04  0.99569986628E+03 0.  0.
        1    1    3    3  502    0 -0.11195739918E+03 -0.48127749965E+03  0.39925011782E+03  0.63526620208E+03  0.50400001928E-02 0. -1.
       -1    1    3    3    0  502  0.11195739918E+03  0.48127749965E+03  0.25391175903E+03  0.55554808280E+03  0.50400001928E-02 0.  1.
</event>
<event>
 5   0  0.2327595E-03  0.1005751E+04  0.7818609E-02  0.9302260E-01
       -1   -1    0    0    0  501  0.00000000000E+00  0.00000000000E+00  0.87615753858E+03  0.87615753860E+03  0.50400001928E-02 0.  1.
        1   -1    0    0  501    0  0.00000000000E+00  0.00000000000E+00 -0.28862808730E+03  0.28862808735E+03  0.50400001928E-02 0. -1.
    10030    2    1    2    0    0  0.00000000000E+00  0.00000000000E+00  0.58752945128E+03  0.11647856259E+04  0.10057508132E+04 0.  0.
        5    1    3    3  502    0  0.94458120388E+02  0.17099728799E+03  0.83038959847E+03  0.85307173453E+03  0.46999998093E+01 0.  1.
       -5    1    3    3    0  502 -0.94458120388E+02 -0.17099728799E+03 -0.24286014719E+03  0.31171389141E+03  0.46999998093E+01 0. -1.
</event>
<event>
 5   0  0.2327595E-03  0.1001091E+04  0.7818609E-02  0.9307349E-01
       -1   -1    0    0    0  501  0.00000000000E+00  0.00000000000E+00  0.38325519309E+03  0.38325519312E+03  0.50400001928E-02 0. -1.
        1   -1    0    0  501    0  0.00000000000E+00  0.00000000000E+00 -0.65373098447E+03  0.65373098449E+03  0.50400001928E-02 0.  1.
    10030    2    1    2    0    0  0.00000000000E+00  0.00000000000E+00 -0.27047579138E+03  0.10369861776E+04  0.10010909943E+04 0.  0.
        5    1    3    3  502    0 -0.33246462682E+02 -0.49634992681E+03 -0.19249298399E+03  0.53342686097E+03  0.46999998093E+01 0.  1.
       -5    1    3    3    0  502  0.33246462682E+02  0.49634992681E+03 -0.77982807394E+02  0.50355931664E+03  0.46999998093E+01 0. -1.
</event>
<event>
 5   0  0.3895011E-03  0.9803584E+03  0.7818609E-02  0.9330354E-01
       -2   -1    0    0    0  501  0.00000000000E+00  0.00000000000E+00  0.75479185996E+03  0.75479185996E+03  0.25500000920E-02 0.  1.
        2   -1    0    0  501    0  0.00000000000E+00  0.00000000000E+00 -0.31833363300E+03  0.31833363301E+03  0.25500000920E-02 0. -1.
    10030    2    1    2    0    0  0.00000000000E+00  0.00000000000E+00  0.43645822696E+03  0.10731254930E+04  0.98035837314E+03 0.  0.
        2    1    3    3  502    0  0.10162692016E+02 -0.65539133751E+02  0.74985782262E+03  0.75278510381E+03  0.25500000920E-02 0.  1.
       -2    1    3    3    0  502 -0.10162692016E+02  0.65539133751E+02 -0.31339959566E+03  0.32034038916E+03  0.25500000920E-02 0. -1.
</event>
<event>
 5   0  0.3895011E-03  0.1001435E+04  0.7818609E-02  0.9306973E-01
        2   -1    0    0  501    0  0.00000000000E+00  0.00000000000E+00  0.95737662930E+03  0.95737662931E+03  0.25500000920E-02 0.  1.
       -2   -1    0    0    0  501  0.00000000000E+00  0.00000000000E+00 -0.26188009582E+03  0.26188009583E+03  0.25500000920E-02 0. -1.
    10030    2    1    2    0    0  0.00000000000E+00  0.00000000000E+00  0.69549653349E+03  0.12192567251E+04  0.10014347376E+04 0.  0.
        2    1    3    3  502    0  0.17872153714E+03 -0.15770937194E+03  0.88387340499E+03  0.91544843104E+03  0.25500000920E-02 0.  1.
       -2    1    3    3    0  502 -0.17872153714E+03  0.15770937194E+03 -0.18837687150E+03  0.30380829410E+03  0.25500000920E-02 0. -1.
</event>
<event>
 5   0  0.2313036E-03  0.9965973E+03  0.7818609E-02  0.9312285E-01
        1   -1    0    0  501    0  0.00000000000E+00  0.00000000000E+00  0.78531571263E+03  0.78531571264E+03  0.50400001928E-02 0. -1.
       -1   -1    0    0    0  501  0.00000000000E+00  0.00000000000E+00 -0.31618054668E+03  0.31618054672E+03  0.50400001928E-02 0.  1.
    10030    2    1    2    0    0  0.00000000000E+00  0.00000000000E+00  0.46913516595E+03  0.11014962594E+04  0.99659731359E+03 0.  0.
        3    1    3    3  502    0 -0.48271612098E+03  0.84963050861E+02  0.33384383889E+03  0.59303059991E+03  0.10100000352E+00 0. -1.
       -3    1    3    3    0  502  0.48271612098E+03 -0.84963050861E+02  0.13529132705E+03  0.50846565945E+03  0.10100000352E+00 0.  1.
</event>
<event>
 5   0  0.3873874E-03  0.1001742E+04  0.7818609E-02  0.9306637E-01
       -2   -1    0    0    0  501  0.00000000000E+00  0.00000000000E+00  0.18871146829E+03  0.18871146831E+03  0.25500000920E-02 0. -1.
        2   -1    0    0  501    0  0.00000000000E+00  0.00000000000E+00 -0.13293919917E+04  0.13293919917E+04  0.25500000920E-02 0.  1.
    10030    2    1    2    0    0  0.00000000000E+00  0.00000000000E+00 -0.11406805234E+04  0.15181034600E+04  0.10017415130E+04 0.  0.
        5    1    3    3  502    0 -0.32738611595E+03 -0.36974216060E+03 -0.44392392046E+03  0.66406435787E+03  0.46999998093E+01 0.  1.
       -5    1    3    3    0  502  0.32738611595E+03  0.36974216060E+03 -0.69675660296E+03  0.85403910216E+03  0.46999998093E+01 0. -1.
</event>
<event>
 5   0  0.2405022E-03  0.1016460E+04  0.7818609E-02  0.9290673E-01
       -1   -1    0    0    0  501  0.00000000000E+00  0.00000000000E+00  0.79584372880E+03  0.79584372881E+03  0.50400001928E-02 0. -1.
        1   -1    0    0  501    0  0.00000000000E+00  0.00000000000E+00 -0.32455856305E+03  0.32455856309E+03  0.50400001928E-02 0.  1.
    10030    2    1    2    0    0  0.00000000000E+00  0.00000000000E+00  0.47128516575E+03  0.11204022919E+04  0.10164603230E+04 0.  0.
        4    1    3    3  502    0 -0.83218122097E+02 -0.10092280651E+03  0.77696904667E+03  0.78790429691E+03  0.12699999809E+01 0. -1.
       -4    1    3    3    0  502  0.83218122097E+02  0.10092280651E+03 -0.30568388092E+03  0.33249799499E+03  0.12699999809E+01 0.  1.
</event>
<event>
 5   0  0.3895011E-03  0.9979779E+03  0.7818609E-02  0.9310765E-01
       -2   -1    0    0    0  501  0.00000000000E+00  0.00000000000E+00  0.20689147188E+03  0.20689147190E+03  0.25500000920E-02 0.  1.
        2   -1    0    0  501    0  0.00000000000E+00  0.00000000000E+00 -0.12034811965E+04  0.12034811965E+04  0.25500000920E-02 0. -1.
    10030    2    1    2    0    0  0.00000000000E+00  0.00000000000E+00 -0.99658972457E+03  0.14103726684E+04  0.99797794792E+03 0.  0.
        2    1    3    3  502    0 -0.22212337363E+01  0.29701045516E+02  0.20563415413E+03  0.20777991081E+03  0.25500000920E-02 0.  1.
       -2    1    3    3    0  502  0.22212337363E+01 -0.29701045516E+02 -0.12022238787E+04  0.12025927576E+04  0.25500000920E-02 0. -1.
</event>
<event>
 5   0  0.2313036E-03  0.1000705E+04  0.7818609E-02  0.9307772E-01
        1   -1    0    0  501    0  0.00000000000E+00  0.00000000000E+00  0.44304650013E+03  0.44304650016E+03  0.50400001928E-02 0. -1.
       -1   -1    0    0    0  501  0.00000000000E+00  0.00000000000E+00 -0.56507073117E+03  0.56507073120E+03  0.50400001928E-02 0.  1.
    10030    2    1    2    0    0  0.00000000000E+00  0.00000000000E+00 -0.12202423104E+03  0.10081172314E+04  0.10007049711E+04 0.  0.
        3    1    3    3  502    0  0.68701794679E+02  0.40249177929E+03 -0.35234794446E+03  0.53932240187E+03  0.10100000352E+00 0.  1.
       -3    1    3    3    0  502 -0.68701794679E+02 -0.40249177929E+03  0.23032371342E+03  0.46879482949E+03  0.10100000352E+00 0. -1.
</event>
<event>
 5   0  0.2327595E-03  0.1068185E+04  0.7818609E-02  0.9236768E-01
       -1   -1    0    0    0  501  0.00000000000E+00  0.00000000000E+00  0.44288426684E+03  0.44288426686E+03  0.50400001928E-02 0.  1.
        1   -1    0    0  501    0  0.00000000000E+00  0.00000000000E+00 -0.64408372005E+03  0.64408372007E+03  0.50400001928E-02 0. -1.
    10030    2    1    2    0    0  0.00000000000E+00  0.00000000000E+00 -0.20119945321E+03  0.10869679869E+04  0.10681845274E+04 0.  0.
        5    1    3    3  502    0  0.13572241993E+03 -0.21696183337E+03 -0.57760642865E+03  0.63177867076E+03  0.46999998093E+01 0. -1.
       -5    1    3    3    0  502 -0.13572241993E+03  0.21696183337E+03  0.37640697543E+03  0.45518931618E+03  0.46999998093E+01 0.  1.
</event>
<event>
 5   0  0.2350769E-03  0.1001256E+04  0.7818609E-02  0.9307169E-01
       -1   -1    0    0    0  501  0.00000000000E+00  0.00000000000E+00  0.24509664894E+03  0.24509664899E+03  0.50400001928E-02 0. -1.
        1   -1    0    0  501    0  0.00000000000E+00  0.00000000000E+00 -0.10225690306E+04  0.10225690306E+04  0.50400001928E-02 0.  1.
    10030    2    1    2    0    0  0.00000000000E+00  0.00000000000E+00 -0.77747238163E+03  0.12676656796E+04  0.10012556971E+04 0.  0.
        2    1    3    3  502    0 -0.10390603053E+03  0.95109090295E+02 -0.99696151761E+03  0.10068636799E+04  0.25500000920E-02 0.  1.
       -2    1    3    3    0  502  0.10390603053E+03 -0.95109090295E+02  0.21948913597E+03  0.26080199971E+03  0.25500000920E-02 0. -1.
</event>
<event>
 5   0  0.2327595E-03  0.9324889E+03  0.7818609E-02  0.9385856E-01
        1   -1    0    0  501    0  0.00000000000E+00  0.00000000000E+00  0.24330422852E+03  0.24330422857E+03  0.50400001928E-02 0. -1.
       -1   -1    0    0    0  501  0.00000000000E+00  0.00000000000E+00 -0.89346530189E+03  0.89346530191E+03  0.50400001928E-02 0.  1.
    10030    2    1    2    0    0  0.00000000000E+00  0.00000000000E+00 -0.65016107337E+03  0.11367695305E+04  0.93248889758E+03 0.  0.
        5    1    3    3  502    0  0.38450423488E+03 -0.26249358828E+03 -0.35532246228E+03  0.58568125523E+03  0.46999998093E+01 0. -1.
       -5    1    3    3    0  502 -0.38450423488E+03  0.26249358828E+03 -0.29483861109E+03  0.55108827525E+03  0.46999998093E+01 0.  1.
</event>
<event>
 5   0  0.3895011E-03  0.9991453E+03  0.7818609E-02  0.9309483E-01
        2   -1    0    0  501    0  0.00000000000E+00  0.00000000000E+00  0.10028926112E+04  0.10028926112E+04  0.25500000920E-02 0.  1.
       -2   -1    0    0    0  501  0.00000000000E+00  0.00000000000E+00 -0.24885297334E+03  0.24885297335E+03  0.25500000920E-02 0. -1.
    10030    2    1    2    0    0  0.00000000000E+00  0.00000000000E+00  0.75403963783E+03  0.12517455845E+04  0.99914525118E+03 0.  0.
        2    1    3    3  502    0 -0.48175357230E+02  0.10307589102E+03  0.98644425939E+03  0.99298428046E+03  0.25500000920E-02 0.  1.
       -2    1    3    3    0  502  0.48175357230E+02 -0.10307589102E+03 -0.23240462156E+03  0.25876130406E+03  0.25500000920E-02 0. -1.
</event>
<event>
 5   0  0.3895011E-03  0.1000644E+04  0.7818609E-02  0.9307839E-01
       -2   -1    0    0    0  501  0.00000000000E+00  0.00000000000E+00  0.16602829689E+03  0.16602829691E+03  0.25500000920E-02 0.  1.
        2   -1    0    0  501    0  0.00000000000E+00  0.00000000000E+00 -0.15077062967E+04  0.15077062967E+04  0.25500000920E-02 0. -1.
    10030    2    1    2    0    0  0.00000000000E+00  0.00000000000E+00 -0.13416779999E+04  0.16737345937E+04  0.10006436102E+04 0.  0.
        2    1    3    3  502    0 -0.29632779302E+03 -0.20462024897E+03 -0.12518133687E+04  0.13025806375E+04  0.25500000920E-02 0. -1.
       -2    1    3    3    0  502  0.29632779302E+03  0.20462024897E+03 -0.89864631138E+02  0.37115395611E+03  0.25500000920E-02 0.  1.
</event>
<event>
 5   0  0.2350769E-03  0.9992774E+03  0.7818609E-02  0.9309338E-01
       -1   -1    0    0    0  501  0.00000000000E+00  0.00000000000E+00  0.31487147329E+03  0.31487147333E+03  0.50400001928E-02 0. -1.
        1   -1    0    0  501    0  0.00000000000E+00  0.00000000000E+00 -0.79282767877E+03  0.79282767879E+03  0.50400001928E-02 0.  1.
    10030    2    1    2    0    0  0.00000000000E+00  0.00000000000E+00 -0.47795620548E+03  0.11076991521E+04  0.99927737752E+03 0.  0.
        2    1    3    3  502    0  0.67390976687E+02  0.93596142660E+02  0.29991380425E+03  0.32132549175E+03  0.25500000920E-02 0. -1.
       -2    1    3    3    0  502 -0.67390976687E+02 -0.93596142660E+02 -0.77787000974E+03  0.78637366036E+03  0.25500000920E-02 0.  1.
</event>
<event>
 5   0  0.3826483E-03  0.1012134E+04  0.7818609E-02  0.9295336E-01
       -2   -1    0    0    0  501  0.00000000000E+00  0.00000000000E+00  0.29894948759E+03  0.29894948760E+03  0.25500000920E-02 0.  1.
        2   -1    0    0  501    0  0.00000000000E+00  0.00000000000E+00 -0.85667896694E+03  0.85667896695E+03  0.25500000920E-02 0. -1.
    10030    2    1    2    0    0  0.00000000000E+00  0.00000000000E+00 -0.55772947935E+03  0.11556284545E+04  0.10121338611E+04 0.  0.
        4    1    3    3  502    0 -0.44105436316E+03  0.24761149718E+03 -0.29733611144E+03  0.58672888191E+03  0.12699999809E+01 0. -1.
       -4    1    3    3    0  502  0.44105436316E+03 -0.24761149718E+03 -0.26039336791E+03  0.56889957264E+03  0.12699999809E+01 0.  1.
</event>
<event>
 5   0  0.1548000E-03  0.9954209E+03  0.7818609E-02  0.9313581E-01
        3   -1    0    0  501    0  0.00000000000E+00  0.00000000000E+00  0.12701072104E+04  0.12701072145E+04  0.10100000352E+00 0. -1.
       -3   -1    0    0    0  501  0.00000000000E+00  0.00000000000E+00 -0.19503524406E+03  0.19503527021E+03  0.10100000352E+00 0.  1.
    10030    2    1    2    0    0  0.00000000000E+00  0.00000000000E+00  0.10750719664E+04  0.14651424847E+04  0.99542089967E+03 0.  0.
        2    1    3    3  502    0  0.10022619782E+03 -0.13391775566E+03  0.12274963507E+04  0.12388408078E+04  0.25500000920E-02 0. -1.
       -2    1    3    3    0  502 -0.10022619782E+03  0.13391775566E+03 -0.15242438434E+03  0.22630167688E+03  0.25500000920E-02 0.  1.
</event>
<event>
 5   0  0.2327595E-03  0.9946526E+03  0.7818609E-02  0.9314429E-01
        1   -1    0    0  501    0  0.00000000000E+00  0.00000000000E+00  0.86961214799E+03  0.86961214800E+03  0.50400001928E-02 0.  1.
       -1   -1    0    0    0  501  0.00000000000E+00  0.00000000000E+00 -0.28441810183E+03  0.28441810188E+03  0.50400001928E-02 0. -1.
    10030    2    1    2    0    0  0.00000000000E+00  0.00000000000E+00  0.58519404615E+03  0.11540302499E+04  0.99465257552E+03 0.  0.
        5    1    3    3  502    0 -0.38476581448E+03 -0.37069215402E+02  0.65560859048E+03  0.76109366877E+03  0.46999998093E+01 0.  1.
       -5    1    3    3    0  502  0.38476581448E+03  0.37069215402E+02 -0.70414544331E+02  0.39293658111E+03  0.46999998093E+01 0. -1.
</event>
<event>
 5   0  0.2313036E-03  0.1013745E+04  0.7818609E-02  0.9293597E-01
        1   -1    0    0  501    0  0.00000000000E+00  0.00000000000E+00  0.12035139781E+04  0.12035139781E+04  0.50400001928E-02 0. -1.
       -1   -1    0    0    0  501  0.00000000000E+00  0.00000000000E+00 -0.21347458888E+03  0.21347458894E+03  0.50400001928E-02 0.  1.
    10030    2    1    2    0    0  0.00000000000E+00  0.00000000000E+00  0.99003938924E+03  0.14169885671E+04  0.10137448431E+04 0.  0.
        3    1    3    3  502    0  0.26955518088E+03  0.26545165339E+03  0.96653891850E+03  0.10379412637E+04  0.10100000352E+00 0. -1.
       -3    1    3    3    0  502 -0.26955518088E+03 -0.26545165339E+03  0.23500470746E+02  0.37904730332E+03  0.10100000352E+00 0.  1.
</event>
<event>
 5   0  0.3895011E-03  0.1000911E+04  0.7818609E-02  0.9307546E-01
       -2   -1    0    0    0  501  0.00000000000E+00  0.00000000000E+00  0.24606782374E+03  0.24606782375E+03  0.25500000920E-02 0.  1.
        2   -1    0    0  501    0  0.00000000000E+00  0.00000000000E+00 -0.10178329572E+04  0.10178329572E+04  0.25500000920E-02 0. -1.
    10030    2    1    2    0    0  0.00000000000E+00  0.00000000000E+00 -0.77176513345E+03  0.12639007809E+04  0.10009114660E+04 0.  0.
        2    1    3    3  502    0  0.15289515727E+03 -0.13756551126E+02  0.21560239578E+03  0.26467067251E+03  0.25500000920E-02 0.  1.
       -2    1    3    3    0  502 -0.15289515727E+03  0.13756551126E+02 -0.98736752923E+03  0.99923010843E+03  0.25500000920E-02 0. -1.
</event>
<event>
 5   0  0.2378609E-03  0.1000564E+04  0.7818609E-02  0.9307926E-01
       -1   -1    0    0    0  501  0.00000000000E+00  0.00000000000E+00  0.33455545333E+03  0.33455545337E+03  0.50400001928E-02 0.  1.
        1   -1    0    0  501    0  0.00000000000E+00  0.00000000000E+00 -0.74810389898E+03  0.74810389900E+03  0.50400001928E-02 0. -1.
    10030    2    1    2    0    0  0.00000000000E+00  0.00000000000E+00 -0.41354844565E+03  0.10826593524E+04  0.10005643190E+04 0.  0.
        1    1    3    3  502    0  0.42476323195E+03  0.25043212459E+03 -0.29821974060E+03  0.57625954739E+03  0.50400001928E-02 0. -1.
       -1    1    3    3    0  502 -0.42476323195E+03 -0.25043212459E+03 -0.11532870505E+03  0.50639980498E+03  0.50400001928E-02 0.  1.
</event>
<event>
 5   0  0.3895011E-03  0.1014835E+04  0.7818609E-02  0.9292422E-01
       -2   -1    0    0    0  501  0.00000000000E+00  0.00000000000E+00  0.10430923709E+04  0.10430923709E+04  0.25500000920E-02 0.  1.
        2   -1    0    0  501    0  0.00000000000E+00  0.00000000000E+00 -0.24683589040E+03  0.24683589042E+03  0.25500000920E-02 0. -1.
    10030    2    1    2    0    0  0.00000000000E+00  0.00000000000E+00  0.79625648052E+03  0.12899282613E+04  0.10148352264E+04 0.  0.
        2    1    3    3  502    0 -0.12296105877E+03  0.12226534159E+03  0.10042633690E+04  0.10191237167E+04  0.25500000920E-02 0.  1.
       -2    1    3    3    0  502  0.12296105877E+03 -0.12226534159E+03 -0.20800688846E+03  0.27080454461E+03  0.25500000920E-02 0. -1.
</event>
<event>
 5   0  0.3895011E-03  0.1003046E+04  0.7818609E-02  0.9305211E-01
       -2   -1    0    0    0  501  0.00000000000E+00  0.00000000000E+00  0.18776563760E+03  0.18776563762E+03  0.25500000920E-02 0.  1.
        2   -1    0    0  501    0  0.00000000000E+00  0.00000000000E+00 -0.13395695425E+04  0.13395695425E+04  0.25500000920E-02 0. -1.
    10030    2    1    2    0    0  0.00000000000E+00  0.00000000000E+00 -0.11518039049E+04  0.15273351801E+04  0.10030456206E+04 0.  0.
        2    1    3    3  502    0  0.35429772855E+03 -0.31187875718E+03 -0.83399758051E+03  0.95830433785E+03  0.25500000920E-02 0. -1.
       -2    1    3    3    0  502 -0.35429772855E+03  0.31187875718E+03 -0.31780632441E+03  0.56903084229E+03  0.25500000920E-02 0.  1.
</event>
<event>
 5   0  0.2313036E-03  0.9960948E+03  0.7818609E-02  0.9312838E-01
       -1   -1    0    0    0  501  0.00000000000E+00  0.00000000000E+00  0.55435836137E+03  0.55435836139E+03  0.50400001928E-02 0.  1.
        1   -1    0    0  501    0  0.00000000000E+00  0.00000000000E+00 -0.44745646376E+03  0.44745646378E+03  0.50400001928E-02 0. -1.
    10030    2    1    2    0    0  0.00000000000E+00  0.00000000000E+00  0.10690189761E+03  0.10018148252E+04  0.99609483897E+03 0.  0.
        3    1    3    3  502    0  0.33238443976E+03 -0.30701487552E+03 -0.15586352845E+03  0.47857183294E+03  0.10100000352E+00 0. -1.
       -3    1    3    3    0  502 -0.33238443976E+03  0.30701487552E+03  0.26276542606E+03  0.52324299223E+03  0.10100000352E+00 0.  1.
</event>
<event>
 5   0  0.2378609E-03  0.1001275E+04  0.7818609E-02  0.9307148E-01
       -1   -1    0    0    0  501  0.00000000000E+00  0.00000000000E+00  0.36063484474E+03  0.36063484478E+03  0.50400001928E-02 0.  1.
        1   -1    0    0  501    0  0.00000000000E+00  0.00000000000E+00 -0.69499068967E+03  0.69499068969E+03  0.50400001928E-02 0. -1.
    10030    2    1    2    0    0  0.00000000000E+00  0.00000000000E+00 -0.33435584492E+03  0.10556255345E+04  0.10012749063E+04 0.  0.
        1    1    3    3  502    0  0.27716832484E+03 -0.11950230716E+03 -0.58827695196E+03  0.66119048235E+03  0.50400001928E-02 0. -1.
       -1    1    3    3    0  502 -0.27716832484E+03  0.11950230716E+03  0.25392110704E+03  0.39443505212E+03  0.50400001928E-02 0.  1.
</event>
<event>
 5   0  0.2313036E-03  0.9987959E+03  0.7818609E-02  0.9309866E-01
       -1   -1    0    0    0  501  0.00000000000E+00  0.00000000000E+00  0.60226070903E+03  0.60226070905E+03  0.50400001928E-02 0.  1.
        1   -1    0    0  501    0  0.00000000000E+00  0.00000000000E+00 -0.41410359108E+03  0.41410359111E+03  0.50400001928E-02 0. -1.
    10030    2    1    2    0    0  0.00000000000E+00  0.00000000000E+00  0.18815711794E+03  0.10163643002E+04  0.99879591990E+03 0.  0.
        3    1    3    3  502    0  0.14025712991E+03 -0.29925559528E+03  0.47505998380E+03  0.57871233977E+03  0.10100000352E+00 0.  1.
       -3    1    3    3    0  502 -0.14025712991E+03  0.29925559528E+03 -0.28690286586E+03  0.43765196039E+03  0.10100000352E+00 0. -1.
</event>
<event>
 5   0  0.2327595E-03  0.9990970E+03  0.7818609E-02  0.9309536E-01
        1   -1    0    0  501    0  0.00000000000E+00  0.00000000000E+00  0.46658198301E+03  0.46658198304E+03  0.50400001928E-02 0. -1.
       -1   -1    0    0    0  501  0.00000000000E+00  0.00000000000E+00 -0.53484423187E+03  0.53484423189E+03  0.50400001928E-02 0.  1.
    10030    2    1    2    0    0  0.00000000000E+00  0.00000000000E+00 -0.68262248853E+02  0.10014262149E+04  0.99909695692E+03 0.  0.
        5    1    3    3  502    0  0.76756096172E+02  0.40017719763E+02 -0.52724726544E+03  0.53432638444E+03  0.46999998093E+01 0.  1.
       -5    1    3    3    0  502 -0.76756096172E+02 -0.40017719763E+02  0.45898501659E+03  0.46709983049E+03  0.46999998093E+01 0. -1.
</event>
<event>
 5   0  0.2405022E-03  0.9943821E+03  0.7818609E-02  0.9314728E-01
       -1   -1    0    0    0  501  0.00000000000E+00  0.00000000000E+00  0.14983101090E+03  0.14983101098E+03  0.50400001928E-02 0.  1.
        1   -1    0    0  501    0  0.00000000000E+00  0.00000000000E+00 -0.16498516896E+04  0.16498516896E+04  0.50400001928E-02 0. -1.
    10030    2    1    2    0    0  0.00000000000E+00  0.00000000000E+00 -0.15000206787E+04  0.17996827006E+04  0.99438211279E+03 0.  0.
        4    1    3    3  502    0  0.16813240285E+03  0.41836444868E+03 -0.37080453001E+03  0.58377643768E+03  0.12699999809E+01 0.  1.
       -4    1    3    3    0  502 -0.16813240285E+03 -0.41836444868E+03 -0.11292161487E+04  0.12159062629E+04  0.12699999809E+01 0. -1.
</event>
<event>
 5   0  0.2405022E-03  0.1019854E+04  0.7818609E-02  0.9287033E-01
       -1   -1    0    0    0  501  0.00000000000E+00  0.00000000000E+00  0.26620687995E+03  0.26620688000E+03  0.50400001928E-02 0.  1.
        1   -1    0    0  501    0  0.00000000000E+00  0.00000000000E+00 -0.97678042128E+03  0.97678042130E+03  0.50400001928E-02 0. -1.
    10030    2    1    2    0    0  0.00000000000E+00  0.00000000000E+00 -0.71057354133E+03  0.12429873013E+04  0.10198542413E+04 0.  0.
        4    1    3    3  502    0  0.38386317881E+03 -0.27033530546E+03 -0.59779806309E+03  0.76012910388E+03  0.12699999809E+01 0. -1.
       -4    1    3    3    0  502 -0.38386317881E+03  0.27033530546E+03 -0.11277547824E+03  0.48285819742E+03  0.12699999809E+01 0.  1.
</event>
<event>
 5   0  0.4026829E-03  0.9846344E+03  0.7818609E-02  0.9325560E-01
        2   -1    0    0  501    0  0.00000000000E+00  0.00000000000E+00  0.70610674605E+03  0.70610674605E+03  0.25500000920E-02 0.  1.
       -2   -1    0    0    0  501  0.00000000000E+00  0.00000000000E+00 -0.34325717695E+03  0.34325717696E+03  0.25500000920E-02 0. -1.
    10030    2    1    2    0    0  0.00000000000E+00  0.00000000000E+00  0.36284956910E+03  0.10493639230E+04  0.98463436519E+03 0.  0.
        1    1    3    3  502    0  0.86554539265E+02 -0.21465876227E+03 -0.28165859256E+03  0.36455676551E+03  0.50400001928E-02 0. -1.
       -1    1    3    3    0  502 -0.86554539265E+02  0.21465876227E+03  0.64450816166E+03  0.68480715750E+03  0.50400001928E-02 0.  1.
</event>
<event>
 5   0  0.4140860E-03  0.9988815E+03  0.7818609E-02  0.9309772E-01
       -2   -1    0    0    0  501  0.00000000000E+00  0.00000000000E+00  0.12089745427E+03  0.12089745430E+03  0.25500000920E-02 0.  1.
        2   -1    0    0  501    0  0.00000000000E+00  0.00000000000E+00 -0.20632447647E+04  0.20632447647E+04  0.25500000920E-02 0. -1.
    10030    2    1    2    0    0  0.00000000000E+00  0.00000000000E+00 -0.19423473105E+04  0.21841422190E+04  0.99888145367E+03 0.  0.
        3    1    3    3  502    0  0.49133652441E+03  0.41713871618E+02 -0.11445826598E+04  0.12462829144E+04  0.10100000352E+00 0.  1.
       -3    1    3    3    0  502 -0.49133652441E+03 -0.41713871618E+02 -0.79776465065E+03  0.93785930466E+03  0.10100000352E+00 0. -1.
</event>
<event>
 5   0  0.2327595E-03  0.1003095E+04  0.7818609E-02  0.9305156E-01
       -1   -1    0    0    0  501  0.00000000000E+00  0.00000000000E+00  0.14363029604E+03  0.14363029613E+03  0.50400001928E-02 0.  1.
        1   -1    0    0  501    0  0.00000000000E+00  0.00000000000E+00 -0.17513722376E+04  0.17513722376E+04  0.50400001928E-02 0. -1.
    10030    2    1    2    0    0  0.00000000000E+00  0.00000000000E+00 -0.16077419416E+04  0.18950025337E+04  0.10030954352E+04 0.  0.
        5    1    3    3  502    0 -0.40550174201E+03 -0.29232498833E+03 -0.72730864171E+03  0.88254490644E+03  0.46999998093E+01 0.  1.
       -5    1    3    3    0  502  0.40550174201E+03  0.29232498833E+03 -0.88043329986E+03  0.10124576273E+04  0.46999998093E+01 0. -1.
</event>
<event>
 5   0  0.3895011E-03  0.1001219E+04  0.7818609E-02  0.9307209E-01
       -2   -1    0    0    0  501  0.00000000000E+00  0.00000000000E+00  0.41160351077E+03  0.41160351078E+03  0.25500000920E-02 0. -1.
        2   -1    0    0  501    0  0.00000000000E+00  0.00000000000E+00 -0.60886216918E+03  0.60886216919E+03  0.25500000920E-02 0.  1.
    10030    2    1    2    0    0  0.00000000000E+00  0.00000000000E+00 -0.19725865841E+03  0.10204656800E+04  0.10012188700E+04 0.  0.
        2    1    3    3  502    0 -0.45499406045E+02 -0.41098306346E+03 -0.38624638710E+03  0.56582996205E+03  0.25500000920E-02 0.  1.
       -2    1    3    3    0  502  0.45499406045E+02  0.41098306346E+03  0.18898772869E+03  0.45463571791E+03  0.25500000920E-02 0. -1.
</event>
<event>
 5   0  0.3826483E-03  0.1002527E+04  0.7818609E-02  0.9305777E-01
        2   -1    0    0  501    0  0.00000000000E+00  0.00000000000E+00  0.86132227186E+03  0.86132227186E+03  0.25500000920E-02 0.  1.
       -2   -1    0    0    0  501  0.00000000000E+00  0.00000000000E+00 -0.29172040820E+03  0.29172040821E+03  0.25500000920E-02 0. -1.
    10030    2    1    2    0    0  0.00000000000E+00  0.00000000000E+00  0.56960186366E+03  0.11530426801E+04  0.10025273757E+04 0.  0.
        4    1    3    3  502    0 -0.44724746509E+03  0.20066944779E+03  0.16436490438E+03  0.51702606994E+03  0.12699999809E+01 0.  1.
       -4    1    3    3    0  502  0.44724746509E+03 -0.20066944779E+03  0.40523695928E+03  0.63601661014E+03  0.12699999809E+01 0. -1.
</event>
<event>
 5   0  0.2405022E-03  0.9382305E+03  0.7818609E-02  0.9379014E-01
        1   -1    0    0  501    0  0.00000000000E+00  0.00000000000E+00  0.79231665424E+03  0.79231665426E+03  0.50400001928E-02 0. -1.
       -1   -1    0    0    0  501  0.00000000000E+00  0.00000000000E+00 -0.27775398673E+03  0.27775398678E+03  0.50400001928E-02 0.  1.
    10030    2    1    2    0    0  0.00000000000E+00  0.00000000000E+00  0.51456266751E+03  0.10700706410E+04  0.93823048235E+03 0.  0.
        4    1    3    3  502    0  0.78986224436E+02 -0.37775025001E+03 -0.46905042735E+02  0.38876184351E+03  0.12699999809E+01 0.  1.
       -4    1    3    3    0  502 -0.78986224436E+02  0.37775025001E+03  0.56146771024E+03  0.68130879752E+03  0.12699999809E+01 0. -1.
</event>
<event>
 5   0  0.3873874E-03  0.9889006E+03  0.7818609E-02  0.9320803E-01
       -2   -1    0    0    0  501  0.00000000000E+00  0.00000000000E+00  0.19521512669E+03  0.19521512671E+03  0.25500000920E-02 0. -1.
        2   -1    0    0  501    0  0.00000000000E+00  0.00000000000E+00 -0.12523675165E+04  0.12523675165E+04  0.25500000920E-02 0.  1.
    10030    2    1    2    0    0  0.00000000000E+00  0.00000000000E+00 -0.10571523898E+04  0.14475826432E+04  0.98890056811E+03 0.  0.
        5    1    3    3  502    0  0.82334439753E+02  0.45156188573E+03 -0.25956616827E+03  0.52733649819E+03  0.46999998093E+01 0. -1.
       -5    1    3    3    0  502 -0.82334439753E+02 -0.45156188573E+03 -0.79758622150E+03  0.92024614497E+03  0.46999998093E+01 0.  1.
</event>
<event>
 5   0  0.4026829E-03  0.1006104E+04  0.7818609E-02  0.9301875E-01
       -2   -1    0    0    0  501  0.00000000000E+00  0.00000000000E+00  0.22494350563E+03  0.22494350565E+03  0.25500000920E-02 0.  1.
        2   -1    0    0  501    0  0.00000000000E+00  0.00000000000E+00 -0.11249989608E+04  0.11249989608E+04  0.25500000920E-02 0. -1.
    10030    2    1    2    0    0  0.00000000000E+00  0.00000000000E+00 -0.90005545521E+03  0.13499424665E+04  0.10061037921E+04 0.  0.
        1    1    3    3  502    0 -0.93233272465E+01  0.24413520423E+03 -0.10400516105E+04  0.10683614907E+04  0.50400001928E-02 0. -1.
       -1    1    3    3    0  502  0.93233272465E+01 -0.24413520423E+03  0.13999615530E+03  0.28158097574E+03  0.50400001928E-02 0.  1.
</event>
<event>
 5   0  0.2405022E-03  0.1005337E+04  0.7818609E-02  0.9302710E-01
       -1   -1    0    0    0  501  0.00000000000E+00  0.00000000000E+00  0.26360746158E+03  0.26360746163E+03  0.50400001928E-02 0.  1.
        1   -1    0    0  501    0  0.00000000000E+00  0.00000000000E+00 -0.95853063341E+03  0.95853063342E+03  0.50400001928E-02 0. -1.
    10030    2    1    2    0    0  0.00000000000E+00  0.00000000000E+00 -0.69492317182E+03  0.12221380951E+04  0.10053374103E+04 0.  0.
        4    1    3    3  502    0  0.47629505166E+03  0.11601448863E+03 -0.48260048059E+03  0.68791073154E+03  0.12699999809E+01 0.  1.
       -4    1    3    3    0  502 -0.47629505166E+03 -0.11601448863E+03 -0.21232269123E+03  0.53422736351E+03  0.12699999809E+01 0. -1.
</event>
<event>
 5   0  0.1548000E-03  0.1003893E+04  0.7818609E-02  0.9304285E-01
        3   -1    0    0  501    0  0.00000000000E+00  0.00000000000E+00  0.12947891837E+03  0.12947895776E+03  0.10100000352E+00 0. -1.
       -3   -1    0    0    0  501  0.00000000000E+00  0.00000000000E+00 -0.19458781782E+04  0.19458781808E+04  0.10100000352E+00 0.  1.
    10030    2    1    2    0    0  0.00000000000E+00  0.00000000000E+00 -0.18163992598E+04  0.20753571386E+04  0.10038929134E+04 0.  0.
        3    1    3    3  502    0 -0.12476974738E+03 -0.35250772181E+03 -0.21597183174E+03  0.43182522634E+03  0.10100000352E+00 0. -1.
       -3    1    3    3    0  502  0.12476974738E+03  0.35250772181E+03 -0.16004274281E+04  0.16435319123E+04  0.10100000352E+00 0.  1.
</event>
<event>
 5   0  0.2378609E-03  0.9967405E+03  0.7818609E-02  0.9312127E-01
        1   -1    0    0  501    0  0.00000000000E+00  0.00000000000E+00  0.10384628961E+04  0.10384628961E+04  0.50400001928E-02 0.  1.
       -1   -1    0    0    0  501  0.00000000000E+00  0.00000000000E+00 -0.23917357688E+03  0.23917357693E+03  0.50400001928E-02 0. -1.
    10030    2    1    2    0    0  0.00000000000E+00  0.00000000000E+00  0.79928931925E+03  0.12776364731E+04  0.99674045843E+03 0.  0.
        1    1    3    3  502    0  0.12898742535E+03  0.26977029928E+03 -0.11141068262E+03  0.31910203775E+03  0.50400001928E-02 0. -1.
       -1    1    3    3    0  502 -0.12898742535E+03 -0.26977029928E+03  0.91070000187E+03  0.95853443533E+03  0.50400001928E-02 0.  1.
</event>
<event>
 5   0  0.3826483E-03  0.1005592E+04  0.7818609E-02  0.9302433E-01
        2   -1    0    0  501    0  0.00000000000E+00  0.00000000000E+00  0.14988655885E+04  0.14988655886E+04  0.25500000920E-02 0. -1.
       -2   -1    0    0    0  501  0.00000000000E+00  0.00000000000E+00 -0.16866328012E+03  0.16866328014E+03  0.25500000920E-02 0.  1.
    10030    2    1    2    0    0  0.00000000000E+00  0.00000000000E+00  0.13302023084E+04  0.16675288687E+04  0.10055915406E+04 0.  0.
        4    1    3    3  502    0  0.33904236329E+03 -0.21585384439E+03  0.11660466514E+04  0.12333730224E+04  0.12699999809E+01 0. -1.
       -4    1    3    3    0  502 -0.33904236329E+03  0.21585384439E+03  0.16415565705E+03  0.43415584631E+03  0.12699999809E+01 0.  1.
</event>
<event>
 5   0  0.4140860E-03  0.1000772E+04  0.7818609E-02  0.9307698E-01
       -2   -1    0    0    0  501  0.00000000000E+00  0.00000000000E+00  0.14404981533E+04  0.14404981533E+04  0.25500000920E-02 0. -1.
        2   -1    0    0  501    0  0.00000000000E+00  0.00000000000E+00 -0.17381920751E+03  0.17381920753E+03  0.25500000920E-02 0.  1.
    10030    2    1    2    0    0  0.00000000000E+00  0.00000000000E+00  0.12666789458E+04  0.16143173609E+04  0.10007721968E+04 0.  0.
        3    1    3    3  502    0  0.23448078628E+03 -0.43661894191E+03  0.74473370101E+03  0.89456449471E+03  0.10100000352E+00 0.  1.
       -3    1    3    3    0  502 -0.23448078628E+03  0.43661894191E+03  0.52194524482E+03  0.71975286617E+03  0.10100000352E+00 0. -1.
</event>
<event>
 5   0  0.3895011E-03  0.9309944E+03  0.7818609E-02  0.9387645E-01
        2   -1    0    0  501    0  0.00000000000E+00  0.00000000000E+00  0.30920853647E+03  0.30920853648E+03  0.25500000920E-02 0.  1.
       -2   -1    0    0    0  501  0.00000000000E+00  0.00000000000E+00 -0.70078154738E+03  0.70078154739E+03  0.25500000920E-02 0. -1.
    10030    2    1    2    0    0  0.00000000000E+00  0.00000000000E+00 -0.39157301091E+03  0.10099900839E+04  0.93099438593E+03 0.  0.
        2    1    3    3  502    0 -0.15412641421E+03 -0.54349963233E+02 -0.66863561949E+03  0.68831857575E+03  0.25500000920E-02 0. -1.
       -2    1    3    3    0  502  0.15412641421E+03  0.54349963233E+02  0.27706260858E+03  0.32167150812E+03  0.25500000920E-02 0.  1.
</event>
<event>
 5   0  0.3895011E-03  0.9927443E+03  0.7818609E-02  0.9316539E-01
       -2   -1    0    0    0  501  0.00000000000E+00  0.00000000000E+00  0.11589216504E+03  0.11589216507E+03  0.25500000920E-02 0. -1.
        2   -1    0    0  501    0  0.00000000000E+00  0.00000000000E+00 -0.21259877188E+04  0.21259877188E+04  0.25500000920E-02 0.  1.
    10030    2    1    2    0    0  0.00000000000E+00  0.00000000000E+00 -0.20100955537E+04  0.22418798838E+04  0.99274431677E+03 0.  0.
        2    1    3    3  502    0 -0.30732937487E+03  0.15956483803E+03 -0.18081556899E+04  0.18410158286E+04  0.25500000920E-02 0.  1.
       -2    1    3    3    0  502  0.30732937487E+03 -0.15956483803E+03 -0.20193986385E+03  0.40086405528E+03  0.25500000920E-02 0. -1.
</event>
<event>
 5   0  0.3826483E-03  0.1005291E+04  0.7818609E-02  0.9302760E-01
        2   -1    0    0  501    0  0.00000000000E+00  0.00000000000E+00  0.15605428810E+04  0.15605428810E+04  0.25500000920E-02 0.  1.
       -2   -1    0    0    0  501  0.00000000000E+00  0.00000000000E+00 -0.16190049016E+03  0.16190049018E+03  0.25500000920E-02 0. -1.
    10030    2    1    2    0    0  0.00000000000E+00  0.00000000000E+00  0.13986423909E+04  0.17224433712E+04  0.10052913157E+04 0.  0.
        4    1    3    3  502    0  0.15774864519E+03  0.38541889640E+02  0.15143575882E+04  0.15230399306E+04  0.12699999809E+01 0.  1.
       -4    1    3    3    0  502 -0.15774864519E+03 -0.38541889640E+02 -0.11571519737E+03  0.19940344059E+03  0.12699999809E+01 0. -1.
</event>
<event>
 5   0  0.3873874E-03  0.9960020E+03  0.7818609E-02  0.9312941E-01
       -2   -1    0    0    0  501  0.00000000000E+00  0.00000000000E+00  0.34386808565E+03  0.34386808566E+03  0.25500000920E-02 0.  1.
        2   -1    0    0  501    0  0.00000000000E+00  0.00000000000E+00 -0.72122128516E+03  0.72122128516E+03  0.25500000920E-02 0. -1.
    10030    2    1    2    0    0  0.00000000000E+00  0.00000000000E+00 -0.37735319951E+03  0.10650893708E+04  0.99600197323E+03 0.  0.
        5    1    3    3  502    0  0.41205700562E+03  0.86576893794E+02  0.95654505456E+02  0.43180830102E+03  0.46999998093E+01 0.  1.
       -5    1    3    3    0  502 -0.41205700562E+03 -0.86576893794E+02 -0.47300770496E+03  0.63328106980E+03  0.46999998093E+01 0. -1.
</event>
<event>
 5   0  0.3873874E-03  0.9829471E+03  0.7818609E-02  0.9327448E-01
       -2   -1    0    0    0  501  0.00000000000E+00  0.00000000000E+00  0.16255293544E+03  0.16255293546E+03  0.25500000920E-02 0. -1.
        2   -1    0    0  501    0  0.00000000000E+00  0.00000000000E+00 -0.14859543089E+04  0.14859543089E+04  0.25500000920E-02 0.  1.
    10030    2    1    2    0    0  0.00000000000E+00  0.00000000000E+00 -0.13234013734E+04  0.16485072443E+04  0.98294706848E+03 0.  0.
        5    1    3    3  502    0  0.34254581353E+03  0.24007845569E+03 -0.10943449917E+04  0.11715751577E+04  0.46999998093E+01 0. -1.
       -5    1    3    3    0  502 -0.34254581353E+03 -0.24007845569E+03 -0.22905638171E+03  0.47693208663E+03  0.46999998093E+01 0.  1.
</event>
<event>
 5   0  0.4140860E-03  0.1002531E+04  0.7818609E-02  0.9305773E-01
       -2   -1    0    0    0  501  0.00000000000E+00  0.00000000000E+00  0.15432269415E+03  0.15432269417E+03  0.25500000920E-02 0. -1.
        2   -1    0    0  501    0  0.00000000000E+00  0.00000000000E+00 -0.16281931734E+04  0.16281931734E+04  0.25500000920E-02 0.  1.
    10030    2    1    2    0    0  0.00000000000E+00  0.00000000000E+00 -0.14738704793E+04  0.17825158676E+04  0.10025311110E+04 0.  0.
        3    1    3    3  502    0 -0.22159388635E+03 -0.11435854399E+03  0.36216196542E+02  0.25197886845E+03  0.10100000352E+00 0. -1.
       -3    1    3    3    0  502  0.22159388635E+03  0.11435854399E+03 -0.15100866758E+04  0.15305369991E+04  0.10100000352E+00 0.  1.
</event>
<event>
 5   0  0.2405022E-03  0.9936787E+03  0.7818609E-02  0.9315505E-01
        1   -1    0    0  501    0  0.00000000000E+00  0.00000000000E+00  0.68979854873E+03  0.68979854875E+03  0.50400001928E-02 0. -1.
       -1   -1    0    0    0  501  0.00000000000E+00  0.00000000000E+00 -0.35785717777E+03  0.35785717780E+03  0.50400001928E-02 0.  1.
    10030    2    1    2    0    0  0.00000000000E+00  0.00000000000E+00  0.33194137096E+03  0.10476557266E+04  0.99367874468E+03 0.  0.
        4    1    3    3  502    0 -0.30579403745E+03  0.24208728192E+02 -0.24609420020E+03  0.39326838690E+03  0.12699999809E+01 0.  1.
       -4    1    3    3    0  502  0.30579403745E+03 -0.24208728192E+02  0.57803557116E+03  0.65438733965E+03  0.12699999809E+01 0. -1.
</event>
<event>
 5   0  0.2378609E-03  0.9943885E+03  0.7818609E-02  0.9314721E-01
       -1   -1    0    0    0  501  0.00000000000E+00  0.00000000000E+00  0.40635068849E+03  0.40635068852E+03  0.50400001928E-02 0.  1.
        1   -1    0    0  501    0  0.00000000000E+00  0.00000000000E+00 -0.60834673166E+03  0.60834673168E+03  0.50400001928E-02 0. -1.
    10030    2    1    2    0    0  0.00000000000E+00  0.00000000000E+00 -0.20199604317E+03  0.10146974202E+04  0.99438848199E+03 0.  0.
        1    1    3    3  502    0  0.93334703813E+02 -0.27196835432E+03  0.31290161858E+03  0.42495361585E+03  0.50400001928E-02 0.  1.
       -1    1    3    3    0  502 -0.93334703813E+02  0.27196835432E+03 -0.51489766174E+03  0.58974380436E+03  0.50400001928E-02 0. -1.
</event>
<event>
 5   0  0.3895011E-03  0.1003245E+04  0.7818609E-02  0.9304993E-01
        2   -1    0    0  501    0  0.00000000000E+00  0.00000000000E+00  0.25708547886E+03  0.25708547887E+03  0.25500000920E-02 0. -1.
       -2   -1    0    0    0  501  0.00000000000E+00  0.00000000000E+00 -0.97876104627E+03  0.97876104627E+03  0.25500000920E-02 0.  1.
    10030    2    1    2    0    0  0.00000000000E+00  0.00000000000E+00 -0.72167556741E+03  0.12358465251E+04  0.10032452388E+04 0.  0.
        2    1    3    3  502    0  0.26217042165E+03 -0.35172054530E+03 -0.66052051595E+03  0.79292371888E+03  0.25500000920E-02 0.  1.
       -2    1    3    3    0  502 -0.26217042165E+03  0.35172054530E+03 -0.61155051466E+02  0.44292280626E+03  0.25500000920E-02 0. -1.
</event>
<event>
 5   0  0.3826483E-03  0.1000152E+04  0.7818609E-02  0.9308379E-01
        2   -1    0    0  501    0  0.00000000000E+00  0.00000000000E+00  0.12476060224E+04  0.12476060224E+04  0.25500000920E-02 0.  1.
       -2   -1    0    0    0  501  0.00000000000E+00  0.00000000000E+00 -0.20044452022E+03  0.20044452024E+03  0.25500000920E-02 0. -1.
    10030    2    1    2    0    0  0.00000000000E+00  0.00000000000E+00  0.10471615022E+04  0.14480505427E+04  0.10001515697E+04 0.  0.
        4    1    3    3  502    0 -0.33920032401E+03  0.36431468663E+03  0.45426415334E+03  0.67389879404E+03  0.12699999809E+01 0. -1.
       -4    1    3    3    0  502  0.33920032401E+03 -0.36431468663E+03  0.59289734887E+03  0.77415174863E+03  0.12699999809E+01 0.  1.
</event>
<event>
 5   0  0.2327595E-03  0.9915373E+03  0.7818609E-02  0.9317876E-01
        1   -1    0    0  501    0  0.00000000000E+00  0.00000000000E+00  0.87494606331E+03  0.87494606333E+03  0.50400001928E-02 0. -1.
       -1   -1    0    0    0  501  0.00000000000E+00  0.00000000000E+00 -0.28091621037E+03  0.28091621042E+03  0.50400001928E-02 0.  1.
    10030    2    1    2    0    0  0.00000000000E+00  0.00000000000E+00  0.59402985294E+03  0.11558622737E+04  0.99153725583E+03 0.  0.
        5    1    3    3  502    0 -0.92407174678E+00  0.49348265056E+03  0.24186157266E+03  0.54958629044E+03  0.46999998093E+01 0.  1.
       -5    1    3    3    0  502  0.92407174678E+00 -0.49348265056E+03  0.35216828028E+03  0.60627598331E+03  0.46999998093E+01 0. -1.
</event>
<event>
 5   0  0.1548000E-03  0.9948118E+03  0.7818609E-02  0.9314253E-01
        3   -1    0    0  501    0  0.00000000000E+00  0.00000000000E+00  0.62724388618E+03  0.62724389431E+03  0.10100000352E+00 0.  1.
       -3   -1    0    0    0  501  0.00000000000E+00  0.00000000000E+00 -0.39444406920E+03  0.39444408213E+03  0.10100000352E+00 0. -1.
    10030    2    1    2    0    0  0.00000000000E+00  0.00000000000E+00  0.23279981698E+03  0.10216879764E+04  0.99481182463E+03 0.  0.
        4    1    3    3  502    0 -0.32964772938E+03  0.37137898691E+03  0.86971790354E+02  0.50413855498E+03  0.12699999809E+01 0. -1.
       -4    1    3    3    0  502  0.32964772938E+03 -0.37137898691E+03  0.14582802662E+03  0.51754942146E+03  0.12699999809E+01 0.  1.
</event>
<event>
 5   0  0.3826483E-03  0.1005811E+04  0.7818609E-02  0.9302194E-01
       -2   -1    0    0    0  501  0.00000000000E+00  0.00000000000E+00  0.12444308672E+03  0.12444308675E+03  0.25500000920E-02 0.  1.
        2   -1    0    0  501    0  0.00000000000E+00  0.00000000000E+00 -0.20323670489E+04  0.20323670490E+04  0.25500000920E-02 0. -1.
    10030    2    1    2    0    0  0.00000000000E+00  0.00000000000E+00 -0.19079239622E+04  0.21568101357E+04  0.10058111730E+04 0.  0.
        4    1    3    3  502    0  0.49457582699E+03  0.35609524025E+02 -0.11338718258E+04  0.12375541270E+04  0.12699999809E+01 0.  1.
       -4    1    3    3    0  502 -0.49457582699E+03 -0.35609524025E+02 -0.77405213639E+03  0.91925600873E+03  0.12699999809E+01 0. -1.
</event>
<event>
 5   0  0.2327595E-03  0.9936918E+03  0.7818609E-02  0.9315491E-01
       -1   -1    0    0    0  501  0.00000000000E+00  0.00000000000E+00  0.46589378421E+03  0.46589378424E+03  0.50400001928E-02 0.  1.
        1   -1    0    0  501    0  0.00000000000E+00  0.00000000000E+00 -0.52985431998E+03  0.52985432000E+03  0.50400001928E-02 0. -1.
    10030    2    1    2    0    0  0.00000000000E+00  0.00000000000E+00 -0.63960535765E+02  0.99574810424E+03  0.99369177161E+03 0.  0.
        5    1    3    3  502    0 -0.49318316793E+03 -0.52027410160E+02 -0.61996481592E+02  0.49980210310E+03  0.46999998093E+01 0.  1.
       -5    1    3    3    0  502  0.49318316793E+03  0.52027410160E+02 -0.19640541729E+01  0.49594600114E+03  0.46999998093E+01 0. -1.
</event>
<event>
 5   0  0.2405022E-03  0.9937847E+03  0.7818609E-02  0.9315388E-01
        1   -1    0    0  501    0  0.00000000000E+00  0.00000000000E+00  0.10495786003E+04  0.10495786003E+04  0.50400001928E-02 0. -1.
       -1   -1    0    0    0  501  0.00000000000E+00  0.00000000000E+00 -0.23523916102E+03  0.23523916107E+03  0.50400001928E-02 0.  1.
    10030    2    1    2    0    0  0.00000000000E+00  0.00000000000E+00  0.81433943929E+03  0.12848177614E+04  0.99378466360E+03 0.  0.
        4    1    3    3  502    0  0.42345326647E+03 -0.13615340110E+02  0.74281975455E+03  0.85514960505E+03  0.12699999809E+01 0. -1.
       -4    1    3    3    0  502 -0.42345326647E+03  0.13615340110E+02  0.71519684744E+02  0.42966815635E+03  0.12699999809E+01 0.  1.
</event>
<event>
 5   0  0.2405022E-03  0.9991468E+03  0.7818609E-02  0.9309481E-01
       -1   -1    0    0    0  501  0.00000000000E+00  0.00000000000E+00  0.35943593652E+03  0.35943593655E+03  0.50400001928E-02 0. -1.
        1   -1    0    0  501    0  0.00000000000E+00  0.00000000000E+00 -0.69434792588E+03  0.69434792590E+03  0.50400001928E-02 0.  1.
    10030    2    1    2    0    0  0.00000000000E+00  0.00000000000E+00 -0.33491198936E+03  0.10537838624E+04  0.99914683012E+03 0.  0.
        4    1    3    3  502    0  0.12406539062E+03  0.14905504362E+03 -0.65302571723E+03  0.68121496420E+03  0.12699999809E+01 0.  1.
       -4    1    3    3    0  502 -0.12406539062E+03 -0.14905504362E+03  0.31811372787E+03  0.37256889825E+03  0.12699999809E+01 0. -1.
</event>
<event>
 5   0  0.2378609E-03  0.9891502E+03  0.7818609E-02  0.9320525E-01
        1   -1    0    0  501    0  0.00000000000E+00  0.00000000000E+00  0.64834257555E+03  0.64834257557E+03  0.50400001928E-02 0.  1.
       -1   -1    0    0    0  501  0.00000000000E+00  0.00000000000E+00 -0.37727669476E+03  0.37727669479E+03  0.50400001928E-02 0. -1.
    10030    2    1    2    0    0  0.00000000000E+00  0.00000000000E+00  0.27106588079E+03  0.10256192704E+04  0.98915022924E+03 0.  0.
        1    1    3    3  502    0  0.35161135421E+03  0.30779645616E+03 -0.32412135166E+02  0.46842261834E+03  0.50400001928E-02 0. -1.
       -1    1    3    3    0  502 -0.35161135421E+03 -0.30779645616E+03  0.30347801595E+03  0.55719665203E+03  0.50400001928E-02 0.  1.
</event>
<event>
 5   0  0.2378609E-03  0.9998493E+03  0.7818609E-02  0.9308710E-01
       -1   -1    0    0    0  501  0.00000000000E+00  0.00000000000E+00  0.65820841614E+03  0.65820841616E+03  0.50400001928E-02 0.  1.
        1   -1    0    0  501    0  0.00000000000E+00  0.00000000000E+00 -0.37970444747E+03  0.37970444750E+03  0.50400001928E-02 0. -1.
    10030    2    1    2    0    0  0.00000000000E+00  0.00000000000E+00  0.27850396867E+03  0.10379128637E+04  0.99984931464E+03 0.  0.
        1    1    3    3  502    0 -0.38175151195E+03 -0.25717182202E+03  0.34175027556E+03  0.57329295634E+03  0.50400001928E-02 0.  1.
       -1    1    3    3    0  502  0.38175151195E+03  0.25717182202E+03 -0.63246306892E+02  0.46461990732E+03  0.50400001928E-02 0. -1.
</event>
<event>
 5   0  0.1548000E-03  0.9977540E+03  0.7818609E-02  0.9311012E-01
       -4   -1    0    0    0  501  0.00000000000E+00  0.00000000000E+00  0.34484382433E+03  0.34484616292E+03  0.12699999809E+01 0.  1.
        4   -1    0    0  501    0  0.00000000000E+00  0.00000000000E+00 -0.72170767059E+03  0.72170878801E+03  0.12699999809E+01 0. -1.
    10030    2    1    2    0    0  0.00000000000E+00  0.00000000000E+00 -0.37686384626E+03  0.10665549509E+04  0.99775403017E+03 0.  0.
        1    1    3    3  502    0 -0.19880880432E+03  0.24396523891E+03  0.22534414040E+03  0.38707100138E+03  0.50400001928E-02 0.  1.
       -1    1    3    3    0  502  0.19880880432E+03 -0.24396523891E+03 -0.60220798666E+03  0.67948394955E+03  0.50400001928E-02 0. -1.
</event>
<event>
 5   0  0.2327595E-03  0.9992807E+03  0.7818609E-02  0.9309334E-01
       -1   -1    0    0    0  501  0.00000000000E+00  0.00000000000E+00  0.51213251869E+03  0.51213251871E+03  0.50400001928E-02 0. -1.
        1   -1    0    0  501    0  0.00000000000E+00  0.00000000000E+00 -0.48745290053E+03  0.48745290056E+03  0.50400001928E-02 0.  1.
    10030    2    1    2    0    0  0.00000000000E+00  0.00000000000E+00  0.24679618154E+02  0.99958541927E+03  0.99928070474E+03 0.  0.
        5    1    3    3  502    0 -0.32795186658E+03 -0.37635727719E+03  0.32868367745E+02  0.50029955675E+03  0.46999998093E+01 0. -1.
       -5    1    3    3    0  502  0.32795186658E+03  0.37635727719E+03 -0.81887495915E+01  0.49928586252E+03  0.46999998093E+01 0.  1.
</event>
<event>
 5   0  0.4140860E-03  0.9974755E+03  0.7818609E-02  0.9311318E-01
        2   -1    0    0  501    0  0.00000000000E+00  0.00000000000E+00  0.51394472000E+03  0.51394472001E+03  0.25500000920E-02 0.  1.
       -2   -1    0    0    0  501  0.00000000000E+00  0.00000000000E+00 -0.48398075403E+03  0.48398075404E+03  0.25500000920E-02 0. -1.
    10030    2    1    2    0    0  0.00000000000E+00  0.00000000000E+00  0.29963965973E+02  0.99792547405E+03  0.99747551975E+03 0.  0.
        3    1    3    3  502    0  0.13030773426E+03  0.47804967289E+03  0.71820880363E+02  0.50066939632E+03  0.10100000352E+00 0.  1.
       -3    1    3    3    0  502 -0.13030773426E+03 -0.47804967289E+03 -0.41856914390E+02  0.49725607773E+03  0.10100000352E+00 0. -1.
</event>
<event>
 5   0  0.2313036E-03  0.1003247E+04  0.7818609E-02  0.9304991E-01
        1   -1    0    0  501    0  0.00000000000E+00  0.00000000000E+00  0.11612740373E+04  0.11612740373E+04  0.50400001928E-02 0. -1.
       -1   -1    0    0    0  501  0.00000000000E+00  0.00000000000E+00 -0.21668100614E+03  0.21668100620E+03  0.50400001928E-02 0.  1.
    10030    2    1    2    0    0  0.00000000000E+00  0.00000000000E+00  0.94459303115E+03  0.13779550435E+04  0.10032467829E+04 0.  0.
        3    1    3    3  502    0  0.30451852667E+03  0.39207172691E+03  0.37349792536E+03  0.62125074050E+03  0.10100000352E+00 0.  1.
       -3    1    3    3    0  502 -0.30451852667E+03 -0.39207172691E+03  0.57109510578E+03  0.75670430300E+03  0.10100000352E+00 0. -1.
</event>
<event>
 5   0  0.2350769E-03  0.9975008E+03  0.7818609E-02  0.9311290E-01
        1   -1    0    0  501    0  0.00000000000E+00  0.00000000000E+00  0.30042220655E+03  0.30042220659E+03  0.50400001928E-02 0.  1.
       -1   -1    0    0    0  501  0.00000000000E+00  0.00000000000E+00 -0.82800789959E+03  0.82800789960E+03  0.50400001928E-02 0. -1.
    10030    2    1    2    0    0  0.00000000000E+00  0.00000000000E+00 -0.52758569304E+03  0.11284301062E+04  0.99750079752E+03 0.  0.
        2    1    3    3  502    0  0.38233889068E+03  0.12667656930E+02 -0.62581015718E+03  0.73347246008E+03  0.25500000920E-02 0. -1.
       -2    1    3    3    0  502 -0.38233889068E+03 -0.12667656930E+02  0.98224464140E+02  0.39495764611E+03  0.25500000920E-02 0.  1.
</event>
<event>
 5   0  0.3873874E-03  0.9996931E+03  0.7818609E-02  0.9308882E-01
        2   -1    0    0  501    0  0.00000000000E+00  0.00000000000E+00  0.12187682640E+04  0.12187682640E+04  0.25500000920E-02 0. -1.
       -2   -1    0    0    0  501  0.00000000000E+00  0.00000000000E+00 -0.20499922995E+03  0.20499922997E+03  0.25500000920E-02 0.  1.
    10030    2    1    2    0    0  0.00000000000E+00  0.00000000000E+00  0.10137690340E+04  0.14237674939E+04  0.99969306413E+03 0.  0.
        5    1    3    3  502    0 -0.16307345981E+03  0.14116502982E+03 -0.13527851293E+03  0.25464266139E+03  0.46999998093E+01 0.  1.
       -5    1    3    3    0  502  0.16307345981E+03 -0.14116502982E+03  0.11490475470E+04  0.11691248326E+04  0.46999998093E+01 0. -1.
</event>
<event>
 5   0  0.4140860E-03  0.9976768E+03  0.7818609E-02  0.9311097E-01
        2   -1    0    0  501    0  0.00000000000E+00  0.00000000000E+00  0.83050255820E+03  0.83050255820E+03  0.25500000920E-02 0.  1.
       -2   -1    0    0    0  501  0.00000000000E+00  0.00000000000E+00 -0.29962550137E+03  0.29962550138E+03  0.25500000920E-02 0. -1.
    10030    2    1    2    0    0  0.00000000000E+00  0.00000000000E+00  0.53087705683E+03  0.11301280596E+04  0.99767679215E+03 0.  0.
        3    1    3    3  502    0 -0.16435930482E+02 -0.36196869092E+03  0.65380872480E+03  0.74750072364E+03  0.10100000352E+00 0.  1.
       -3    1    3    3    0  502  0.16435930482E+02  0.36196869092E+03 -0.12293166797E+03  0.38262733594E+03  0.10100000352E+00 0. -1.
</event>
<event>
 5   0  0.2378609E-03  0.9991155E+03  0.7818609E-02  0.9309515E-01
       -1   -1    0    0    0  501  0.00000000000E+00  0.00000000000E+00  0.10213658061E+04  0.10213658061E+04  0.50400001928E-02 0.  1.
        1   -1    0    0  501    0  0.00000000000E+00  0.00000000000E+00 -0.24433746363E+03  0.24433746368E+03  0.50400001928E-02 0. -1.
    10030    2    1    2    0    0  0.00000000000E+00  0.00000000000E+00  0.77702834249E+03  0.12657032698E+04  0.99911546989E+03 0.  0.
        1    1    3    3  502    0  0.13198999692E+03 -0.87544332070E+02 -0.21168839706E+03  0.26438106370E+03  0.50400001928E-02 0. -1.
       -1    1    3    3    0  502 -0.13198999692E+03  0.87544332070E+02  0.98871673955E+03  0.10013222061E+04  0.50400001928E-02 0.  1.
</event>
<event>
 5   0  0.3826483E-03  0.1020666E+04  0.7818609E-02  0.9286165E-01
        2   -1    0    0  501    0  0.00000000000E+00  0.00000000000E+00  0.87439439834E+03  0.87439439835E+03  0.25500000920E-02 0. -1.
       -2   -1    0    0    0  501  0.00000000000E+00  0.00000000000E+00 -0.29785147685E+03  0.29785147686E+03  0.25500000920E-02 0.  1.
    10030    2    1    2    0    0  0.00000000000E+00  0.00000000000E+00  0.57654292150E+03  0.11722458752E+04  0.10206657884E+04 0.  0.
        4    1    3    3  502    0  0.13370599601E+03  0.38706202016E+02 -0.27562589930E+03  0.30878263019E+03  0.12699999809E+01 0.  1.
       -4    1    3    3    0  502 -0.13370599601E+03 -0.38706202016E+02  0.85216882080E+03  0.86346324501E+03  0.12699999809E+01 0. -1.
</event>
<event>
 5   0  0.4026829E-03  0.1002361E+04  0.7818609E-02  0.9305959E-01
       -2   -1    0    0    0  501  0.00000000000E+00  0.00000000000E+00  0.11045119093E+03  0.11045119096E+03  0.25500000920E-02 0.  1.
        2   -1    0    0  501    0  0.00000000000E+00  0.00000000000E+00 -0.22741429325E+04  0.22741429325E+04  0.25500000920E-02 0. -1.
    10030    2    1    2    0    0  0.00000000000E+00  0.00000000000E+00 -0.21636917415E+04  0.23845941234E+04  0.10023608038E+04 0.  0.
        1    1    3    3  502    0 -0.31208444251E+03  0.16983303491E+03 -0.24094590306E+03  0.42929580388E+03  0.50400001928E-02 0.  1.
       -1    1    3    3    0  502  0.31208444251E+03 -0.16983303491E+03 -0.19227458385E+04  0.19552983195E+04  0.50400001928E-02 0. -1.
</event>
<event>
 5   0  0.4140860E-03  0.1006512E+04  0.7818609E-02  0.9301431E-01
        2   -1    0    0  501    0  0.00000000000E+00  0.00000000000E+00  0.13995734425E+04  0.13995734425E+04  0.25500000920E-02 0. -1.
       -2   -1    0    0    0  501  0.00000000000E+00  0.00000000000E+00 -0.18095998032E+03  0.18095998034E+03  0.25500000920E-02 0.  1.
    10030    2    1    2    0    0  0.00000000000E+00  0.00000000000E+00  0.12186134622E+04  0.15805334228E+04  0.10065123598E+04 0.  0.
        3    1    3    3  502    0 -0.19273073348E+03 -0.20999882012E+03  0.12606002180E+04  0.12924231350E+04  0.10100000352E+00 0. -1.
       -3    1    3    3    0  502  0.19273073348E+03  0.20999882012E+03 -0.41986755830E+02  0.28811028782E+03  0.10100000352E+00 0.  1.
</event>
<event>
 5   0  0.2327595E-03  0.1021583E+04  0.7818609E-02  0.9285184E-01
        1   -1    0    0  501    0  0.00000000000E+00  0.00000000000E+00  0.19012330099E+04  0.19012330099E+04  0.50400001928E-02 0.  1.
       -1   -1    0    0    0  501  0.00000000000E+00  0.00000000000E+00 -0.13723098621E+03  0.13723098630E+03  0.50400001928E-02 0. -1.
    10030    2    1    2    0    0  0.00000000000E+00  0.00000000000E+00  0.17640020237E+04  0.20384639962E+04  0.10215832439E+04 0.  0.
        5    1    3    3  502    0  0.59367948026E+02  0.47552007039E+03  0.12346960879E+04  0.13244396589E+04  0.46999998093E+01 0. -1.
       -5    1    3    3    0  502 -0.59367948026E+02 -0.47552007039E+03  0.52930593577E+03  0.71402433729E+03  0.46999998093E+01 0.  1.
</event>
<event>
 5   0  0.2350769E-03  0.9929212E+03  0.7818609E-02  0.9316343E-01
       -1   -1    0    0    0  501  0.00000000000E+00  0.00000000000E+00  0.44360735420E+03  0.44360735423E+03  0.50400001928E-02 0.  1.
        1   -1    0    0  501    0  0.00000000000E+00  0.00000000000E+00 -0.55561103888E+03  0.55561103890E+03  0.50400001928E-02 0. -1.
    10030    2    1    2    0    0  0.00000000000E+00  0.00000000000E+00 -0.11200368467E+03  0.99921839313E+03  0.99292123141E+03 0.  0.
        2    1    3    3  502    0 -0.20156026824E+03  0.21153544815E+03 -0.45991920669E+03  0.54488481741E+03  0.25500000920E-02 0. -1.
       -2    1    3    3    0  502  0.20156026824E+03 -0.21153544815E+03  0.34791552202E+03  0.45433357572E+03  0.25500000920E-02 0.  1.
</event>
<event>
 5   0  0.2378609E-03  0.9721522E+03  0.7818609E-02  0.9339626E-01
       -1   -1    0    0    0  501  0.00000000000E+00  0.00000000000E+00  0.48414365928E+03  0.48414365931E+03  0.50400001928E-02 0.  1.
        1   -1    0    0  501    0  0.00000000000E+00  0.00000000000E+00 -0.48801624759E+03  0.48801624762E+03  0.50400001928E-02 0. -1.
    10030    2    1    2    0    0  0.00000000000E+00  0.00000000000E+00 -0.38725883125E+01  0.97215990693E+03  0.97215219369E+03 0.  0.
        1    1    3    3  502    0  0.86036915259E+02  0.47579370250E+03  0.47943694366E+02  0.48588125708E+03  0.50400001928E-02 0.  1.
       -1    1    3    3    0  502 -0.86036915259E+02 -0.47579370250E+03 -0.51816282678E+02  0.48627864985E+03  0.50400001928E-02 0. -1.
</event>
<event>
 5   0  0.3895011E-03  0.1014817E+04  0.7818609E-02  0.9292441E-01
        2   -1    0    0  501    0  0.00000000000E+00  0.00000000000E+00  0.74746205685E+03  0.74746205685E+03  0.25500000920E-02 0.  1.
       -2   -1    0    0    0  501  0.00000000000E+00  0.00000000000E+00 -0.34445026949E+03  0.34445026950E+03  0.25500000920E-02 0. -1.
    10030    2    1    2    0    0  0.00000000000E+00  0.00000000000E+00  0.40301178736E+03  0.10919123264E+04  0.10148172386E+04 0.  0.
        2    1    3    3  502    0  0.19689111754E+03  0.92032437874E+02 -0.29183216249E+03  0.36387098381E+03  0.25500000920E-02 0. -1.
       -2    1    3    3    0  502 -0.19689111754E+03 -0.92032437874E+02  0.69484394986E+03  0.72804134254E+03  0.25500000920E-02 0.  1.
</event>
<event>
 5   0  0.3826483E-03  0.9973385E+03  0.7818609E-02  0.9311469E-01
       -2   -1    0    0    0  501  0.00000000000E+00  0.00000000000E+00  0.12736320144E+03  0.12736320146E+03  0.25500000920E-02 0.  1.
        2   -1    0    0  501    0  0.00000000000E+00  0.00000000000E+00 -0.19524559025E+04  0.19524559025E+04  0.25500000920E-02 0. -1.
    10030    2    1    2    0    0  0.00000000000E+00  0.00000000000E+00 -0.18250927011E+04  0.20798191040E+04  0.99733852715E+03 0.  0.
        4    1    3    3  502    0  0.56953160906E+02  0.27765689255E+03 -0.56954111953E+02  0.28910620243E+03  0.12699999809E+01 0.  1.
       -4    1    3    3    0  502 -0.56953160906E+02 -0.27765689255E+03 -0.17681385891E+04  0.17907129015E+04  0.12699999809E+01 0. -1.
</event>
<event>
 5   0  0.2350769E-03  0.1000912E+04  0.7818609E-02  0.9307545E-01
        1   -1    0    0  501    0  0.00000000000E+00  0.00000000000E+00  0.12836729256E+04  0.12836729256E+04  0.50400001928E-02 0. -1.
       -1   -1    0    0    0  501  0.00000000000E+00  0.00000000000E+00 -0.19510921197E+03  0.19510921204E+03  0.50400001928E-02 0.  1.
    10030    2    1    2    0    0  0.00000000000E+00  0.00000000000E+00  0.10885637136E+04  0.14787821377E+04  0.10009124098E+04 0.  0.
        2    1    3    3  502    0 -0.34155587815E+03 -0.20210820381E+03  0.93850335023E+02  0.40781862308E+03  0.25500000920E-02 0. -1.
       -2    1    3    3    0  502  0.34155587815E+03  0.20210820381E+03  0.99471337862E+03  0.10709635146E+04  0.25500000920E-02 0.  1.
</event>
<event>
 5   0  0.2327595E-03  0.1018692E+04  0.7818609E-02  0.9288278E-01
       -1   -1    0    0    0  501  0.00000000000E+00  0.00000000000E+00  0.99252703280E+02  0.99252703408E+02  0.50400001928E-02 0.  1.
        1   -1    0    0  501    0  0.00000000000E+00  0.00000000000E+00 -0.26138664055E+04  0.26138664055E+04  0.50400001928E-02 0. -1.
    10030    2    1    2    0    0  0.00000000000E+00  0.00000000000E+00 -0.25146137022E+04  0.27131191089E+04  0.10186919199E+04 0.  0.
        5    1    3    3  502    0 -0.96993789897E+02  0.28935314497E+03 -0.17127233333E+03  0.34998477102E+03  0.46999998093E+01 0.  1.
       -5    1    3    3    0  502  0.96993789897E+02 -0.28935314497E+03 -0.23433413689E+04  0.23631343379E+04  0.46999998093E+01 0. -1.
</event>
<event>
 5   0  0.2350769E-03  0.1050650E+04  0.7818609E-02  0.9254673E-01
        1   -1    0    0  501    0  0.00000000000E+00  0.00000000000E+00  0.64555804181E+03  0.64555804183E+03  0.50400001928E-02 0.  1.
       -1   -1    0    0    0  501  0.00000000000E+00  0.00000000000E+00 -0.42748509853E+03  0.42748509856E+03  0.50400001928E-02 0. -1.
    10030    2    1    2    0    0  0.00000000000E+00  0.00000000000E+00  0.21807294328E+03  0.10730431404E+04  0.10506501666E+04 0.  0.
        2    1    3    3  502    0  0.47871820458E+03  0.21514766544E+03  0.86044308671E+02  0.53184890750E+03  0.25500000920E-02 0. -1.
       -2    1    3    3    0  502 -0.47871820458E+03 -0.21514766544E+03  0.13202863461E+03  0.54119423289E+03  0.25500000920E-02 0.  1.
</event>
<event>
 5   0  0.1548000E-03  0.9714217E+03  0.7818609E-02  0.9340456E-01
        3   -1    0    0  501    0  0.00000000000E+00  0.00000000000E+00  0.23397941206E+03  0.23397943386E+03  0.10100000352E+00 0. -1.
       -3   -1    0    0    0  501  0.00000000000E+00  0.00000000000E+00 -0.10082725577E+04  0.10082725627E+04  0.10100000352E+00 0.  1.
    10030    2    1    2    0    0  0.00000000000E+00  0.00000000000E+00 -0.77429314562E+03  0.12422519966E+04  0.97142171466E+03 0.  0.
        4    1    3    3  502    0 -0.28467332298E+03 -0.37854654207E+03 -0.24955221086E+03  0.53536371205E+03  0.12699999809E+01 0. -1.
       -4    1    3    3    0  502  0.28467332298E+03  0.37854654207E+03 -0.52474093475E+03  0.70688828455E+03  0.12699999809E+01 0.  1.
</event>
<event>
 5   0  0.3895011E-03  0.9937345E+03  0.7818609E-02  0.9315444E-01
        2   -1    0    0  501    0  0.00000000000E+00  0.00000000000E+00  0.73313599807E+03  0.73313599808E+03  0.25500000920E-02 0. -1.
       -2   -1    0    0    0  501  0.00000000000E+00  0.00000000000E+00 -0.33674112748E+03  0.33674112749E+03  0.25500000920E-02 0.  1.
    10030    2    1    2    0    0  0.00000000000E+00  0.00000000000E+00  0.39639487059E+03  0.10698771256E+04  0.99373445668E+03 0.  0.
        2    1    3    3  502    0  0.15362047081E+03 -0.16443042307E+03  0.67513089991E+03  0.71164481668E+03  0.25500000920E-02 0. -1.
       -2    1    3    3    0  502 -0.15362047081E+03  0.16443042307E+03 -0.27873602932E+03  0.35823230889E+03  0.25500000920E-02 0.  1.
</event>
<event>
 5   0  0.4140860E-03  0.9955593E+03  0.7818609E-02  0.9313429E-01
        2   -1    0    0  501    0  0.00000000000E+00  0.00000000000E+00  0.49949261840E+03  0.49949261841E+03  0.25500000920E-02 0. -1.
       -2   -1    0    0    0  501  0.00000000000E+00  0.00000000000E+00 -0.49607260267E+03  0.49607260268E+03  0.25500000920E-02 0.  1.
    10030    2    1    2    0    0  0.00000000000E+00  0.00000000000E+00  0.34200157310E+01  0.99556522108E+03  0.99555934676E+03 0.  0.
        3    1    3    3  502    0 -0.12537343384E+03 -0.39664431997E+03  0.27509665816E+03  0.49872176212E+03  0.10100000352E+00 0. -1.
       -3    1    3    3    0  502  0.12537343384E+03  0.39664431997E+03 -0.27167664242E+03  0.49684345897E+03  0.10100000352E+00 0.  1.
</event>
<event>
 5   0  0.3895011E-03  0.9987339E+03  0.7818609E-02  0.9309935E-01
        2   -1    0    0  501    0  0.00000000000E+00  0.00000000000E+00  0.12546851047E+04  0.12546851047E+04  0.25500000920E-02 0.  1.
       -2   -1    0    0    0  501  0.00000000000E+00  0.00000000000E+00 -0.19874893810E+03  0.19874893811E+03  0.25500000920E-02 0. -1.
    10030    2    1    2    0    0  0.00000000000E+00  0.00000000000E+00  0.10559361666E+04  0.14534340428E+04  0.99873386289E+03 0.  0.
        2    1    3    3  502    0  0.26802026783E+03  0.32023337794E+03  0.12946919949E+03  0.43720310376E+03  0.25500000920E-02 0. -1.
       -2    1    3    3    0  502 -0.26802026783E+03 -0.32023337794E+03  0.92646696713E+03  0.10162309391E+04  0.25500000920E-02 0.  1.
</event>
<event>
 5   0  0.2313036E-03  0.1039808E+04  0.7818609E-02  0.9265930E-01
       -1   -1    0    0    0  501  0.00000000000E+00  0.00000000000E+00  0.35614630362E+03  0.35614630365E+03  0.50400001928E-02 0. -1.
        1   -1    0    0  501    0  0.00000000000E+00  0.00000000000E+00 -0.75895805445E+03  0.75895805447E+03  0.50400001928E-02 0.  1.
    10030    2    1    2    0    0  0.00000000000E+00  0.00000000000E+00 -0.40281175083E+03  0.11151043581E+04  0.10398078779E+04 0.  0.
        3    1    3    3  502    0 -0.10775930090E+03 -0.47772149471E+03 -0.38860338942E+03  0.62517397411E+03  0.10100000352E+00 0.  1.
       -3    1    3    3    0  502  0.10775930090E+03  0.47772149471E+03 -0.14208361414E+02  0.48993038401E+03  0.10100000352E+00 0. -1.
</event>
<event>
 5   0  0.2327595E-03  0.9982259E+03  0.7818609E-02  0.9310493E-01
       -1   -1    0    0    0  501  0.00000000000E+00  0.00000000000E+00  0.39605634077E+03  0.39605634080E+03  0.50400001928E-02 0.  1.
        1   -1    0    0  501    0  0.00000000000E+00  0.00000000000E+00 -0.62898558717E+03  0.62898558719E+03  0.50400001928E-02 0. -1.
    10030    2    1    2    0    0  0.00000000000E+00  0.00000000000E+00 -0.23292924640E+03  0.10250419280E+04  0.99822588642E+03 0.  0.
        5    1    3    3  502    0  0.30640165851E+03  0.30854461954E+03  0.13508529857E+03  0.45535907422E+03  0.46999998093E+01 0.  1.
       -5    1    3    3    0  502 -0.30640165851E+03 -0.30854461954E+03 -0.36801454497E+03  0.56968285378E+03  0.46999998093E+01 0. -1.
</event>
<event>
 5   0  0.3873874E-03  0.1008981E+04  0.7818609E-02  0.9298750E-01
       -2   -1    0    0    0  501  0.00000000000E+00  0.00000000000E+00  0.22017580675E+03  0.22017580676E+03  0.25500000920E-02 0.  1.
        2   -1    0    0  501    0  0.00000000000E+00  0.00000000000E+00 -0.11559420237E+04  0.11559420237E+04  0.25500000920E-02 0. -1.
    10030    2    1    2    0    0  0.00000000000E+00  0.00000000000E+00 -0.93576621700E+03  0.13761178305E+04  0.10089806096E+04 0.  0.
        5    1    3    3  502    0 -0.13275889612E+03 -0.31284390755E+03 -0.97635614380E+03  0.10338228303E+04  0.46999998093E+01 0. -1.
       -5    1    3    3    0  502  0.13275889612E+03  0.31284390755E+03  0.40589926797E+02  0.34229500018E+03  0.46999998093E+01 0.  1.
</event>
<event>
 5   0  0.2327595E-03  0.9973536E+03  0.7818609E-02  0.9311452E-01
        1   -1    0    0  501    0  0.00000000000E+00  0.00000000000E+00  0.71356688214E+03  0.71356688216E+03  0.50400001928E-02 0. -1.
       -1   -1    0    0    0  501  0.00000000000E+00  0.00000000000E+00 -0.34850065838E+03  0.34850065841E+03  0.50400001928E-02 0.  1.
    10030    2    1    2    0    0  0.00000000000E+00  0.00000000000E+00  0.36506622376E+03  0.10620675406E+04  0.99735355466E+03 0.  0.
        5    1    3    3  502    0  0.48370216650E+03 -0.24600018440E+02  0.56158986308E+02  0.48759498410E+03  0.46999998093E+01 0.  1.
       -5    1    3    3    0  502 -0.48370216650E+03  0.24600018440E+02  0.30890723746E+03  0.57447255647E+03  0.46999998093E+01 0. -1.
</event>
<event>
 5   0  0.2350769E-03  0.1002852E+04  0.7818609E-02  0.9305422E-01
        1   -1    0    0  501    0  0.00000000000E+00  0.00000000000E+00  0.45999424057E+03  0.45999424060E+03  0.50400001928E-02 0. -1.
       -1   -1    0    0    0  501  0.00000000000E+00  0.00000000000E+00 -0.54658967254E+03  0.54658967256E+03  0.50400001928E-02 0.  1.
    10030    2    1    2    0    0  0.00000000000E+00  0.00000000000E+00 -0.86595431965E+02  0.10065839132E+04  0.10028521354E+04 0.  0.
        2    1    3    3  502    0 -0.38180110531E+03 -0.17818175271E+03 -0.31616828243E+03  0.52676674518E+03  0.25500000920E-02 0.  1.
       -2    1    3    3    0  502  0.38180110531E+03  0.17818175271E+03  0.22957285046E+03  0.47981716798E+03  0.25500000920E-02 0. -1.
</event>
<event>
 5   0  0.3873874E-03  0.9878276E+03  0.7818609E-02  0.9321997E-01
       -2   -1    0    0    0  501  0.00000000000E+00  0.00000000000E+00  0.26493158685E+03  0.26493158687E+03  0.25500000920E-02 0. -1.
        2   -1    0    0  501    0  0.00000000000E+00  0.00000000000E+00 -0.92080699652E+03  0.92080699652E+03  0.25500000920E-02 0.  1.
    10030    2    1    2    0    0  0.00000000000E+00  0.00000000000E+00 -0.65587540967E+03  0.11857385834E+04  0.98782763433E+03 0.  0.
        5    1    3    3  502    0 -0.16506734008E+03  0.24527168794E+03 -0.80283241867E+03  0.85555093953E+03  0.46999998093E+01 0.  1.
       -5    1    3    3    0  502  0.16506734008E+03 -0.24527168794E+03  0.14695700901E+03  0.33018764386E+03  0.46999998093E+01 0. -1.
</event>
<event>
 5   0  0.2378609E-03  0.1006604E+04  0.7818609E-02  0.9301331E-01
       -1   -1    0    0    0  501  0.00000000000E+00  0.00000000000E+00  0.35163701344E+03  0.35163701347E+03  0.50400001928E-02 0. -1.
        1   -1    0    0  501    0  0.00000000000E+00  0.00000000000E+00 -0.72038242745E+03  0.72038242747E+03  0.50400001928E-02 0.  1.
    10030    2    1    2    0    0  0.00000000000E+00  0.00000000000E+00 -0.36874541402E+03  0.10720194409E+04  0.10066044414E+04 0.  0.
        1    1    3    3  502    0  0.44734117957E+03 -0.52614640624E+02 -0.42353421950E+03  0.61827474998E+03  0.50400001928E-02 0.  1.
       -1    1    3    3    0  502 -0.44734117957E+03  0.52614640624E+02  0.54788805479E+02  0.45374469097E+03  0.50400001928E-02 0. -1.
</event>
<event>
 5   0  0.4140860E-03  0.9193298E+03  0.7818609E-02  0.9401736E-01
       -2   -1    0    0    0  501  0.00000000000E+00  0.00000000000E+00  0.33926712719E+03  0.33926712720E+03  0.25500000920E-02 0.  1.
        2   -1    0    0  501    0  0.00000000000E+00  0.00000000000E+00 -0.62278896334E+03  0.62278896335E+03  0.25500000920E-02 0. -1.
    10030    2    1    2    0    0  0.00000000000E+00  0.00000000000E+00 -0.28352183616E+03  0.96205609054E+03  0.91932980468E+03 0.  0.
        3    1    3    3  502    0  0.27895846677E+03  0.11561202974E+03  0.22091167706E+03  0.37414695891E+03  0.10100000352E+00 0.  1.
       -3    1    3    3    0  502 -0.27895846677E+03 -0.11561202974E+03 -0.50443351321E+03  0.58790913163E+03  0.10100000352E+00 0. -1.
</event>
<event>
 5   0  0.3826483E-03  0.9965677E+03  0.7818609E-02  0.9312317E-01
        2   -1    0    0  501    0  0.00000000000E+00  0.00000000000E+00  0.44755464701E+03  0.44755464702E+03  0.25500000920E-02 0. -1.
       -2   -1    0    0    0  501  0.00000000000E+00  0.00000000000E+00 -0.55476312096E+03  0.55476312096E+03  0.25500000920E-02 0.  1.
    10030    2    1    2    0    0  0.00000000000E+00  0.00000000000E+00 -0.10720847395E+03  0.10023177680E+04  0.99656773534E+03 0.  0.
        4    1    3    3  502    0 -0.18045723466E+03  0.34459867021E+03 -0.36680448905E+03  0.53465895965E+03  0.12699999809E+01 0.  1.
       -4    1    3    3    0  502  0.18045723466E+03 -0.34459867021E+03  0.25959601510E+03  0.46765880833E+03  0.12699999809E+01 0. -1.
</event>
<event>
 5   0  0.4140860E-03  0.9981085E+03  0.7818609E-02  0.9310622E-01
        2   -1    0    0  501    0  0.00000000000E+00  0.00000000000E+00  0.36325379331E+03  0.36325379332E+03  0.25500000920E-02 0. -1.
       -2   -1    0    0    0  501  0.00000000000E+00  0.00000000000E+00 -0.68562299170E+03  0.68562299170E+03  0.25500000920E-02 0.  1.
    10030    2    1    2    0    0  0.00000000000E+00  0.00000000000E+00 -0.32236919839E+03  0.10488767850E+04  0.99810851618E+03 0.  0.
        3    1    3    3  502    0  0.28684116987E+03  0.92019345815E+02  0.25693498525E+03  0.39593056662E+03  0.10100000352E+00 0. -1.
       -3    1    3    3    0  502 -0.28684116987E+03 -0.92019345815E+02 -0.57930418364E+03  0.65294621840E+03  0.10100000352E+00 0.  1.
</event>
<event>
 5   0  0.1548000E-03  0.9831459E+03  0.7818609E-02  0.9327226E-01
       -4   -1    0    0    0  501  0.00000000000E+00  0.00000000000E+00  0.11992728851E+04  0.11992735576E+04  0.12699999809E+01 0.  1.
        4   -1    0    0  501    0  0.00000000000E+00  0.00000000000E+00 -0.20148933342E+03  0.20149333582E+03  0.12699999809E+01 0. -1.
    10030    2    1    2    0    0  0.00000000000E+00  0.00000000000E+00  0.99778355171E+03  0.14007668934E+04  0.98314590656E+03 0.  0.
        1    1    3    3  502    0  0.34328958118E+02  0.22245767305E+03 -0.12375199682E+03  0.25686660041E+03  0.50400001928E-02 0. -1.
       -1    1    3    3    0  502 -0.34328958118E+02 -0.22245767305E+03  0.11215355485E+04  0.11439002930E+04  0.50400001928E-02 0.  1.
</event>
<event>
 5   0  0.3826483E-03  0.9993055E+03  0.7818609E-02  0.9309307E-01
        2   -1    0    0  501    0  0.00000000000E+00  0.00000000000E+00  0.29566304726E+04  0.29566304726E+04  0.25500000920E-02 0. -1.
       -2   -1    0    0    0  501  0.00000000000E+00  0.00000000000E+00 -0.84438312588E+02  0.84438312626E+02  0.25500000920E-02 0.  1.
    10030    2    1    2    0    0  0.00000000000E+00  0.00000000000E+00  0.28721921601E+04  0.30410687853E+04  0.99930553509E+03 0.  0.
        4    1    3    3  502    0  0.11845973997E+02 -0.45213251210E+03  0.20822772414E+04  0.21308318231E+04  0.12699999809E+01 0. -1.
       -4    1    3    3    0  502 -0.11845973997E+02  0.45213251210E+03  0.78991491868E+03  0.91023696215E+03  0.12699999809E+01 0.  1.
</event>
<event>
 5   0  0.2327595E-03  0.9694850E+03  0.7818609E-02  0.9342661E-01
        1   -1    0    0  501    0  0.00000000000E+00  0.00000000000E+00  0.43628834923E+03  0.43628834926E+03  0.50400001928E-02 0.  1.
       -1   -1    0    0    0  501  0.00000000000E+00  0.00000000000E+00 -0.53857801204E+03  0.53857801207E+03  0.50400001928E-02 0. -1.
    10030    2    1    2    0    0  0.00000000000E+00  0.00000000000E+00 -0.10228966281E+03  0.97486636132E+03  0.96948504234E+03 0.  0.
        5    1    3    3  502    0  0.44068553191E+03 -0.17184266717E+03 -0.15765530149E+03  0.49860898947E+03  0.46999998093E+01 0.  1.
       -5    1    3    3    0  502 -0.44068553191E+03  0.17184266717E+03  0.55365638675E+02  0.47625737185E+03  0.46999998093E+01 0. -1.
</event>
<event>
 5   0  0.1548000E-03  0.9999335E+03  0.7818609E-02  0.9308618E-01
        4   -1    0    0  501    0  0.00000000000E+00  0.00000000000E+00  0.71420207999E+03  0.71420320915E+03  0.12699999809E+01 0. -1.
       -4   -1    0    0    0  501  0.00000000000E+00  0.00000000000E+00 -0.34999187290E+03  0.34999417709E+03  0.12699999809E+01 0.  1.
    10030    2    1    2    0    0  0.00000000000E+00  0.00000000000E+00  0.36421020709E+03  0.10641973862E+04  0.99993349876E+03 0.  0.
        4    1    3    3  502    0 -0.40014687346E+03 -0.76749752837E+02 -0.12627032469E+03  0.42656049125E+03  0.12699999809E+01 0.  1.
       -4    1    3    3    0  502  0.40014687346E+03  0.76749752837E+02  0.49048053178E+03  0.63763689499E+03  0.12699999809E+01 0. -1.
</event>
<event>
 5   0  0.1548000E-03  0.9958276E+03  0.7818609E-02  0.9313133E-01
        3   -1    0    0  501    0  0.00000000000E+00  0.00000000000E+00  0.29935238007E+03  0.29935239711E+03  0.10100000352E+00 0. -1.
       -3   -1    0    0    0  501  0.00000000000E+00  0.00000000000E+00 -0.82818165320E+03  0.82818165936E+03  0.10100000352E+00 0.  1.
    10030    2    1    2    0    0  0.00000000000E+00  0.00000000000E+00 -0.52882927313E+03  0.11275340565E+04  0.99582761981E+03 0.  0.
        3    1    3    3  502    0  0.28489169713E+03 -0.40575218368E+03 -0.31654819240E+03  0.58821839649E+03  0.10100000352E+00 0. -1.
       -3    1    3    3    0  502 -0.28489169713E+03  0.40575218368E+03 -0.21228108073E+03  0.53931565998E+03  0.10100000352E+00 0.  1.
</event>
<event>
 5   0  0.1548000E-03  0.1007143E+04  0.7818609E-02  0.9300745E-01
        3   -1    0    0  501    0  0.00000000000E+00  0.00000000000E+00  0.75538472143E+03  0.75538472818E+03  0.10100000352E+00 0.  1.
       -3   -1    0    0    0  501  0.00000000000E+00  0.00000000000E+00 -0.33570238398E+03  0.33570239917E+03  0.10100000352E+00 0. -1.
    10030    2    1    2    0    0  0.00000000000E+00  0.00000000000E+00  0.41968233745E+03  0.10910871274E+04  0.10071434134E+04 0.  0.
        5    1    3    3  502    0  0.13465163682E+03 -0.30459112605E+03  0.61901934391E+03  0.70293232640E+03  0.46999998093E+01 0.  1.
       -5    1    3    3    0  502 -0.13465163682E+03  0.30459112605E+03 -0.19933700646E+03  0.38815480096E+03  0.46999998093E+01 0. -1.
</event>
<event>
 5   0  0.1548000E-03  0.1000545E+04  0.7818609E-02  0.9307947E-01
       -3   -1    0    0    0  501  0.00000000000E+00  0.00000000000E+00  0.12731153136E+03  0.12731157142E+03  0.10100000352E+00 0.  1.
        3   -1    0    0  501    0  0.00000000000E+00  0.00000000000E+00 -0.19658274481E+04  0.19658274507E+04  0.10100000352E+00 0. -1.
    10030    2    1    2    0    0  0.00000000000E+00  0.00000000000E+00 -0.18385159167E+04  0.20931390221E+04  0.10005449464E+04 0.  0.
        2    1    3    3  502    0  0.32979355623E+03 -0.84431861797E+02 -0.16861404446E+04  0.17201634015E+04  0.25500000920E-02 0. -1.
       -2    1    3    3    0  502 -0.32979355623E+03  0.84431861797E+02 -0.15237547210E+03  0.37297562055E+03  0.25500000920E-02 0.  1.
</event>
<event>
 5   0  0.2350769E-03  0.9993379E+03  0.7818609E-02  0.9309271E-01
       -1   -1    0    0    0  501  0.00000000000E+00  0.00000000000E+00  0.37376321637E+03  0.37376321641E+03  0.50400001928E-02 0. -1.
        1   -1    0    0  501    0  0.00000000000E+00  0.00000000000E+00 -0.66798718490E+03  0.66798718492E+03  0.50400001928E-02 0.  1.
    10030    2    1    2    0    0  0.00000000000E+00  0.00000000000E+00 -0.29422396853E+03  0.10417504013E+04  0.99933785829E+03 0.  0.
        2    1    3    3  502    0 -0.30497753714E+03 -0.62315076164E+02 -0.55456437825E+03  0.63595292004E+03  0.25500000920E-02 0.  1.
       -2    1    3    3    0  502  0.30497753714E+03  0.62315076164E+02  0.26034040972E+03  0.40579748129E+03  0.25500000920E-02 0. -1.
</event>
<event>
 5   0  0.2313036E-03  0.9979640E+03  0.7818609E-02  0.9310781E-01
       -1   -1    0    0    0  501  0.00000000000E+00  0.00000000000E+00  0.43339171293E+03  0.43339171296E+03  0.50400001928E-02 0.  1.
        1   -1    0    0  501    0  0.00000000000E+00  0.00000000000E+00 -0.57449883056E+03  0.57449883058E+03  0.50400001928E-02 0. -1.
    10030    2    1    2    0    0  0.00000000000E+00  0.00000000000E+00 -0.14110711762E+03  0.10078905435E+04  0.99796399189E+03 0.  0.
        3    1    3    3  502    0  0.12226847920E+03 -0.39420576095E+02 -0.55751075968E+03  0.57212045950E+03  0.10100000352E+00 0. -1.
       -3    1    3    3    0  502 -0.12226847920E+03  0.39420576095E+02  0.41640364205E+03  0.43577008404E+03  0.10100000352E+00 0.  1.
</event>
<event>
 5   0  0.2327595E-03  0.1004654E+04  0.7818609E-02  0.9303455E-01
        1   -1    0    0  501    0  0.00000000000E+00  0.00000000000E+00  0.63827532226E+03  0.63827532228E+03  0.50400001928E-02 0.  1.
       -1   -1    0    0    0  501  0.00000000000E+00  0.00000000000E+00 -0.39533449471E+03  0.39533449475E+03  0.50400001928E-02 0. -1.
    10030    2    1    2    0    0  0.00000000000E+00  0.00000000000E+00  0.24294082754E+03  0.10336098170E+04  0.10046536757E+04 0.  0.
        5    1    3    3  502    0 -0.31512237607E+03  0.29226987577E+03 -0.14599634095E+03  0.45393921813E+03  0.46999998093E+01 0. -1.
       -5    1    3    3    0  502  0.31512237607E+03 -0.29226987577E+03  0.38893716850E+03  0.57967059889E+03  0.46999998093E+01 0.  1.
</event>
<event>
 5   0  0.3873874E-03  0.9971565E+03  0.7818609E-02  0.9311669E-01
        2   -1    0    0  501    0  0.00000000000E+00  0.00000000000E+00  0.14076555313E+04  0.14076555313E+04  0.25500000920E-02 0. -1.
       -2   -1    0    0    0  501  0.00000000000E+00  0.00000000000E+00 -0.17659169868E+03  0.17659169869E+03  0.25500000920E-02 0.  1.
    10030    2    1    2    0    0  0.00000000000E+00  0.00000000000E+00  0.12310638327E+04  0.15842472300E+04  0.99715652020E+03 0.  0.
        5    1    3    3  502    0  0.40386536465E+03  0.16614025234E+03  0.23340713265E+03  0.49518763695E+03  0.46999998093E+01 0. -1.
       -5    1    3    3    0  502 -0.40386536465E+03 -0.16614025234E+03  0.99765670002E+03  0.10890595931E+04  0.46999998093E+01 0.  1.
</event>
<event>
 5   0  0.2378609E-03  0.9900449E+03  0.7818609E-02  0.9319531E-01
       -1   -1    0    0    0  501  0.00000000000E+00  0.00000000000E+00  0.25862765435E+03  0.25862765440E+03  0.50400001928E-02 0. -1.
        1   -1    0    0  501    0  0.00000000000E+00  0.00000000000E+00 -0.94749041239E+03  0.94749041240E+03  0.50400001928E-02 0.  1.
    10030    2    1    2    0    0  0.00000000000E+00  0.00000000000E+00 -0.68886275804E+03  0.12061180668E+04  0.99004489375E+03 0.  0.
        1    1    3    3  502    0  0.32055276335E+03  0.29890402106E+03 -0.64103681521E+02  0.44295255944E+03  0.50400001928E-02 0.  1.
       -1    1    3    3    0  502 -0.32055276335E+03 -0.29890402106E+03 -0.62475907652E+03  0.76316550736E+03  0.50400001928E-02 0. -1.
</event>
<event>
 5   0  0.2327595E-03  0.9955593E+03  0.7818609E-02  0.9313429E-01
       -1   -1    0    0    0  501  0.00000000000E+00  0.00000000000E+00  0.13685526310E+03  0.13685526319E+03  0.50400001928E-02 0. -1.
        1   -1    0    0  501    0  0.00000000000E+00  0.00000000000E+00 -0.18105594406E+04  0.18105594406E+04  0.50400001928E-02 0.  1.
    10030    2    1    2    0    0  0.00000000000E+00  0.00000000000E+00 -0.16737041775E+04  0.19474147038E+04  0.99555931756E+03 0.  0.
        5    1    3    3  502    0  0.25720601190E+03 -0.95443441644E+02 -0.24426711020E+02  0.27546894076E+03  0.46999998093E+01 0. -1.
       -5    1    3    3    0  502 -0.25720601190E+03  0.95443441644E+02 -0.16492774665E+04  0.16719457631E+04  0.46999998093E+01 0.  1.
</event>
<event>
 5   0  0.2405022E-03  0.1006443E+04  0.7818609E-02  0.9301507E-01
       -1   -1    0    0    0  501  0.00000000000E+00  0.00000000000E+00  0.33367855855E+03  0.33367855859E+03  0.50400001928E-02 0. -1.
        1   -1    0    0  501    0  0.00000000000E+00  0.00000000000E+00 -0.75890900326E+03  0.75890900328E+03  0.50400001928E-02 0.  1.
    10030    2    1    2    0    0  0.00000000000E+00  0.00000000000E+00 -0.42523044471E+03  0.10925875619E+04  0.10064425713E+04 0.  0.
        4    1    3    3  502    0 -0.41468443711E+03 -0.16739515038E+03 -0.46311632913E+03  0.64378774915E+03  0.12699999809E+01 0.  1.
       -4    1    3    3    0  502  0.41468443711E+03  0.16739515038E+03  0.37885884420E+02  0.44879981271E+03  0.12699999809E+01 0. -1.
</event>
<event>
 5   0  0.2350769E-03  0.9802407E+03  0.7818609E-02  0.9330486E-01
       -1   -1    0    0    0  501  0.00000000000E+00  0.00000000000E+00  0.88925941351E+03  0.88925941352E+03  0.50400001928E-02 0. -1.
        1   -1    0    0  501    0  0.00000000000E+00  0.00000000000E+00 -0.27013260343E+03  0.27013260348E+03  0.50400001928E-02 0.  1.
    10030    2    1    2    0    0  0.00000000000E+00  0.00000000000E+00  0.61912681008E+03  0.11593920170E+04  0.98024070622E+03 0.  0.
        2    1    3    3  502    0 -0.28098803761E+03 -0.79183696180E+02 -0.15608110917E+03  0.33103723003E+03  0.25500000920E-02 0.  1.
       -2    1    3    3    0  502  0.28098803761E+03  0.79183696180E+02  0.77520791925E+03  0.82835478697E+03  0.25500000920E-02 0. -1.
</event>
<event>
 5   0  0.3895011E-03  0.9992203E+03  0.7818609E-02  0.9309400E-01
        2   -1    0    0  501    0  0.00000000000E+00  0.00000000000E+00  0.62745782224E+03  0.62745782224E+03  0.25500000920E-02 0.  1.
       -2   -1    0    0    0  501  0.00000000000E+00  0.00000000000E+00 -0.39781211677E+03  0.39781211678E+03  0.25500000920E-02 0. -1.
    10030    2    1    2    0    0  0.00000000000E+00  0.00000000000E+00  0.22964570546E+03  0.10252699390E+04  0.99922034498E+03 0.  0.
        2    1    3    3  502    0 -0.30069053423E+03  0.30010883658E+03 -0.15495786413E+03  0.45220797299E+03  0.25500000920E-02 0.  1.
       -2    1    3    3    0  502  0.30069053423E+03 -0.30010883658E+03  0.38460356959E+03  0.57306196604E+03  0.25500000920E-02 0. -1.
</event>
<event>
 5   0  0.4140860E-03  0.9987788E+03  0.7818609E-02  0.9309885E-01
        2   -1    0    0  501    0  0.00000000000E+00  0.00000000000E+00  0.27791341548E+04  0.27791341549E+04  0.25500000920E-02 0.  1.
       -2   -1    0    0    0  501  0.00000000000E+00  0.00000000000E+00 -0.89736498631E+02  0.89736498667E+02  0.25500000920E-02 0. -1.
    10030    2    1    2    0    0  0.00000000000E+00  0.00000000000E+00  0.26893976562E+04  0.28688706535E+04  0.99877879099E+03 0.  0.
        3    1    3    3  502    0 -0.31615378870E+02  0.12678063179E+03  0.27291640668E+04  0.27322901337E+04  0.10100000352E+00 0.  1.
       -3    1    3    3    0  502  0.31615378870E+02 -0.12678063179E+03 -0.39766410622E+02  0.13658051982E+03  0.10100000352E+00 0. -1.
</event>
<event>
 5   0  0.3826483E-03  0.1000720E+04  0.7818609E-02  0.9307756E-01
        2   -1    0    0  501    0  0.00000000000E+00  0.00000000000E+00  0.28898115666E+04  0.28898115666E+04  0.25500000920E-02 0.  1.
       -2   -1    0    0    0  501  0.00000000000E+00  0.00000000000E+00 -0.86635386620E+02  0.86635386658E+02  0.25500000920E-02 0. -1.
    10030    2    1    2    0    0  0.00000000000E+00  0.00000000000E+00  0.28031761800E+04  0.29764469533E+04  0.10007196259E+04 0.  0.
        4    1    3    3  502    0 -0.13904499476E+03  0.44791414950E+03  0.19201568285E+04  0.19766042737E+04  0.12699999809E+01 0.  1.
       -4    1    3    3    0  502  0.13904499476E+03 -0.44791414950E+03  0.88301935154E+03  0.99984267962E+03  0.12699999809E+01 0. -1.
</event>
<event>
 5   0  0.2327595E-03  0.9951073E+03  0.7818609E-02  0.9313927E-01
       -1   -1    0    0    0  501  0.00000000000E+00  0.00000000000E+00  0.46475872360E+03  0.46475872362E+03  0.50400001928E-02 0.  1.
        1   -1    0    0  501    0  0.00000000000E+00  0.00000000000E+00 -0.53266266577E+03  0.53266266580E+03  0.50400001928E-02 0. -1.
    10030    2    1    2    0    0  0.00000000000E+00  0.00000000000E+00 -0.67903942178E+02  0.99742138942E+03  0.99510727196E+03 0.  0.
        5    1    3    3  502    0 -0.45460110123E+03 -0.19723018788E+03  0.10599366898E+02  0.49567766222E+03  0.46999998093E+01 0. -1.
       -5    1    3    3    0  502  0.45460110123E+03  0.19723018788E+03 -0.78503309076E+02  0.50174372720E+03  0.46999998093E+01 0.  1.
</event>
<event>
 5   0  0.4026829E-03  0.1002502E+04  0.7818609E-02  0.9305805E-01
       -2   -1    0    0    0  501  0.00000000000E+00  0.00000000000E+00  0.17227091255E+03  0.17227091257E+03  0.25500000920E-02 0. -1.
        2   -1    0    0  501    0  0.00000000000E+00  0.00000000000E+00 -0.14584737859E+04  0.14584737859E+04  0.25500000920E-02 0.  1.
    10030    2    1    2    0    0  0.00000000000E+00  0.00000000000E+00 -0.12862028733E+04  0.16307446985E+04  0.10025020899E+04 0.  0.
        1    1    3    3  502    0 -0.24473388826E+03 -0.41920333781E+03 -0.43975737943E+03  0.65499058564E+03  0.50400001928E-02 0. -1.
       -1    1    3    3    0  502  0.24473388826E+03  0.41920333781E+03 -0.84644549392E+03  0.97575411282E+03  0.50400001928E-02 0.  1.
</event>
<event>
 5   0  0.3873874E-03  0.9899683E+03  0.7818609E-02  0.9319616E-01
       -2   -1    0    0    0  501  0.00000000000E+00  0.00000000000E+00  0.24935744187E+03  0.24935744188E+03  0.25500000920E-02 0. -1.
        2   -1    0    0  501    0  0.00000000000E+00  0.00000000000E+00 -0.98256269738E+03  0.98256269738E+03  0.25500000920E-02 0.  1.
    10030    2    1    2    0    0  0.00000000000E+00  0.00000000000E+00 -0.73320525551E+03  0.12319201393E+04  0.98996832415E+03 0.  0.
        5    1    3    3  502    0  0.38801220125E+03  0.14904063321E+03 -0.70102240930E+03  0.81499759939E+03  0.46999998093E+01 0.  1.
       -5    1    3    3    0  502 -0.38801220125E+03 -0.14904063321E+03 -0.32182846205E+02  0.41692253987E+03  0.46999998093E+01 0. -1.
</event>
<event>
 5   0  0.2405022E-03  0.1020707E+04  0.7818609E-02  0.9286121E-01
        1   -1    0    0  501    0  0.00000000000E+00  0.00000000000E+00  0.54169936812E+03  0.54169936815E+03  0.50400001928E-02 0.  1.
       -1   -1    0    0    0  501  0.00000000000E+00  0.00000000000E+00 -0.48082168647E+03  0.48082168650E+03  0.50400001928E-02 0. -1.
    10030    2    1    2    0    0  0.00000000000E+00  0.00000000000E+00  0.60877681651E+02  0.10225210546E+04  0.10207072132E+04 0.  0.
        4    1    3    3  502    0 -0.25422699586E+03 -0.13996160181E+03 -0.39011495995E+03  0.48622207918E+03  0.12699999809E+01 0. -1.
       -4    1    3    3    0  502  0.25422699586E+03  0.13996160181E+03  0.45099264160E+03  0.53629897546E+03  0.12699999809E+01 0.  1.
</event>
<event>
 5   0  0.2350769E-03  0.1018824E+04  0.7818609E-02  0.9288136E-01
       -1   -1    0    0    0  501  0.00000000000E+00  0.00000000000E+00  0.12195430193E+03  0.12195430204E+03  0.50400001928E-02 0. -1.
        1   -1    0    0  501    0  0.00000000000E+00  0.00000000000E+00 -0.21278523329E+04  0.21278523329E+04  0.50400001928E-02 0.  1.
    10030    2    1    2    0    0  0.00000000000E+00  0.00000000000E+00 -0.20058980310E+04  0.22498066350E+04  0.10188243146E+04 0.  0.
        2    1    3    3  502    0 -0.26843914991E+03 -0.37698538488E+03 -0.14730661920E+04  0.15440536143E+04  0.25500000920E-02 0.  1.
       -2    1    3    3    0  502  0.26843914991E+03  0.37698538488E+03 -0.53283183896E+03  0.70575302071E+03  0.25500000920E-02 0. -1.
</event>
<event>
 5   0  0.2350769E-03  0.9976634E+03  0.7818609E-02  0.9311111E-01
        1   -1    0    0  501    0  0.00000000000E+00  0.00000000000E+00  0.36061037544E+03  0.36061037548E+03  0.50400001928E-02 0.  1.
       -1   -1    0    0    0  501  0.00000000000E+00  0.00000000000E+00 -0.69003301178E+03  0.69003301180E+03  0.50400001928E-02 0. -1.
    10030    2    1    2    0    0  0.00000000000E+00  0.00000000000E+00 -0.32942263634E+03  0.10506433873E+04  0.99766339709E+03 0.  0.
        2    1    3    3  502    0 -0.73929653916E+02 -0.18493560060E+03 -0.64634532401E+03  0.67633501164E+03  0.25500000920E-02 0. -1.
       -2    1    3    3    0  502  0.73929653916E+02  0.18493560060E+03  0.31692268767E+03  0.37430837563E+03  0.25500000920E-02 0.  1.
</event>
<event>
 5   0  0.2313036E-03  0.1026135E+04  0.7818609E-02  0.9280336E-01
       -1   -1    0    0    0  501  0.00000000000E+00  0.00000000000E+00  0.28796867707E+03  0.28796867712E+03  0.50400001928E-02 0. -1.
        1   -1    0    0  501    0  0.00000000000E+00  0.00000000000E+00 -0.91412107315E+03  0.91412107316E+03  0.50400001928E-02 0.  1.
    10030    2    1    2    0    0  0.00000000000E+00  0.00000000000E+00 -0.62615239608E+03  0.12020897503E+04  0.10261349544E+04 0.  0.
        3    1    3    3  502    0 -0.43314933989E+02 -0.38879953095E+03  0.75805257381E+02  0.39848175117E+03  0.10100000352E+00 0. -1.
       -3    1    3    3    0  502  0.43314933989E+02  0.38879953095E+03 -0.70195765346E+03  0.80360799910E+03  0.10100000352E+00 0.  1.
</event>
<event>
 5   0  0.2350769E-03  0.9939752E+03  0.7818609E-02  0.9315178E-01
       -1   -1    0    0    0  501  0.00000000000E+00  0.00000000000E+00  0.15665554277E+03  0.15665554285E+03  0.50400001928E-02 0.  1.
        1   -1    0    0  501    0  0.00000000000E+00  0.00000000000E+00 -0.15766863549E+04  0.15766863549E+04  0.50400001928E-02 0. -1.
    10030    2    1    2    0    0  0.00000000000E+00  0.00000000000E+00 -0.14200308121E+04  0.17333418977E+04  0.99397516424E+03 0.  0.
        2    1    3    3  502    0 -0.38700970890E+03  0.60455842278E+02 -0.12434313020E+04  0.13036689865E+04  0.25500000920E-02 0. -1.
       -2    1    3    3    0  502  0.38700970890E+03 -0.60455842278E+02 -0.17659951011E+03  0.42967291121E+03  0.25500000920E-02 0.  1.
</event>
<event>
 5   0  0.3895011E-03  0.1000653E+04  0.7818609E-02  0.9307829E-01
        2   -1    0    0  501    0  0.00000000000E+00  0.00000000000E+00  0.15091177683E+04  0.15091177683E+04  0.25500000920E-02 0.  1.
       -2   -1    0    0    0  501  0.00000000000E+00  0.00000000000E+00 -0.16587621873E+03  0.16587621875E+03  0.25500000920E-02 0. -1.
    10030    2    1    2    0    0  0.00000000000E+00  0.00000000000E+00  0.13432415495E+04  0.16749939870E+04  0.10006532847E+04 0.  0.
        2    1    3    3  502    0 -0.31560629668E+03  0.32721420385E+03  0.32189862396E+03  0.55704146508E+03  0.25500000920E-02 0. -1.
       -2    1    3    3    0  502  0.31560629668E+03 -0.32721420385E+03  0.10213429256E+04  0.11179525219E+04  0.25500000920E-02 0.  1.
</event>
<event>
 5   0  0.3895011E-03  0.1001761E+04  0.7818609E-02  0.9306616E-01
       -2   -1    0    0    0  501  0.00000000000E+00  0.00000000000E+00  0.20408684526E+03  0.20408684528E+03  0.25500000920E-02 0.  1.
        2   -1    0    0  501    0  0.00000000000E+00  0.00000000000E+00 -0.12292867011E+04  0.12292867011E+04  0.25500000920E-02 0. -1.
    10030    2    1    2    0    0  0.00000000000E+00  0.00000000000E+00 -0.10251998558E+04  0.14333735463E+04  0.10017609391E+04 0.  0.
        2    1    3    3  502    0 -0.85886436169E+02 -0.65132455900E+02  0.18729465975E+03  0.21609721495E+03  0.25500000920E-02 0.  1.
       -2    1    3    3    0  502  0.85886436169E+02  0.65132455900E+02 -0.12124945156E+04  0.12172763314E+04  0.25500000920E-02 0. -1.
</event>
<event>
 5   0  0.4140860E-03  0.1006380E+04  0.7818609E-02  0.9301575E-01
        2   -1    0    0  501    0  0.00000000000E+00  0.00000000000E+00  0.77942314050E+03  0.77942314050E+03  0.25500000920E-02 0.  1.
       -2   -1    0    0    0  501  0.00000000000E+00  0.00000000000E+00 -0.32485598692E+03  0.32485598693E+03  0.25500000920E-02 0. -1.
    10030    2    1    2    0    0  0.00000000000E+00  0.00000000000E+00  0.45456715358E+03  0.11042791274E+04  0.10063801936E+04 0.  0.
        3    1    3    3  502    0  0.41775002007E+03 -0.27025855271E+03  0.14483788989E+03  0.51820149472E+03  0.10100000352E+00 0. -1.
       -3    1    3    3    0  502 -0.41775002007E+03  0.27025855271E+03  0.30972926369E+03  0.58607763271E+03  0.10100000352E+00 0.  1.
</event>
<event>
 5   0  0.1548000E-03  0.9989106E+03  0.7818609E-02  0.9309740E-01
       -3   -1    0    0    0  501  0.00000000000E+00  0.00000000000E+00  0.84400351275E+03  0.84400351879E+03  0.10100000352E+00 0.  1.
        3   -1    0    0  501    0  0.00000000000E+00  0.00000000000E+00 -0.29556228187E+03  0.29556229913E+03  0.10100000352E+00 0. -1.
    10030    2    1    2    0    0  0.00000000000E+00  0.00000000000E+00  0.54844123087E+03  0.11395658179E+04  0.99891064148E+03 0.  0.
        5    1    3    3  502    0  0.16495501815E+03  0.17589229146E+03  0.77316660889E+03  0.80991169353E+03  0.46999998093E+01 0.  1.
       -5    1    3    3    0  502 -0.16495501815E+03 -0.17589229146E+03 -0.22472537802E+03  0.32965412440E+03  0.46999998093E+01 0. -1.
</event>
<event>
 5   0  0.2378609E-03  0.9999382E+03  0.7818609E-02  0.9308613E-01
        1   -1    0    0  501    0  0.00000000000E+00  0.00000000000E+00  0.10799395313E+04  0.10799395313E+04  0.50400001928E-02 0. -1.
       -1   -1    0    0    0  501  0.00000000000E+00  0.00000000000E+00 -0.23146582957E+03  0.23146582963E+03  0.50400001928E-02 0.  1.
    10030    2    1    2    0    0  0.00000000000E+00  0.00000000000E+00  0.84847370172E+03  0.13114053609E+04  0.99993819718E+03 0.  0.
        1    1    3    3  502    0  0.41136449377E+03  0.23143301846E+03  0.64048147732E+03  0.79561203585E+03  0.50400001928E-02 0. -1.
       -1    1    3    3    0  502 -0.41136449377E+03 -0.23143301846E+03  0.20799222440E+03  0.51579332509E+03  0.50400001928E-02 0.  1.
</event>
<event>
 5   0  0.2350769E-03  0.9693623E+03  0.7818609E-02  0.9342801E-01
       -1   -1    0    0    0  501  0.00000000000E+00  0.00000000000E+00  0.17052432988E+03  0.17052432995E+03  0.50400001928E-02 0. -1.
        1   -1    0    0  501    0  0.00000000000E+00  0.00000000000E+00 -0.13776088772E+04  0.13776088772E+04  0.50400001928E-02 0.  1.
    10030    2    1    2    0    0  0.00000000000E+00  0.00000000000E+00 -0.12070845473E+04  0.15481332071E+04  0.96936232788E+03 0.  0.
        2    1    3    3  502    0 -0.17122080742E+01 -0.10723493199E+03 -0.13584206082E+04  0.13626477208E+04  0.25500000920E-02 0.  1.
       -2    1    3    3    0  502  0.17122080742E+01  0.10723493199E+03  0.15133606090E+03  0.18548548631E+03  0.25500000920E-02 0. -1.
</event>
<event>
 5   0  0.2350769E-03  0.1032255E+04  0.7818609E-02  0.9273858E-01
        1   -1    0    0  501    0  0.00000000000E+00  0.00000000000E+00  0.24894773624E+03  0.24894773629E+03  0.50400001928E-02 0. -1.
       -1   -1    0    0    0  501  0.00000000000E+00  0.00000000000E+00 -0.10700549634E+04  0.10700549634E+04  0.50400001928E-02 0.  1.
    10030    2    1    2    0    0  0.00000000000E+00  0.00000000000E+00 -0.82110722717E+03  0.13190026997E+04  0.10322553189E+04 0.  0.
        2    1    3    3  502    0 -0.16291307831E+03 -0.42123916377E+03 -0.91350547613E+02  0.46079065391E+03  0.25500000920E-02 0. -1.
       -2    1    3    3    0  502  0.16291307831E+03  0.42123916377E+03 -0.72975667956E+03  0.85821204579E+03  0.25500000920E-02 0.  1.
</event>
<event>
 5   0  0.4140860E-03  0.9921108E+03  0.7818609E-02  0.9317240E-01
       -2   -1    0    0    0  501  0.00000000000E+00  0.00000000000E+00  0.52620247230E+03  0.52620247230E+03  0.25500000920E-02 0. -1.
        2   -1    0    0  501    0  0.00000000000E+00  0.00000000000E+00 -0.46763550098E+03  0.46763550099E+03  0.25500000920E-02 0.  1.
    10030    2    1    2    0    0  0.00000000000E+00  0.00000000000E+00  0.58566971312E+02  0.99383797329E+03  0.99211079373E+03 0.  0.
        3    1    3    3  502    0 -0.44454375313E+03 -0.12387571011E+03  0.21155245833E+03  0.50766011546E+03  0.10100000352E+00 0.  1.
       -3    1    3    3    0  502  0.44454375313E+03  0.12387571011E+03 -0.15298548701E+03  0.48617785783E+03  0.10100000352E+00 0. -1.
</event>
<event>
 5   0  0.3895011E-03  0.1003246E+04  0.7818609E-02  0.9304991E-01
        2   -1    0    0  501    0  0.00000000000E+00  0.00000000000E+00  0.65151699506E+03  0.65151699507E+03  0.25500000920E-02 0. -1.
       -2   -1    0    0    0  501  0.00000000000E+00  0.00000000000E+00 -0.38621532368E+03  0.38621532369E+03  0.25500000920E-02 0.  1.
    10030    2    1    2    0    0  0.00000000000E+00  0.00000000000E+00  0.26530167139E+03  0.10377323188E+04  0.10032464246E+04 0.  0.
        2    1    3    3  502    0 -0.49851185093E+03 -0.16166199871E+02  0.77426139143E+02  0.50474767812E+03  0.25500000920E-02 0.  1.
       -2    1    3    3    0  502  0.49851185093E+03  0.16166199871E+02  0.18787553224E+03  0.53298464064E+03  0.25500000920E-02 0. -1.
</event>
<event>
 5   0  0.3895011E-03  0.9949161E+03  0.7818609E-02  0.9314138E-01
        2   -1    0    0  501    0  0.00000000000E+00  0.00000000000E+00  0.48845697972E+03  0.48845697973E+03  0.25500000920E-02 0. -1.
       -2   -1    0    0    0  501  0.00000000000E+00  0.00000000000E+00 -0.50662503779E+03  0.50662503780E+03  0.25500000920E-02 0.  1.
    10030    2    1    2    0    0  0.00000000000E+00  0.00000000000E+00 -0.18168058074E+02  0.99508201753E+03  0.99491614887E+03 0.  0.
        2    1    3    3  502    0 -0.11740394780E+03 -0.17575976015E+03 -0.45948049633E+03  0.50576427984E+03  0.25500000920E-02 0.  1.
       -2    1    3    3    0  502  0.11740394780E+03  0.17575976015E+03  0.44131243826E+03  0.48931773769E+03  0.25500000920E-02 0. -1.
</event>
<event>
 5   0  0.2405022E-03  0.1006899E+04  0.7818609E-02  0.9301010E-01
       -1   -1    0    0    0  501  0.00000000000E+00  0.00000000000E+00  0.20607838244E+03  0.20607838250E+03  0.50400001928E-02 0.  1.
        1   -1    0    0  501    0  0.00000000000E+00  0.00000000000E+00 -0.12299270491E+04  0.12299270491E+04  0.50400001928E-02 0. -1.
    10030    2    1    2    0    0  0.00000000000E+00  0.00000000000E+00 -0.10238486666E+04  0.14360054316E+04  0.10068989559E+04 0.  0.
        4    1    3    3  502    0  0.22165765634E+03  0.24723326347E+03  0.27768681706E+02  0.33321031761E+03  0.12699999809E+01 0.  1.
       -4    1    3    3    0  502 -0.22165765634E+03 -0.24723326347E+03 -0.10516173483E+04  0.11027951140E+04  0.12699999809E+01 0. -1.
</event>
<event>
 5   0  0.2327595E-03  0.1000887E+04  0.7818609E-02  0.9307573E-01
        1   -1    0    0  501    0  0.00000000000E+00  0.00000000000E+00  0.11075499327E+03  0.11075499339E+03  0.50400001928E-02 0. -1.
       -1   -1    0    0    0  501  0.00000000000E+00  0.00000000000E+00 -0.22612402038E+04  0.22612402038E+04  0.50400001928E-02 0.  1.
    10030    2    1    2    0    0  0.00000000000E+00  0.00000000000E+00 -0.21504852105E+04  0.23719951972E+04  0.10008868941E+04 0.  0.
        5    1    3    3  502    0  0.48182459757E+03 -0.10571683729E+03 -0.87568462134E+03  0.10050754392E+04  0.46999998093E+01 0.  1.
       -5    1    3    3    0  502 -0.48182459757E+03  0.10571683729E+03 -0.12748005892E+04  0.13669197580E+04  0.46999998093E+01 0. -1.
</event>
<event>
 5   0  0.4026829E-03  0.9944222E+03  0.7818609E-02  0.9314684E-01
        2   -1    0    0  501    0  0.00000000000E+00  0.00000000000E+00  0.46509266625E+03  0.46509266625E+03  0.25500000920E-02 0.  1.
       -2   -1    0    0    0  501  0.00000000000E+00  0.00000000000E+00 -0.53154761008E+03  0.53154761008E+03  0.25500000920E-02 0. -1.
    10030    2    1    2    0    0  0.00000000000E+00  0.00000000000E+00 -0.66454943832E+02  0.99664027634E+03  0.99442223470E+03 0.  0.
        1    1    3    3  502    0  0.35220764611E+03  0.55359780375E+02  0.31410571264E+03  0.47516032031E+03  0.50400001928E-02 0.  1.
       -1    1    3    3    0  502 -0.35220764611E+03 -0.55359780375E+02 -0.38056065647E+03  0.52147995603E+03  0.50400001928E-02 0. -1.
</event>
<event>
 5   0  0.4140860E-03  0.1025857E+04  0.7818609E-02  0.9280632E-01
        2   -1    0    0  501    0  0.00000000000E+00  0.00000000000E+00  0.11215949582E+04  0.11215949582E+04  0.25500000920E-02 0. -1.
       -2   -1    0    0    0  501  0.00000000000E+00  0.00000000000E+00 -0.23457264050E+03  0.23457264051E+03  0.25500000920E-02 0.  1.
    10030    2    1    2    0    0  0.00000000000E+00  0.00000000000E+00  0.88702231766E+03  0.13561675987E+04  0.10258566974E+04 0.  0.
        3    1    3    3  502    0  0.28271336986E+03  0.10607492243E+03  0.99164390997E+03  0.10365984724E+04  0.10100000352E+00 0. -1.
       -3    1    3    3    0  502 -0.28271336986E+03 -0.10607492243E+03 -0.10462159231E+03  0.31956912624E+03  0.10100000352E+00 0.  1.
</event>
<event>
 5   0  0.1548000E-03  0.1027609E+04  0.7818609E-02  0.9278772E-01
        4   -1    0    0  501    0  0.00000000000E+00  0.00000000000E+00  0.73249097972E+03  0.73249208069E+03  0.12699999809E+01 0.  1.
       -4   -1    0    0    0  501  0.00000000000E+00  0.00000000000E+00 -0.36040454196E+03  0.36040677958E+03  0.12699999809E+01 0. -1.
    10030    2    1    2    0    0  0.00000000000E+00  0.00000000000E+00  0.37208643776E+03  0.10928988603E+04  0.10276086812E+04 0.  0.
        1    1    3    3  502    0 -0.42526350983E+03 -0.64054996001E+02  0.48505161305E+03  0.64824930594E+03  0.50400001928E-02 0.  1.
       -1    1    3    3    0  502  0.42526350983E+03  0.64054996001E+02 -0.11296517529E+03  0.44464955433E+03  0.50400001928E-02 0. -1.
</event>
<event>
 5   0  0.4140860E-03  0.1002393E+04  0.7818609E-02  0.9305925E-01
       -2   -1    0    0    0  501  0.00000000000E+00  0.00000000000E+00  0.10199264165E+04  0.10199264165E+04  0.25500000920E-02 0. -1.
        2   -1    0    0  501    0  0.00000000000E+00  0.00000000000E+00 -0.24629004254E+03  0.24629004255E+03  0.25500000920E-02 0.  1.
    10030    2    1    2    0    0  0.00000000000E+00  0.00000000000E+00  0.77363637399E+03  0.12662164591E+04  0.10023925788E+04 0.  0.
        3    1    3    3  502    0 -0.25525458673E+03  0.13514280737E+03  0.90423341646E+03  0.94923999288E+03  0.10100000352E+00 0. -1.
       -3    1    3    3    0  502  0.25525458673E+03 -0.13514280737E+03 -0.13059704247E+03  0.31697646622E+03  0.10100000352E+00 0.  1.
</event>
<event>
 5   0  0.3895011E-03  0.1001848E+04  0.7818609E-02  0.9306521E-01
       -2   -1    0    0    0  501  0.00000000000E+00  0.00000000000E+00  0.47694334906E+03  0.47694334907E+03  0.25500000920E-02 0. -1.
        2   -1    0    0  501    0  0.00000000000E+00  0.00000000000E+00 -0.52611017156E+03  0.52611017157E+03  0.25500000920E-02 0.  1.
    10030    2    1    2    0    0  0.00000000000E+00  0.00000000000E+00 -0.49166822498E+02  0.10030535206E+04  0.10018477873E+04 0.  0.
        2    1    3    3  502    0  0.43561329748E+02 -0.12384311542E+03 -0.50858018334E+03  0.52525090155E+03  0.25500000920E-02 0.  1.
       -2    1    3    3    0  502 -0.43561329748E+02  0.12384311542E+03  0.45941336084E+03  0.47780261909E+03  0.25500000920E-02 0. -1.
</event>
<event>
 5   0  0.3873874E-03  0.9988046E+03  0.7818609E-02  0.9309857E-01
        2   -1    0    0  501    0  0.00000000000E+00  0.00000000000E+00  0.85070543110E+03  0.85070543110E+03  0.25500000920E-02 0.  1.
       -2   -1    0    0    0  501  0.00000000000E+00  0.00000000000E+00 -0.29317157782E+03  0.29317157783E+03  0.25500000920E-02 0. -1.
    10030    2    1    2    0    0  0.00000000000E+00  0.00000000000E+00  0.55753385329E+03  0.11438770089E+04  0.99880459250E+03 0.  0.
        5    1    3    3  502    0  0.95787698098E+02  0.22689741634E+03  0.77628748993E+03  0.81443359316E+03  0.46999998093E+01 0.  1.
       -5    1    3    3    0  502 -0.95787698098E+02 -0.22689741634E+03 -0.21875363664E+03  0.32944341577E+03  0.46999998093E+01 0. -1.
</event>
<event>
 5   0  0.2313036E-03  0.9968982E+03  0.7818609E-02  0.9311953E-01
        1   -1    0    0  501    0  0.00000000000E+00  0.00000000000E+00  0.38875821600E+03  0.38875821603E+03  0.50400001928E-02 0. -1.
       -1   -1    0    0    0  501  0.00000000000E+00  0.00000000000E+00 -0.63908999752E+03  0.63908999754E+03  0.50400001928E-02 0.  1.
    10030    2    1    2    0    0  0.00000000000E+00  0.00000000000E+00 -0.25033178152E+03  0.10278482136E+04  0.99689816396E+03 0.  0.
        3    1    3    3  502    0  0.17336800859E+03 -0.46165295057E+03 -0.20002556435E+03  0.53215613288E+03  0.10100000352E+00 0.  1.
       -3    1    3    3    0  502 -0.17336800859E+03  0.46165295057E+03 -0.50306217176E+02  0.49569208069E+03  0.10100000352E+00 0. -1.
</event>
<event>
 5   0  0.2327595E-03  0.1001272E+04  0.7818609E-02  0.9307151E-01
        1   -1    0    0  501    0  0.00000000000E+00  0.00000000000E+00  0.18090398363E+04  0.18090398363E+04  0.50400001928E-02 0. -1.
       -1   -1    0    0    0  501  0.00000000000E+00  0.00000000000E+00 -0.13854651271E+03  0.13854651280E+03  0.50400001928E-02 0.  1.
    10030    2    1    2    0    0  0.00000000000E+00  0.00000000000E+00  0.16704933236E+04  0.19475863491E+04  0.10012715132E+04 0.  0.
        5    1    3    3  502    0  0.24775350333E+03  0.14677380668E+03  0.38724096277E+02  0.29059592972E+03  0.46999998093E+01 0.  1.
       -5    1    3    3    0  502 -0.24775350333E+03 -0.14677380668E+03  0.16317692273E+04  0.16569904194E+04  0.46999998093E+01 0. -1.
</event>
<event>
 5   0  0.4026829E-03  0.1005276E+04  0.7818609E-02  0.9302777E-01
        2   -1    0    0  501    0  0.00000000000E+00  0.00000000000E+00  0.93378604327E+03  0.93378604328E+03  0.25500000920E-02 0. -1.
       -2   -1    0    0    0  501  0.00000000000E+00  0.00000000000E+00 -0.27055995283E+03  0.27055995285E+03  0.25500000920E-02 0.  1.
    10030    2    1    2    0    0  0.00000000000E+00  0.00000000000E+00  0.66322609044E+03  0.12043459961E+04  0.10052762960E+04 0.  0.
        1    1    3    3  502    0  0.64752640206E+02  0.14967191551E+03 -0.23798512725E+03  0.28849871321E+03  0.50400001928E-02 0.  1.
       -1    1    3    3    0  502 -0.64752640206E+02 -0.14967191551E+03  0.90121121769E+03  0.91584728291E+03  0.50400001928E-02 0. -1.
</event>
<event>
 5   0  0.2350769E-03  0.1003344E+04  0.7818609E-02  0.9304885E-01
        1   -1    0    0  501    0  0.00000000000E+00  0.00000000000E+00  0.13227895872E+04  0.13227895872E+04  0.50400001928E-02 0.  1.
       -1   -1    0    0    0  501  0.00000000000E+00  0.00000000000E+00 -0.19026067596E+03  0.19026067602E+03  0.50400001928E-02 0. -1.
    10030    2    1    2    0    0  0.00000000000E+00  0.00000000000E+00  0.11325289113E+04  0.15130502633E+04  0.10033440907E+04 0.  0.
        2    1    3    3  502    0 -0.27109781740E+03 -0.72657797592E+02  0.11933157062E+04  0.12258774641E+04  0.25500000920E-02 0. -1.
       -2    1    3    3    0  502  0.27109781740E+03  0.72657797592E+02 -0.60786794966E+02  0.28717279920E+03  0.25500000920E-02 0.  1.
</event>
<event>
 5   0  0.3895011E-03  0.1010455E+04  0.7818609E-02  0.9297152E-01
        2   -1    0    0  501    0  0.00000000000E+00  0.00000000000E+00  0.48078793289E+03  0.48078793290E+03  0.25500000920E-02 0.  1.
       -2   -1    0    0    0  501  0.00000000000E+00  0.00000000000E+00 -0.53090939594E+03  0.53090939594E+03  0.25500000920E-02 0. -1.
    10030    2    1    2    0    0  0.00000000000E+00  0.00000000000E+00 -0.50121463049E+02  0.10116973288E+04  0.10104550085E+04 0.  0.
        2    1    3    3  502    0  0.20593196214E+02 -0.25295673185E+03  0.41233291639E+03  0.48417932821E+03  0.25500000920E-02 0.  1.
       -2    1    3    3    0  502 -0.20593196214E+02  0.25295673185E+03 -0.46245437944E+03  0.52751800063E+03  0.25500000920E-02 0. -1.
</event>
<event>
 5   0  0.2378609E-03  0.9904982E+03  0.7818609E-02  0.9319028E-01
       -1   -1    0    0    0  501  0.00000000000E+00  0.00000000000E+00  0.91951425003E+03  0.91951425004E+03  0.50400001928E-02 0. -1.
        1   -1    0    0  501    0  0.00000000000E+00  0.00000000000E+00 -0.26674045944E+03  0.26674045949E+03  0.50400001928E-02 0.  1.
    10030    2    1    2    0    0  0.00000000000E+00  0.00000000000E+00  0.65277379058E+03  0.11862547095E+04  0.99049816467E+03 0.  0.
        1    1    3    3  502    0 -0.49387615532E+03 -0.46578023317E+01  0.28260681829E+03  0.56903599683E+03  0.50400001928E-02 0. -1.
       -1    1    3    3    0  502  0.49387615532E+03  0.46578023317E+01  0.37016697229E+03  0.61721871271E+03  0.50400001928E-02 0.  1.
</event>
<event>
 5   0  0.3826483E-03  0.1015551E+04  0.7818609E-02  0.9291651E-01
       -2   -1    0    0    0  501  0.00000000000E+00  0.00000000000E+00  0.25586991047E+03  0.25586991048E+03  0.25500000920E-02 0. -1.
        2   -1    0    0  501    0  0.00000000000E+00  0.00000000000E+00 -0.10076837182E+04  0.10076837182E+04  0.25500000920E-02 0.  1.
    10030    2    1    2    0    0  0.00000000000E+00  0.00000000000E+00 -0.75181380772E+03  0.12635536287E+04  0.10155509692E+04 0.  0.
        4    1    3    3  502    0  0.25567050795E+03 -0.43539442939E+03 -0.44289336024E+03  0.67163372401E+03  0.12699999809E+01 0. -1.
       -4    1    3    3    0  502 -0.25567050795E+03  0.43539442939E+03 -0.30892044748E+03  0.59191990467E+03  0.12699999809E+01 0.  1.
</event>
<event>
 5   0  0.2405022E-03  0.9902402E+03  0.7818609E-02  0.9319314E-01
       -1   -1    0    0    0  501  0.00000000000E+00  0.00000000000E+00  0.13284931994E+03  0.13284932004E+03  0.50400001928E-02 0.  1.
        1   -1    0    0  501    0  0.00000000000E+00  0.00000000000E+00 -0.18452778885E+04  0.18452778885E+04  0.50400001928E-02 0. -1.
    10030    2    1    2    0    0  0.00000000000E+00  0.00000000000E+00 -0.17124285686E+04  0.19781272086E+04  0.99024019854E+03 0.  0.
        4    1    3    3  502    0 -0.39450433651E+02  0.33548624483E+03 -0.13309952551E+03  0.36307637458E+03  0.12699999809E+01 0.  1.
       -4    1    3    3    0  502  0.39450433651E+02 -0.33548624483E+03 -0.15793290431E+04  0.16150508340E+04  0.12699999809E+01 0. -1.
</event>
<event>
 5   0  0.3873874E-03  0.9984676E+03  0.7818609E-02  0.9310227E-01
        2   -1    0    0  501    0  0.00000000000E+00  0.00000000000E+00  0.23706185380E+03  0.23706185381E+03  0.25500000920E-02 0.  1.
       -2   -1    0    0    0  501  0.00000000000E+00  0.00000000000E+00 -0.10513474272E+04  0.10513474272E+04  0.25500000920E-02 0. -1.
    10030    2    1    2    0    0  0.00000000000E+00  0.00000000000E+00 -0.81428557338E+03  0.12884092810E+04  0.99846756599E+03 0.  0.
        5    1    3    3  502    0 -0.16779404075E+03  0.42996262690E+03 -0.65262026358E+03  0.79934848412E+03  0.46999998093E+01 0. -1.
       -5    1    3    3    0  502  0.16779404075E+03 -0.42996262690E+03 -0.16166530980E+03  0.48906079687E+03  0.46999998093E+01 0.  1.
</event>
<event>
 5   0  0.2350769E-03  0.1002028E+04  0.7818609E-02  0.9306324E-01
       -1   -1    0    0    0  501  0.00000000000E+00  0.00000000000E+00  0.14581821907E+03  0.14581821916E+03  0.50400001928E-02 0. -1.
        1   -1    0    0  501    0  0.00000000000E+00  0.00000000000E+00 -0.17214233471E+04  0.17214233471E+04  0.50400001928E-02 0.  1.
    10030    2    1    2    0    0  0.00000000000E+00  0.00000000000E+00 -0.15756051280E+04  0.18672415663E+04  0.10020277178E+04 0.  0.
        2    1    3    3  502    0 -0.12275296414E+03  0.40744534611E+03 -0.12805991709E+04  0.13494496051E+04  0.25500000920E-02 0.  1.
       -2    1    3    3    0  502  0.12275296414E+03 -0.40744534611E+03 -0.29500595715E+03  0.51779196115E+03  0.25500000920E-02 0. -1.
</event>
<event>
 5   0  0.2313036E-03  0.1002053E+04  0.7818609E-02  0.9306296E-01
       -1   -1    0    0    0  501  0.00000000000E+00  0.00000000000E+00  0.44029725215E+03  0.44029725218E+03  0.50400001928E-02 0. -1.
        1   -1    0    0  501    0  0.00000000000E+00  0.00000000000E+00 -0.57013176779E+03  0.57013176782E+03  0.50400001928E-02 0.  1.
    10030    2    1    2    0    0  0.00000000000E+00  0.00000000000E+00 -0.12983451564E+03  0.10104290200E+04  0.10020527945E+04 0.  0.
        3    1    3    3  502    0 -0.27331670920E+03  0.41988031604E+03 -0.70052688891E+02  0.50587438436E+03  0.10100000352E+00 0.  1.
       -3    1    3    3    0  502  0.27331670920E+03 -0.41988031604E+03 -0.59781826750E+02  0.50455463564E+03  0.10100000352E+00 0. -1.
</event>
<event>
 5   0  0.4026829E-03  0.1003306E+04  0.7818609E-02  0.9304927E-01
        2   -1    0    0  501    0  0.00000000000E+00  0.00000000000E+00  0.34152991683E+03  0.34152991684E+03  0.25500000920E-02 0. -1.
       -2   -1    0    0    0  501  0.00000000000E+00  0.00000000000E+00 -0.73684764501E+03  0.73684764502E+03  0.25500000920E-02 0.  1.
    10030    2    1    2    0    0  0.00000000000E+00  0.00000000000E+00 -0.39531772818E+03  0.10783775619E+04  0.10033055665E+04 0.  0.
        1    1    3    3  502    0  0.36820390355E+03  0.33574503843E+03 -0.13538699360E+03  0.51636080746E+03  0.50400001928E-02 0. -1.
       -1    1    3    3    0  502 -0.36820390355E+03 -0.33574503843E+03 -0.25993073458E+03  0.56201675440E+03  0.50400001928E-02 0.  1.
</event>
<event>
 5   0  0.2313036E-03  0.1004986E+04  0.7818609E-02  0.9303093E-01
       -1   -1    0    0    0  501  0.00000000000E+00  0.00000000000E+00  0.54640297655E+03  0.54640297657E+03  0.50400001928E-02 0. -1.
        1   -1    0    0  501    0  0.00000000000E+00  0.00000000000E+00 -0.46211184359E+03  0.46211184361E+03  0.50400001928E-02 0.  1.
    10030    2    1    2    0    0  0.00000000000E+00  0.00000000000E+00  0.84291132965E+02  0.10085148202E+04  0.10049861429E+04 0.  0.
        3    1    3    3  502    0 -0.21246845200E+03 -0.32512854271E+03 -0.27779649594E+03  0.47751682246E+03  0.10100000352E+00 0.  1.
       -3    1    3    3    0  502  0.21246845200E+03  0.32512854271E+03  0.36208762890E+03  0.53099799772E+03  0.10100000352E+00 0. -1.
</event>
<event>
 5   0  0.4026829E-03  0.1005988E+04  0.7818609E-02  0.9302001E-01
       -2   -1    0    0    0  501  0.00000000000E+00  0.00000000000E+00  0.17403780191E+03  0.17403780193E+03  0.25500000920E-02 0.  1.
        2   -1    0    0  501    0  0.00000000000E+00  0.00000000000E+00 -0.14537243410E+04  0.14537243410E+04  0.25500000920E-02 0. -1.
    10030    2    1    2    0    0  0.00000000000E+00  0.00000000000E+00 -0.12796865391E+04  0.16277621429E+04  0.10059880494E+04 0.  0.
        1    1    3    3  502    0 -0.41762081380E+03 -0.23020320602E+03 -0.89874673096E+03  0.10174214204E+04  0.50400001928E-02 0. -1.
       -1    1    3    3    0  502  0.41762081380E+03  0.23020320602E+03 -0.38093980812E+03  0.61034072256E+03  0.50400001928E-02 0.  1.
</event>
<event>
 5   0  0.2313036E-03  0.9976958E+03  0.7818609E-02  0.9311076E-01
       -1   -1    0    0    0  501  0.00000000000E+00  0.00000000000E+00  0.39710500834E+03  0.39710500837E+03  0.50400001928E-02 0. -1.
        1   -1    0    0  501    0  0.00000000000E+00  0.00000000000E+00 -0.62665849827E+03  0.62665849829E+03  0.50400001928E-02 0.  1.
    10030    2    1    2    0    0  0.00000000000E+00  0.00000000000E+00 -0.22955348994E+03  0.10237635067E+04  0.99769580175E+03 0.  0.
        3    1    3    3  502    0  0.17647517815E+03 -0.16587377359E+03  0.33272753103E+03  0.41154005562E+03  0.10100000352E+00 0. -1.
       -3    1    3    3    0  502 -0.17647517815E+03  0.16587377359E+03 -0.56228102097E+03  0.61222345105E+03  0.10100000352E+00 0.  1.
</event>
<event>
 5   0  0.2327595E-03  0.1017960E+04  0.7818609E-02  0.9289063E-01
        1   -1    0    0  501    0  0.00000000000E+00  0.00000000000E+00  0.20921398884E+04  0.20921398884E+04  0.50400001928E-02 0. -1.
       -1   -1    0    0    0  501  0.00000000000E+00  0.00000000000E+00 -0.12382557005E+03  0.12382557015E+03  0.50400001928E-02 0.  1.
    10030    2    1    2    0    0  0.00000000000E+00  0.00000000000E+00  0.19683143183E+04  0.22159654585E+04  0.10179595560E+04 0.  0.
        5    1    3    3  502    0  0.20695475711E+03  0.28200710222E+03  0.17936261605E+03  0.39313015049E+03  0.46999998093E+01 0.  1.
       -5    1    3    3    0  502 -0.20695475711E+03 -0.28200710222E+03  0.17889517023E+04  0.18228353081E+04  0.46999998093E+01 0. -1.
</event>
<event>
 5   0  0.3826483E-03  0.1005483E+04  0.7818609E-02  0.9302551E-01
       -2   -1    0    0    0  501  0.00000000000E+00  0.00000000000E+00  0.17306177607E+03  0.17306177608E+03  0.25500000920E-02 0.  1.
        2   -1    0    0  501    0  0.00000000000E+00  0.00000000000E+00 -0.14604564811E+04  0.14604564811E+04  0.25500000920E-02 0. -1.
    10030    2    1    2    0    0  0.00000000000E+00  0.00000000000E+00 -0.12873947051E+04  0.16335182572E+04  0.10054833514E+04 0.  0.
        4    1    3    3  502    0  0.39575129093E+02  0.13198957379E+03  0.14178121453E+03  0.19771434983E+03  0.12699999809E+01 0.  1.
       -4    1    3    3    0  502 -0.39575129093E+02 -0.13198957379E+03 -0.14291759196E+04  0.14358039074E+04  0.12699999809E+01 0. -1.
</event>
<event>
 5   0  0.3895011E-03  0.9986941E+03  0.7818609E-02  0.9309978E-01
       -2   -1    0    0    0  501  0.00000000000E+00  0.00000000000E+00  0.11591734723E+03  0.11591734726E+03  0.25500000920E-02 0.  1.
        2   -1    0    0  501    0  0.00000000000E+00  0.00000000000E+00 -0.21510800502E+04  0.21510800502E+04  0.25500000920E-02 0. -1.
    10030    2    1    2    0    0  0.00000000000E+00  0.00000000000E+00 -0.20351627030E+04  0.22669973975E+04  0.99869413364E+03 0.  0.
        2    1    3    3  502    0  0.27520012556E+03  0.28606340729E+03 -0.32989118840E+03  0.51613523256E+03  0.25500000920E-02 0.  1.
       -2    1    3    3    0  502 -0.27520012556E+03 -0.28606340729E+03 -0.17052715146E+04  0.17508621649E+04  0.25500000920E-02 0. -1.
</event>
<event>
 5   0  0.2405022E-03  0.9966356E+03  0.7818609E-02  0.9312243E-01
        1   -1    0    0  501    0  0.00000000000E+00  0.00000000000E+00  0.48504618832E+03  0.48504618835E+03  0.50400001928E-02 0. -1.
       -1   -1    0    0    0  501  0.00000000000E+00  0.00000000000E+00 -0.51195254597E+03  0.51195254600E+03  0.50400001928E-02 0.  1.
    10030    2    1    2    0    0  0.00000000000E+00  0.00000000000E+00 -0.26906357654E+02  0.99699873435E+03  0.99663560252E+03 0.  0.
        4    1    3    3  502    0 -0.32954361398E+03 -0.23650726783E+03 -0.30301388569E+03  0.50631384444E+03  0.12699999809E+01 0.  1.
       -4    1    3    3    0  502  0.32954361398E+03  0.23650726783E+03  0.27610752803E+03  0.49068488991E+03  0.12699999809E+01 0. -1.
</event>
<event>
 5   0  0.1548000E-03  0.9897185E+03  0.7818609E-02  0.9319894E-01
        3   -1    0    0  501    0  0.00000000000E+00  0.00000000000E+00  0.11403942769E+04  0.11403942813E+04  0.10100000352E+00 0.  1.
       -3   -1    0    0    0  501  0.00000000000E+00  0.00000000000E+00 -0.21473769952E+03  0.21473772328E+03  0.10100000352E+00 0. -1.
    10030    2    1    2    0    0  0.00000000000E+00  0.00000000000E+00  0.92565657733E+03  0.13551320046E+04  0.98971847045E+03 0.  0.
        3    1    3    3  502    0  0.26239986616E+02 -0.38226931822E+03  0.89160580136E+03  0.97045313321E+03  0.10100000352E+00 0.  1.
       -3    1    3    3    0  502 -0.26239986616E+02  0.38226931822E+03  0.34050775976E+02  0.38467887139E+03  0.10100000352E+00 0. -1.
</event>
<event>
 5   0  0.3873874E-03  0.1001152E+04  0.7818609E-02  0.9307282E-01
        2   -1    0    0  501    0  0.00000000000E+00  0.00000000000E+00  0.11203457763E+04  0.11203457763E+04  0.25500000920E-02 0. -1.
       -2   -1    0    0    0  501  0.00000000000E+00  0.00000000000E+00 -0.22365976411E+03  0.22365976412E+03  0.25500000920E-02 0.  1.
    10030    2    1    2    0    0  0.00000000000E+00  0.00000000000E+00  0.89668601216E+03  0.13440055404E+04  0.10011518807E+04 0.  0.
        5    1    3    3  502    0  0.23639535440E+03  0.44818084525E+02  0.10375935305E+04  0.10651356012E+04  0.46999998093E+01 0. -1.
       -5    1    3    3    0  502 -0.23639535440E+03 -0.44818084525E+02 -0.14090751836E+03  0.27886993924E+03  0.46999998093E+01 0.  1.
</event>
<event>
 5   0  0.2405022E-03  0.1009087E+04  0.7818609E-02  0.9298634E-01
        1   -1    0    0  501    0  0.00000000000E+00  0.00000000000E+00  0.37814929791E+03  0.37814929795E+03  0.50400001928E-02 0. -1.
       -1   -1    0    0    0  501  0.00000000000E+00  0.00000000000E+00 -0.67318377700E+03  0.67318377702E+03  0.50400001928E-02 0.  1.
    10030    2    1    2    0    0  0.00000000000E+00  0.00000000000E+00 -0.29503447909E+03  0.10513330750E+04  0.10090866616E+04 0.  0.
        4    1    3    3  502    0  0.36709612303E+03  0.16937702986E+03 -0.46200586184E+03  0.61392114401E+03  0.12699999809E+01 0.  1.
       -4    1    3    3    0  502 -0.36709612303E+03 -0.16937702986E+03  0.16697138275E+03  0.43741193096E+03  0.12699999809E+01 0. -1.
</event>
<event>
 5   0  0.3826483E-03  0.1008841E+04  0.7818609E-02  0.9298901E-01
        2   -1    0    0  501    0  0.00000000000E+00  0.00000000000E+00  0.62153050005E+03  0.62153050006E+03  0.25500000920E-02 0.  1.
       -2   -1    0    0    0  501  0.00000000000E+00  0.00000000000E+00 -0.40937657227E+03  0.40937657227E+03  0.25500000920E-02 0. -1.
    10030    2    1    2    0    0  0.00000000000E+00  0.00000000000E+00  0.21215392779E+03  0.10309070723E+04  0.10088409700E+04 0.  0.
        4    1    3    3  502    0  0.21044291614E+03 -0.42812434984E+03  0.27355729898E+03  0.54991989290E+03  0.12699999809E+01 0.  1.
       -4    1    3    3    0  502 -0.21044291614E+03  0.42812434984E+03 -0.61403371190E+02  0.48098717943E+03  0.12699999809E+01 0. -1.
</event>
<event>
 5   0  0.2350769E-03  0.9983739E+03  0.7818609E-02  0.9310330E-01
       -1   -1    0    0    0  501  0.00000000000E+00  0.00000000000E+00  0.60165164554E+03  0.60165164556E+03  0.50400001928E-02 0.  1.
        1   -1    0    0  501    0  0.00000000000E+00  0.00000000000E+00 -0.41417254377E+03  0.41417254380E+03  0.50400001928E-02 0. -1.
    10030    2    1    2    0    0  0.00000000000E+00  0.00000000000E+00  0.18747910176E+03  0.10158241894E+04  0.99837386288E+03 0.  0.
        2    1    3    3  502    0 -0.35130055347E+03  0.20955107342E+03 -0.19738005864E+03  0.45418346381E+03  0.25500000920E-02 0. -1.
       -2    1    3    3    0  502  0.35130055347E+03 -0.20955107342E+03  0.38485916041E+03  0.56164072555E+03  0.25500000920E-02 0.  1.
</event>
<event>
 5   0  0.2350769E-03  0.1000629E+04  0.7818609E-02  0.9307855E-01
       -1   -1    0    0    0  501  0.00000000000E+00  0.00000000000E+00  0.14405372641E+04  0.14405372641E+04  0.50400001928E-02 0.  1.
        1   -1    0    0  501    0  0.00000000000E+00  0.00000000000E+00 -0.17376479562E+03  0.17376479570E+03  0.50400001928E-02 0. -1.
    10030    2    1    2    0    0  0.00000000000E+00  0.00000000000E+00  0.12667724685E+04  0.16143020598E+04  0.10006291288E+04 0.  0.
        2    1    3    3  502    0 -0.20722741186E+03  0.25718728955E+03  0.12396606431E+04  0.12829056911E+04  0.25500000920E-02 0.  1.
       -2    1    3    3    0  502  0.20722741186E+03 -0.25718728955E+03  0.27111825391E+02  0.33139636874E+03  0.25500000920E-02 0. -1.
</event>
<event>
 5   0  0.3895011E-03  0.9843974E+03  0.7818609E-02  0.9325825E-01
        2   -1    0    0  501    0  0.00000000000E+00  0.00000000000E+00  0.88518994732E+03  0.88518994733E+03  0.25500000920E-02 0.  1.
       -2   -1    0    0    0  501  0.00000000000E+00  0.00000000000E+00 -0.27368089180E+03  0.27368089181E+03  0.25500000920E-02 0. -1.
    10030    2    1    2    0    0  0.00000000000E+00  0.00000000000E+00  0.61150905553E+03  0.11588708391E+04  0.98439742828E+03 0.  0.
        2    1    3    3  502    0 -0.71454739149E+02  0.16096127759E+03  0.84683025567E+03  0.86494843462E+03  0.25500000920E-02 0.  1.
       -2    1    3    3    0  502  0.71454739149E+02 -0.16096127759E+03 -0.23532120015E+03  0.29392240451E+03  0.25500000920E-02 0. -1.
</event>
<event>
 5   0  0.2327595E-03  0.9986500E+03  0.7818609E-02  0.9310027E-01
       -1   -1    0    0    0  501  0.00000000000E+00  0.00000000000E+00  0.44198741819E+03  0.44198741821E+03  0.50400001928E-02 0. -1.
        1   -1    0    0  501    0  0.00000000000E+00  0.00000000000E+00 -0.56410078587E+03  0.56410078589E+03  0.50400001928E-02 0.  1.
    10030    2    1    2    0    0  0.00000000000E+00  0.00000000000E+00 -0.12211336768E+03  0.10060882041E+04  0.99864998867E+03 0.  0.
        5    1    3    3  502    0 -0.41026767092E+03 -0.22924073423E+03  0.10881858496E+03  0.48242559060E+03  0.46999998093E+01 0.  1.
       -5    1    3    3    0  502  0.41026767092E+03  0.22924073423E+03 -0.23093195264E+03  0.52366261350E+03  0.46999998093E+01 0. -1.
</event>
<event>
 5   0  0.2405022E-03  0.9999743E+03  0.7818609E-02  0.9308573E-01
       -1   -1    0    0    0  501  0.00000000000E+00  0.00000000000E+00  0.23219333402E+03  0.23219333408E+03  0.50400001928E-02 0.  1.
        1   -1    0    0  501    0  0.00000000000E+00  0.00000000000E+00 -0.10766337260E+04  0.10766337260E+04  0.50400001928E-02 0. -1.
    10030    2    1    2    0    0  0.00000000000E+00  0.00000000000E+00 -0.84444039201E+03  0.13088270601E+04  0.99997434850E+03 0.  0.
        4    1    3    3  502    0  0.36592960837E+03 -0.14886304128E+02  0.23291587821E+02  0.36697437416E+03  0.12699999809E+01 0.  1.
       -4    1    3    3    0  502 -0.36592960837E+03  0.14886304128E+02 -0.86773197983E+03  0.94185268596E+03  0.12699999809E+01 0. -1.
</event>
<event>
 5   0  0.2327595E-03  0.1000657E+04  0.7818609E-02  0.9307824E-01
        1   -1    0    0  501    0  0.00000000000E+00  0.00000000000E+00  0.10302898025E+04  0.10302898025E+04  0.50400001928E-02 0. -1.
       -1   -1    0    0    0  501  0.00000000000E+00  0.00000000000E+00 -0.24296923109E+03  0.24296923114E+03  0.50400001928E-02 0.  1.
    10030    2    1    2    0    0  0.00000000000E+00  0.00000000000E+00  0.78732057144E+03  0.12732590337E+04  0.10006572263E+04 0.  0.
        5    1    3    3  502    0 -0.10326377254E+03 -0.25869156625E+03 -0.13515637689E+03  0.30963538134E+03  0.46999998093E+01 0.  1.
       -5    1    3    3    0  502  0.10326377254E+03  0.25869156625E+03  0.92247694832E+03  0.96362365234E+03  0.46999998093E+01 0. -1.
</event>
<event>
 5   0  0.3895011E-03  0.1031593E+04  0.7818609E-02  0.9274557E-01
        2   -1    0    0  501    0  0.00000000000E+00  0.00000000000E+00  0.23842211484E+04  0.23842211484E+04  0.25500000920E-02 0.  1.
       -2   -1    0    0    0  501  0.00000000000E+00  0.00000000000E+00 -0.11158606545E+03  0.11158606547E+03  0.25500000920E-02 0. -1.
    10030    2    1    2    0    0  0.00000000000E+00  0.00000000000E+00  0.22726350829E+04  0.24958072139E+04  0.10315926660E+04 0.  0.
        2    1    3    3  502    0  0.12595278734E+03  0.45500018957E+03  0.16389219577E+04  0.17055657303E+04  0.25500000920E-02 0. -1.
       -2    1    3    3    0  502 -0.12595278734E+03 -0.45500018957E+03  0.63371312528E+03  0.79024148354E+03  0.25500000920E-02 0.  1.
</event>
<event>
 5   0  0.3895011E-03  0.9956759E+03  0.7818609E-02  0.9313300E-01
        2   -1    0    0  501    0  0.00000000000E+00  0.00000000000E+00  0.15518848617E+04  0.15518848617E+04  0.25500000920E-02 0. -1.
       -2   -1    0    0    0  501  0.00000000000E+00  0.00000000000E+00 -0.15970427651E+03  0.15970427653E+03  0.25500000920E-02 0.  1.
    10030    2    1    2    0    0  0.00000000000E+00  0.00000000000E+00  0.13921805852E+04  0.17115891383E+04  0.99567594948E+03 0.  0.
        2    1    3    3  502    0 -0.16732793605E+03  0.26555204912E+02  0.15008035869E+04  0.15103361293E+04  0.25500000920E-02 0. -1.
       -2    1    3    3    0  502  0.16732793605E+03 -0.26555204912E+02 -0.10862300171E+03  0.20125300891E+03  0.25500000920E-02 0.  1.
</event>
<event>
 5   0  0.2378609E-03  0.9939273E+03  0.7818609E-02  0.9315230E-01
       -1   -1    0    0    0  501  0.00000000000E+00  0.00000000000E+00  0.37497274729E+03  0.37497274732E+03  0.50400001928E-02 0.  1.
        1   -1    0    0  501    0  0.00000000000E+00  0.00000000000E+00 -0.65864224394E+03  0.65864224396E+03  0.50400001928E-02 0. -1.
    10030    2    1    2    0    0  0.00000000000E+00  0.00000000000E+00 -0.28366949665E+03  0.10336149913E+04  0.99392734487E+03 0.  0.
        1    1    3    3  502    0 -0.11659957755E+03  0.14440850351E+03  0.33757598953E+03  0.38523606542E+03  0.50400001928E-02 0.  1.
       -1    1    3    3    0  502  0.11659957755E+03 -0.14440850351E+03 -0.62124548618E+03  0.64837892586E+03  0.50400001928E-02 0. -1.
</event>
<event>
 5   0  0.4140860E-03  0.9952915E+03  0.7818609E-02  0.9313724E-01
        2   -1    0    0  501    0  0.00000000000E+00  0.00000000000E+00  0.46529870480E+03  0.46529870480E+03  0.25500000920E-02 0.  1.
       -2   -1    0    0    0  501  0.00000000000E+00  0.00000000000E+00 -0.53224149194E+03  0.53224149195E+03  0.25500000920E-02 0. -1.
    10030    2    1    2    0    0  0.00000000000E+00  0.00000000000E+00 -0.66942787148E+02  0.99754019675E+03  0.99529146856E+03 0.  0.
        3    1    3    3  502    0  0.42864957154E+03 -0.20928250850E+03  0.10866454457E+03  0.48923165984E+03  0.10100000352E+00 0.  1.
       -3    1    3    3    0  502 -0.42864957154E+03  0.20928250850E+03 -0.17560733171E+03  0.50830853691E+03  0.10100000352E+00 0. -1.
</event>
<event>
 5   0  0.4140860E-03  0.1008054E+04  0.7818609E-02  0.9299755E-01
       -2   -1    0    0    0  501  0.00000000000E+00  0.00000000000E+00  0.27530002994E+03  0.27530002996E+03  0.25500000920E-02 0. -1.
        2   -1    0    0  501    0  0.00000000000E+00  0.00000000000E+00 -0.92278759629E+03  0.92278759629E+03  0.25500000920E-02 0.  1.
    10030    2    1    2    0    0  0.00000000000E+00  0.00000000000E+00 -0.64748756634E+03  0.11980876262E+04  0.10080544686E+04 0.  0.
        3    1    3    3  502    0 -0.30642674418E+03 -0.87854196797E+02  0.14027608820E+03  0.34827159024E+03  0.10100000352E+00 0. -1.
       -3    1    3    3    0  502  0.30642674418E+03  0.87854196797E+02 -0.78776365454E+03  0.84981603601E+03  0.10100000352E+00 0.  1.
</event>
<event>
 5   0  0.3826483E-03  0.9989916E+03  0.7818609E-02  0.9309651E-01
        2   -1    0    0  501    0  0.00000000000E+00  0.00000000000E+00  0.21762221196E+04  0.21762221196E+04  0.25500000920E-02 0.  1.
       -2   -1    0    0    0  501  0.00000000000E+00  0.00000000000E+00 -0.11464640915E+03  0.11464640918E+03  0.25500000920E-02 0. -1.
    10030    2    1    2    0    0  0.00000000000E+00  0.00000000000E+00  0.20615757105E+04  0.22908685288E+04  0.99899159469E+03 0.  0.
        4    1    3    3  502    0  0.34812575587E+03  0.24536438283E+03  0.16292123878E+04  0.16839625411E+04  0.12699999809E+01 0.  1.
       -4    1    3    3    0  502 -0.34812575587E+03 -0.24536438283E+03  0.43236332267E+03  0.60690598774E+03  0.12699999809E+01 0. -1.
</event>
<event>
 5   0  0.2405022E-03  0.9898542E+03  0.7818609E-02  0.9319743E-01
        1   -1    0    0  501    0  0.00000000000E+00  0.00000000000E+00  0.59195800552E+03  0.59195800554E+03  0.50400001928E-02 0.  1.
       -1   -1    0    0    0  501  0.00000000000E+00  0.00000000000E+00 -0.41380104894E+03  0.41380104897E+03  0.50400001928E-02 0. -1.
    10030    2    1    2    0    0  0.00000000000E+00  0.00000000000E+00  0.17815695658E+03  0.10057590545E+04  0.98985421884E+03 0.  0.
        4    1    3    3  502    0  0.23947700865E+03 -0.43097263881E+03  0.45203900377E+02  0.49510772422E+03  0.12699999809E+01 0. -1.
       -4    1    3    3    0  502 -0.23947700865E+03  0.43097263881E+03  0.13295305620E+03  0.51065133029E+03  0.12699999809E+01 0.  1.
</event>
<event>
 5   0  0.2405022E-03  0.9973121E+03  0.7818609E-02  0.9311498E-01
       -1   -1    0    0    0  501  0.00000000000E+00  0.00000000000E+00  0.12277742582E+03  0.12277742593E+03  0.50400001928E-02 0. -1.
        1   -1    0    0  501    0  0.00000000000E+00  0.00000000000E+00 -0.20252735849E+04  0.20252735849E+04  0.50400001928E-02 0.  1.
    10030    2    1    2    0    0  0.00000000000E+00  0.00000000000E+00 -0.19024961591E+04  0.21480510108E+04  0.99731214263E+03 0.  0.
        4    1    3    3  502    0 -0.18536386282E+02 -0.12522006290E+03 -0.19900883429E+04  0.19941105504E+04  0.12699999809E+01 0.  1.
       -4    1    3    3    0  502  0.18536386282E+02  0.12522006290E+03  0.87592183870E+02  0.15394046039E+03  0.12699999809E+01 0. -1.
</event>
<event>
 5   0  0.3873874E-03  0.9977239E+03  0.7818609E-02  0.9311045E-01
        2   -1    0    0  501    0  0.00000000000E+00  0.00000000000E+00  0.12856024533E+04  0.12856024534E+04  0.25500000920E-02 0.  1.
       -2   -1    0    0    0  501  0.00000000000E+00  0.00000000000E+00 -0.19357712559E+03  0.19357712560E+03  0.25500000920E-02 0. -1.
    10030    2    1    2    0    0  0.00000000000E+00  0.00000000000E+00  0.10920253278E+04  0.14791795790E+04  0.99772386477E+03 0.  0.
        5    1    3    3  502    0  0.26086812382E+02 -0.26506191100E+03  0.11713321075E+04  0.12012407480E+04  0.46999998093E+01 0.  1.
       -5    1    3    3    0  502 -0.26086812382E+02  0.26506191100E+03 -0.79306779786E+02  0.27793883097E+03  0.46999998093E+01 0. -1.
</event>
<event>
 5   0  0.2405022E-03  0.1000939E+04  0.7818609E-02  0.9307515E-01
        1   -1    0    0  501    0  0.00000000000E+00  0.00000000000E+00  0.54307056141E+03  0.54307056143E+03  0.50400001928E-02 0. -1.
       -1   -1    0    0    0  501  0.00000000000E+00  0.00000000000E+00 -0.46121033628E+03  0.46121033630E+03  0.50400001928E-02 0.  1.
    10030    2    1    2    0    0  0.00000000000E+00  0.00000000000E+00  0.81860225133E+02  0.10042808977E+04  0.10009390716E+04 0.  0.
        4    1    3    3  502    0 -0.34574526553E+03 -0.18610100838E+03 -0.27041991511E+03  0.47676190844E+03  0.12699999809E+01 0. -1.
       -4    1    3    3    0  502  0.34574526553E+03  0.18610100838E+03  0.35228014024E+03  0.52751898929E+03  0.12699999809E+01 0.  1.
</event>
<event>
 5   0  0.4140860E-03  0.1000884E+04  0.7818609E-02  0.9307576E-01
        2   -1    0    0  501    0  0.00000000000E+00  0.00000000000E+00  0.11860960490E+04  0.11860960490E+04  0.25500000920E-02 0.  1.
       -2   -1    0    0    0  501  0.00000000000E+00  0.00000000000E+00 -0.21114829970E+03  0.21114829971E+03  0.25500000920E-02 0. -1.
    10030    2    1    2    0    0  0.00000000000E+00  0.00000000000E+00  0.97494774927E+03  0.13972443487E+04  0.10008839374E+04 0.  0.
        3    1    3    3  502    0 -0.40726818648E+03  0.11990853330E+03  0.85734212892E+03  0.95670317669E+03  0.10100000352E+00 0.  1.
       -3    1    3    3    0  502  0.40726818648E+03 -0.11990853330E+03  0.11760562035E+03  0.44054117199E+03  0.10100000352E+00 0. -1.
</event>
<event>
 5   0  0.4140860E-03  0.1001244E+04  0.7818609E-02  0.9307181E-01
       -2   -1    0    0    0  501  0.00000000000E+00  0.00000000000E+00  0.82815980214E+03  0.82815980215E+03  0.25500000920E-02 0.  1.
        2   -1    0    0  501    0  0.00000000000E+00  0.00000000000E+00 -0.30262577487E+03  0.30262577488E+03  0.25500000920E-02 0. -1.
    10030    2    1    2    0    0  0.00000000000E+00  0.00000000000E+00  0.52553402727E+03  0.11307855770E+04  0.10012442296E+04 0.  0.
        3    1    3    3  502    0 -0.15695188710E+03 -0.38862223550E+03  0.57198087066E+03  0.70910031970E+03  0.10100000352E+00 0.  1.
       -3    1    3    3    0  502  0.15695188710E+03  0.38862223550E+03 -0.46446843394E+02  0.42168525733E+03  0.10100000352E+00 0. -1.
</event>
<event>
 5   0  0.2405022E-03  0.9894368E+03  0.7818609E-02  0.9320207E-01
        1   -1    0    0  501    0  0.00000000000E+00  0.00000000000E+00  0.93179617537E+03  0.93179617538E+03  0.50400001928E-02 0. -1.
       -1   -1    0    0    0  501  0.00000000000E+00  0.00000000000E+00 -0.26266074621E+03  0.26266074626E+03  0.50400001928E-02 0.  1.
    10030    2    1    2    0    0  0.00000000000E+00  0.00000000000E+00  0.66913542916E+03  0.11944569216E+04  0.98943676660E+03 0.  0.
        4    1    3    3  502    0  0.14671354018E+03 -0.31870910013E+03  0.75561255640E+03  0.83309801444E+03  0.12699999809E+01 0. -1.
       -4    1    3    3    0  502 -0.14671354018E+03  0.31870910013E+03 -0.86477127243E+02  0.36135890720E+03  0.12699999809E+01 0.  1.
</event>
<event>
 5   0  0.2313036E-03  0.9789840E+03  0.7818609E-02  0.9331900E-01
        1   -1    0    0  501    0  0.00000000000E+00  0.00000000000E+00  0.16645575781E+04  0.16645575781E+04  0.50400001928E-02 0.  1.
       -1   -1    0    0    0  501  0.00000000000E+00  0.00000000000E+00 -0.14394360422E+03  0.14394360431E+03  0.50400001928E-02 0. -1.
    10030    2    1    2    0    0  0.00000000000E+00  0.00000000000E+00  0.15206139739E+04  0.18085011824E+04  0.97898399846E+03 0.  0.
        3    1    3    3  502    0  0.35758831895E+03  0.16831113404E+03  0.12938108761E+04  0.13528283842E+04  0.10100000352E+00 0.  1.
       -3    1    3    3    0  502 -0.35758831895E+03 -0.16831113404E+03  0.22680309775E+03  0.45567279822E+03  0.10100000352E+00 0. -1.
</event>
<event>
 5   0  0.2405022E-03  0.9993811E+03  0.7818609E-02  0.9309224E-01
       -1   -1    0    0    0  501  0.00000000000E+00  0.00000000000E+00  0.24207649524E+03  0.24207649529E+03  0.50400001928E-02 0.  1.
        1   -1    0    0  501    0  0.00000000000E+00  0.00000000000E+00 -0.10314535115E+04  0.10314535115E+04  0.50400001928E-02 0. -1.
    10030    2    1    2    0    0  0.00000000000E+00  0.00000000000E+00 -0.78937701624E+03  0.12735300068E+04  0.99938111069E+03 0.  0.
        4    1    3    3  502    0  0.37768422136E+03 -0.18666003502E+03 -0.52274319208E+02  0.42452509595E+03  0.12699999809E+01 0.  1.
       -4    1    3    3    0  502 -0.37768422136E+03  0.18666003502E+03 -0.73710269703E+03  0.84900491083E+03  0.12699999809E+01 0. -1.
</event>
<event>
 5   0  0.3873874E-03  0.1001887E+04  0.7818609E-02  0.9306478E-01
        2   -1    0    0  501    0  0.00000000000E+00  0.00000000000E+00  0.13581549244E+04  0.13581549244E+04  0.25500000920E-02 0. -1.
       -2   -1    0    0    0  501  0.00000000000E+00  0.00000000000E+00 -0.18476861238E+03  0.18476861240E+03  0.25500000920E-02 0.  1.
    10030    2    1    2    0    0  0.00000000000E+00  0.00000000000E+00  0.11733863120E+04  0.15429235368E+04  0.10018870212E+04 0.  0.
        5    1    3    3  502    0  0.25813264178E+03 -0.42822326041E+03  0.54011712791E+03  0.73604091147E+03  0.46999998093E+01 0. -1.
       -5    1    3    3    0  502 -0.25813264178E+03  0.42822326041E+03  0.63326918414E+03  0.80688262535E+03  0.46999998093E+01 0.  1.
</event>
<event>
 5   0  0.2405022E-03  0.1019654E+04  0.7818609E-02  0.9287247E-01
       -1   -1    0    0    0  501  0.00000000000E+00  0.00000000000E+00  0.24626021322E+03  0.24626021327E+03  0.50400001928E-02 0.  1.
        1   -1    0    0  501    0  0.00000000000E+00  0.00000000000E+00 -0.10554843993E+04  0.10554843994E+04  0.50400001928E-02 0. -1.
    10030    2    1    2    0    0  0.00000000000E+00  0.00000000000E+00 -0.80922418613E+03  0.13017446126E+04  0.10196544773E+04 0.  0.
        4    1    3    3  502    0  0.41850887992E+03 -0.98549913709E+02 -0.75437865583E+03  0.86830325194E+03  0.12699999809E+01 0. -1.
       -4    1    3    3    0  502 -0.41850887992E+03  0.98549913709E+02 -0.54845530297E+02  0.43344136069E+03  0.12699999809E+01 0.  1.
</event>
<event>
 5   0  0.1548000E-03  0.9885436E+03  0.7818609E-02  0.9321200E-01
       -3   -1    0    0    0  501  0.00000000000E+00  0.00000000000E+00  0.53855772694E+03  0.53855773641E+03  0.10100000352E+00 0. -1.
        3   -1    0    0  501    0  0.00000000000E+00  0.00000000000E+00 -0.45362754796E+03  0.45362755921E+03  0.10100000352E+00 0.  1.
    10030    2    1    2    0    0  0.00000000000E+00  0.00000000000E+00  0.84930178974E+02  0.99218529561E+03  0.98854363866E+03 0.  0.
        4    1    3    3  502    0 -0.85948917670E+02 -0.19095544116E+03  0.49183288423E+03  0.53455813142E+03  0.12699999809E+01 0. -1.
       -4    1    3    3    0  502  0.85948917670E+02  0.19095544116E+03 -0.40690270526E+03  0.45762716419E+03  0.12699999809E+01 0.  1.
</event>
<event>
 5   0  0.2350769E-03  0.1012722E+04  0.7818609E-02  0.9294701E-01
        1   -1    0    0  501    0  0.00000000000E+00  0.00000000000E+00  0.95671864667E+03  0.95671864669E+03  0.50400001928E-02 0.  1.
       -1   -1    0    0    0  501  0.00000000000E+00  0.00000000000E+00 -0.26800068348E+03  0.26800068352E+03  0.50400001928E-02 0. -1.
    10030    2    1    2    0    0  0.00000000000E+00  0.00000000000E+00  0.68871796320E+03  0.12247193302E+04  0.10127215831E+04 0.  0.
        2    1    3    3  502    0 -0.28928247801E+03  0.37765861644E+03  0.55413887902E+03  0.73032888475E+03  0.25500000920E-02 0. -1.
       -2    1    3    3    0  502  0.28928247801E+03 -0.37765861644E+03  0.13457908418E+03  0.49439044546E+03  0.25500000920E-02 0.  1.
</event>
<event>
 5   0  0.2327595E-03  0.1004017E+04  0.7818609E-02  0.9304150E-01
       -1   -1    0    0    0  501  0.00000000000E+00  0.00000000000E+00  0.10278608231E+03  0.10278608244E+03  0.50400001928E-02 0.  1.
        1   -1    0    0  501    0  0.00000000000E+00  0.00000000000E+00 -0.24518163291E+04  0.24518163291E+04  0.50400001928E-02 0. -1.
    10030    2    1    2    0    0  0.00000000000E+00  0.00000000000E+00 -0.23490302468E+04  0.25546024115E+04  0.10040171217E+04 0.  0.
        5    1    3    3  502    0 -0.42630106106E+03  0.22669459308E+03 -0.82502166134E+03  0.95593193527E+03  0.46999998093E+01 0.  1.
       -5    1    3    3    0  502  0.42630106106E+03 -0.22669459308E+03 -0.15240085854E+04  0.15986704762E+04  0.46999998093E+01 0. -1.
</event>
<event>
 5   0  0.3895011E-03  0.1019955E+04  0.7818609E-02  0.9286926E-01
        2   -1    0    0  501    0  0.00000000000E+00  0.00000000000E+00  0.21167533063E+04  0.21167533063E+04  0.25500000920E-02 0.  1.
       -2   -1    0    0    0  501  0.00000000000E+00  0.00000000000E+00 -0.12286592790E+03  0.12286592793E+03  0.25500000920E-02 0. -1.
    10030    2    1    2    0    0  0.00000000000E+00  0.00000000000E+00  0.19938873784E+04  0.22396192342E+04  0.10199546248E+04 0.  0.
        2    1    3    3  502    0  0.28698708720E+03 -0.31090995590E+03  0.37181335881E+03  0.56326881921E+03  0.25500000920E-02 0. -1.
       -2    1    3    3    0  502 -0.28698708720E+03  0.31090995590E+03  0.16220740196E+04  0.16763504150E+04  0.25500000920E-02 0.  1.
</event>
<event>
 5   0  0.3826483E-03  0.9950111E+03  0.7818609E-02  0.9314033E-01
        2   -1    0    0  501    0  0.00000000000E+00  0.00000000000E+00  0.61785880409E+03  0.61785880409E+03  0.25500000920E-02 0.  1.
       -2   -1    0    0    0  501  0.00000000000E+00  0.00000000000E+00 -0.40059603129E+03  0.40059603130E+03  0.25500000920E-02 0. -1.
    10030    2    1    2    0    0  0.00000000000E+00  0.00000000000E+00  0.21726277280E+03  0.10184548354E+04  0.99501112520E+03 0.  0.
        4    1    3    3  502    0  0.28092183409E+03  0.39816678492E+03  0.21127527278E+03  0.53112401496E+03  0.12699999809E+01 0.  1.
       -4    1    3    3    0  502 -0.28092183409E+03 -0.39816678492E+03  0.59875000186E+01  0.48733082043E+03  0.12699999809E+01 0. -1.
</event>
<event>
 5   0  0.4140860E-03  0.1000902E+04  0.7818609E-02  0.9307557E-01
       -2   -1    0    0    0  501  0.00000000000E+00  0.00000000000E+00  0.15833637139E+03  0.15833637141E+03  0.25500000920E-02 0.  1.
        2   -1    0    0  501    0  0.00000000000E+00  0.00000000000E+00 -0.15817651969E+04  0.15817651969E+04  0.25500000920E-02 0. -1.
    10030    2    1    2    0    0  0.00000000000E+00  0.00000000000E+00 -0.14234288255E+04  0.17401015683E+04  0.10009015170E+04 0.  0.
        3    1    3    3  502    0 -0.25893772162E+03 -0.40674866662E+03 -0.47873960082E+03  0.67947394143E+03  0.10100000352E+00 0.  1.
       -3    1    3    3    0  502  0.25893772162E+03  0.40674866662E+03 -0.94468922470E+03  0.10606276269E+04  0.10100000352E+00 0. -1.
</event>
<event>
 5   0  0.2405022E-03  0.1009881E+04  0.7818609E-02  0.9297774E-01
       -1   -1    0    0    0  501  0.00000000000E+00  0.00000000000E+00  0.49859256256E+03  0.49859256258E+03  0.50400001928E-02 0. -1.
        1   -1    0    0  501    0  0.00000000000E+00  0.00000000000E+00 -0.51136892684E+03  0.51136892686E+03  0.50400001928E-02 0.  1.
    10030    2    1    2    0    0  0.00000000000E+00  0.00000000000E+00 -0.12776364281E+02  0.10099614894E+04  0.10098806735E+04 0.  0.
        4    1    3    3  502    0  0.24122651105E+03  0.11761685605E+03  0.42135994117E+03  0.49956958212E+03  0.12699999809E+01 0. -1.
       -4    1    3    3    0  502 -0.24122651105E+03 -0.11761685605E+03 -0.43413630545E+03  0.51039190733E+03  0.12699999809E+01 0.  1.
</event>
<event>
 5   0  0.2313036E-03  0.1024948E+04  0.7818609E-02  0.9281598E-01
       -1   -1    0    0    0  501  0.00000000000E+00  0.00000000000E+00  0.50757917931E+03  0.50757917934E+03  0.50400001928E-02 0.  1.
        1   -1    0    0  501    0  0.00000000000E+00  0.00000000000E+00 -0.51741616416E+03  0.51741616418E+03  0.50400001928E-02 0. -1.
    10030    2    1    2    0    0  0.00000000000E+00  0.00000000000E+00 -0.98369848481E+01  0.10249953435E+04  0.10249481392E+04 0.  0.
        3    1    3    3  502    0 -0.25861896213E+03 -0.44036943291E+03  0.37752627600E+02  0.51208815267E+03  0.10100000352E+00 0. -1.
       -3    1    3    3    0  502  0.25861896213E+03  0.44036943291E+03 -0.47589612448E+02  0.51290719085E+03  0.10100000352E+00 0.  1.
</event>
<event>
 5   0  0.2327595E-03  0.9894561E+03  0.7818609E-02  0.9320185E-01
        1   -1    0    0  501    0  0.00000000000E+00  0.00000000000E+00  0.54172123601E+03  0.54172123604E+03  0.50400001928E-02 0. -1.
       -1   -1    0    0    0  501  0.00000000000E+00  0.00000000000E+00 -0.45181146088E+03  0.45181146091E+03  0.50400001928E-02 0.  1.
    10030    2    1    2    0    0  0.00000000000E+00  0.00000000000E+00  0.89909775135E+02  0.99353269695E+03  0.98945613962E+03 0.  0.
        5    1    3    3  502    0  0.83144278143E+02 -0.48162672908E+03 -0.31888152615E+02  0.48981243494E+03  0.46999998093E+01 0. -1.
       -5    1    3    3    0  502 -0.83144278143E+02  0.48162672908E+03  0.12179792775E+03  0.50372026200E+03  0.46999998093E+01 0.  1.
</event>
<event>
 5   0  0.2327595E-03  0.9992230E+03  0.7818609E-02  0.9309397E-01
        1   -1    0    0  501    0  0.00000000000E+00  0.00000000000E+00  0.17701192333E+04  0.17701192333E+04  0.50400001928E-02 0. -1.
       -1   -1    0    0    0  501  0.00000000000E+00  0.00000000000E+00 -0.14101404590E+03  0.14101404599E+03  0.50400001928E-02 0.  1.
    10030    2    1    2    0    0  0.00000000000E+00  0.00000000000E+00  0.16291051874E+04  0.19111332793E+04  0.99922304799E+03 0.  0.
        5    1    3    3  502    0 -0.33156327176E+02  0.21801466312E+03  0.16719520044E+04  0.16864386530E+04  0.46999998093E+01 0. -1.
       -5    1    3    3    0  502  0.33156327176E+02 -0.21801466312E+03 -0.42846816983E+02  0.22469462630E+03  0.46999998093E+01 0.  1.
</event>
<event>
 5   0  0.3895011E-03  0.1000463E+04  0.7818609E-02  0.9308037E-01
        2   -1    0    0  501    0  0.00000000000E+00  0.00000000000E+00  0.36473887359E+03  0.36473887360E+03  0.25500000920E-02 0. -1.
       -2   -1    0    0    0  501  0.00000000000E+00  0.00000000000E+00 -0.68605701428E+03  0.68605701429E+03  0.25500000920E-02 0.  1.
    10030    2    1    2    0    0  0.00000000000E+00  0.00000000000E+00 -0.32131814069E+03  0.10507958879E+04  0.10004632179E+04 0.  0.
        2    1    3    3  502    0 -0.13705231208E+03  0.59536483236E+02  0.34075089146E+03  0.37207405059E+03  0.25500000920E-02 0. -1.
       -2    1    3    3    0  502  0.13705231208E+03 -0.59536483236E+02 -0.66206903215E+03  0.67872183730E+03  0.25500000920E-02 0.  1.
</event>
<event>
 5   0  0.3895011E-03  0.9956681E+03  0.7818609E-02  0.9313309E-01
        2   -1    0    0  501    0  0.00000000000E+00  0.00000000000E+00  0.16961094843E+04  0.16961094843E+04  0.25500000920E-02 0. -1.
       -2   -1    0    0    0  501  0.00000000000E+00  0.00000000000E+00 -0.14612189595E+03  0.14612189597E+03  0.25500000920E-02 0.  1.
    10030    2    1    2    0    0  0.00000000000E+00  0.00000000000E+00  0.15499875883E+04  0.18422313803E+04  0.99566808447E+03 0.  0.
        2    1    3    3  502    0  0.38198640248E+03 -0.29125414221E+03  0.53306993285E+03  0.71756960662E+03  0.25500000920E-02 0.  1.
       -2    1    3    3    0  502 -0.38198640248E+03  0.29125414221E+03  0.10169176555E+04  0.11246617737E+04  0.25500000920E-02 0. -1.
</event>
<event>
 5   0  0.2313036E-03  0.1003577E+04  0.7818609E-02  0.9304630E-01
       -1   -1    0    0    0  501  0.00000000000E+00  0.00000000000E+00  0.19872052141E+03  0.19872052148E+03  0.50400001928E-02 0. -1.
        1   -1    0    0  501    0  0.00000000000E+00  0.00000000000E+00 -0.12670641574E+04  0.12670641574E+04  0.50400001928E-02 0.  1.
    10030    2    1    2    0    0  0.00000000000E+00  0.00000000000E+00 -0.10683436360E+04  0.14657846789E+04  0.10035769031E+04 0.  0.
        3    1    3    3  502    0  0.41517202629E+03  0.27788955444E+03 -0.46564640839E+03  0.68294729206E+03  0.10100000352E+00 0. -1.
       -3    1    3    3    0  502 -0.41517202629E+03 -0.27788955444E+03 -0.60269722763E+03  0.78283738686E+03  0.10100000352E+00 0.  1.
</event>
<event>
 5   0  0.2378609E-03  0.9398104E+03  0.7818609E-02  0.9377141E-01
        1   -1    0    0  501    0  0.00000000000E+00  0.00000000000E+00  0.38303403129E+03  0.38303403133E+03  0.50400001928E-02 0.  1.
       -1   -1    0    0    0  501  0.00000000000E+00  0.00000000000E+00 -0.57647849107E+03  0.57647849109E+03  0.50400001928E-02 0. -1.
    10030    2    1    2    0    0  0.00000000000E+00  0.00000000000E+00 -0.19344445978E+03  0.95951252242E+03  0.93981036473E+03 0.  0.
        1    1    3    3  502    0 -0.18979115385E+03  0.40466791955E+03  0.51349485303E+02  0.44990396404E+03  0.50400001928E-02 0.  1.
       -1    1    3    3    0  502  0.18979115385E+03 -0.40466791955E+03 -0.24479394508E+03  0.50960855838E+03  0.50400001928E-02 0. -1.
</event>
<event>
 5   0  0.4026829E-03  0.1000504E+04  0.7818609E-02  0.9307993E-01
       -2   -1    0    0    0  501  0.00000000000E+00  0.00000000000E+00  0.60813235044E+03  0.60813235044E+03  0.25500000920E-02 0. -1.
        2   -1    0    0  501    0  0.00000000000E+00  0.00000000000E+00 -0.41150886244E+03  0.41150886244E+03  0.25500000920E-02 0.  1.
    10030    2    1    2    0    0  0.00000000000E+00  0.00000000000E+00  0.19662348800E+03  0.10196412129E+04  0.10005035767E+04 0.  0.
        1    1    3    3  502    0  0.14436489269E+03 -0.40186295547E+03 -0.16728168465E+03  0.45860464374E+03  0.50400001928E-02 0.  1.
       -1    1    3    3    0  502 -0.14436489269E+03  0.40186295547E+03  0.36390517265E+03  0.56103656915E+03  0.50400001928E-02 0. -1.
</event>
<event>
 5   0  0.3873874E-03  0.1001013E+04  0.7818609E-02  0.9307435E-01
       -2   -1    0    0    0  501  0.00000000000E+00  0.00000000000E+00  0.40271788228E+03  0.40271788229E+03  0.25500000920E-02 0.  1.
        2   -1    0    0  501    0  0.00000000000E+00  0.00000000000E+00 -0.62203972258E+03  0.62203972258E+03  0.25500000920E-02 0. -1.
    10030    2    1    2    0    0  0.00000000000E+00  0.00000000000E+00 -0.21932184030E+03  0.10247576049E+04  0.10010125269E+04 0.  0.
        5    1    3    3  502    0 -0.96729815714E+01 -0.36061932884E+03  0.24547522349E+03  0.43637144986E+03  0.46999998093E+01 0.  1.
       -5    1    3    3    0  502  0.96729815714E+01  0.36061932884E+03 -0.46479706379E+03  0.58838615501E+03  0.46999998093E+01 0. -1.
</event>
<event>
 5   0  0.2350769E-03  0.9893261E+03  0.7818609E-02  0.9320330E-01
        1   -1    0    0  501    0  0.00000000000E+00  0.00000000000E+00  0.47195615965E+03  0.47195615967E+03  0.50400001928E-02 0.  1.
       -1   -1    0    0    0  501  0.00000000000E+00  0.00000000000E+00 -0.51846242961E+03  0.51846242963E+03  0.50400001928E-02 0. -1.
    10030    2    1    2    0    0  0.00000000000E+00  0.00000000000E+00 -0.46506269958E+02  0.99041858930E+03  0.98932610847E+03 0.  0.
        2    1    3    3  502    0 -0.10022301325E+03 -0.35906358867E+03  0.30225237940E+03  0.47992480031E+03  0.25500000920E-02 0.  1.
       -2    1    3    3    0  502  0.10022301325E+03  0.35906358867E+03 -0.34875864936E+03  0.51049378899E+03  0.25500000920E-02 0. -1.
</event>
<event>
 5   0  0.2350769E-03  0.9955830E+03  0.7818609E-02  0.9313403E-01
        1   -1    0    0  501    0  0.00000000000E+00  0.00000000000E+00  0.13607033351E+04  0.13607033351E+04  0.50400001928E-02 0.  1.
       -1   -1    0    0    0  501  0.00000000000E+00  0.00000000000E+00 -0.18210903358E+03  0.18210903365E+03  0.50400001928E-02 0. -1.
    10030    2    1    2    0    0  0.00000000000E+00  0.00000000000E+00  0.11785943015E+04  0.15428123688E+04  0.99558298380E+03 0.  0.
        2    1    3    3  502    0 -0.34768218471E+03 -0.18356837284E+03  0.10624278830E+04  0.11328429969E+04  0.25500000920E-02 0.  1.
       -2    1    3    3    0  502  0.34768218471E+03  0.18356837284E+03  0.11616641854E+03  0.40996937187E+03  0.25500000920E-02 0. -1.
</event>
<event>
 5   0  0.2313036E-03  0.1002597E+04  0.7818609E-02  0.9305701E-01
        1   -1    0    0  501    0  0.00000000000E+00  0.00000000000E+00  0.57399283785E+03  0.57399283787E+03  0.50400001928E-02 0. -1.
       -1   -1    0    0    0  501  0.00000000000E+00  0.00000000000E+00 -0.43781090743E+03  0.43781090746E+03  0.50400001928E-02 0.  1.
    10030    2    1    2    0    0  0.00000000000E+00  0.00000000000E+00  0.13618193042E+03  0.10118037453E+04  0.10025972775E+04 0.  0.
        3    1    3    3  502    0  0.28376073550E+03 -0.41304978396E+03  0.54931441286E+02  0.50413068989E+03  0.10100000352E+00 0.  1.
       -3    1    3    3    0  502 -0.28376073550E+03  0.41304978396E+03  0.81250489131E+02  0.50767305545E+03  0.10100000352E+00 0. -1.
</event>
<event>
 5   0  0.4140860E-03  0.1004804E+04  0.7818609E-02  0.9303291E-01
        2   -1    0    0  501    0  0.00000000000E+00  0.00000000000E+00  0.29638858619E+03  0.29638858620E+03  0.25500000920E-02 0. -1.
       -2   -1    0    0    0  501  0.00000000000E+00  0.00000000000E+00 -0.85161118118E+03  0.85161118118E+03  0.25500000920E-02 0.  1.
    10030    2    1    2    0    0  0.00000000000E+00  0.00000000000E+00 -0.55522259499E+03  0.11479997674E+04  0.10048041281E+04 0.  0.
        3    1    3    3  502    0 -0.19758416221E+03  0.17005746553E+03 -0.76829121563E+03  0.81131402364E+03  0.10100000352E+00 0.  1.
       -3    1    3    3    0  502  0.19758416221E+03 -0.17005746553E+03  0.21306862064E+03  0.33668574375E+03  0.10100000352E+00 0. -1.
</event>
<event>
 5   0  0.2327595E-03  0.9983298E+03  0.7818609E-02  0.9310379E-01
       -1   -1    0    0    0  501  0.00000000000E+00  0.00000000000E+00  0.18012225720E+03  0.18012225727E+03  0.50400001928E-02 0. -1.
        1   -1    0    0  501    0  0.00000000000E+00  0.00000000000E+00 -0.13833136335E+04  0.13833136335E+04  0.50400001928E-02 0.  1.
    10030    2    1    2    0    0  0.00000000000E+00  0.00000000000E+00 -0.12031913763E+04  0.15634358907E+04  0.99832975342E+03 0.  0.
        5    1    3    3  502    0 -0.53784737930E+02 -0.48589683147E+03 -0.75940952189E+03  0.90316855615E+03  0.46999998093E+01 0.  1.
       -5    1    3    3    0  502  0.53784737930E+02  0.48589683147E+03 -0.44378185437E+03  0.66026733460E+03  0.46999998093E+01 0. -1.
</event>
<event>
 5   0  0.2350769E-03  0.9949391E+03  0.7818609E-02  0.9314113E-01
       -1   -1    0    0    0  501  0.00000000000E+00  0.00000000000E+00  0.43260015102E+03  0.43260015105E+03  0.50400001928E-02 0. -1.
        1   -1    0    0  501    0  0.00000000000E+00  0.00000000000E+00 -0.57206621024E+03  0.57206621026E+03  0.50400001928E-02 0.  1.
    10030    2    1    2    0    0  0.00000000000E+00  0.00000000000E+00 -0.13946605922E+03  0.10046663613E+04  0.99493905133E+03 0.  0.
        2    1    3    3  502    0 -0.85844622282E+02 -0.42461302965E+03 -0.31668571610E+03  0.53661472856E+03  0.25500000920E-02 0.  1.
       -2    1    3    3    0  502  0.85844622282E+02  0.42461302965E+03  0.17721965688E+03  0.46805163274E+03  0.25500000920E-02 0. -1.
</event>
<event>
 5   0  0.4140860E-03  0.1002545E+04  0.7818609E-02  0.9305758E-01
       -2   -1    0    0    0  501  0.00000000000E+00  0.00000000000E+00  0.40140542974E+03  0.40140542975E+03  0.25500000920E-02 0.  1.
        2   -1    0    0  501    0  0.00000000000E+00  0.00000000000E+00 -0.62598597151E+03  0.62598597152E+03  0.25500000920E-02 0. -1.
    10030    2    1    2    0    0  0.00000000000E+00  0.00000000000E+00 -0.22458054177E+03  0.10273914013E+04  0.10025450971E+04 0.  0.
        3    1    3    3  502    0  0.34019449387E+03  0.33710999414E+03  0.39359351731E+02  0.48054615863E+03  0.10100000352E+00 0.  1.
       -3    1    3    3    0  502 -0.34019449387E+03 -0.33710999414E+03 -0.26393989350E+03  0.54684524263E+03  0.10100000352E+00 0. -1.
</event>
<event>
 5   0  0.3873874E-03  0.1000532E+04  0.7818609E-02  0.9307962E-01
       -2   -1    0    0    0  501  0.00000000000E+00  0.00000000000E+00  0.26281141352E+03  0.26281141353E+03  0.25500000920E-02 0.  1.
        2   -1    0    0  501    0  0.00000000000E+00  0.00000000000E+00 -0.95226445374E+03  0.95226445374E+03  0.25500000920E-02 0. -1.
    10030    2    1    2    0    0  0.00000000000E+00  0.00000000000E+00 -0.68945304022E+03  0.12150758673E+04  0.10005317929E+04 0.  0.
        5    1    3    3  502    0  0.17601460860E+03  0.46818043382E+03 -0.35487381437E+03  0.61329566702E+03  0.46999998093E+01 0.  1.
       -5    1    3    3    0  502 -0.17601460860E+03 -0.46818043382E+03 -0.33457922585E+03  0.60178020026E+03  0.46999998093E+01 0. -1.
</event>
<event>
 5   0  0.3873874E-03  0.9915683E+03  0.7818609E-02  0.9317841E-01
       -2   -1    0    0    0  501  0.00000000000E+00  0.00000000000E+00  0.33205467512E+03  0.33205467513E+03  0.25500000920E-02 0.  1.
        2   -1    0    0  501    0  0.00000000000E+00  0.00000000000E+00 -0.74024527863E+03  0.74024527864E+03  0.25500000920E-02 0. -1.
    10030    2    1    2    0    0  0.00000000000E+00  0.00000000000E+00 -0.40819060351E+03  0.10722999538E+04  0.99156826395E+03 0.  0.
        5    1    3    3  502    0 -0.49217565692E+03  0.57167626926E+02 -0.22202209353E+03  0.54297413829E+03  0.46999998093E+01 0.  1.
       -5    1    3    3    0  502  0.49217565692E+03 -0.57167626926E+02 -0.18616850998E+03  0.52932581548E+03  0.46999998093E+01 0. -1.
</event>
<event>
 5   0  0.3873874E-03  0.9975002E+03  0.7818609E-02  0.9311291E-01
       -2   -1    0    0    0  501  0.00000000000E+00  0.00000000000E+00  0.64385219497E+03  0.64385219498E+03  0.25500000920E-02 0. -1.
        2   -1    0    0  501    0  0.00000000000E+00  0.00000000000E+00 -0.38634904782E+03  0.38634904783E+03  0.25500000920E-02 0.  1.
    10030    2    1    2    0    0  0.00000000000E+00  0.00000000000E+00  0.25750314715E+03  0.10302012428E+04  0.99750024055E+03 0.  0.
        5    1    3    3  502    0 -0.35544952065E+03 -0.13111226514E+03 -0.20621865234E+03  0.43137340017E+03  0.46999998093E+01 0.  1.
       -5    1    3    3    0  502  0.35544952065E+03  0.13111226514E+03  0.46372179949E+03  0.59882784264E+03  0.46999998093E+01 0. -1.
</event>
<event>
 5   0  0.3895011E-03  0.1002124E+04  0.7818609E-02  0.9306218E-01
        2   -1    0    0  501    0  0.00000000000E+00  0.00000000000E+00  0.88836042711E+03  0.88836042712E+03  0.25500000920E-02 0. -1.
       -2   -1    0    0    0  501  0.00000000000E+00  0.00000000000E+00 -0.28261413827E+03  0.28261413828E+03  0.25500000920E-02 0.  1.
    10030    2    1    2    0    0  0.00000000000E+00  0.00000000000E+00  0.60574628885E+03  0.11709745654E+04  0.10021241771E+04 0.  0.
        2    1    3    3  502    0 -0.40967297829E+03  0.16842402097E+03  0.29174846737E+02  0.44390288540E+03  0.25500000920E-02 0.  1.
       -2    1    3    3    0  502  0.40967297829E+03 -0.16842402097E+03  0.57657144211E+03  0.72707167999E+03  0.25500000920E-02 0. -1.
</event>
<event>
 5   0  0.3826483E-03  0.9960377E+03  0.7818609E-02  0.9312901E-01
        2   -1    0    0  501    0  0.00000000000E+00  0.00000000000E+00  0.15538721451E+04  0.15538721451E+04  0.25500000920E-02 0.  1.
       -2   -1    0    0    0  501  0.00000000000E+00  0.00000000000E+00 -0.15961596172E+03  0.15961596174E+03  0.25500000920E-02 0. -1.
    10030    2    1    2    0    0  0.00000000000E+00  0.00000000000E+00  0.13942561834E+04  0.17134881069E+04  0.99603774397E+03 0.  0.
        4    1    3    3  502    0  0.47206107979E+03  0.26829339813E+02  0.96617680995E+03  0.10756675683E+04  0.12699999809E+01 0.  1.
       -4    1    3    3    0  502 -0.47206107979E+03 -0.26829339813E+02  0.42807937348E+03  0.63782053857E+03  0.12699999809E+01 0. -1.
</event>
<event>
 5   0  0.4140860E-03  0.9982544E+03  0.7818609E-02  0.9310461E-01
        2   -1    0    0  501    0  0.00000000000E+00  0.00000000000E+00  0.80964451064E+03  0.80964451065E+03  0.25500000920E-02 0. -1.
       -2   -1    0    0    0  501  0.00000000000E+00  0.00000000000E+00 -0.30770041695E+03  0.30770041696E+03  0.25500000920E-02 0.  1.
    10030    2    1    2    0    0  0.00000000000E+00  0.00000000000E+00  0.50194409370E+03  0.11173449276E+04  0.99825438343E+03 0.  0.
        3    1    3    3  502    0  0.19763481726E+03  0.33702920807E+03  0.59863954096E+03  0.71485489318E+03  0.10100000352E+00 0. -1.
       -3    1    3    3    0  502 -0.19763481726E+03 -0.33702920807E+03 -0.96695447267E+02  0.40249003443E+03  0.10100000352E+00 0.  1.
</event>
<event>
 5   0  0.3873874E-03  0.9971048E+03  0.7818609E-02  0.9311726E-01
       -2   -1    0    0    0  501  0.00000000000E+00  0.00000000000E+00  0.92861578502E+02  0.92861578537E+02  0.25500000920E-02 0. -1.
        2   -1    0    0  501    0  0.00000000000E+00  0.00000000000E+00 -0.26766127201E+04  0.26766127201E+04  0.25500000920E-02 0.  1.
    10030    2    1    2    0    0  0.00000000000E+00  0.00000000000E+00 -0.25837511416E+04  0.27694742987E+04  0.99710477339E+03 0.  0.
        5    1    3    3  502    0  0.23709546938E+03  0.20116586168E+03 -0.20953346918E+03  0.37497777295E+03  0.46999998093E+01 0. -1.
       -5    1    3    3    0  502 -0.23709546938E+03 -0.20116586168E+03 -0.23742176724E+04  0.23944965257E+04  0.46999998093E+01 0.  1.
</event>
<event>
 5   0  0.3826483E-03  0.1004784E+04  0.7818609E-02  0.9303313E-01
       -2   -1    0    0    0  501  0.00000000000E+00  0.00000000000E+00  0.55590918967E+03  0.55590918967E+03  0.25500000920E-02 0.  1.
        2   -1    0    0  501    0  0.00000000000E+00  0.00000000000E+00 -0.45402701666E+03  0.45402701667E+03  0.25500000920E-02 0. -1.
    10030    2    1    2    0    0  0.00000000000E+00  0.00000000000E+00  0.10188217301E+03  0.10099362063E+04  0.10047841379E+04 0.  0.
        4    1    3    3  502    0 -0.32833457377E+02  0.40580652413E+03 -0.24491356793E+03  0.47512234173E+03  0.12699999809E+01 0. -1.
       -4    1    3    3    0  502  0.32833457377E+02 -0.40580652413E+03  0.34679574094E+03  0.53481386461E+03  0.12699999809E+01 0.  1.
</event>
<event>
 5   0  0.1548000E-03  0.9943850E+03  0.7818609E-02  0.9314725E-01
        3   -1    0    0  501    0  0.00000000000E+00  0.00000000000E+00  0.93375563785E+03  0.93375564331E+03  0.10100000352E+00 0.  1.
       -3   -1    0    0    0  501  0.00000000000E+00  0.00000000000E+00 -0.26473775975E+03  0.26473777901E+03  0.10100000352E+00 0. -1.
    10030    2    1    2    0    0  0.00000000000E+00  0.00000000000E+00  0.66901787810E+03  0.11984934223E+04  0.99438501705E+03 0.  0.
        2    1    3    3  502    0  0.39084573140E+03 -0.29898976731E+03  0.24890041740E+03  0.55145868794E+03  0.25500000920E-02 0. -1.
       -2    1    3    3    0  502 -0.39084573140E+03  0.29898976731E+03  0.42011746071E+03  0.64703473439E+03  0.25500000920E-02 0.  1.
</event>
<event>
 5   0  0.4026829E-03  0.1000155E+04  0.7818609E-02  0.9308375E-01
       -2   -1    0    0    0  501  0.00000000000E+00  0.00000000000E+00  0.52511675557E+03  0.52511675558E+03  0.25500000920E-02 0. -1.
        2   -1    0    0  501    0  0.00000000000E+00  0.00000000000E+00 -0.47623223612E+03  0.47623223612E+03  0.25500000920E-02 0.  1.
    10030    2    1    2    0    0  0.00000000000E+00  0.00000000000E+00  0.48884519455E+02  0.10013489917E+04  0.10001550414E+04 0.  0.
        1    1    3    3  502    0 -0.27988150914E+03 -0.12744693756E+03 -0.37036482096E+03  0.48140054184E+03  0.50400001928E-02 0.  1.
       -1    1    3    3    0  502  0.27988150914E+03  0.12744693756E+03  0.41924934041E+03  0.51994844986E+03  0.50400001928E-02 0. -1.
</event>
<event>
 5   0  0.2350769E-03  0.9915020E+03  0.7818609E-02  0.9317915E-01
        1   -1    0    0  501    0  0.00000000000E+00  0.00000000000E+00  0.94895552388E+03  0.94895552390E+03  0.50400001928E-02 0.  1.
       -1   -1    0    0    0  501  0.00000000000E+00  0.00000000000E+00 -0.25898901463E+03  0.25898901468E+03  0.50400001928E-02 0. -1.
    10030    2    1    2    0    0  0.00000000000E+00  0.00000000000E+00  0.68996650925E+03  0.12079445386E+04  0.99150200423E+03 0.  0.
        2    1    3    3  502    0 -0.35678801502E+02 -0.46196680895E+03  0.13019373217E+03  0.48128652313E+03  0.25500000920E-02 0. -1.
       -2    1    3    3    0  502  0.35678801502E+02  0.46196680895E+03  0.55977277708E+03  0.72665801545E+03  0.25500000920E-02 0.  1.
</event>
<event>
 5   0  0.4140860E-03  0.9988786E+03  0.7818609E-02  0.9309776E-01
        2   -1    0    0  501    0  0.00000000000E+00  0.00000000000E+00  0.14463219805E+04  0.14463219805E+04  0.25500000920E-02 0.  1.
       -2   -1    0    0    0  501  0.00000000000E+00  0.00000000000E+00 -0.17246478526E+03  0.17246478528E+03  0.25500000920E-02 0. -1.
    10030    2    1    2    0    0  0.00000000000E+00  0.00000000000E+00  0.12738571952E+04  0.16187867658E+04  0.99887859083E+03 0.  0.
        3    1    3    3  502    0 -0.33925773042E+03  0.51636415540E+02  0.12250035489E+04  0.12721618734E+04  0.10100000352E+00 0.  1.
       -3    1    3    3    0  502  0.33925773042E+03 -0.51636415540E+02  0.48853646316E+02  0.34662489238E+03  0.10100000352E+00 0. -1.
</event>
<event>
 5   0  0.2405022E-03  0.9966040E+03  0.7818609E-02  0.9312277E-01
        1   -1    0    0  501    0  0.00000000000E+00  0.00000000000E+00  0.12694499179E+04  0.12694499179E+04  0.50400001928E-02 0.  1.
       -1   -1    0    0    0  501  0.00000000000E+00  0.00000000000E+00 -0.19560037543E+03  0.19560037550E+03  0.50400001928E-02 0. -1.
    10030    2    1    2    0    0  0.00000000000E+00  0.00000000000E+00  0.10738495424E+04  0.14650502934E+04  0.99660399474E+03 0.  0.
        4    1    3    3  502    0 -0.69776935922E+02  0.27526021516E+03 -0.65014599173E+02  0.29131686845E+03  0.12699999809E+01 0. -1.
       -4    1    3    3    0  502  0.69776935922E+02 -0.27526021516E+03  0.11388641416E+04  0.11737334249E+04  0.12699999809E+01 0.  1.
</event>
<event>
 5   0  0.2378609E-03  0.9572190E+03  0.7818609E-02  0.9356752E-01
        1   -1    0    0  501    0  0.00000000000E+00  0.00000000000E+00  0.14686736612E+04  0.14686736612E+04  0.50400001928E-02 0. -1.
       -1   -1    0    0    0  501  0.00000000000E+00  0.00000000000E+00 -0.15596865172E+03  0.15596865180E+03  0.50400001928E-02 0.  1.
    10030    2    1    2    0    0  0.00000000000E+00  0.00000000000E+00  0.13127050095E+04  0.16246423130E+04  0.95721899442E+03 0.  0.
        1    1    3    3  502    0 -0.92129503961E+00  0.32245178172E+02 -0.15412145495E+03  0.15746117998E+03  0.50400001928E-02 0.  1.
       -1    1    3    3    0  502  0.92129503961E+00 -0.32245178172E+02  0.14668264644E+04  0.14671811330E+04  0.50400001928E-02 0. -1.
</event>
<event>
 5   0  0.2327595E-03  0.9983163E+03  0.7818609E-02  0.9310393E-01
        1   -1    0    0  501    0  0.00000000000E+00  0.00000000000E+00  0.13157474736E+04  0.13157474736E+04  0.50400001928E-02 0.  1.
       -1   -1    0    0    0  501  0.00000000000E+00  0.00000000000E+00 -0.18936678543E+03  0.18936678550E+03  0.50400001928E-02 0. -1.
    10030    2    1    2    0    0  0.00000000000E+00  0.00000000000E+00  0.11263806881E+04  0.15051142591E+04  0.99831632175E+03 0.  0.
        5    1    3    3  502    0 -0.64566258887E+02  0.18955593651E+03 -0.12611617664E+03  0.23670157343E+03  0.46999998093E+01 0. -1.
       -5    1    3    3    0  502  0.64566258887E+02 -0.18955593651E+03  0.12524968648E+04  0.12684126856E+04  0.46999998093E+01 0.  1.
</event>
<event>
 5   0  0.3826483E-03  0.1000395E+04  0.7818609E-02  0.9308112E-01
       -2   -1    0    0    0  501  0.00000000000E+00  0.00000000000E+00  0.19154100533E+03  0.19154100534E+03  0.25500000920E-02 0. -1.
        2   -1    0    0  501    0  0.00000000000E+00  0.00000000000E+00 -0.13062347396E+04  0.13062347396E+04  0.25500000920E-02 0.  1.
    10030    2    1    2    0    0  0.00000000000E+00  0.00000000000E+00 -0.11146937343E+04  0.14977757449E+04  0.10003949525E+04 0.  0.
        4    1    3    3  502    0 -0.98171368244E+02 -0.47871133962E+03 -0.39753522361E+03  0.62995081644E+03  0.12699999809E+01 0. -1.
       -4    1    3    3    0  502  0.98171368244E+02  0.47871133962E+03 -0.71715851064E+03  0.86782492849E+03  0.12699999809E+01 0.  1.
</event>
<event>
 5   0  0.2350769E-03  0.1002884E+04  0.7818609E-02  0.9305387E-01
        1   -1    0    0  501    0  0.00000000000E+00  0.00000000000E+00  0.15404566543E+03  0.15404566551E+03  0.50400001928E-02 0.  1.
       -1   -1    0    0    0  501  0.00000000000E+00  0.00000000000E+00 -0.16322696816E+04  0.16322696816E+04  0.50400001928E-02 0. -1.
    10030    2    1    2    0    0  0.00000000000E+00  0.00000000000E+00 -0.14782240162E+04  0.17863153471E+04  0.10028839800E+04 0.  0.
        2    1    3    3  502    0 -0.11129577563E+02 -0.20859407382E+03  0.72856738374E+02  0.22123168729E+03  0.25500000920E-02 0.  1.
       -2    1    3    3    0  502  0.11129577563E+02  0.20859407382E+03 -0.15510807545E+04  0.15650836598E+04  0.25500000920E-02 0. -1.
</event>
<event>
 5   0  0.3895011E-03  0.1004020E+04  0.7818609E-02  0.9304147E-01
        2   -1    0    0  501    0  0.00000000000E+00  0.00000000000E+00  0.67922608524E+03  0.67922608524E+03  0.25500000920E-02 0. -1.
       -2   -1    0    0    0  501  0.00000000000E+00  0.00000000000E+00 -0.37103101189E+03  0.37103101190E+03  0.25500000920E-02 0.  1.
    10030    2    1    2    0    0  0.00000000000E+00  0.00000000000E+00  0.30819507335E+03  0.10502570971E+04  0.10040198040E+04 0.  0.
        2    1    3    3  502    0 -0.35406804826E+03  0.21249153199E+03 -0.14452628142E+03  0.43749820570E+03  0.25500000920E-02 0.  1.
       -2    1    3    3    0  502  0.35406804826E+03 -0.21249153199E+03  0.45272135477E+03  0.61275889144E+03  0.25500000920E-02 0. -1.
</event>
<event>
 5   0  0.4026829E-03  0.1004031E+04  0.7818609E-02  0.9304135E-01
       -2   -1    0    0    0  501  0.00000000000E+00  0.00000000000E+00  0.23772963353E+03  0.23772963355E+03  0.25500000920E-02 0.  1.
        2   -1    0    0  501    0  0.00000000000E+00  0.00000000000E+00 -0.10601098238E+04  0.10601098238E+04  0.25500000920E-02 0. -1.
    10030    2    1    2    0    0  0.00000000000E+00  0.00000000000E+00 -0.82238019029E+03  0.12978394574E+04  0.10040309157E+04 0.  0.
        1    1    3    3  502    0  0.88494621533E+02 -0.44020923974E+03 -0.12098395804E+03  0.46502966671E+03  0.50400001928E-02 0.  1.
       -1    1    3    3    0  502 -0.88494621533E+02  0.44020923974E+03 -0.70139623225E+03  0.83280979067E+03  0.50400001928E-02 0. -1.
</event>
<event>
 5   0  0.3873874E-03  0.9987637E+03  0.7818609E-02  0.9309902E-01
        2   -1    0    0  501    0  0.00000000000E+00  0.00000000000E+00  0.28690885078E+03  0.28690885080E+03  0.25500000920E-02 0. -1.
       -2   -1    0    0    0  501  0.00000000000E+00  0.00000000000E+00 -0.86920377078E+03  0.86920377078E+03  0.25500000920E-02 0.  1.
    10030    2    1    2    0    0  0.00000000000E+00  0.00000000000E+00 -0.58229491999E+03  0.11561126216E+04  0.99876374580E+03 0.  0.
        5    1    3    3  502    0  0.50406006233E+02 -0.43772941785E+03 -0.56313907383E+03  0.71504930962E+03  0.46999998093E+01 0. -1.
       -5    1    3    3    0  502 -0.50406006233E+02  0.43772941785E+03 -0.19155846162E+02  0.44106331196E+03  0.46999998093E+01 0.  1.
</event>
<event>
 5   0  0.2350769E-03  0.1012741E+04  0.7818609E-02  0.9294681E-01
        1   -1    0    0  501    0  0.00000000000E+00  0.00000000000E+00  0.66920347634E+03  0.66920347636E+03  0.50400001928E-02 0. -1.
       -1   -1    0    0    0  501  0.00000000000E+00  0.00000000000E+00 -0.38315826488E+03  0.38315826492E+03  0.50400001928E-02 0.  1.
    10030    2    1    2    0    0  0.00000000000E+00  0.00000000000E+00  0.28604521145E+03  0.10523617413E+04  0.10127405253E+04 0.  0.
        2    1    3    3  502    0 -0.42237870652E+03 -0.26319976910E+03  0.24012890779E+03  0.55257558988E+03  0.25500000920E-02 0. -1.
       -2    1    3    3    0  502  0.42237870652E+03  0.26319976910E+03  0.45916303665E+02  0.49978615139E+03  0.25500000920E-02 0.  1.
</event>
<event>
 5   0  0.2405022E-03  0.1002140E+04  0.7818609E-02  0.9306200E-01
        1   -1    0    0  501    0  0.00000000000E+00  0.00000000000E+00  0.13572229236E+04  0.13572229236E+04  0.50400001928E-02 0. -1.
       -1   -1    0    0    0  501  0.00000000000E+00  0.00000000000E+00 -0.18498904330E+03  0.18498904337E+03  0.50400001928E-02 0.  1.
    10030    2    1    2    0    0  0.00000000000E+00  0.00000000000E+00  0.11722338803E+04  0.15422119670E+04  0.10021404497E+04 0.  0.
        4    1    3    3  502    0  0.28155332178E+03 -0.74390745695E+02  0.12136172400E+04  0.12480683772E+04  0.12699999809E+01 0. -1.
       -4    1    3    3    0  502 -0.28155332178E+03  0.74390745695E+02 -0.41383359694E+02  0.29414358979E+03  0.12699999809E+01 0.  1.
</event>
<event>
 5   0  0.3826483E-03  0.9748552E+03  0.7818609E-02  0.9336561E-01
       -2   -1    0    0    0  501  0.00000000000E+00  0.00000000000E+00  0.19097861236E+03  0.19097861238E+03  0.25500000920E-02 0. -1.
        2   -1    0    0  501    0  0.00000000000E+00  0.00000000000E+00 -0.12440432969E+04  0.12440432969E+04  0.25500000920E-02 0.  1.
    10030    2    1    2    0    0  0.00000000000E+00  0.00000000000E+00 -0.10530646846E+04  0.14350219093E+04  0.97485519453E+03 0.  0.
        4    1    3    3  502    0 -0.11757837701E+03  0.45132243225E+03 -0.31800434291E+03  0.56448648133E+03  0.12699999809E+01 0. -1.
       -4    1    3    3    0  502  0.11757837701E+03 -0.45132243225E+03 -0.73506034165E+03  0.87053542798E+03  0.12699999809E+01 0.  1.
</event>
<event>
 5   0  0.4140860E-03  0.9997976E+03  0.7818609E-02  0.9308767E-01
       -2   -1    0    0    0  501  0.00000000000E+00  0.00000000000E+00  0.36252064000E+03  0.36252064001E+03  0.25500000920E-02 0.  1.
        2   -1    0    0  501    0  0.00000000000E+00  0.00000000000E+00 -0.68933675216E+03  0.68933675217E+03  0.25500000920E-02 0. -1.
    10030    2    1    2    0    0  0.00000000000E+00  0.00000000000E+00 -0.32681611217E+03  0.10518573922E+04  0.99979758067E+03 0.  0.
        3    1    3    3  502    0 -0.39438836546E+03  0.25539683671E+03  0.16151301135E+02  0.47013891749E+03  0.10100000352E+00 0.  1.
       -3    1    3    3    0  502  0.39438836546E+03 -0.25539683671E+03 -0.34296741330E+03  0.58171847469E+03  0.10100000352E+00 0. -1.
</event>
<event>
 5   0  0.2378609E-03  0.9997544E+03  0.7818609E-02  0.9308814E-01
       -1   -1    0    0    0  501  0.00000000000E+00  0.00000000000E+00  0.40210817839E+03  0.40210817842E+03  0.50400001928E-02 0.  1.
        1   -1    0    0  501    0  0.00000000000E+00  0.00000000000E+00 -0.62141789792E+03  0.62141789794E+03  0.50400001928E-02 0. -1.
    10030    2    1    2    0    0  0.00000000000E+00  0.00000000000E+00 -0.21930971953E+03  0.10235260764E+04  0.99975440780E+03 0.  0.
        1    1    3    3  502    0  0.19678127382E+03 -0.49428122644E+02  0.35805709640E+03  0.41154695156E+03  0.50400001928E-02 0.  1.
       -1    1    3    3    0  502 -0.19678127382E+03  0.49428122644E+02 -0.57736681593E+03  0.61197912480E+03  0.50400001928E-02 0. -1.
</event>
<event>
 5   0  0.2378609E-03  0.1012183E+04  0.7818609E-02  0.9295283E-01
        1   -1    0    0  501    0  0.00000000000E+00  0.00000000000E+00  0.11452944370E+04  0.11452944370E+04  0.50400001928E-02 0. -1.
       -1   -1    0    0    0  501  0.00000000000E+00  0.00000000000E+00 -0.22363541620E+03  0.22363541625E+03  0.50400001928E-02 0.  1.
    10030    2    1    2    0    0  0.00000000000E+00  0.00000000000E+00  0.92165902077E+03  0.13689298532E+04  0.10121825885E+04 0.  0.
        1    1    3    3  502    0  0.31295575924E+03 -0.38994734813E+03  0.35495601352E+03  0.61318350689E+03  0.50400001928E-02 0.  1.
       -1    1    3    3    0  502 -0.31295575924E+03  0.38994734813E+03  0.56670300726E+03  0.75574634635E+03  0.50400001928E-02 0. -1.
</event>
<event>
 5   0  0.2350769E-03  0.1000757E+04  0.7818609E-02  0.9307715E-01
        1   -1    0    0  501    0  0.00000000000E+00  0.00000000000E+00  0.18042203963E+04  0.18042203963E+04  0.50400001928E-02 0. -1.
       -1   -1    0    0    0  501  0.00000000000E+00  0.00000000000E+00 -0.13877396160E+03  0.13877396169E+03  0.50400001928E-02 0.  1.
    10030    2    1    2    0    0  0.00000000000E+00  0.00000000000E+00  0.16654464347E+04  0.19429943580E+04  0.10007573374E+04 0.  0.
        2    1    3    3  502    0 -0.18781041504E+03  0.15843927414E+03  0.16790207022E+04  0.16969049102E+04  0.25500000920E-02 0. -1.
       -2    1    3    3    0  502  0.18781041504E+03 -0.15843927414E+03 -0.13574267541E+02  0.24608944783E+03  0.25500000920E-02 0.  1.
</event>
<event>
 5   0  0.2350769E-03  0.1000503E+04  0.7818609E-02  0.9307993E-01
       -1   -1    0    0    0  501  0.00000000000E+00  0.00000000000E+00  0.34802131100E+03  0.34802131103E+03  0.50400001928E-02 0.  1.
        1   -1    0    0  501    0  0.00000000000E+00  0.00000000000E+00 -0.71907001266E+03  0.71907001267E+03  0.50400001928E-02 0. -1.
    10030    2    1    2    0    0  0.00000000000E+00  0.00000000000E+00 -0.37104870166E+03  0.10670913237E+04  0.10005032504E+04 0.  0.
        2    1    3    3  502    0  0.21686107205E+03 -0.40647374102E+03  0.22391052409E+02  0.46124937501E+03  0.25500000920E-02 0.  1.
       -2    1    3    3    0  502 -0.21686107205E+03  0.40647374102E+03 -0.39343975407E+03  0.60584194870E+03  0.25500000920E-02 0. -1.
</event>
<event>
 5   0  0.3873874E-03  0.9963406E+03  0.7818609E-02  0.9312568E-01
       -2   -1    0    0    0  501  0.00000000000E+00  0.00000000000E+00  0.16809057509E+03  0.16809057511E+03  0.25500000920E-02 0. -1.
        2   -1    0    0  501    0  0.00000000000E+00  0.00000000000E+00 -0.14764280119E+04  0.14764280119E+04  0.25500000920E-02 0.  1.
    10030    2    1    2    0    0  0.00000000000E+00  0.00000000000E+00 -0.13083374368E+04  0.16445185870E+04  0.99634057153E+03 0.  0.
        5    1    3    3  502    0 -0.22088021016E+03 -0.14996527515E+02  0.82392205004E+02  0.23627003306E+03  0.46999998093E+01 0. -1.
       -5    1    3    3    0  502  0.22088021016E+03  0.14996527515E+02 -0.13907296418E+04  0.14082485540E+04  0.46999998093E+01 0.  1.
</event>
<event>
 5   0  0.2327595E-03  0.9980656E+03  0.7818609E-02  0.9310669E-01
        1   -1    0    0  501    0  0.00000000000E+00  0.00000000000E+00  0.30075805098E+03  0.30075805103E+03  0.50400001928E-02 0. -1.
       -1   -1    0    0    0  501  0.00000000000E+00  0.00000000000E+00 -0.82802021806E+03  0.82802021807E+03  0.50400001928E-02 0.  1.
    10030    2    1    2    0    0  0.00000000000E+00  0.00000000000E+00 -0.52726216707E+03  0.11287782691E+04  0.99806562307E+03 0.  0.
        5    1    3    3  502    0  0.38406957796E+02  0.34207225607E+03  0.14496414395E+03  0.37353074279E+03  0.46999998093E+01 0. -1.
       -5    1    3    3    0  502 -0.38406957796E+02 -0.34207225607E+03 -0.67222631102E+03  0.75524752631E+03  0.46999998093E+01 0.  1.
</event>
<event>
 5   0  0.2313036E-03  0.9978821E+03  0.7818609E-02  0.9310871E-01
       -1   -1    0    0    0  501  0.00000000000E+00  0.00000000000E+00  0.21837297058E+03  0.21837297064E+03  0.50400001928E-02 0. -1.
        1   -1    0    0  501    0  0.00000000000E+00  0.00000000000E+00 -0.11399862354E+04  0.11399862354E+04  0.50400001928E-02 0.  1.
    10030    2    1    2    0    0  0.00000000000E+00  0.00000000000E+00 -0.92161326481E+03  0.13583592060E+04  0.99788211867E+03 0.  0.
        3    1    3    3  502    0  0.12257636313E+03  0.91767141838E+02 -0.11072117837E+04  0.11177495771E+04  0.10100000352E+00 0.  1.
       -3    1    3    3    0  502 -0.12257636313E+03 -0.91767141838E+02  0.18559851885E+03  0.24060962890E+03  0.10100000352E+00 0. -1.
</event>
<event>
 5   0  0.2327595E-03  0.1001986E+04  0.7818609E-02  0.9306369E-01
        1   -1    0    0  501    0  0.00000000000E+00  0.00000000000E+00  0.10816544755E+04  0.10816544755E+04  0.50400001928E-02 0. -1.
       -1   -1    0    0    0  501  0.00000000000E+00  0.00000000000E+00 -0.23204636489E+03  0.23204636495E+03  0.50400001928E-02 0.  1.
    10030    2    1    2    0    0  0.00000000000E+00  0.00000000000E+00  0.84960811062E+03  0.13137008405E+04  0.10019860062E+04 0.  0.
        5    1    3    3  502    0 -0.10750310762E+03  0.34590683364E+03 -0.28925384287E+02  0.36341054410E+03  0.46999998093E+01 0.  1.
       -5    1    3    3    0  502  0.10750310762E+03 -0.34590683364E+03  0.87853349491E+03  0.95029029637E+03  0.46999998093E+01 0. -1.
</event>
<event>
 5   0  0.2405022E-03  0.1005589E+04  0.7818609E-02  0.9302436E-01
       -1   -1    0    0    0  501  0.00000000000E+00  0.00000000000E+00  0.54071744727E+03  0.54071744729E+03  0.50400001928E-02 0. -1.
        1   -1    0    0  501    0  0.00000000000E+00  0.00000000000E+00 -0.46753140383E+03  0.46753140386E+03  0.50400001928E-02 0.  1.
    10030    2    1    2    0    0  0.00000000000E+00  0.00000000000E+00  0.73186043437E+02  0.10082488511E+04  0.10055891551E+04 0.  0.
        4    1    3    3  502    0  0.31992610835E+03 -0.13091023086E+03  0.40267592672E+03  0.53069738854E+03  0.12699999809E+01 0. -1.
       -4    1    3    3    0  502 -0.31992610835E+03  0.13091023086E+03 -0.32948988328E+03  0.47755146260E+03  0.12699999809E+01 0.  1.
</event>
<event>
 5   0  0.3895011E-03  0.9225221E+03  0.7818609E-02  0.9397858E-01
        2   -1    0    0  501    0  0.00000000000E+00  0.00000000000E+00  0.40098492856E+03  0.40098492857E+03  0.25500000920E-02 0. -1.
       -2   -1    0    0    0  501  0.00000000000E+00  0.00000000000E+00 -0.53059787355E+03  0.53059787356E+03  0.25500000920E-02 0.  1.
    10030    2    1    2    0    0  0.00000000000E+00  0.00000000000E+00 -0.12961294500E+03  0.93158280213E+03  0.92252208738E+03 0.  0.
        2    1    3    3  502    0 -0.18378164078E+03  0.32903855096E+03  0.20373716447E+03  0.42842839740E+03  0.25500000920E-02 0. -1.
       -2    1    3    3    0  502  0.18378164078E+03 -0.32903855096E+03 -0.33335010947E+03  0.50315440473E+03  0.25500000920E-02 0.  1.
</event>
<event>
 5   0  0.4026829E-03  0.1001240E+04  0.7818609E-02  0.9307185E-01
       -2   -1    0    0    0  501  0.00000000000E+00  0.00000000000E+00  0.37454487216E+03  0.37454487217E+03  0.25500000920E-02 0.  1.
        2   -1    0    0  501    0  0.00000000000E+00  0.00000000000E+00 -0.66913368538E+03  0.66913368538E+03  0.25500000920E-02 0. -1.
    10030    2    1    2    0    0  0.00000000000E+00  0.00000000000E+00 -0.29458881321E+03  0.10436785576E+04  0.10012404120E+04 0.  0.
        1    1    3    3  502    0 -0.38287156891E+03  0.27971666989E+03 -0.31468912176E+03  0.56908812769E+03  0.50400001928E-02 0. -1.
       -1    1    3    3    0  502  0.38287156891E+03 -0.27971666989E+03  0.20100308549E+02  0.47459042987E+03  0.50400001928E-02 0.  1.
</event>
<event>
 5   0  0.2327595E-03  0.1002937E+04  0.7818609E-02  0.9305330E-01
       -1   -1    0    0    0  501  0.00000000000E+00  0.00000000000E+00  0.25769969874E+03  0.25769969879E+03  0.50400001928E-02 0.  1.
        1   -1    0    0  501    0  0.00000000000E+00  0.00000000000E+00 -0.97582783222E+03  0.97582783223E+03  0.50400001928E-02 0. -1.
    10030    2    1    2    0    0  0.00000000000E+00  0.00000000000E+00 -0.71812813349E+03  0.12335275310E+04  0.10029367645E+04 0.  0.
        5    1    3    3  502    0  0.94519774983E+02  0.49036934034E+03 -0.30334508266E+03  0.58432560014E+03  0.46999998093E+01 0.  1.
       -5    1    3    3    0  502 -0.94519774983E+02 -0.49036934034E+03 -0.41478305082E+03  0.64920193088E+03  0.46999998093E+01 0. -1.
</event>
<event>
 5   0  0.2350769E-03  0.9957101E+03  0.7818609E-02  0.9313262E-01
        1   -1    0    0  501    0  0.00000000000E+00  0.00000000000E+00  0.58367298151E+03  0.58367298153E+03  0.50400001928E-02 0. -1.
       -1   -1    0    0    0  501  0.00000000000E+00  0.00000000000E+00 -0.42465504132E+03  0.42465504135E+03  0.50400001928E-02 0.  1.
    10030    2    1    2    0    0  0.00000000000E+00  0.00000000000E+00  0.15901794019E+03  0.10083280229E+04  0.99571014679E+03 0.  0.
        2    1    3    3  502    0  0.15123373584E+03  0.46596033862E+03  0.16934044151E+03  0.51833084527E+03  0.25500000920E-02 0.  1.
       -2    1    3    3    0  502 -0.15123373584E+03 -0.46596033862E+03 -0.10322501324E+02  0.48999717761E+03  0.25500000920E-02 0. -1.
</event>
<event>
 5   0  0.2313036E-03  0.9269455E+03  0.7818609E-02  0.9392511E-01
        1   -1    0    0  501    0  0.00000000000E+00  0.00000000000E+00  0.20282325408E+04  0.20282325408E+04  0.50400001928E-02 0. -1.
       -1   -1    0    0    0  501  0.00000000000E+00  0.00000000000E+00 -0.10590846658E+03  0.10590846670E+03  0.50400001928E-02 0.  1.
    10030    2    1    2    0    0  0.00000000000E+00  0.00000000000E+00  0.19223240742E+04  0.21341410075E+04  0.92694551814E+03 0.  0.
        3    1    3    3  502    0  0.41492304500E+03 -0.19435337635E+03  0.11218747288E+04  0.12118322019E+04  0.10100000352E+00 0.  1.
       -3    1    3    3    0  502 -0.41492304500E+03  0.19435337635E+03  0.80044934536E+03  0.92230880559E+03  0.10100000352E+00 0. -1.
</event>
<event>
 5   0  0.3895011E-03  0.1000596E+04  0.7818609E-02  0.9307891E-01
        2   -1    0    0  501    0  0.00000000000E+00  0.00000000000E+00  0.44982416117E+03  0.44982416118E+03  0.25500000920E-02 0. -1.
       -2   -1    0    0    0  501  0.00000000000E+00  0.00000000000E+00 -0.55643534638E+03  0.55643534638E+03  0.25500000920E-02 0.  1.
    10030    2    1    2    0    0  0.00000000000E+00  0.00000000000E+00 -0.10661118520E+03  0.10062595076E+04  0.10005959483E+04 0.  0.
        2    1    3    3  502    0 -0.30757609696E+03 -0.39820451079E+02 -0.44809522212E+03  0.54495692659E+03  0.25500000920E-02 0.  1.
       -2    1    3    3    0  502  0.30757609696E+03  0.39820451079E+02  0.34148403691E+03  0.46130258098E+03  0.25500000920E-02 0. -1.
</event>
<event>
 5   0  0.4026829E-03  0.9340790E+03  0.7818609E-02  0.9383956E-01
        2   -1    0    0  501    0  0.00000000000E+00  0.00000000000E+00  0.44549191605E+03  0.44549191606E+03  0.25500000920E-02 0.  1.
       -2   -1    0    0    0  501  0.00000000000E+00  0.00000000000E+00 -0.48962928757E+03  0.48962928758E+03  0.25500000920E-02 0. -1.
    10030    2    1    2    0    0  0.00000000000E+00  0.00000000000E+00 -0.44137371517E+02  0.93512120364E+03  0.93407898913E+03 0.  0.
        1    1    3    3  502    0 -0.32174860471E+03 -0.19023550753E+03  0.25826907128E+03  0.45432876440E+03  0.50400001928E-02 0. -1.
       -1    1    3    3    0  502  0.32174860471E+03  0.19023550753E+03 -0.30240644280E+03  0.48079243924E+03  0.50400001928E-02 0.  1.
</event>
<event>
 5   0  0.2378609E-03  0.1000392E+04  0.7818609E-02  0.9308115E-01
        1   -1    0    0  501    0  0.00000000000E+00  0.00000000000E+00  0.68024054300E+03  0.68024054302E+03  0.50400001928E-02 0.  1.
       -1   -1    0    0    0  501  0.00000000000E+00  0.00000000000E+00 -0.36780548214E+03  0.36780548218E+03  0.50400001928E-02 0. -1.
    10030    2    1    2    0    0  0.00000000000E+00  0.00000000000E+00  0.31243506085E+03  0.10480460252E+04  0.10003923249E+04 0.  0.
        1    1    3    3  502    0  0.12668726603E+03 -0.38707575251E+02 -0.34909481593E+03  0.37338335566E+03  0.50400001928E-02 0. -1.
       -1    1    3    3    0  502 -0.12668726603E+03  0.38707575251E+02  0.66152987678E+03  0.67466266953E+03  0.50400001928E-02 0.  1.
</event>
<event>
 5   0  0.3895011E-03  0.1002319E+04  0.7818609E-02  0.9306005E-01
        2   -1    0    0  501    0  0.00000000000E+00  0.00000000000E+00  0.11990413156E+04  0.11990413156E+04  0.25500000920E-02 0. -1.
       -2   -1    0    0    0  501  0.00000000000E+00  0.00000000000E+00 -0.20946814790E+03  0.20946814791E+03  0.25500000920E-02 0.  1.
    10030    2    1    2    0    0  0.00000000000E+00  0.00000000000E+00  0.98957316768E+03  0.14085094635E+04  0.10023192378E+04 0.  0.
        2    1    3    3  502    0 -0.36209347566E+03 -0.81220839957E+02  0.21460269262E+02  0.37171098063E+03  0.25500000920E-02 0.  1.
       -2    1    3    3    0  502  0.36209347566E+03  0.81220839957E+02  0.96811289841E+03  0.10367984829E+04  0.25500000920E-02 0. -1.
</event>
<event>
 5   0  0.2350769E-03  0.9540491E+03  0.7818609E-02  0.9360430E-01
        1   -1    0    0  501    0  0.00000000000E+00  0.00000000000E+00  0.14372464136E+04  0.14372464136E+04  0.50400001928E-02 0.  1.
       -1   -1    0    0    0  501  0.00000000000E+00  0.00000000000E+00 -0.15832527483E+03  0.15832527491E+03  0.50400001928E-02 0. -1.
    10030    2    1    2    0    0  0.00000000000E+00  0.00000000000E+00  0.12789211388E+04  0.15955716885E+04  0.95404912557E+03 0.  0.
        2    1    3    3  502    0  0.40061677205E+03 -0.19583514634E+03  0.92282232533E+03  0.10249127996E+04  0.25500000920E-02 0. -1.
       -2    1    3    3    0  502 -0.40061677205E+03  0.19583514634E+03  0.35609881343E+03  0.57065888894E+03  0.25500000920E-02 0.  1.
</event>
<event>
 5   0  0.1548000E-03  0.9976034E+03  0.7818609E-02  0.9311177E-01
        3   -1    0    0  501    0  0.00000000000E+00  0.00000000000E+00  0.16496098350E+04  0.16496098381E+04  0.10100000352E+00 0. -1.
       -3   -1    0    0    0  501  0.00000000000E+00  0.00000000000E+00 -0.15082542832E+03  0.15082546213E+03  0.10100000352E+00 0.  1.
    10030    2    1    2    0    0  0.00000000000E+00  0.00000000000E+00  0.14987844067E+04  0.18004353003E+04  0.99760341449E+03 0.  0.
        1    1    3    3  502    0 -0.10046397622E+03  0.18498500920E+03 -0.66732175146E+02  0.22082945314E+03  0.50400001928E-02 0.  1.
       -1    1    3    3    0  502  0.10046397622E+03 -0.18498500920E+03  0.15655165819E+04  0.15796058471E+04  0.50400001928E-02 0. -1.
</event>
<event>
 5   0  0.2313036E-03  0.9885760E+03  0.7818609E-02  0.9321164E-01
       -1   -1    0    0    0  501  0.00000000000E+00  0.00000000000E+00  0.18592501039E+03  0.18592501045E+03  0.50400001928E-02 0.  1.
        1   -1    0    0  501    0  0.00000000000E+00  0.00000000000E+00 -0.13140815384E+04  0.13140815384E+04  0.50400001928E-02 0. -1.
    10030    2    1    2    0    0  0.00000000000E+00  0.00000000000E+00 -0.11281565280E+04  0.15000065488E+04  0.98857599349E+03 0.  0.
        3    1    3    3  502    0  0.33992795029E+03 -0.32933849197E+03 -0.78029669821E+03  0.91262138980E+03  0.10100000352E+00 0. -1.
       -3    1    3    3    0  502 -0.33992795029E+03  0.32933849197E+03 -0.34785982977E+03  0.58738515903E+03  0.10100000352E+00 0.  1.
</event>
<event>
 5   0  0.3873874E-03  0.1008071E+04  0.7818609E-02  0.9299737E-01
        2   -1    0    0  501    0  0.00000000000E+00  0.00000000000E+00  0.64977410049E+03  0.64977410049E+03  0.25500000920E-02 0.  1.
       -2   -1    0    0    0  501  0.00000000000E+00  0.00000000000E+00 -0.39098454054E+03  0.39098454055E+03  0.25500000920E-02 0. -1.
    10030    2    1    2    0    0  0.00000000000E+00  0.00000000000E+00  0.25878955995E+03  0.10407586410E+04  0.10080706883E+04 0.  0.
        5    1    3    3  502    0 -0.17518204440E+03 -0.19352330641E+03 -0.31573483635E+03  0.40969573550E+03  0.46999998093E+01 0. -1.
       -5    1    3    3    0  502  0.17518204440E+03  0.19352330641E+03  0.57452439630E+03  0.63106290554E+03  0.46999998093E+01 0.  1.
</event>
<event>
 5   0  0.3895011E-03  0.9987343E+03  0.7818609E-02  0.9309934E-01
       -2   -1    0    0    0  501  0.00000000000E+00  0.00000000000E+00  0.14770151339E+03  0.14770151341E+03  0.25500000920E-02 0. -1.
        2   -1    0    0  501    0  0.00000000000E+00  0.00000000000E+00 -0.16883210277E+04  0.16883210277E+04  0.25500000920E-02 0.  1.
    10030    2    1    2    0    0  0.00000000000E+00  0.00000000000E+00 -0.15406195144E+04  0.18360225412E+04  0.99873434086E+03 0.  0.
        2    1    3    3  502    0 -0.49002555851E+03 -0.39177770564E+02 -0.60891541000E+03  0.78258413109E+03  0.25500000920E-02 0. -1.
       -2    1    3    3    0  502  0.49002555851E+03  0.39177770564E+02 -0.93170410436E+03  0.10534384101E+04  0.25500000920E-02 0.  1.
</event>
<event>
 5   0  0.2327595E-03  0.1014922E+04  0.7818609E-02  0.9292329E-01
       -1   -1    0    0    0  501  0.00000000000E+00  0.00000000000E+00  0.32574896874E+03  0.32574896878E+03  0.50400001928E-02 0.  1.
        1   -1    0    0  501    0  0.00000000000E+00  0.00000000000E+00 -0.79053664683E+03  0.79053664685E+03  0.50400001928E-02 0. -1.
    10030    2    1    2    0    0  0.00000000000E+00  0.00000000000E+00 -0.46478767809E+03  0.11162856156E+04  0.10149216669E+04 0.  0.
        5    1    3    3  502    0  0.28984919213E+03  0.25663319911E+03  0.12842718051E+03  0.40790781281E+03  0.46999998093E+01 0.  1.
       -5    1    3    3    0  502 -0.28984919213E+03 -0.25663319911E+03 -0.59321485860E+03  0.70837780281E+03  0.46999998093E+01 0. -1.
</event>
<event>
 5   0  0.2327595E-03  0.9803375E+03  0.7818609E-02  0.9330377E-01
        1   -1    0    0  501    0  0.00000000000E+00  0.00000000000E+00  0.72371033370E+03  0.72371033371E+03  0.50400001928E-02 0. -1.
       -1   -1    0    0    0  501  0.00000000000E+00  0.00000000000E+00 -0.33199110476E+03  0.33199110480E+03  0.50400001928E-02 0.  1.
    10030    2    1    2    0    0  0.00000000000E+00  0.00000000000E+00  0.39171922893E+03  0.10557014385E+04  0.98033747912E+03 0.  0.
        5    1    3    3  502    0 -0.35209517202E+03  0.36052660195E+02  0.56100220475E+03  0.66333729595E+03  0.46999998093E+01 0. -1.
       -5    1    3    3    0  502  0.35209517202E+03 -0.36052660195E+02 -0.16928297581E+03  0.39236414256E+03  0.46999998093E+01 0.  1.
</event>
<event>
 5   0  0.2350769E-03  0.9775844E+03  0.7818609E-02  0.9333477E-01
        1   -1    0    0  501    0  0.00000000000E+00  0.00000000000E+00  0.16002444730E+04  0.16002444730E+04  0.50400001928E-02 0.  1.
       -1   -1    0    0    0  501  0.00000000000E+00  0.00000000000E+00 -0.14930082457E+03  0.14930082465E+03  0.50400001928E-02 0. -1.
    10030    2    1    2    0    0  0.00000000000E+00  0.00000000000E+00  0.14509436485E+04  0.17495452977E+04  0.97758440947E+03 0.  0.
        2    1    3    3  502    0 -0.31225701355E+03 -0.38647795117E+01  0.52505652169E+02  0.31666421103E+03  0.25500000920E-02 0. -1.
       -2    1    3    3    0  502  0.31225701355E+03  0.38647795117E+01  0.13984379963E+04  0.14328810867E+04  0.25500000920E-02 0.  1.
</event>
<event>
 5   0  0.2378609E-03  0.1025817E+04  0.7818609E-02  0.9280674E-01
        1   -1    0    0  501    0  0.00000000000E+00  0.00000000000E+00  0.62900087395E+03  0.62900087397E+03  0.50400001928E-02 0. -1.
       -1   -1    0    0    0  501  0.00000000000E+00  0.00000000000E+00 -0.41824293350E+03  0.41824293353E+03  0.50400001928E-02 0.  1.
    10030    2    1    2    0    0  0.00000000000E+00  0.00000000000E+00  0.21075794045E+03  0.10472438075E+04  0.10258170806E+04 0.  0.
        1    1    3    3  502    0  0.42621012328E+03 -0.70932067859E+02 -0.17677915267E+03  0.46683754806E+03  0.50400001928E-02 0.  1.
       -1    1    3    3    0  502 -0.42621012328E+03  0.70932067859E+02  0.38753709311E+03  0.58040625944E+03  0.50400001928E-02 0. -1.
</event>
<event>
 5   0  0.3895011E-03  0.1026864E+04  0.7818609E-02  0.9279562E-01
       -2   -1    0    0    0  501  0.00000000000E+00  0.00000000000E+00  0.33139878842E+03  0.33139878843E+03  0.25500000920E-02 0.  1.
        2   -1    0    0  501    0  0.00000000000E+00  0.00000000000E+00 -0.79545346000E+03  0.79545346001E+03  0.25500000920E-02 0. -1.
    10030    2    1    2    0    0  0.00000000000E+00  0.00000000000E+00 -0.46405467158E+03  0.11268522484E+04  0.10268637941E+04 0.  0.
        2    1    3    3  502    0  0.36953297048E+03 -0.22874213047E+03  0.67968607335E+02  0.43988329147E+03  0.25500000920E-02 0.  1.
       -2    1    3    3    0  502 -0.36953297048E+03  0.22874213047E+03 -0.53202327892E+03  0.68696895697E+03  0.25500000920E-02 0. -1.
</event>
<event>
 5   0  0.2378609E-03  0.1001526E+04  0.7818609E-02  0.9306873E-01
        1   -1    0    0  501    0  0.00000000000E+00  0.00000000000E+00  0.42693549278E+03  0.42693549281E+03  0.50400001928E-02 0.  1.
       -1   -1    0    0    0  501  0.00000000000E+00  0.00000000000E+00 -0.58735683923E+03  0.58735683925E+03  0.50400001928E-02 0. -1.
    10030    2    1    2    0    0  0.00000000000E+00  0.00000000000E+00 -0.16042134644E+03  0.10142923321E+04  0.10015257992E+04 0.  0.
        1    1    3    3  502    0 -0.44643848363E+03  0.11573964013E+03  0.11736716633E+03  0.47589708522E+03  0.50400001928E-02 0.  1.
       -1    1    3    3    0  502  0.44643848363E+03 -0.11573964013E+03 -0.27778851277E+03  0.53839524684E+03  0.50400001928E-02 0. -1.
</event>
<event>
 5   0  0.1548000E-03  0.1006240E+04  0.7818609E-02  0.9301727E-01
       -3   -1    0    0    0  501  0.00000000000E+00  0.00000000000E+00  0.36201245749E+03  0.36201247158E+03  0.10100000352E+00 0. -1.
        3   -1    0    0  501    0  0.00000000000E+00  0.00000000000E+00 -0.69922974581E+03  0.69922975311E+03  0.10100000352E+00 0.  1.
    10030    2    1    2    0    0  0.00000000000E+00  0.00000000000E+00 -0.33721728832E+03  0.10612422247E+04  0.10062403092E+04 0.  0.
        5    1    3    3  502    0 -0.21968114999E+03  0.22810573313E+03 -0.58089303538E+03  0.66162741909E+03  0.46999998093E+01 0.  1.
       -5    1    3    3    0  502  0.21968114999E+03 -0.22810573313E+03  0.24367574705E+03  0.39961480559E+03  0.46999998093E+01 0. -1.
</event>
<event>
 5   0  0.3873874E-03  0.9980237E+03  0.7818609E-02  0.9310715E-01
        2   -1    0    0  501    0  0.00000000000E+00  0.00000000000E+00  0.92211961854E+03  0.92211961854E+03  0.25500000920E-02 0. -1.
       -2   -1    0    0    0  501  0.00000000000E+00  0.00000000000E+00 -0.27004395645E+03  0.27004395646E+03  0.25500000920E-02 0.  1.
    10030    2    1    2    0    0  0.00000000000E+00  0.00000000000E+00  0.65207566209E+03  0.11921635750E+04  0.99802370737E+03 0.  0.
        5    1    3    3  502    0 -0.12454125760E+03 -0.19707255132E+03 -0.20096623608E+03  0.30782727847E+03  0.46999998093E+01 0.  1.
       -5    1    3    3    0  502  0.12454125760E+03  0.19707255132E+03  0.85304189817E+03  0.88433629653E+03  0.46999998093E+01 0. -1.
</event>
<event>
 5   0  0.2313036E-03  0.1007476E+04  0.7818609E-02  0.9300383E-01
       -1   -1    0    0    0  501  0.00000000000E+00  0.00000000000E+00  0.17198777759E+03  0.17198777766E+03  0.50400001928E-02 0. -1.
        1   -1    0    0  501    0  0.00000000000E+00  0.00000000000E+00 -0.14754084558E+04  0.14754084559E+04  0.50400001928E-02 0.  1.
    10030    2    1    2    0    0  0.00000000000E+00  0.00000000000E+00 -0.13034206783E+04  0.16473962335E+04  0.10074764939E+04 0.  0.
        3    1    3    3  502    0 -0.24421605891E+03  0.34571163354E+03 -0.20511348438E+03  0.47035047430E+03  0.10100000352E+00 0. -1.
       -3    1    3    3    0  502  0.24421605891E+03 -0.34571163354E+03 -0.10983071939E+04  0.11770457592E+04  0.10100000352E+00 0.  1.
</event>
<event>
 5   0  0.2327595E-03  0.1001441E+04  0.7818609E-02  0.9306966E-01
       -1   -1    0    0    0  501  0.00000000000E+00  0.00000000000E+00  0.22416985778E+03  0.22416985784E+03  0.50400001928E-02 0. -1.
        1   -1    0    0  501    0  0.00000000000E+00  0.00000000000E+00 -0.11184423164E+04  0.11184423165E+04  0.50400001928E-02 0.  1.
    10030    2    1    2    0    0  0.00000000000E+00  0.00000000000E+00 -0.89427245866E+03  0.13426121743E+04  0.10014410718E+04 0.  0.
        5    1    3    3  502    0 -0.75378292610E+02 -0.32507567786E+03 -0.94759415997E+03  0.10046456417E+04  0.46999998093E+01 0.  1.
       -5    1    3    3    0  502  0.75378292610E+02  0.32507567786E+03  0.53321701312E+02  0.33796653261E+03  0.46999998093E+01 0. -1.
</event>
<event>
 5   0  0.2327595E-03  0.1005551E+04  0.7818609E-02  0.9302477E-01
        1   -1    0    0  501    0  0.00000000000E+00  0.00000000000E+00  0.65837621709E+03  0.65837621711E+03  0.50400001928E-02 0.  1.
       -1   -1    0    0    0  501  0.00000000000E+00  0.00000000000E+00 -0.38394963472E+03  0.38394963475E+03  0.50400001928E-02 0. -1.
    10030    2    1    2    0    0  0.00000000000E+00  0.00000000000E+00  0.27442658237E+03  0.10423258519E+04  0.10055512082E+04 0.  0.
        5    1    3    3  502    0 -0.44745590017E+03 -0.67261687690E+02 -0.89936193298E+02  0.46135834889E+03  0.46999998093E+01 0. -1.
       -5    1    3    3    0  502  0.44745590017E+03  0.67261687690E+02  0.36436277567E+03  0.58096750298E+03  0.46999998093E+01 0.  1.
</event>
<event>
 5   0  0.3895011E-03  0.9848938E+03  0.7818609E-02  0.9325270E-01
       -2   -1    0    0    0  501  0.00000000000E+00  0.00000000000E+00  0.34465783419E+03  0.34465783420E+03  0.25500000920E-02 0. -1.
        2   -1    0    0  501    0  0.00000000000E+00  0.00000000000E+00 -0.70360783173E+03  0.70360783173E+03  0.25500000920E-02 0.  1.
    10030    2    1    2    0    0  0.00000000000E+00  0.00000000000E+00 -0.35894999754E+03  0.10482656659E+04  0.98489380424E+03 0.  0.
        2    1    3    3  502    0 -0.22757645710E+03  0.25841536405E+03  0.19522000568E+03  0.39582874432E+03  0.25500000920E-02 0. -1.
       -2    1    3    3    0  502  0.22757645710E+03 -0.25841536405E+03 -0.55417000322E+03  0.65243692161E+03  0.25500000920E-02 0.  1.
</event>
<event>
 5   0  0.2327595E-03  0.9999890E+03  0.7818609E-02  0.9308557E-01
        1   -1    0    0  501    0  0.00000000000E+00  0.00000000000E+00  0.56211053231E+03  0.56211053233E+03  0.50400001928E-02 0.  1.
       -1   -1    0    0    0  501  0.00000000000E+00  0.00000000000E+00 -0.44474257272E+03  0.44474257275E+03  0.50400001928E-02 0. -1.
    10030    2    1    2    0    0  0.00000000000E+00  0.00000000000E+00  0.11736795959E+03  0.10068531051E+04  0.99998896858E+03 0.  0.
        5    1    3    3  502    0  0.97229100758E+01 -0.11828997387E+03 -0.43033012002E+03  0.44642261938E+03  0.46999998093E+01 0. -1.
       -5    1    3    3    0  502 -0.97229100758E+01  0.11828997387E+03  0.54769807961E+03  0.56043048570E+03  0.46999998093E+01 0.  1.
</event>
<event>
 5   0  0.2378609E-03  0.9812239E+03  0.7818609E-02  0.9329381E-01
        1   -1    0    0  501    0  0.00000000000E+00  0.00000000000E+00  0.69656159251E+03  0.69656159253E+03  0.50400001928E-02 0. -1.
       -1   -1    0    0    0  501  0.00000000000E+00  0.00000000000E+00 -0.34555465930E+03  0.34555465934E+03  0.50400001928E-02 0.  1.
    10030    2    1    2    0    0  0.00000000000E+00  0.00000000000E+00  0.35100693321E+03  0.10421162519E+04  0.98122393736E+03 0.  0.
        1    1    3    3  502    0  0.23839951273E+03  0.20673890800E+03  0.57448216036E+03  0.65544264154E+03  0.50400001928E-02 0. -1.
       -1    1    3    3    0  502 -0.23839951273E+03 -0.20673890800E+03 -0.22347522716E+03  0.38667361033E+03  0.50400001928E-02 0.  1.
</event>
<event>
 5   0  0.3895011E-03  0.1002032E+04  0.7818609E-02  0.9306319E-01
        2   -1    0    0  501    0  0.00000000000E+00  0.00000000000E+00  0.11906416270E+04  0.11906416270E+04  0.25500000920E-02 0. -1.
       -2   -1    0    0    0  501  0.00000000000E+00  0.00000000000E+00 -0.21082493015E+03  0.21082493017E+03  0.25500000920E-02 0.  1.
    10030    2    1    2    0    0  0.00000000000E+00  0.00000000000E+00  0.97981669689E+03  0.14014665572E+04  0.10020318116E+04 0.  0.
        2    1    3    3  502    0  0.36557671170E+03  0.16863270016E+03  0.90700260554E+03  0.99233917899E+03  0.25500000920E-02 0.  1.
       -2    1    3    3    0  502 -0.36557671170E+03 -0.16863270016E+03  0.72814091354E+02  0.40912737822E+03  0.25500000920E-02 0. -1.
</event>
<event>
 5   0  0.1548000E-03  0.9961969E+03  0.7818609E-02  0.9312726E-01
        4   -1    0    0  501    0  0.00000000000E+00  0.00000000000E+00  0.38888466253E+03  0.38888673627E+03  0.12699999809E+01 0. -1.
       -4   -1    0    0    0  501  0.00000000000E+00  0.00000000000E+00 -0.63797931309E+03  0.63798057716E+03  0.12699999809E+01 0.  1.
    10030    2    1    2    0    0  0.00000000000E+00  0.00000000000E+00 -0.24909465056E+03  0.10268673134E+04  0.99619693558E+03 0.  0.
        3    1    3    3  502    0 -0.18324754326E+03  0.84170678660E+02  0.34492822669E+03  0.39954956767E+03  0.10100000352E+00 0. -1.
       -3    1    3    3    0  502  0.18324754326E+03 -0.84170678660E+02 -0.59402287725E+03  0.62731774576E+03  0.10100000352E+00 0.  1.
</event>
<event>
 5   0  0.2350769E-03  0.9700819E+03  0.7818609E-02  0.9341981E-01
       -1   -1    0    0    0  501  0.00000000000E+00  0.00000000000E+00  0.73951859475E+03  0.73951859476E+03  0.50400001928E-02 0. -1.
        1   -1    0    0  501    0  0.00000000000E+00  0.00000000000E+00 -0.31813226358E+03  0.31813226362E+03  0.50400001928E-02 0.  1.
    10030    2    1    2    0    0  0.00000000000E+00  0.00000000000E+00  0.42138633117E+03  0.10576508584E+04  0.97008190280E+03 0.  0.
        2    1    3    3  502    0  0.23900071041E+03 -0.16559858030E+03  0.63396569119E+03  0.69746449872E+03  0.25500000920E-02 0. -1.
       -2    1    3    3    0  502 -0.23900071041E+03  0.16559858030E+03 -0.21257936002E+03  0.36018635966E+03  0.25500000920E-02 0.  1.
</event>
<event>
 5   0  0.2405022E-03  0.9956484E+03  0.7818609E-02  0.9313330E-01
        1   -1    0    0  501    0  0.00000000000E+00  0.00000000000E+00  0.16524826526E+04  0.16524826527E+04  0.50400001928E-02 0. -1.
       -1   -1    0    0    0  501  0.00000000000E+00  0.00000000000E+00 -0.14997369402E+03  0.14997369410E+03  0.50400001928E-02 0.  1.
    10030    2    1    2    0    0  0.00000000000E+00  0.00000000000E+00  0.15025089586E+04  0.18024563468E+04  0.99564838734E+03 0.  0.
        4    1    3    3  502    0 -0.22692993540E+03  0.14204271134E+03 -0.85555118364E+01  0.26785842736E+03  0.12699999809E+01 0.  1.
       -4    1    3    3    0  502  0.22692993540E+03 -0.14204271134E+03  0.15110644705E+04  0.15345979194E+04  0.12699999809E+01 0. -1.
</event>
<event>
 5   0  0.2405022E-03  0.9999028E+03  0.7818609E-02  0.9308651E-01
        1   -1    0    0  501    0  0.00000000000E+00  0.00000000000E+00  0.93837576833E+03  0.93837576835E+03  0.50400001928E-02 0.  1.
       -1   -1    0    0    0  501  0.00000000000E+00  0.00000000000E+00 -0.26636602528E+03  0.26636602532E+03  0.50400001928E-02 0. -1.
    10030    2    1    2    0    0  0.00000000000E+00  0.00000000000E+00  0.67200974306E+03  0.12047417937E+04  0.99990284261E+03 0.  0.
        4    1    3    3  502    0  0.11136609488E+03  0.30367894576E+03 -0.12330796524E+03  0.34616437769E+03  0.12699999809E+01 0. -1.
       -4    1    3    3    0  502 -0.11136609488E+03 -0.30367894576E+03  0.79531770830E+03  0.85857741598E+03  0.12699999809E+01 0.  1.
</event>
<event>
 5   0  0.2327595E-03  0.9729585E+03  0.7818609E-02  0.9338711E-01
       -1   -1    0    0    0  501  0.00000000000E+00  0.00000000000E+00  0.22789467501E+03  0.22789467507E+03  0.50400001928E-02 0. -1.
        1   -1    0    0  501    0  0.00000000000E+00  0.00000000000E+00 -0.10384712157E+04  0.10384712157E+04  0.50400001928E-02 0.  1.
    10030    2    1    2    0    0  0.00000000000E+00  0.00000000000E+00 -0.81057654065E+03  0.12663658907E+04  0.97295849911E+03 0.  0.
        5    1    3    3  502    0  0.24825027819E+03  0.27901729747E+03 -0.81099399752E+03  0.89286740725E+03  0.46999998093E+01 0.  1.
       -5    1    3    3    0  502 -0.24825027819E+03 -0.27901729747E+03  0.41745686707E+00  0.37349848350E+03  0.46999998093E+01 0. -1.
</event>
<event>
 5   0  0.2313036E-03  0.9944183E+03  0.7818609E-02  0.9314688E-01
       -1   -1    0    0    0  501  0.00000000000E+00  0.00000000000E+00  0.40499266683E+03  0.40499266687E+03  0.50400001928E-02 0.  1.
        1   -1    0    0  501    0  0.00000000000E+00  0.00000000000E+00 -0.61042320484E+03  0.61042320486E+03  0.50400001928E-02 0. -1.
    10030    2    1    2    0    0  0.00000000000E+00  0.00000000000E+00 -0.20543053800E+03  0.10154158717E+04  0.99441826542E+03 0.  0.
        3    1    3    3  502    0 -0.90652521155E+02 -0.10285732312E+03 -0.59073946054E+03  0.60644095257E+03  0.10100000352E+00 0. -1.
       -3    1    3    3    0  502  0.90652521155E+02  0.10285732312E+03  0.38530892254E+03  0.40897491916E+03  0.10100000352E+00 0.  1.
</event>
<event>
 5   0  0.3873874E-03  0.9863598E+03  0.7818609E-02  0.9323633E-01
       -2   -1    0    0    0  501  0.00000000000E+00  0.00000000000E+00  0.58756846702E+03  0.58756846703E+03  0.25500000920E-02 0.  1.
        2   -1    0    0  501    0  0.00000000000E+00  0.00000000000E+00 -0.41395416909E+03  0.41395416910E+03  0.25500000920E-02 0. -1.
    10030    2    1    2    0    0  0.00000000000E+00  0.00000000000E+00  0.17361429793E+03  0.10015226361E+04  0.98635980566E+03 0.  0.
        5    1    3    3  502    0 -0.12777706668E+03 -0.21946984591E+03 -0.34243290130E+03  0.42635240579E+03  0.46999998093E+01 0. -1.
       -5    1    3    3    0  502  0.12777706668E+03  0.21946984591E+03  0.51604719923E+03  0.57517023034E+03  0.46999998093E+01 0.  1.
</event>
<event>
 5   0  0.2327595E-03  0.1002866E+04  0.7818609E-02  0.9305407E-01
        1   -1    0    0  501    0  0.00000000000E+00  0.00000000000E+00  0.67696871671E+03  0.67696871673E+03  0.50400001928E-02 0.  1.
       -1   -1    0    0    0  501  0.00000000000E+00  0.00000000000E+00 -0.37141338372E+03  0.37141338376E+03  0.50400001928E-02 0. -1.
    10030    2    1    2    0    0  0.00000000000E+00  0.00000000000E+00  0.30555533299E+03  0.10483821005E+04  0.10028663755E+04 0.  0.
        5    1    3    3  502    0 -0.28982819212E+03  0.15135425337E+03  0.55016814259E+03  0.64001216088E+03  0.46999998093E+01 0.  1.
       -5    1    3    3    0  502  0.28982819212E+03 -0.15135425337E+03 -0.24461280960E+03  0.40836993961E+03  0.46999998093E+01 0. -1.
</event>
<event>
 5   0  0.4026829E-03  0.1001660E+04  0.7818609E-02  0.9306726E-01
       -2   -1    0    0    0  501  0.00000000000E+00  0.00000000000E+00  0.30936312639E+03  0.30936312640E+03  0.25500000920E-02 0. -1.
        2   -1    0    0  501    0  0.00000000000E+00  0.00000000000E+00 -0.81079716183E+03  0.81079716184E+03  0.25500000920E-02 0.  1.
    10030    2    1    2    0    0  0.00000000000E+00  0.00000000000E+00 -0.50143403544E+03  0.11201602882E+04  0.10016601117E+04 0.  0.
        1    1    3    3  502    0  0.59960573208E+01  0.48226285805E+03 -0.40165624766E+03  0.62764731997E+03  0.50400001928E-02 0.  1.
       -1    1    3    3    0  502 -0.59960573208E+01 -0.48226285805E+03 -0.99777787779E+02  0.49251296827E+03  0.50400001928E-02 0. -1.
</event>
<event>
 5   0  0.2313036E-03  0.1007648E+04  0.7818609E-02  0.9300197E-01
       -1   -1    0    0    0  501  0.00000000000E+00  0.00000000000E+00  0.21445377092E+03  0.21445377098E+03  0.50400001928E-02 0.  1.
        1   -1    0    0  501    0  0.00000000000E+00  0.00000000000E+00 -0.11836508626E+04  0.11836508626E+04  0.50400001928E-02 0. -1.
    10030    2    1    2    0    0  0.00000000000E+00  0.00000000000E+00 -0.96919709166E+03  0.13981046336E+04  0.10076475395E+04 0.  0.
        3    1    3    3  502    0 -0.32272275302E+03  0.13806784467E+03 -0.98606894358E+03  0.10466827011E+04  0.10100000352E+00 0. -1.
       -3    1    3    3    0  502  0.32272275302E+03 -0.13806784467E+03  0.16871851916E+02  0.35142193249E+03  0.10100000352E+00 0.  1.
</event>
<event>
 5   0  0.2350769E-03  0.1021472E+04  0.7818609E-02  0.9285303E-01
        1   -1    0    0  501    0  0.00000000000E+00  0.00000000000E+00  0.15071851785E+04  0.15071851786E+04  0.50400001928E-02 0. -1.
       -1   -1    0    0    0  501  0.00000000000E+00  0.00000000000E+00 -0.17307183728E+03  0.17307183735E+03  0.50400001928E-02 0.  1.
    10030    2    1    2    0    0  0.00000000000E+00  0.00000000000E+00  0.13341133413E+04  0.16802570159E+04  0.10214720907E+04 0.  0.
        2    1    3    3  502    0  0.37905366312E+03  0.10376167558E+02  0.12298605921E+04  0.12869912278E+04  0.25500000920E-02 0. -1.
       -2    1    3    3    0  502 -0.37905366312E+03 -0.10376167558E+02  0.10425274914E+03  0.39326578810E+03  0.25500000920E-02 0.  1.
</event>
<event>
 5   0  0.1548000E-03  0.9929338E+03  0.7818609E-02  0.9316329E-01
        3   -1    0    0  501    0  0.00000000000E+00  0.00000000000E+00  0.42179344998E+03  0.42179346208E+03  0.10100000352E+00 0. -1.
       -3   -1    0    0    0  501  0.00000000000E+00  0.00000000000E+00 -0.58436040734E+03  0.58436041606E+03  0.10100000352E+00 0.  1.
    10030    2    1    2    0    0  0.00000000000E+00  0.00000000000E+00 -0.16256695735E+03  0.10061538781E+04  0.99293384013E+03 0.  0.
        1    1    3    3  502    0 -0.92696100253E+02 -0.26727302545E+02 -0.57477108172E+03  0.58281104323E+03  0.50400001928E-02 0.  1.
       -1    1    3    3    0  502  0.92696100253E+02  0.26727302545E+02  0.41220412437E+03  0.42334283491E+03  0.50400001928E-02 0. -1.
</event>
<event>
 5   0  0.4026829E-03  0.1003495E+04  0.7818609E-02  0.9304719E-01
        2   -1    0    0  501    0  0.00000000000E+00  0.00000000000E+00  0.13386748194E+04  0.13386748194E+04  0.25500000920E-02 0. -1.
       -2   -1    0    0    0  501  0.00000000000E+00  0.00000000000E+00 -0.18805968786E+03  0.18805968787E+03  0.25500000920E-02 0.  1.
    10030    2    1    2    0    0  0.00000000000E+00  0.00000000000E+00  0.11506151316E+04  0.15267345073E+04  0.10034954284E+04 0.  0.
        1    1    3    3  502    0  0.17555597728E+03  0.29278943604E+03  0.11347363943E+04  0.11849777380E+04  0.50400001928E-02 0. -1.
       -1    1    3    3    0  502 -0.17555597728E+03 -0.29278943604E+03  0.15878737239E+02  0.34175676926E+03  0.50400001928E-02 0.  1.
</event>
<event>
 5   0  0.4140860E-03  0.9946172E+03  0.7818609E-02  0.9314468E-01
       -2   -1    0    0    0  501  0.00000000000E+00  0.00000000000E+00  0.57986548263E+03  0.57986548264E+03  0.25500000920E-02 0. -1.
        2   -1    0    0  501    0  0.00000000000E+00  0.00000000000E+00 -0.42650553221E+03  0.42650553222E+03  0.25500000920E-02 0.  1.
    10030    2    1    2    0    0  0.00000000000E+00  0.00000000000E+00  0.15335995042E+03  0.10063710149E+04  0.99461718523E+03 0.  0.
        3    1    3    3  502    0  0.32860545530E+03  0.10790392117E+03  0.43824161470E+03  0.55828355207E+03  0.10100000352E+00 0. -1.
       -3    1    3    3    0  502 -0.32860545530E+03 -0.10790392117E+03 -0.28488166428E+03  0.44808746278E+03  0.10100000352E+00 0.  1.
</event>
<event>
 5   0  0.4026829E-03  0.1008615E+04  0.7818609E-02  0.9299146E-01
       -2   -1    0    0    0  501  0.00000000000E+00  0.00000000000E+00  0.14743710787E+03  0.14743710789E+03  0.25500000920E-02 0. -1.
        2   -1    0    0  501    0  0.00000000000E+00  0.00000000000E+00 -0.17249795738E+04  0.17249795738E+04  0.25500000920E-02 0.  1.
    10030    2    1    2    0    0  0.00000000000E+00  0.00000000000E+00 -0.15775424659E+04  0.18724166817E+04  0.10086148909E+04 0.  0.
        1    1    3    3  502    0  0.32943638063E+02  0.18819959263E+03  0.77647088468E+02  0.20623637004E+03  0.50400001928E-02 0. -1.
       -1    1    3    3    0  502 -0.32943638063E+02 -0.18819959263E+03 -0.16551895544E+04  0.16661803117E+04  0.50400001928E-02 0.  1.
</event>
<event>
 5   0  0.4140860E-03  0.9867669E+03  0.7818609E-02  0.9323179E-01
        2   -1    0    0  501    0  0.00000000000E+00  0.00000000000E+00  0.27850631521E+04  0.27850631521E+04  0.25500000920E-02 0.  1.
       -2   -1    0    0    0  501  0.00000000000E+00  0.00000000000E+00 -0.87404557453E+02  0.87404557490E+02  0.25500000920E-02 0. -1.
    10030    2    1    2    0    0  0.00000000000E+00  0.00000000000E+00  0.26976585946E+04  0.28724677096E+04  0.98676686677E+03 0.  0.
        3    1    3    3  502    0 -0.28108691342E+03  0.92160232854E+02  0.19936136811E+03  0.35671883425E+03  0.10100000352E+00 0. -1.
       -3    1    3    3    0  502  0.28108691342E+03 -0.92160232854E+02  0.24982972265E+04  0.25157488753E+04  0.10100000352E+00 0.  1.
</event>
<event>
 5   0  0.3895011E-03  0.1008022E+04  0.7818609E-02  0.9299790E-01
        2   -1    0    0  501    0  0.00000000000E+00  0.00000000000E+00  0.17583335619E+04  0.17583335619E+04  0.25500000920E-02 0. -1.
       -2   -1    0    0    0  501  0.00000000000E+00  0.00000000000E+00 -0.14447030727E+03  0.14447030730E+03  0.25500000920E-02 0.  1.
    10030    2    1    2    0    0  0.00000000000E+00  0.00000000000E+00  0.16138632546E+04  0.19028038692E+04  0.10080218053E+04 0.  0.
        2    1    3    3  502    0 -0.29248508254E+03  0.28545599285E+03  0.25016960397E+03  0.47918417974E+03  0.25500000920E-02 0.  1.
       -2    1    3    3    0  502  0.29248508254E+03 -0.28545599285E+03  0.13636936506E+04  0.14236196894E+04  0.25500000920E-02 0. -1.
</event>
<event>
 5   0  0.4026829E-03  0.9931440E+03  0.7818609E-02  0.9316096E-01
        2   -1    0    0  501    0  0.00000000000E+00  0.00000000000E+00  0.55347996709E+03  0.55347996709E+03  0.25500000920E-02 0.  1.
       -2   -1    0    0    0  501  0.00000000000E+00  0.00000000000E+00 -0.44551525197E+03  0.44551525198E+03  0.25500000920E-02 0. -1.
    10030    2    1    2    0    0  0.00000000000E+00  0.00000000000E+00  0.10796471512E+03  0.99899521907E+03  0.99314403186E+03 0.  0.
        1    1    3    3  502    0 -0.35862846858E+03  0.13455954484E+03 -0.26389070948E+03  0.46514401657E+03  0.50400001928E-02 0. -1.
       -1    1    3    3    0  502  0.35862846858E+03 -0.13455954484E+03  0.37185542459E+03  0.53385120249E+03  0.50400001928E-02 0.  1.
</event>
<event>
 5   0  0.2327595E-03  0.9987871E+03  0.7818609E-02  0.9309876E-01
       -1   -1    0    0    0  501  0.00000000000E+00  0.00000000000E+00  0.39887846010E+03  0.39887846013E+03  0.50400001928E-02 0. -1.
        1   -1    0    0  501    0  0.00000000000E+00  0.00000000000E+00 -0.62523782871E+03  0.62523782873E+03  0.50400001928E-02 0.  1.
    10030    2    1    2    0    0  0.00000000000E+00  0.00000000000E+00 -0.22635936861E+03  0.10241162889E+04  0.99878706908E+03 0.  0.
        5    1    3    3  502    0  0.16661531461E+02 -0.25762606966E+03  0.32512184681E+03  0.41518080841E+03  0.46999998093E+01 0. -1.
       -5    1    3    3    0  502 -0.16661531461E+02  0.25762606966E+03 -0.55148121542E+03  0.60893548045E+03  0.46999998093E+01 0.  1.
</event>
<event>
 5   0  0.2327595E-03  0.1004901E+04  0.7818609E-02  0.9303186E-01
       -1   -1    0    0    0  501  0.00000000000E+00  0.00000000000E+00  0.21856249903E+03  0.21856249909E+03  0.50400001928E-02 0. -1.
        1   -1    0    0  501    0  0.00000000000E+00  0.00000000000E+00 -0.11550763299E+04  0.11550763299E+04  0.50400001928E-02 0.  1.
    10030    2    1    2    0    0  0.00000000000E+00  0.00000000000E+00 -0.93651383085E+03  0.13736388290E+04  0.10049007300E+04 0.  0.
        5    1    3    3  502    0  0.99168413235E+02  0.28574405399E+03 -0.10166540946E+04  0.10607033876E+04  0.46999998093E+01 0.  1.
       -5    1    3    3    0  502 -0.99168413235E+02 -0.28574405399E+03  0.80140263714E+02  0.31293544133E+03  0.46999998093E+01 0. -1.
</event>
<event>
 5   0  0.3895011E-03  0.1004812E+04  0.7818609E-02  0.9303282E-01
        2   -1    0    0  501    0  0.00000000000E+00  0.00000000000E+00  0.29045891819E+03  0.29045891820E+03  0.25500000920E-02 0. -1.
       -2   -1    0    0    0  501  0.00000000000E+00  0.00000000000E+00 -0.86901075740E+03  0.86901075741E+03  0.25500000920E-02 0.  1.
    10030    2    1    2    0    0  0.00000000000E+00  0.00000000000E+00 -0.57855183921E+03  0.11594696756E+04  0.10048122700E+04 0.  0.
        2    1    3    3  502    0 -0.21507248668E+03  0.63702989485E+02 -0.80802235812E+03  0.83857878379E+03  0.25500000920E-02 0.  1.
       -2    1    3    3    0  502  0.21507248668E+03 -0.63702989485E+02  0.22947051891E+03  0.32089089182E+03  0.25500000920E-02 0. -1.
</event>
<event>
 5   0  0.2313036E-03  0.9995664E+03  0.7818609E-02  0.9309021E-01
        1   -1    0    0  501    0  0.00000000000E+00  0.00000000000E+00  0.18399866531E+03  0.18399866537E+03  0.50400001928E-02 0. -1.
       -1   -1    0    0    0  501  0.00000000000E+00  0.00000000000E+00 -0.13575273697E+04  0.13575273697E+04  0.50400001928E-02 0.  1.
    10030    2    1    2    0    0  0.00000000000E+00  0.00000000000E+00 -0.11735287044E+04  0.15415260351E+04  0.99956635438E+03 0.  0.
        3    1    3    3  502    0 -0.13023727483E+03  0.70665035877E+02  0.14934562867E+03  0.21037923389E+03  0.10100000352E+00 0. -1.
       -3    1    3    3    0  502  0.13023727483E+03 -0.70665035877E+02 -0.13228743331E+04  0.13311468012E+04  0.10100000352E+00 0.  1.
</event>
<event>
 5   0  0.2327595E-03  0.1003587E+04  0.7818609E-02  0.9304620E-01
       -1   -1    0    0    0  501  0.00000000000E+00  0.00000000000E+00  0.37622895891E+03  0.37622895894E+03  0.50400001928E-02 0.  1.
        1   -1    0    0  501    0  0.00000000000E+00  0.00000000000E+00 -0.66926394274E+03  0.66926394276E+03  0.50400001928E-02 0. -1.
    10030    2    1    2    0    0  0.00000000000E+00  0.00000000000E+00 -0.29303498383E+03  0.10454929017E+04  0.10035865213E+04 0.  0.
        5    1    3    3  502    0 -0.23984762792E+03  0.10039116660E+03  0.30055162454E+03  0.39744010865E+03  0.46999998093E+01 0.  1.
       -5    1    3    3    0  502  0.23984762792E+03 -0.10039116660E+03 -0.59358660837E+03  0.64805279305E+03  0.46999998093E+01 0. -1.
</event>
<event>
 5   0  0.3873874E-03  0.1091506E+04  0.7818609E-02  0.9213510E-01
        2   -1    0    0  501    0  0.00000000000E+00  0.00000000000E+00  0.14287394520E+04  0.14287394520E+04  0.25500000920E-02 0.  1.
       -2   -1    0    0    0  501  0.00000000000E+00  0.00000000000E+00 -0.20846801349E+03  0.20846801351E+03  0.25500000920E-02 0. -1.
    10030    2    1    2    0    0  0.00000000000E+00  0.00000000000E+00  0.12202714385E+04  0.16372074655E+04  0.10915062535E+04 0.  0.
        5    1    3    3  502    0  0.88809551302E+02 -0.51157337699E+03  0.35811724355E+03  0.63076501693E+03  0.46999998093E+01 0. -1.
       -5    1    3    3    0  502 -0.88809551302E+02  0.51157337699E+03  0.86215419498E+03  0.10064424486E+04  0.46999998093E+01 0.  1.
</event>
<event>
 5   0  0.4140860E-03  0.1006861E+04  0.7818609E-02  0.9301051E-01
       -2   -1    0    0    0  501  0.00000000000E+00  0.00000000000E+00  0.54497473424E+03  0.54497473424E+03  0.25500000920E-02 0.  1.
        2   -1    0    0  501    0  0.00000000000E+00  0.00000000000E+00 -0.46505364549E+03  0.46505364550E+03  0.25500000920E-02 0. -1.
    10030    2    1    2    0    0  0.00000000000E+00  0.00000000000E+00  0.79921088746E+02  0.10100283797E+04  0.10068614341E+04 0.  0.
        3    1    3    3  502    0  0.46554477842E+03 -0.18976622338E+03  0.13432775238E+02  0.50291511203E+03  0.10100000352E+00 0.  1.
       -3    1    3    3    0  502 -0.46554477842E+03  0.18976622338E+03  0.66488313508E+02  0.50711326771E+03  0.10100000352E+00 0. -1.
</event>
<event>
 5   0  0.2327595E-03  0.1001612E+04  0.7818609E-02  0.9306779E-01
       -1   -1    0    0    0  501  0.00000000000E+00  0.00000000000E+00  0.52845993978E+03  0.52845993980E+03  0.50400001928E-02 0.  1.
        1   -1    0    0  501    0  0.00000000000E+00  0.00000000000E+00 -0.47459921289E+03  0.47459921291E+03  0.50400001928E-02 0. -1.
    10030    2    1    2    0    0  0.00000000000E+00  0.00000000000E+00  0.53860726889E+02  0.10030591527E+04  0.10016120436E+04 0.  0.
        5    1    3    3  502    0 -0.39555877791E+03  0.29665602890E+03  0.10649976893E+03  0.50580217185E+03  0.46999998093E+01 0.  1.
       -5    1    3    3    0  502  0.39555877791E+03 -0.29665602890E+03 -0.52639042043E+02  0.49725698086E+03  0.46999998093E+01 0. -1.
</event>
<event>
 5   0  0.3895011E-03  0.9516653E+03  0.7818609E-02  0.9363206E-01
       -2   -1    0    0    0  501  0.00000000000E+00  0.00000000000E+00  0.26211553494E+03  0.26211553495E+03  0.25500000920E-02 0.  1.
        2   -1    0    0  501    0  0.00000000000E+00  0.00000000000E+00 -0.86380500332E+03  0.86380500333E+03  0.25500000920E-02 0. -1.
    10030    2    1    2    0    0  0.00000000000E+00  0.00000000000E+00 -0.60168946838E+03  0.11259205383E+04  0.95166529944E+03 0.  0.
        2    1    3    3  502    0 -0.17936818902E+03  0.25649568339E+03  0.12318553866E+03  0.33635942052E+03  0.25500000920E-02 0.  1.
       -2    1    3    3    0  502  0.17936818902E+03 -0.25649568339E+03 -0.72487500705E+03  0.78956111776E+03  0.25500000920E-02 0. -1.
</event>
<event>
 5   0  0.2378609E-03  0.1002754E+04  0.7818609E-02  0.9305529E-01
       -1   -1    0    0    0  501  0.00000000000E+00  0.00000000000E+00  0.53317821973E+03  0.53317821976E+03  0.50400001928E-02 0.  1.
        1   -1    0    0  501    0  0.00000000000E+00  0.00000000000E+00 -0.47147260832E+03  0.47147260835E+03  0.50400001928E-02 0. -1.
    10030    2    1    2    0    0  0.00000000000E+00  0.00000000000E+00  0.61705611413E+02  0.10046508281E+04  0.10027540595E+04 0.  0.
        1    1    3    3  502    0  0.37881788289E+03  0.26356756156E+03  0.22720330299E+03  0.51438525330E+03  0.50400001928E-02 0.  1.
       -1    1    3    3    0  502 -0.37881788289E+03 -0.26356756156E+03 -0.16549769157E+03  0.49026557481E+03  0.50400001928E-02 0. -1.
</event>
<event>
 5   0  0.1548000E-03  0.9915071E+03  0.7818609E-02  0.9317909E-01
        3   -1    0    0  501    0  0.00000000000E+00  0.00000000000E+00  0.71327071709E+03  0.71327072424E+03  0.10100000352E+00 0.  1.
       -3   -1    0    0    0  501  0.00000000000E+00  0.00000000000E+00 -0.34456983557E+03  0.34456985037E+03  0.10100000352E+00 0. -1.
    10030    2    1    2    0    0  0.00000000000E+00  0.00000000000E+00  0.36870088152E+03  0.10578405746E+04  0.99150710600E+03 0.  0.
        4    1    3    3  502    0 -0.47971342876E+03  0.73424777474E+02  0.76314856147E+02  0.49126544948E+03  0.12699999809E+01 0. -1.
       -4    1    3    3    0  502  0.47971342876E+03 -0.73424777474E+02  0.29238602537E+03  0.56657512513E+03  0.12699999809E+01 0.  1.
</event>
<event>
 5   0  0.4026829E-03  0.1034301E+04  0.7818609E-02  0.9271704E-01
       -2   -1    0    0    0  501  0.00000000000E+00  0.00000000000E+00  0.75833342888E+03  0.75833342888E+03  0.25500000920E-02 0. -1.
        2   -1    0    0  501    0  0.00000000000E+00  0.00000000000E+00 -0.35267408772E+03  0.35267408773E+03  0.25500000920E-02 0.  1.
    10030    2    1    2    0    0  0.00000000000E+00  0.00000000000E+00  0.40565934116E+03  0.11110075166E+04  0.10343008271E+04 0.  0.
        1    1    3    3  502    0 -0.63617136625E+02 -0.51232088828E+03  0.23549407006E+03  0.56743042719E+03  0.50400001928E-02 0. -1.
       -1    1    3    3    0  502  0.63617136625E+02  0.51232088828E+03  0.17016527109E+03  0.54357708943E+03  0.50400001928E-02 0.  1.
</event>
<event>
 5   0  0.2350769E-03  0.9646324E+03  0.7818609E-02  0.9348209E-01
        1   -1    0    0  501    0  0.00000000000E+00  0.00000000000E+00  0.61059889239E+03  0.61059889241E+03  0.50400001928E-02 0.  1.
       -1   -1    0    0    0  501  0.00000000000E+00  0.00000000000E+00 -0.38098484641E+03  0.38098484645E+03  0.50400001928E-02 0. -1.
    10030    2    1    2    0    0  0.00000000000E+00  0.00000000000E+00  0.22961404598E+03  0.99158373886E+03  0.96463241759E+03 0.  0.
        2    1    3    3  502    0 -0.55809282094E+02  0.45598030866E+01  0.60724631447E+03  0.60982255961E+03  0.25500000920E-02 0.  1.
       -2    1    3    3    0  502  0.55809282094E+02 -0.45598030866E+01 -0.37763226849E+03  0.38176117925E+03  0.25500000920E-02 0. -1.
</event>
<event>
 5   0  0.2313036E-03  0.9799219E+03  0.7818609E-02  0.9330844E-01
        1   -1    0    0  501    0  0.00000000000E+00  0.00000000000E+00  0.85909504092E+03  0.85909504093E+03  0.50400001928E-02 0. -1.
       -1   -1    0    0    0  501  0.00000000000E+00  0.00000000000E+00 -0.27943558928E+03  0.27943558933E+03  0.50400001928E-02 0.  1.
    10030    2    1    2    0    0  0.00000000000E+00  0.00000000000E+00  0.57965945163E+03  0.11385306303E+04  0.97992189289E+03 0.  0.
        3    1    3    3  502    0  0.40790187408E+03 -0.10520064170E+03 -0.89181286039E+00  0.42125042365E+03  0.10100000352E+00 0. -1.
       -3    1    3    3    0  502 -0.40790187408E+03  0.10520064170E+03  0.58055126449E+03  0.71728020661E+03  0.10100000352E+00 0.  1.
</event>
<event>
 5   0  0.2327595E-03  0.9978439E+03  0.7818609E-02  0.9310913E-01
       -1   -1    0    0    0  501  0.00000000000E+00  0.00000000000E+00  0.15962689926E+03  0.15962689934E+03  0.50400001928E-02 0.  1.
        1   -1    0    0  501    0  0.00000000000E+00  0.00000000000E+00 -0.15594058827E+04  0.15594058827E+04  0.50400001928E-02 0. -1.
    10030    2    1    2    0    0  0.00000000000E+00  0.00000000000E+00 -0.13997789835E+04  0.17190327821E+04  0.99784392731E+03 0.  0.
        5    1    3    3  502    0 -0.12461571284E+03 -0.46674760390E+03 -0.48528031523E+03  0.68476381036E+03  0.46999998093E+01 0.  1.
       -5    1    3    3    0  502  0.12461571284E+03  0.46674760390E+03 -0.91449866823E+03  0.10342689717E+04  0.46999998093E+01 0. -1.
</event>
<event>
 5   0  0.2350769E-03  0.9975072E+03  0.7818609E-02  0.9311283E-01
       -1   -1    0    0    0  501  0.00000000000E+00  0.00000000000E+00  0.12751671960E+03  0.12751671970E+03  0.50400001928E-02 0. -1.
        1   -1    0    0  501    0  0.00000000000E+00  0.00000000000E+00 -0.19507649495E+04  0.19507649495E+04  0.50400001928E-02 0.  1.
    10030    2    1    2    0    0  0.00000000000E+00  0.00000000000E+00 -0.18232482299E+04  0.20782816692E+04  0.99750718728E+03 0.  0.
        2    1    3    3  502    0  0.24859007093E+03  0.69838258420E+02 -0.22586000756E+02  0.25919979386E+03  0.25500000920E-02 0. -1.
       -2    1    3    3    0  502 -0.24859007093E+03 -0.69838258420E+02 -0.18006622291E+04  0.18190818753E+04  0.25500000920E-02 0.  1.
</event>
<event>
 5   0  0.3826483E-03  0.1014318E+04  0.7818609E-02  0.9292979E-01
        2   -1    0    0  501    0  0.00000000000E+00  0.00000000000E+00  0.69013952513E+03  0.69013952513E+03  0.25500000920E-02 0. -1.
       -2   -1    0    0    0  501  0.00000000000E+00  0.00000000000E+00 -0.37269287281E+03  0.37269287281E+03  0.25500000920E-02 0.  1.
    10030    2    1    2    0    0  0.00000000000E+00  0.00000000000E+00  0.31744665232E+03  0.10628323979E+04  0.10143176667E+04 0.  0.
        4    1    3    3  502    0 -0.43985203542E+02 -0.20038880512E+03  0.64471549283E+03  0.67657228065E+03  0.12699999809E+01 0. -1.
       -4    1    3    3    0  502  0.43985203542E+02  0.20038880512E+03 -0.32726884050E+03  0.38626011730E+03  0.12699999809E+01 0.  1.
</event>
<event>
 5   0  0.2405022E-03  0.9676372E+03  0.7818609E-02  0.9344770E-01
       -1   -1    0    0    0  501  0.00000000000E+00  0.00000000000E+00  0.79051227198E+03  0.79051227199E+03  0.50400001928E-02 0.  1.
        1   -1    0    0  501    0  0.00000000000E+00  0.00000000000E+00 -0.29611231170E+03  0.29611231174E+03  0.50400001928E-02 0. -1.
    10030    2    1    2    0    0  0.00000000000E+00  0.00000000000E+00  0.49439996028E+03  0.10866245837E+04  0.96763715578E+03 0.  0.
        4    1    3    3  502    0 -0.39719207780E+03 -0.17438366116E+03  0.48780753686E+03  0.65278558031E+03  0.12699999809E+01 0.  1.
       -4    1    3    3    0  502  0.39719207780E+03  0.17438366116E+03  0.65924234218E+01  0.43383900342E+03  0.12699999809E+01 0. -1.
</event>
<event>
 5   0  0.2313036E-03  0.1006078E+04  0.7818609E-02  0.9301903E-01
        1   -1    0    0  501    0  0.00000000000E+00  0.00000000000E+00  0.67040683018E+03  0.67040683020E+03  0.50400001928E-02 0.  1.
       -1   -1    0    0    0  501  0.00000000000E+00  0.00000000000E+00 -0.37745484943E+03  0.37745484947E+03  0.50400001928E-02 0. -1.
    10030    2    1    2    0    0  0.00000000000E+00  0.00000000000E+00  0.29295198075E+03  0.10478616797E+04  0.10060781464E+04 0.  0.
        3    1    3    3  502    0  0.45207198316E+03  0.14959437509E+02  0.37574401910E+03  0.58802758508E+03  0.10100000352E+00 0.  1.
       -3    1    3    3    0  502 -0.45207198316E+03 -0.14959437509E+02 -0.82792038349E+02  0.45983409459E+03  0.10100000352E+00 0. -1.
</event>
<event>
 5   0  0.1548000E-03  0.9925685E+03  0.7818609E-02  0.9316733E-01
       -4   -1    0    0    0  501  0.00000000000E+00  0.00000000000E+00  0.23702090869E+03  0.23702431111E+03  0.12699999809E+01 0. -1.
        4   -1    0    0  501    0  0.00000000000E+00  0.00000000000E+00 -0.10391293066E+04  0.10391300827E+04  0.12699999809E+01 0.  1.
    10030    2    1    2    0    0  0.00000000000E+00  0.00000000000E+00 -0.80210839791E+03  0.12761543938E+04  0.99256846354E+03 0.  0.
        4    1    3    3  502    0  0.85402740068E+02  0.23489348921E+03  0.15019554084E+03  0.29159714105E+03  0.12699999809E+01 0. -1.
       -4    1    3    3    0  502 -0.85402740068E+02 -0.23489348921E+03 -0.95230393875E+03  0.98455725275E+03  0.12699999809E+01 0.  1.
</event>
<event>
 5   0  0.4026829E-03  0.1003761E+04  0.7818609E-02  0.9304429E-01
       -2   -1    0    0    0  501  0.00000000000E+00  0.00000000000E+00  0.35362582426E+03  0.35362582427E+03  0.25500000920E-02 0. -1.
        2   -1    0    0  501    0  0.00000000000E+00  0.00000000000E+00 -0.71228980320E+03  0.71228980321E+03  0.25500000920E-02 0.  1.
    10030    2    1    2    0    0  0.00000000000E+00  0.00000000000E+00 -0.35866397894E+03  0.10659156275E+04  0.10037610648E+04 0.  0.
        1    1    3    3  502    0 -0.36209650171E+02 -0.23350152830E+03 -0.64952467604E+03  0.69117031714E+03  0.50400001928E-02 0.  1.
       -1    1    3    3    0  502  0.36209650171E+02  0.23350152830E+03  0.29086069710E+03  0.37474531034E+03  0.50400001928E-02 0. -1.
</event>
<event>
 5   0  0.4140860E-03  0.9992643E+03  0.7818609E-02  0.9309352E-01
        2   -1    0    0  501    0  0.00000000000E+00  0.00000000000E+00  0.96218134829E+03  0.96218134830E+03  0.25500000920E-02 0. -1.
       -2   -1    0    0    0  501  0.00000000000E+00  0.00000000000E+00 -0.25944413190E+03  0.25944413191E+03  0.25500000920E-02 0.  1.
    10030    2    1    2    0    0  0.00000000000E+00  0.00000000000E+00  0.70273721639E+03  0.12216254802E+04  0.99926433870E+03 0.  0.
        3    1    3    3  502    0 -0.22084646580E+03 -0.18552320097E+03  0.85012319868E+03  0.89772015834E+03  0.10100000352E+00 0. -1.
       -3    1    3    3    0  502  0.22084646580E+03  0.18552320097E+03 -0.14738598229E+03  0.32390532187E+03  0.10100000352E+00 0.  1.
</event>
<event>
 5   0  0.4140860E-03  0.1002545E+04  0.7818609E-02  0.9305758E-01
       -2   -1    0    0    0  501  0.00000000000E+00  0.00000000000E+00  0.26366393098E+03  0.26366393099E+03  0.25500000920E-02 0. -1.
        2   -1    0    0  501    0  0.00000000000E+00  0.00000000000E+00 -0.95300930996E+03  0.95300930996E+03  0.25500000920E-02 0.  1.
    10030    2    1    2    0    0  0.00000000000E+00  0.00000000000E+00 -0.68934537898E+03  0.12166732410E+04  0.10025451230E+04 0.  0.
        3    1    3    3  502    0  0.24339806303E+03  0.15264303491E+03  0.15383092799E+03  0.32589335342E+03  0.10100000352E+00 0. -1.
       -3    1    3    3    0  502 -0.24339806303E+03 -0.15264303491E+03 -0.84317630698E+03  0.89077988754E+03  0.10100000352E+00 0.  1.
</event>
<event>
 5   0  0.2405022E-03  0.9951643E+03  0.7818609E-02  0.9313864E-01
        1   -1    0    0  501    0  0.00000000000E+00  0.00000000000E+00  0.53566727364E+03  0.53566727366E+03  0.50400001928E-02 0. -1.
       -1   -1    0    0    0  501  0.00000000000E+00  0.00000000000E+00 -0.46220481389E+03  0.46220481392E+03  0.50400001928E-02 0.  1.
    10030    2    1    2    0    0  0.00000000000E+00  0.00000000000E+00  0.73462459748E+02  0.99787208758E+03  0.99516429306E+03 0.  0.
        4    1    3    3  502    0 -0.26548862796E+03  0.39095797655E+03 -0.11942957286E+03  0.48743962373E+03  0.12699999809E+01 0. -1.
       -4    1    3    3    0  502  0.26548862796E+03 -0.39095797655E+03  0.19289203261E+03  0.51043246385E+03  0.12699999809E+01 0.  1.
</event>
<event>
 5   0  0.4026829E-03  0.1002143E+04  0.7818609E-02  0.9306197E-01
        2   -1    0    0  501    0  0.00000000000E+00  0.00000000000E+00  0.19846855198E+04  0.19846855198E+04  0.25500000920E-02 0. -1.
       -2   -1    0    0    0  501  0.00000000000E+00  0.00000000000E+00 -0.12650506069E+03  0.12650506071E+03  0.25500000920E-02 0.  1.
    10030    2    1    2    0    0  0.00000000000E+00  0.00000000000E+00  0.18581804591E+04  0.21111905805E+04  0.10021432276E+04 0.  0.
        1    1    3    3  502    0  0.37313763277E+03 -0.19570040457E+03  0.35778709836E+03  0.55275849077E+03  0.50400001928E-02 0.  1.
       -1    1    3    3    0  502 -0.37313763277E+03  0.19570040457E+03  0.15003933607E+04  0.15584320897E+04  0.50400001928E-02 0. -1.
</event>
<event>
 5   0  0.2350769E-03  0.1002391E+04  0.7818609E-02  0.9305926E-01
       -1   -1    0    0    0  501  0.00000000000E+00  0.00000000000E+00  0.10412072509E+04  0.10412072509E+04  0.50400001928E-02 0.  1.
        1   -1    0    0  501    0  0.00000000000E+00  0.00000000000E+00 -0.24125555964E+03  0.24125555969E+03  0.50400001928E-02 0. -1.
    10030    2    1    2    0    0  0.00000000000E+00  0.00000000000E+00  0.79995169126E+03  0.12824628106E+04  0.10023912171E+04 0.  0.
        2    1    3    3  502    0  0.46496903736E+03  0.13700146019E+03  0.56297522434E+03  0.74290423947E+03  0.25500000920E-02 0.  1.
       -2    1    3    3    0  502 -0.46496903736E+03 -0.13700146019E+03  0.23697646692E+03  0.53955857113E+03  0.25500000920E-02 0. -1.
</event>
<event>
 5   0  0.2378609E-03  0.1019477E+04  0.7818609E-02  0.9287437E-01
        1   -1    0    0  501    0  0.00000000000E+00  0.00000000000E+00  0.23019398681E+04  0.23019398681E+04  0.50400001928E-02 0.  1.
       -1   -1    0    0    0  501  0.00000000000E+00  0.00000000000E+00 -0.11287588263E+03  0.11287588274E+03  0.50400001928E-02 0. -1.
    10030    2    1    2    0    0  0.00000000000E+00  0.00000000000E+00  0.21890639855E+04  0.24148157508E+04  0.10194773063E+04 0.  0.
        1    1    3    3  502    0  0.49049823655E+03  0.88140973055E+01  0.14224662220E+04  0.15046848046E+04  0.50400001928E-02 0.  1.
       -1    1    3    3    0  502 -0.49049823655E+03 -0.88140973055E+01  0.76659776348E+03  0.91013094628E+03  0.50400001928E-02 0. -1.
</event>
<event>
 5   0  0.2327595E-03  0.1006835E+04  0.7818609E-02  0.9301080E-01
       -1   -1    0    0    0  501  0.00000000000E+00  0.00000000000E+00  0.23393666257E+03  0.23393666263E+03  0.50400001928E-02 0. -1.
        1   -1    0    0  501    0  0.00000000000E+00  0.00000000000E+00 -0.10833247023E+04  0.10833247023E+04  0.50400001928E-02 0.  1.
    10030    2    1    2    0    0  0.00000000000E+00  0.00000000000E+00 -0.84938803975E+03  0.13172613650E+04  0.10068353696E+04 0.  0.
        5    1    3    3  502    0  0.23648412873E+03  0.39632233821E+03 -0.68769903059E+03  0.82821988963E+03  0.46999998093E+01 0.  1.
       -5    1    3    3    0  502 -0.23648412873E+03 -0.39632233821E+03 -0.16168900916E+03  0.48904147533E+03  0.46999998093E+01 0. -1.
</event>
<event>
 5   0  0.3895011E-03  0.9335564E+03  0.7818609E-02  0.9384580E-01
        2   -1    0    0  501    0  0.00000000000E+00  0.00000000000E+00  0.14050311550E+04  0.14050311550E+04  0.25500000920E-02 0.  1.
       -2   -1    0    0    0  501  0.00000000000E+00  0.00000000000E+00 -0.15507264274E+03  0.15507264276E+03  0.25500000920E-02 0. -1.
    10030    2    1    2    0    0  0.00000000000E+00  0.00000000000E+00  0.12499585123E+04  0.15601037978E+04  0.93355641363E+03 0.  0.
        2    1    3    3  502    0 -0.36484301079E+03 -0.29033104566E+03  0.58839098426E+03  0.75073729691E+03  0.25500000920E-02 0. -1.
       -2    1    3    3    0  502  0.36484301079E+03  0.29033104566E+03  0.66156752804E+03  0.80936650089E+03  0.25500000920E-02 0.  1.
</event>
<event>
 5   0  0.4026829E-03  0.9991672E+03  0.7818609E-02  0.9309459E-01
       -2   -1    0    0    0  501  0.00000000000E+00  0.00000000000E+00  0.54120538503E+03  0.54120538504E+03  0.25500000920E-02 0.  1.
        2   -1    0    0  501    0  0.00000000000E+00  0.00000000000E+00 -0.46116272324E+03  0.46116272325E+03  0.25500000920E-02 0. -1.
    10030    2    1    2    0    0  0.00000000000E+00  0.00000000000E+00  0.80042661791E+02  0.10023681083E+04  0.99916715159E+03 0.  0.
        1    1    3    3  502    0 -0.13018802334E+03  0.35223166614E+03  0.37057301463E+03  0.52757978283E+03  0.50400001928E-02 0.  1.
       -1    1    3    3    0  502  0.13018802334E+03 -0.35223166614E+03 -0.29053035284E+03  0.47478832546E+03  0.50400001928E-02 0. -1.
</event>
<event>
 5   0  0.3873874E-03  0.9998572E+03  0.7818609E-02  0.9308701E-01
       -2   -1    0    0    0  501  0.00000000000E+00  0.00000000000E+00  0.39562139238E+03  0.39562139238E+03  0.25500000920E-02 0. -1.
        2   -1    0    0  501    0  0.00000000000E+00  0.00000000000E+00 -0.63173684662E+03  0.63173684663E+03  0.25500000920E-02 0.  1.
    10030    2    1    2    0    0  0.00000000000E+00  0.00000000000E+00 -0.23611545425E+03  0.10273582390E+04  0.99985721157E+03 0.  0.
        5    1    3    3  502    0  0.33369011652E+03 -0.20371258716E+02 -0.49995581535E+03  0.60144990593E+03  0.46999998093E+01 0.  1.
       -5    1    3    3    0  502 -0.33369011652E+03  0.20371258716E+02  0.26384036111E+03  0.42590833308E+03  0.46999998093E+01 0. -1.
</event>
<event>
 5   0  0.1548000E-03  0.9862560E+03  0.7818609E-02  0.9323749E-01
        3   -1    0    0  501    0  0.00000000000E+00  0.00000000000E+00  0.63530729966E+03  0.63530730769E+03  0.10100000352E+00 0.  1.
       -3   -1    0    0    0  501  0.00000000000E+00  0.00000000000E+00 -0.38276782474E+03  0.38276783806E+03  0.10100000352E+00 0. -1.
    10030    2    1    2    0    0  0.00000000000E+00  0.00000000000E+00  0.25253947492E+03  0.10180751457E+04  0.98625595866E+03 0.  0.
        2    1    3    3  502    0  0.24427972963E+03  0.34424241984E+03 -0.13690616363E+03  0.44375525639E+03  0.25500000920E-02 0. -1.
       -2    1    3    3    0  502 -0.24427972963E+03 -0.34424241984E+03  0.38944563855E+03  0.57431988936E+03  0.25500000920E-02 0.  1.
</event>
<event>
 5   0  0.1548000E-03  0.9893884E+03  0.7818609E-02  0.9320261E-01
       -4   -1    0    0    0  501  0.00000000000E+00  0.00000000000E+00  0.73552032735E+03  0.73552142378E+03  0.12699999809E+01 0.  1.
        4   -1    0    0  501    0  0.00000000000E+00  0.00000000000E+00 -0.33271751427E+03  0.33271993809E+03  0.12699999809E+01 0. -1.
    10030    2    1    2    0    0  0.00000000000E+00  0.00000000000E+00  0.40280281308E+03  0.10682413619E+04  0.98938844797E+03 0.  0.
        2    1    3    3  502    0  0.97096369518E+02 -0.30698816174E+03 -0.20410117549E+03  0.38121742650E+03  0.25500000920E-02 0. -1.
       -2    1    3    3    0  502 -0.97096369518E+02  0.30698816174E+03  0.60690398857E+03  0.68702393537E+03  0.25500000920E-02 0.  1.
</event>
<event>
 5   0  0.3826483E-03  0.9893022E+03  0.7818609E-02  0.9320356E-01
        2   -1    0    0  501    0  0.00000000000E+00  0.00000000000E+00  0.13582710989E+04  0.13582710989E+04  0.25500000920E-02 0.  1.
       -2   -1    0    0    0  501  0.00000000000E+00  0.00000000000E+00 -0.18014055032E+03  0.18014055034E+03  0.25500000920E-02 0. -1.
    10030    2    1    2    0    0  0.00000000000E+00  0.00000000000E+00  0.11781305486E+04  0.15384116493E+04  0.98930218488E+03 0.  0.
        4    1    3    3  502    0 -0.41973192928E+03  0.84846498413E+02  0.20404025361E+03  0.47434993279E+03  0.12699999809E+01 0. -1.
       -4    1    3    3    0  502  0.41973192928E+03 -0.84846498413E+02  0.97409029498E+03  0.10640617165E+04  0.12699999809E+01 0.  1.
</event>
<event>
 5   0  0.4026829E-03  0.9943806E+03  0.7818609E-02  0.9314730E-01
       -2   -1    0    0    0  501  0.00000000000E+00  0.00000000000E+00  0.30363268627E+03  0.30363268628E+03  0.25500000920E-02 0.  1.
        2   -1    0    0  501    0  0.00000000000E+00  0.00000000000E+00 -0.81413568433E+03  0.81413568433E+03  0.25500000920E-02 0. -1.
    10030    2    1    2    0    0  0.00000000000E+00  0.00000000000E+00 -0.51050299806E+03  0.11177683706E+04  0.99438062095E+03 0.  0.
        1    1    3    3  502    0 -0.32043781567E+02  0.23762722290E+03 -0.74484789712E+03  0.78249082478E+03  0.50400001928E-02 0. -1.
       -1    1    3    3    0  502  0.32043781567E+02 -0.23762722290E+03  0.23434489906E+03  0.33527754584E+03  0.50400001928E-02 0.  1.
</event>
<event>
 5   0  0.2405022E-03  0.9991435E+03  0.7818609E-02  0.9309485E-01
        1   -1    0    0  501    0  0.00000000000E+00  0.00000000000E+00  0.51580463422E+03  0.51580463424E+03  0.50400001928E-02 0.  1.
       -1   -1    0    0    0  501  0.00000000000E+00  0.00000000000E+00 -0.48384968365E+03  0.48384968368E+03  0.50400001928E-02 0. -1.
    10030    2    1    2    0    0  0.00000000000E+00  0.00000000000E+00  0.31954950568E+02  0.99965431792E+03  0.99914345140E+03 0.  0.
        4    1    3    3  502    0 -0.26066527434E+03 -0.84813075468E+02 -0.40188502979E+03  0.48646976585E+03  0.12699999809E+01 0. -1.
       -4    1    3    3    0  502  0.26066527434E+03  0.84813075468E+02  0.43383998036E+03  0.51318455207E+03  0.12699999809E+01 0.  1.
</event>
<event>
 5   0  0.2327595E-03  0.1002240E+04  0.7818609E-02  0.9306091E-01
        1   -1    0    0  501    0  0.00000000000E+00  0.00000000000E+00  0.10977124213E+04  0.10977124214E+04  0.50400001928E-02 0. -1.
       -1   -1    0    0    0  501  0.00000000000E+00  0.00000000000E+00 -0.22876781179E+03  0.22876781184E+03  0.50400001928E-02 0.  1.
    10030    2    1    2    0    0  0.00000000000E+00  0.00000000000E+00  0.86894460955E+03  0.13264802332E+04  0.10022400284E+04 0.  0.
        5    1    3    3  502    0  0.12531460344E+03  0.47305237666E+03  0.57712295256E+03  0.75668705108E+03  0.46999998093E+01 0.  1.
       -5    1    3    3    0  502 -0.12531460344E+03 -0.47305237666E+03  0.29182165699E+03  0.56979318212E+03  0.46999998093E+01 0. -1.
</event>
<event>
 5   0  0.3873874E-03  0.9987571E+03  0.7818609E-02  0.9309909E-01
       -2   -1    0    0    0  501  0.00000000000E+00  0.00000000000E+00  0.40909116153E+03  0.40909116154E+03  0.25500000920E-02 0. -1.
        2   -1    0    0  501    0  0.00000000000E+00  0.00000000000E+00 -0.60959258502E+03  0.60959258503E+03  0.25500000920E-02 0.  1.
    10030    2    1    2    0    0  0.00000000000E+00  0.00000000000E+00 -0.20050142349E+03  0.10186837466E+04  0.99875710495E+03 0.  0.
        5    1    3    3  502    0 -0.36144661504E+03 -0.34428773883E+03 -0.86599126020E+02  0.50665491339E+03  0.46999998093E+01 0. -1.
       -5    1    3    3    0  502  0.36144661504E+03  0.34428773883E+03 -0.11390229747E+03  0.51202883318E+03  0.46999998093E+01 0.  1.
</event>
<event>
 5   0  0.3873874E-03  0.9991386E+03  0.7818609E-02  0.9309490E-01
        2   -1    0    0  501    0  0.00000000000E+00  0.00000000000E+00  0.57178774203E+03  0.57178774203E+03  0.25500000920E-02 0. -1.
       -2   -1    0    0    0  501  0.00000000000E+00  0.00000000000E+00 -0.43647223363E+03  0.43647223363E+03  0.25500000920E-02 0.  1.
    10030    2    1    2    0    0  0.00000000000E+00  0.00000000000E+00  0.13531550840E+03  0.10082599757E+04  0.99913857483E+03 0.  0.
        5    1    3    3  502    0 -0.21880966234E+03  0.40883723940E+03  0.25515447750E+03  0.52929335348E+03  0.46999998093E+01 0. -1.
       -5    1    3    3    0  502  0.21880966234E+03 -0.40883723940E+03 -0.11983896910E+03  0.47896662219E+03  0.46999998093E+01 0.  1.
</event>
<event>
 5   0  0.3873874E-03  0.1001127E+04  0.7818609E-02  0.9307310E-01
       -2   -1    0    0    0  501  0.00000000000E+00  0.00000000000E+00  0.49058586521E+03  0.49058586522E+03  0.25500000920E-02 0.  1.
        2   -1    0    0  501    0  0.00000000000E+00  0.00000000000E+00 -0.51074402952E+03  0.51074402953E+03  0.25500000920E-02 0. -1.
    10030    2    1    2    0    0  0.00000000000E+00  0.00000000000E+00 -0.20158164308E+02  0.10013298947E+04  0.10011269682E+04 0.  0.
        5    1    3    3  502    0 -0.20976411940E+03 -0.40783481233E+03  0.19048959669E+03  0.49662722074E+03  0.46999998093E+01 0.  1.
       -5    1    3    3    0  502  0.20976411940E+03  0.40783481233E+03 -0.21064776100E+03  0.50470267400E+03  0.46999998093E+01 0. -1.
</event>
<event>
 5   0  0.3826483E-03  0.1000511E+04  0.7818609E-02  0.9307985E-01
        2   -1    0    0  501    0  0.00000000000E+00  0.00000000000E+00  0.13723969219E+04  0.13723969219E+04  0.25500000920E-02 0.  1.
       -2   -1    0    0    0  501  0.00000000000E+00  0.00000000000E+00 -0.18234918500E+03  0.18234918502E+03  0.25500000920E-02 0. -1.
    10030    2    1    2    0    0  0.00000000000E+00  0.00000000000E+00  0.11900477369E+04  0.15547461069E+04  0.10005107900E+04 0.  0.
        4    1    3    3  502    0 -0.25449179703E+03 -0.89155960612E+01 -0.74093448083E+02  0.26521126401E+03  0.12699999809E+01 0. -1.
       -4    1    3    3    0  502  0.25449179703E+03  0.89155960612E+01  0.12641411850E+04  0.12895348429E+04  0.12699999809E+01 0.  1.
</event>
<event>
 5   0  0.3826483E-03  0.9853325E+03  0.7818609E-02  0.9324780E-01
       -2   -1    0    0    0  501  0.00000000000E+00  0.00000000000E+00  0.43793200043E+03  0.43793200044E+03  0.25500000920E-02 0.  1.
        2   -1    0    0  501    0  0.00000000000E+00  0.00000000000E+00 -0.55424136112E+03  0.55424136112E+03  0.25500000920E-02 0. -1.
    10030    2    1    2    0    0  0.00000000000E+00  0.00000000000E+00 -0.11630936069E+03  0.99217336156E+03  0.98533248805E+03 0.  0.
        4    1    3    3  502    0 -0.43126610218E+03 -0.82564878230E+02 -0.28311344480E+03  0.52245788877E+03  0.12699999809E+01 0. -1.
       -4    1    3    3    0  502  0.43126610218E+03  0.82564878230E+02  0.16680408412E+03  0.46971547280E+03  0.12699999809E+01 0.  1.
</event>
<event>
 5   0  0.2327595E-03  0.9972769E+03  0.7818609E-02  0.9311537E-01
       -1   -1    0    0    0  501  0.00000000000E+00  0.00000000000E+00  0.17101962600E+03  0.17101962608E+03  0.50400001928E-02 0. -1.
        1   -1    0    0  501    0  0.00000000000E+00  0.00000000000E+00 -0.14538699011E+04  0.14538699012E+04  0.50400001928E-02 0.  1.
    10030    2    1    2    0    0  0.00000000000E+00  0.00000000000E+00 -0.12828502751E+04  0.16248895272E+04  0.99727686590E+03 0.  0.
        5    1    3    3  502    0 -0.36742339417E+03 -0.33587896125E+03 -0.68761214782E+03  0.84890940802E+03  0.46999998093E+01 0. -1.
       -5    1    3    3    0  502  0.36742339417E+03  0.33587896125E+03 -0.59523812732E+03  0.77598011921E+03  0.46999998093E+01 0.  1.
</event>
<event>
 5   0  0.4140860E-03  0.1001031E+04  0.7818609E-02  0.9307415E-01
       -2   -1    0    0    0  501  0.00000000000E+00  0.00000000000E+00  0.50021029585E+03  0.50021029585E+03  0.25500000920E-02 0.  1.
        2   -1    0    0  501    0  0.00000000000E+00  0.00000000000E+00 -0.50082108446E+03  0.50082108447E+03  0.25500000920E-02 0. -1.
    10030    2    1    2    0    0  0.00000000000E+00  0.00000000000E+00 -0.61078861833E+00  0.10010313803E+04  0.10010311940E+04 0.  0.
        3    1    3    3  502    0  0.21371849042E+02  0.84305446734E+02  0.49259599421E+03  0.50021494179E+03  0.10100000352E+00 0.  1.
       -3    1    3    3    0  502 -0.21371849042E+02 -0.84305446734E+02 -0.49320678282E+03  0.50081643853E+03  0.10100000352E+00 0. -1.
</event>
<event>
 5   0  0.3895011E-03  0.1001980E+04  0.7818609E-02  0.9306376E-01
       -2   -1    0    0    0  501  0.00000000000E+00  0.00000000000E+00  0.60075528775E+03  0.60075528775E+03  0.25500000920E-02 0.  1.
        2   -1    0    0  501    0  0.00000000000E+00  0.00000000000E+00 -0.41779198556E+03  0.41779198557E+03  0.25500000920E-02 0. -1.
    10030    2    1    2    0    0  0.00000000000E+00  0.00000000000E+00  0.18296330219E+03  0.10185472733E+04  0.10019795297E+04 0.  0.
        2    1    3    3  502    0  0.48098403550E+03  0.64871031745E+02 -0.34817869569E+02  0.48658624848E+03  0.25500000920E-02 0. -1.
       -2    1    3    3    0  502 -0.48098403550E+03 -0.64871031745E+02  0.21778117176E+03  0.53196102483E+03  0.25500000920E-02 0.  1.
</event>
<event>
 5   0  0.2378609E-03  0.9995624E+03  0.7818609E-02  0.9309025E-01
       -1   -1    0    0    0  501  0.00000000000E+00  0.00000000000E+00  0.29701270332E+03  0.29701270337E+03  0.50400001928E-02 0. -1.
        1   -1    0    0  501    0  0.00000000000E+00  0.00000000000E+00 -0.84097838870E+03  0.84097838872E+03  0.50400001928E-02 0.  1.
    10030    2    1    2    0    0  0.00000000000E+00  0.00000000000E+00 -0.54396568538E+03  0.11379910921E+04  0.99956243366E+03 0.  0.
        1    1    3    3  502    0 -0.17223392064E+03  0.23998211261E+03 -0.73095829749E+03  0.78838821052E+03  0.50400001928E-02 0.  1.
       -1    1    3    3    0  502  0.17223392064E+03 -0.23998211261E+03  0.18699261211E+03  0.34960288157E+03  0.50400001928E-02 0. -1.
</event>
<event>
 5   0  0.3873874E-03  0.1002180E+04  0.7818609E-02  0.9306157E-01
        2   -1    0    0  501    0  0.00000000000E+00  0.00000000000E+00  0.81982220676E+03  0.81982220676E+03  0.25500000920E-02 0. -1.
       -2   -1    0    0    0  501  0.00000000000E+00  0.00000000000E+00 -0.30627509759E+03  0.30627509760E+03  0.25500000920E-02 0.  1.
    10030    2    1    2    0    0  0.00000000000E+00  0.00000000000E+00  0.51354710917E+03  0.11260973044E+04  0.10021798768E+04 0.  0.
        5    1    3    3  502    0  0.30567002269E+03  0.38387794081E+03  0.37065957918E+03  0.61498540621E+03  0.46999998093E+01 0.  1.
       -5    1    3    3    0  502 -0.30567002269E+03 -0.38387794081E+03  0.14288753000E+03  0.51111189816E+03  0.46999998093E+01 0. -1.
</event>
<event>
 5   0  0.3895011E-03  0.9973655E+03  0.7818609E-02  0.9311439E-01
       -2   -1    0    0    0  501  0.00000000000E+00  0.00000000000E+00  0.21204202493E+03  0.21204202494E+03  0.25500000920E-02 0. -1.
        2   -1    0    0  501    0  0.00000000000E+00  0.00000000000E+00 -0.11728074786E+04  0.11728074786E+04  0.25500000920E-02 0.  1.
    10030    2    1    2    0    0  0.00000000000E+00  0.00000000000E+00 -0.96076545369E+03  0.13848495036E+04  0.99736547490E+03 0.  0.
        2    1    3    3  502    0  0.19795405190E+03 -0.13863504229E+03 -0.10860633348E+04  0.11126270933E+04  0.25500000920E-02 0.  1.
       -2    1    3    3    0  502 -0.19795405190E+03  0.13863504229E+03  0.12529788111E+03  0.27222241023E+03  0.25500000920E-02 0. -1.
</event>
<event>
 5   0  0.2378609E-03  0.1069555E+04  0.7818609E-02  0.9235384E-01
       -1   -1    0    0    0  501  0.00000000000E+00  0.00000000000E+00  0.26233604302E+03  0.26233604306E+03  0.50400001928E-02 0.  1.
        1   -1    0    0  501    0  0.00000000000E+00  0.00000000000E+00 -0.10901553792E+04  0.10901553792E+04  0.50400001928E-02 0. -1.
    10030    2    1    2    0    0  0.00000000000E+00  0.00000000000E+00 -0.82781933617E+03  0.13524914223E+04  0.10695551383E+04 0.  0.
        1    1    3    3  502    0 -0.20010735065E+03  0.48852828314E+03 -0.52183481954E+03  0.74230345151E+03  0.50400001928E-02 0.  1.
       -1    1    3    3    0  502  0.20010735065E+03 -0.48852828314E+03 -0.30598451663E+03  0.61018797076E+03  0.50400001928E-02 0. -1.
</event>
<event>
 5   0  0.3873874E-03  0.1000799E+04  0.7818609E-02  0.9307669E-01
        2   -1    0    0  501    0  0.00000000000E+00  0.00000000000E+00  0.85369692738E+03  0.85369692739E+03  0.25500000920E-02 0.  1.
       -2   -1    0    0    0  501  0.00000000000E+00  0.00000000000E+00 -0.29331210410E+03  0.29331210411E+03  0.25500000920E-02 0. -1.
    10030    2    1    2    0    0  0.00000000000E+00  0.00000000000E+00  0.56038482328E+03  0.11470090315E+04  0.10007989649E+04 0.  0.
        5    1    3    3  502    0  0.37936737401E+03  0.32612650957E+03  0.29162163137E+03  0.57908839618E+03  0.46999998093E+01 0. -1.
       -5    1    3    3    0  502 -0.37936737401E+03 -0.32612650957E+03  0.26876319191E+03  0.56792063532E+03  0.46999998093E+01 0.  1.
</event>
<event>
 5   0  0.3873874E-03  0.1009969E+04  0.7818609E-02  0.9297678E-01
       -2   -1    0    0    0  501  0.00000000000E+00  0.00000000000E+00  0.16899201865E+03  0.16899201867E+03  0.25500000920E-02 0.  1.
        2   -1    0    0  501    0  0.00000000000E+00  0.00000000000E+00 -0.15090018280E+04  0.15090018280E+04  0.25500000920E-02 0. -1.
    10030    2    1    2    0    0  0.00000000000E+00  0.00000000000E+00 -0.13400098093E+04  0.16779938466E+04  0.10099688412E+04 0.  0.
        5    1    3    3  502    0 -0.19343302004E+03  0.32593447070E+03 -0.11563040751E+03  0.39628536886E+03  0.46999998093E+01 0.  1.
       -5    1    3    3    0  502  0.19343302004E+03 -0.32593447070E+03 -0.12243794018E+04  0.12817084778E+04  0.46999998093E+01 0. -1.
</event>
<event>
 5   0  0.4140860E-03  0.9967375E+03  0.7818609E-02  0.9312130E-01
        2   -1    0    0  501    0  0.00000000000E+00  0.00000000000E+00  0.15308226533E+04  0.15308226533E+04  0.25500000920E-02 0.  1.
       -2   -1    0    0    0  501  0.00000000000E+00  0.00000000000E+00 -0.16224701363E+03  0.16224701365E+03  0.25500000920E-02 0. -1.
    10030    2    1    2    0    0  0.00000000000E+00  0.00000000000E+00  0.13685756397E+04  0.16930696670E+04  0.99673748584E+03 0.  0.
        3    1    3    3  502    0  0.44721191782E+03  0.13356424090E+03  0.98110035985E+03  0.10864602304E+04  0.10100000352E+00 0.  1.
       -3    1    3    3    0  502 -0.44721191782E+03 -0.13356424090E+03  0.38747527986E+03  0.60660943662E+03  0.10100000352E+00 0. -1.
</event>
<event>
 5   0  0.1548000E-03  0.9945758E+03  0.7818609E-02  0.9314514E-01
       -4   -1    0    0    0  501  0.00000000000E+00  0.00000000000E+00  0.71670777933E+03  0.71670890455E+03  0.12699999809E+01 0.  1.
        4   -1    0    0  501    0  0.00000000000E+00  0.00000000000E+00 -0.34504082237E+03  0.34504315962E+03  0.12699999809E+01 0. -1.
    10030    2    1    2    0    0  0.00000000000E+00  0.00000000000E+00  0.37166695696E+03  0.10617520642E+04  0.99457584872E+03 0.  0.
        3    1    3    3  502    0  0.49241313949E+03 -0.14293821293E+02  0.11326997611E+03  0.50547513387E+03  0.10100000352E+00 0. -1.
       -3    1    3    3    0  502 -0.49241313949E+03  0.14293821293E+02  0.25839698085E+03  0.55627693030E+03  0.10100000352E+00 0.  1.
</event>
<event>
 5   0  0.2327595E-03  0.9907444E+03  0.7818609E-02  0.9318755E-01
        1   -1    0    0  501    0  0.00000000000E+00  0.00000000000E+00  0.26407341413E+03  0.26407341418E+03  0.50400001928E-02 0.  1.
       -1   -1    0    0    0  501  0.00000000000E+00  0.00000000000E+00 -0.92926277172E+03  0.92926277173E+03  0.50400001928E-02 0. -1.
    10030    2    1    2    0    0  0.00000000000E+00  0.00000000000E+00 -0.66518935759E+03  0.11933361859E+04  0.99074435206E+03 0.  0.
        5    1    3    3  502    0  0.16342445541E+03 -0.31244660107E+03 -0.75164635761E+03  0.83025584494E+03  0.46999998093E+01 0. -1.
       -5    1    3    3    0  502 -0.16342445541E+03  0.31244660107E+03  0.86457000022E+02  0.36308034097E+03  0.46999998093E+01 0.  1.
</event>
<event>
 5   0  0.3895011E-03  0.9934379E+03  0.7818609E-02  0.9315771E-01
       -2   -1    0    0    0  501  0.00000000000E+00  0.00000000000E+00  0.48476286380E+03  0.48476286381E+03  0.25500000920E-02 0.  1.
        2   -1    0    0  501    0  0.00000000000E+00  0.00000000000E+00 -0.50896987093E+03  0.50896987094E+03  0.25500000920E-02 0. -1.
    10030    2    1    2    0    0  0.00000000000E+00  0.00000000000E+00 -0.24207007131E+02  0.99373273474E+03  0.99343785357E+03 0.  0.
        2    1    3    3  502    0 -0.15733490595E+03 -0.47034843263E+03 -0.39457031577E+02  0.49753269044E+03  0.25500000920E-02 0.  1.
       -2    1    3    3    0  502  0.15733490595E+03  0.47034843263E+03  0.15250024446E+02  0.49620004430E+03  0.25500000920E-02 0. -1.
</event>
<event>
 5   0  0.4026829E-03  0.1007971E+04  0.7818609E-02  0.9299845E-01
       -2   -1    0    0    0  501  0.00000000000E+00  0.00000000000E+00  0.31498601106E+03  0.31498601107E+03  0.25500000920E-02 0.  1.
        2   -1    0    0  501    0  0.00000000000E+00  0.00000000000E+00 -0.80638961487E+03  0.80638961487E+03  0.25500000920E-02 0. -1.
    10030    2    1    2    0    0  0.00000000000E+00  0.00000000000E+00 -0.49140360381E+03  0.11213756259E+04  0.10079711269E+04 0.  0.
        1    1    3    3  502    0 -0.47100105560E+03  0.81885378519E+01 -0.44500034741E+03  0.64802342223E+03  0.50400001928E-02 0. -1.
       -1    1    3    3    0  502  0.47100105560E+03 -0.81885378519E+01 -0.46403256400E+02  0.47335220371E+03  0.50400001928E-02 0.  1.
</event>
<event>
 5   0  0.2350769E-03  0.1002223E+04  0.7818609E-02  0.9306110E-01
       -1   -1    0    0    0  501  0.00000000000E+00  0.00000000000E+00  0.30686539633E+03  0.30686539637E+03  0.50400001928E-02 0.  1.
        1   -1    0    0  501    0  0.00000000000E+00  0.00000000000E+00 -0.81831613584E+03  0.81831613585E+03  0.50400001928E-02 0. -1.
    10030    2    1    2    0    0  0.00000000000E+00  0.00000000000E+00 -0.51145073951E+03  0.11251815322E+04  0.10022233391E+04 0.  0.
        2    1    3    3  502    0 -0.43402844201E+03 -0.24761083272E+03 -0.21340307148E+03  0.54335318521E+03  0.25500000920E-02 0.  1.
       -2    1    3    3    0  502  0.43402844201E+03  0.24761083272E+03 -0.29804766803E+03  0.58182834701E+03  0.25500000920E-02 0. -1.
</event>
<event>
 5   0  0.2313036E-03  0.1002879E+04  0.7818609E-02  0.9305392E-01
       -1   -1    0    0    0  501  0.00000000000E+00  0.00000000000E+00  0.81658087728E+03  0.81658087730E+03  0.50400001928E-02 0.  1.
        1   -1    0    0  501    0  0.00000000000E+00  0.00000000000E+00 -0.30792023338E+03  0.30792023342E+03  0.50400001928E-02 0. -1.
    10030    2    1    2    0    0  0.00000000000E+00  0.00000000000E+00  0.50866064391E+03  0.11245011107E+04  0.10028794032E+04 0.  0.
        3    1    3    3  502    0 -0.89437938688E+02 -0.35643579029E+03  0.63687351474E+03  0.73529143981E+03  0.10100000352E+00 0.  1.
       -3    1    3    3    0  502  0.89437938688E+02  0.35643579029E+03 -0.12821287084E+03  0.38920967091E+03  0.10100000352E+00 0. -1.
</event>
<event>
 5   0  0.3895011E-03  0.1010486E+04  0.7818609E-02  0.9297118E-01
       -2   -1    0    0    0  501  0.00000000000E+00  0.00000000000E+00  0.14731831437E+03  0.14731831439E+03  0.25500000920E-02 0. -1.
        2   -1    0    0  501    0  0.00000000000E+00  0.00000000000E+00 -0.17327818916E+04  0.17327818916E+04  0.25500000920E-02 0.  1.
    10030    2    1    2    0    0  0.00000000000E+00  0.00000000000E+00 -0.15854635772E+04  0.18801002059E+04  0.10104860364E+04 0.  0.
        2    1    3    3  502    0 -0.47344631786E+03 -0.49863834578E+02 -0.11075658796E+04  0.12055455179E+04  0.25500000920E-02 0. -1.
       -2    1    3    3    0  502  0.47344631786E+03  0.49863834578E+02 -0.47789769754E+03  0.67455468808E+03  0.25500000920E-02 0.  1.
</event>
<event>
 5   0  0.2378609E-03  0.1009616E+04  0.7818609E-02  0.9298061E-01
        1   -1    0    0  501    0  0.00000000000E+00  0.00000000000E+00  0.85840128571E+03  0.85840128573E+03  0.50400001928E-02 0. -1.
       -1   -1    0    0    0  501  0.00000000000E+00  0.00000000000E+00 -0.29686714953E+03  0.29686714958E+03  0.50400001928E-02 0.  1.
    10030    2    1    2    0    0  0.00000000000E+00  0.00000000000E+00  0.56153413618E+03  0.11552684353E+04  0.10096160515E+04 0.  0.
        1    1    3    3  502    0 -0.48342139099E+03 -0.75522220518E+02  0.42291084764E+03  0.64672515966E+03  0.50400001928E-02 0. -1.
       -1    1    3    3    0  502  0.48342139099E+03  0.75522220518E+02  0.13862328854E+03  0.50854327565E+03  0.50400001928E-02 0.  1.
</event>
<event>
 5   0  0.2378609E-03  0.1008124E+04  0.7818609E-02  0.9299679E-01
        1   -1    0    0  501    0  0.00000000000E+00  0.00000000000E+00  0.28663555436E+03  0.28663555440E+03  0.50400001928E-02 0. -1.
       -1   -1    0    0    0  501  0.00000000000E+00  0.00000000000E+00 -0.88641602690E+03  0.88641602692E+03  0.50400001928E-02 0.  1.
    10030    2    1    2    0    0  0.00000000000E+00  0.00000000000E+00 -0.59978047254E+03  0.11730515813E+04  0.10081237013E+04 0.  0.
        1    1    3    3  502    0  0.31166744231E+03 -0.10811572886E+03 -0.74336147252E+03  0.81327233094E+03  0.50400001928E-02 0.  1.
       -1    1    3    3    0  502 -0.31166744231E+03  0.10811572886E+03  0.14358099998E+03  0.35977925038E+03  0.50400001928E-02 0. -1.
</event>
<event>
 5   0  0.2350769E-03  0.9971203E+03  0.7818609E-02  0.9311709E-01
        1   -1    0    0  501    0  0.00000000000E+00  0.00000000000E+00  0.46644211731E+03  0.46644211734E+03  0.50400001928E-02 0.  1.
       -1   -1    0    0    0  501  0.00000000000E+00  0.00000000000E+00 -0.53288978478E+03  0.53288978480E+03  0.50400001928E-02 0. -1.
    10030    2    1    2    0    0  0.00000000000E+00  0.00000000000E+00 -0.66447667470E+02  0.99933190214E+03  0.99712033282E+03 0.  0.
        2    1    3    3  502    0  0.22271202639E+03  0.12338619287E+03  0.39637293921E+03  0.47110116348E+03  0.25500000920E-02 0.  1.
       -2    1    3    3    0  502 -0.22271202639E+03 -0.12338619287E+03 -0.46282060668E+03  0.52823073866E+03  0.25500000920E-02 0. -1.
</event>
<event>
 5   0  0.3826483E-03  0.9953484E+03  0.7818609E-02  0.9313661E-01
       -2   -1    0    0    0  501  0.00000000000E+00  0.00000000000E+00  0.69737874080E+03  0.69737874081E+03  0.25500000920E-02 0.  1.
        2   -1    0    0  501    0  0.00000000000E+00  0.00000000000E+00 -0.35515798783E+03  0.35515798784E+03  0.25500000920E-02 0. -1.
    10030    2    1    2    0    0  0.00000000000E+00  0.00000000000E+00  0.34222075297E+03  0.10525367286E+04  0.99534844219E+03 0.  0.
        4    1    3    3  502    0  0.21745209158E+03 -0.42547979087E+03  0.23977481614E+02  0.47842972012E+03  0.12699999809E+01 0. -1.
       -4    1    3    3    0  502 -0.21745209158E+03  0.42547979087E+03  0.31824327136E+03  0.57410700852E+03  0.12699999809E+01 0.  1.
</event>
<event>
 5   0  0.3873874E-03  0.1002011E+04  0.7818609E-02  0.9306342E-01
        2   -1    0    0  501    0  0.00000000000E+00  0.00000000000E+00  0.13081871928E+04  0.13081871928E+04  0.25500000920E-02 0.  1.
       -2   -1    0    0    0  501  0.00000000000E+00  0.00000000000E+00 -0.19187354959E+03  0.19187354961E+03  0.25500000920E-02 0. -1.
    10030    2    1    2    0    0  0.00000000000E+00  0.00000000000E+00  0.11163136432E+04  0.15000607425E+04  0.10020110184E+04 0.  0.
        5    1    3    3  502    0  0.46808653998E+03 -0.16521072159E+03  0.45678940384E+03  0.67459487169E+03  0.46999998093E+01 0. -1.
       -5    1    3    3    0  502 -0.46808653998E+03  0.16521072159E+03  0.65952423941E+03  0.82546587077E+03  0.46999998093E+01 0.  1.
</event>
<event>
 5   0  0.3826483E-03  0.9955841E+03  0.7818609E-02  0.9313401E-01
        2   -1    0    0  501    0  0.00000000000E+00  0.00000000000E+00  0.75597831883E+03  0.75597831883E+03  0.25500000920E-02 0.  1.
       -2   -1    0    0    0  501  0.00000000000E+00  0.00000000000E+00 -0.32778310054E+03  0.32778310055E+03  0.25500000920E-02 0. -1.
    10030    2    1    2    0    0  0.00000000000E+00  0.00000000000E+00  0.42819521829E+03  0.10837614194E+04  0.99558408443E+03 0.  0.
        4    1    3    3  502    0 -0.79255909685E+02 -0.34707152790E+03 -0.16464781431E+03  0.39223801493E+03  0.12699999809E+01 0. -1.
       -4    1    3    3    0  502  0.79255909685E+02  0.34707152790E+03  0.59284303260E+03  0.69152340445E+03  0.12699999809E+01 0.  1.
</event>
<event>
 5   0  0.4026829E-03  0.1011782E+04  0.7818609E-02  0.9295716E-01
        2   -1    0    0  501    0  0.00000000000E+00  0.00000000000E+00  0.38106616252E+03  0.38106616253E+03  0.25500000920E-02 0.  1.
       -2   -1    0    0    0  501  0.00000000000E+00  0.00000000000E+00 -0.67160434235E+03  0.67160434236E+03  0.25500000920E-02 0. -1.
    10030    2    1    2    0    0  0.00000000000E+00  0.00000000000E+00 -0.29053817983E+03  0.10526705049E+04  0.10117819715E+04 0.  0.
        1    1    3    3  502    0  0.39953412430E+03 -0.17644694068E+03 -0.41085898761E+03  0.59963834690E+03  0.50400001928E-02 0. -1.
       -1    1    3    3    0  502 -0.39953412430E+03  0.17644694068E+03  0.12032080777E+03  0.45303215798E+03  0.50400001928E-02 0.  1.
</event>
<event>
 5   0  0.3873874E-03  0.9731543E+03  0.7818609E-02  0.9338489E-01
       -2   -1    0    0    0  501  0.00000000000E+00  0.00000000000E+00  0.18046871592E+03  0.18046871594E+03  0.25500000920E-02 0. -1.
        2   -1    0    0  501    0  0.00000000000E+00  0.00000000000E+00 -0.13119023314E+04  0.13119023314E+04  0.25500000920E-02 0.  1.
    10030    2    1    2    0    0  0.00000000000E+00  0.00000000000E+00 -0.11314336155E+04  0.14923710473E+04  0.97315431288E+03 0.  0.
        5    1    3    3  502    0  0.25545593409E+03  0.38895165752E+03 -0.78364202845E+03  0.91140443541E+03  0.46999998093E+01 0.  1.
       -5    1    3    3    0  502 -0.25545593409E+03 -0.38895165752E+03 -0.34779158701E+03  0.58096661190E+03  0.46999998093E+01 0. -1.
</event>
<event>
 5   0  0.4140860E-03  0.9808171E+03  0.7818609E-02  0.9329838E-01
        2   -1    0    0  501    0  0.00000000000E+00  0.00000000000E+00  0.18583226264E+03  0.18583226266E+03  0.25500000920E-02 0.  1.
       -2   -1    0    0    0  501  0.00000000000E+00  0.00000000000E+00 -0.12941808806E+04  0.12941808806E+04  0.25500000920E-02 0. -1.
    10030    2    1    2    0    0  0.00000000000E+00  0.00000000000E+00 -0.11083486180E+04  0.14800131433E+04  0.98081713142E+03 0.  0.
        3    1    3    3  502    0  0.43380474411E+03 -0.22767397713E+03 -0.52116445751E+03  0.71528623490E+03  0.10100000352E+00 0.  1.
       -3    1    3    3    0  502 -0.43380474411E+03  0.22767397713E+03 -0.58718416046E+03  0.76472690836E+03  0.10100000352E+00 0. -1.
</event>
<event>
 5   0  0.3826483E-03  0.1002032E+04  0.7818609E-02  0.9306319E-01
       -2   -1    0    0    0  501  0.00000000000E+00  0.00000000000E+00  0.63678694475E+03  0.63678694476E+03  0.25500000920E-02 0.  1.
        2   -1    0    0  501    0  0.00000000000E+00  0.00000000000E+00 -0.39419300773E+03  0.39419300774E+03  0.25500000920E-02 0. -1.
    10030    2    1    2    0    0  0.00000000000E+00  0.00000000000E+00  0.24259393702E+03  0.10309799525E+04  0.10020318579E+04 0.  0.
        4    1    3    3  502    0  0.24118881656E+03  0.63928402903E+01 -0.33048089552E+03  0.40918473682E+03  0.12699999809E+01 0. -1.
       -4    1    3    3    0  502 -0.24118881656E+03 -0.63928402903E+01  0.57307483254E+03  0.62179521567E+03  0.12699999809E+01 0.  1.
</event>
<event>
 5   0  0.2313036E-03  0.1016266E+04  0.7818609E-02  0.9290882E-01
        1   -1    0    0  501    0  0.00000000000E+00  0.00000000000E+00  0.12222320004E+04  0.12222320004E+04  0.50400001928E-02 0. -1.
       -1   -1    0    0    0  501  0.00000000000E+00  0.00000000000E+00 -0.21125227939E+03  0.21125227945E+03  0.50400001928E-02 0.  1.
    10030    2    1    2    0    0  0.00000000000E+00  0.00000000000E+00  0.10109797210E+04  0.14334842799E+04  0.10162662960E+04 0.  0.
        3    1    3    3  502    0  0.86260731147E+02 -0.33819706620E+03 -0.15419945378E+02  0.34936507301E+03  0.10100000352E+00 0. -1.
       -3    1    3    3    0  502 -0.86260731147E+02  0.33819706620E+03  0.10263996664E+04  0.10841192069E+04  0.10100000352E+00 0.  1.
</event>
<event>
 5   0  0.2350769E-03  0.1002951E+04  0.7818609E-02  0.9305314E-01
        1   -1    0    0  501    0  0.00000000000E+00  0.00000000000E+00  0.59821446290E+03  0.59821446292E+03  0.50400001928E-02 0.  1.
       -1   -1    0    0    0  501  0.00000000000E+00  0.00000000000E+00 -0.42038075182E+03  0.42038075185E+03  0.50400001928E-02 0. -1.
    10030    2    1    2    0    0  0.00000000000E+00  0.00000000000E+00  0.17783371109E+03  0.10185952148E+04  0.10029513362E+04 0.  0.
        2    1    3    3  502    0 -0.31268033375E+03  0.14734051851E+03  0.45790135374E+03  0.57371758668E+03  0.25500000920E-02 0.  1.
       -2    1    3    3    0  502  0.31268033375E+03 -0.14734051851E+03 -0.28006764265E+03  0.44487762809E+03  0.25500000920E-02 0. -1.
</event>
<event>
 5   0  0.2313036E-03  0.1009893E+04  0.7818609E-02  0.9297761E-01
        1   -1    0    0  501    0  0.00000000000E+00  0.00000000000E+00  0.55223321092E+03  0.55223321094E+03  0.50400001928E-02 0. -1.
       -1   -1    0    0    0  501  0.00000000000E+00  0.00000000000E+00 -0.46170870828E+03  0.46170870831E+03  0.50400001928E-02 0.  1.
    10030    2    1    2    0    0  0.00000000000E+00  0.00000000000E+00  0.90524502637E+02  0.10139419192E+04  0.10098928310E+04 0.  0.
        3    1    3    3  502    0 -0.39047656456E+03 -0.23950417890E+03  0.25856800092E+03  0.52601484816E+03  0.10100000352E+00 0. -1.
       -3    1    3    3    0  502  0.39047656456E+03  0.23950417890E+03 -0.16804349828E+03  0.48792707109E+03  0.10100000352E+00 0.  1.
</event>
<event>
 5   0  0.3826483E-03  0.1000636E+04  0.7818609E-02  0.9307848E-01
        2   -1    0    0  501    0  0.00000000000E+00  0.00000000000E+00  0.15011860430E+04  0.15011860430E+04  0.25500000920E-02 0. -1.
       -2   -1    0    0    0  501  0.00000000000E+00  0.00000000000E+00 -0.16674689135E+03  0.16674689137E+03  0.25500000920E-02 0.  1.
    10030    2    1    2    0    0  0.00000000000E+00  0.00000000000E+00  0.13344391517E+04  0.16679329344E+04  0.10006360098E+04 0.  0.
        4    1    3    3  502    0 -0.26237140277E+03 -0.18690310249E+03  0.13053183572E+04  0.13444809962E+04  0.12699999809E+01 0. -1.
       -4    1    3    3    0  502  0.26237140277E+03  0.18690310249E+03  0.29120794462E+02  0.32345193813E+03  0.12699999809E+01 0.  1.
</event>
<event>
 5   0  0.2378609E-03  0.1002771E+04  0.7818609E-02  0.9305510E-01
       -1   -1    0    0    0  501  0.00000000000E+00  0.00000000000E+00  0.35133946422E+03  0.35133946426E+03  0.50400001928E-02 0.  1.
        1   -1    0    0  501    0  0.00000000000E+00  0.00000000000E+00 -0.71551198095E+03  0.71551198097E+03  0.50400001928E-02 0. -1.
    10030    2    1    2    0    0  0.00000000000E+00  0.00000000000E+00 -0.36417251673E+03  0.10668514452E+04  0.10027713519E+04 0.  0.
        1    1    3    3  502    0  0.13417195372E+02  0.19449998938E+03 -0.67353267071E+03  0.70118223419E+03  0.50400001928E-02 0. -1.
       -1    1    3    3    0  502 -0.13417195372E+02 -0.19449998938E+03  0.30936015399E+03  0.36566921104E+03  0.50400001928E-02 0.  1.
</event>
<event>
 5   0  0.2327595E-03  0.1005477E+04  0.7818609E-02  0.9302558E-01
       -1   -1    0    0    0  501  0.00000000000E+00  0.00000000000E+00  0.22493054801E+03  0.22493054807E+03  0.50400001928E-02 0. -1.
        1   -1    0    0  501    0  0.00000000000E+00  0.00000000000E+00 -0.11236632693E+04  0.11236632693E+04  0.50400001928E-02 0.  1.
    10030    2    1    2    0    0  0.00000000000E+00  0.00000000000E+00 -0.89873272131E+03  0.13485938174E+04  0.10054773891E+04 0.  0.
        5    1    3    3  502    0 -0.39864122566E+03 -0.16215073069E+03 -0.79787500490E+03  0.90655077061E+03  0.46999998093E+01 0.  1.
       -5    1    3    3    0  502  0.39864122566E+03  0.16215073069E+03 -0.10085771642E+03  0.44204304679E+03  0.46999998093E+01 0. -1.
</event>
<event>
 5   0  0.2378609E-03  0.1003821E+04  0.7818609E-02  0.9304363E-01
       -1   -1    0    0    0  501  0.00000000000E+00  0.00000000000E+00  0.24618478683E+03  0.24618478688E+03  0.50400001928E-02 0. -1.
        1   -1    0    0  501    0  0.00000000000E+00  0.00000000000E+00 -0.10232735271E+04  0.10232735271E+04  0.50400001928E-02 0.  1.
    10030    2    1    2    0    0  0.00000000000E+00  0.00000000000E+00 -0.77708874023E+03  0.12694583140E+04  0.10038214486E+04 0.  0.
        1    1    3    3  502    0 -0.14213106441E+03  0.43687676488E+03 -0.13294032623E+03  0.47826318856E+03  0.50400001928E-02 0. -1.
       -1    1    3    3    0  502  0.14213106441E+03 -0.43687676488E+03 -0.64414841400E+03  0.79119512540E+03  0.50400001928E-02 0.  1.
</event>
<event>
 5   0  0.2350769E-03  0.9937672E+03  0.7818609E-02  0.9315407E-01
       -1   -1    0    0    0  501  0.00000000000E+00  0.00000000000E+00  0.16357911876E+03  0.16357911884E+03  0.50400001928E-02 0. -1.
        1   -1    0    0  501    0  0.00000000000E+00  0.00000000000E+00 -0.15093205030E+04  0.15093205030E+04  0.50400001928E-02 0.  1.
    10030    2    1    2    0    0  0.00000000000E+00  0.00000000000E+00 -0.13457413842E+04  0.16728996219E+04  0.99376721194E+03 0.  0.
        2    1    3    3  502    0  0.11556670538E+03 -0.29676226357E+03 -0.13149248462E+04  0.13529415566E+04  0.25500000920E-02 0. -1.
       -2    1    3    3    0  502 -0.11556670538E+03  0.29676226357E+03 -0.30816538019E+02  0.31995806521E+03  0.25500000920E-02 0.  1.
</event>
<event>
 5   0  0.3873874E-03  0.9979961E+03  0.7818609E-02  0.9310745E-01
       -2   -1    0    0    0  501  0.00000000000E+00  0.00000000000E+00  0.34579352999E+03  0.34579353000E+03  0.25500000920E-02 0.  1.
        2   -1    0    0  501    0  0.00000000000E+00  0.00000000000E+00 -0.72008008043E+03  0.72008008043E+03  0.25500000920E-02 0. -1.
    10030    2    1    2    0    0  0.00000000000E+00  0.00000000000E+00 -0.37428655043E+03  0.10658736104E+04  0.99799605790E+03 0.  0.
        5    1    3    3  502    0  0.10442710601E+03 -0.19025825358E+03  0.29271918504E+03  0.36443083680E+03  0.46999998093E+01 0.  1.
       -5    1    3    3    0  502 -0.10442710601E+03  0.19025825358E+03 -0.66700573547E+03  0.70144277363E+03  0.46999998093E+01 0. -1.
</event>
<event>
 5   0  0.3826483E-03  0.9979256E+03  0.7818609E-02  0.9310823E-01
        2   -1    0    0  501    0  0.00000000000E+00  0.00000000000E+00  0.52475704951E+03  0.52475704951E+03  0.25500000920E-02 0. -1.
       -2   -1    0    0    0  501  0.00000000000E+00  0.00000000000E+00 -0.47443649383E+03  0.47443649384E+03  0.25500000920E-02 0.  1.
    10030    2    1    2    0    0  0.00000000000E+00  0.00000000000E+00  0.50320555671E+02  0.99919354335E+03  0.99792563789E+03 0.  0.
        4    1    3    3  502    0 -0.13242681261E+03  0.28444495467E+03  0.41361774858E+03  0.51915994431E+03  0.12699999809E+01 0. -1.
       -4    1    3    3    0  502  0.13242681261E+03 -0.28444495467E+03 -0.36329719291E+03  0.48003359904E+03  0.12699999809E+01 0.  1.
</event>
<event>
 5   0  0.2313036E-03  0.1002770E+04  0.7818609E-02  0.9305512E-01
       -1   -1    0    0    0  501  0.00000000000E+00  0.00000000000E+00  0.43716809748E+03  0.43716809751E+03  0.50400001928E-02 0.  1.
        1   -1    0    0  501    0  0.00000000000E+00  0.00000000000E+00 -0.57503505059E+03  0.57503505061E+03  0.50400001928E-02 0. -1.
    10030    2    1    2    0    0  0.00000000000E+00  0.00000000000E+00 -0.13786695311E+03  0.10122031481E+04  0.10027701214E+04 0.  0.
        3    1    3    3  502    0  0.16925969104E+03 -0.42998214522E+03 -0.26532340333E+03  0.53285082976E+03  0.10100000352E+00 0. -1.
       -3    1    3    3    0  502 -0.16925969104E+03  0.42998214522E+03  0.12745645022E+03  0.47935231836E+03  0.10100000352E+00 0.  1.
</event>
<event>
 5   0  0.2350769E-03  0.1001270E+04  0.7818609E-02  0.9307153E-01
        1   -1    0    0  501    0  0.00000000000E+00  0.00000000000E+00  0.52167085393E+03  0.52167085396E+03  0.50400001928E-02 0.  1.
       -1   -1    0    0    0  501  0.00000000000E+00  0.00000000000E+00 -0.48044715508E+03  0.48044715511E+03  0.50400001928E-02 0. -1.
    10030    2    1    2    0    0  0.00000000000E+00  0.00000000000E+00  0.41223698853E+02  0.10021180091E+04  0.10012697492E+04 0.  0.
        2    1    3    3  502    0  0.11778785464E+03 -0.48355101244E+03  0.74876943341E+02  0.50329128443E+03  0.25500000920E-02 0.  1.
       -2    1    3    3    0  502 -0.11778785464E+03  0.48355101244E+03 -0.33653244488E+02  0.49882672463E+03  0.25500000920E-02 0. -1.
</event>
<event>
 5   0  0.3826483E-03  0.1004912E+04  0.7818609E-02  0.9303174E-01
        2   -1    0    0  501    0  0.00000000000E+00  0.00000000000E+00  0.18802375208E+04  0.18802375208E+04  0.25500000920E-02 0.  1.
       -2   -1    0    0    0  501  0.00000000000E+00  0.00000000000E+00 -0.13427122282E+03  0.13427122284E+03  0.25500000920E-02 0. -1.
    10030    2    1    2    0    0  0.00000000000E+00  0.00000000000E+00  0.17459662979E+04  0.20145087436E+04  0.10049115207E+04 0.  0.
        4    1    3    3  502    0 -0.89937562169E+02 -0.43204451042E+03  0.13545570402E+04  0.14246324481E+04  0.12699999809E+01 0.  1.
       -4    1    3    3    0  502  0.89937562169E+02  0.43204451042E+03  0.39140925774E+03  0.58987629553E+03  0.12699999809E+01 0. -1.
</event>
<event>
 5   0  0.2378609E-03  0.9996988E+03  0.7818609E-02  0.9308875E-01
        1   -1    0    0  501    0  0.00000000000E+00  0.00000000000E+00  0.72305111568E+03  0.72305111569E+03  0.50400001928E-02 0.  1.
       -1   -1    0    0    0  501  0.00000000000E+00  0.00000000000E+00 -0.34554876043E+03  0.34554876046E+03  0.50400001928E-02 0. -1.
    10030    2    1    2    0    0  0.00000000000E+00  0.00000000000E+00  0.37750235525E+03  0.10685998762E+04  0.99969878819E+03 0.  0.
        1    1    3    3  502    0 -0.29271576152E+03 -0.30491660705E+03 -0.96458249510E+02  0.43354451700E+03  0.50400001928E-02 0.  1.
       -1    1    3    3    0  502  0.29271576152E+03  0.30491660705E+03  0.47396060476E+03  0.63505535915E+03  0.50400001928E-02 0. -1.
</event>
<event>
 5   0  0.3826483E-03  0.1001797E+04  0.7818609E-02  0.9306576E-01
       -2   -1    0    0    0  501  0.00000000000E+00  0.00000000000E+00  0.53238256770E+03  0.53238256771E+03  0.25500000920E-02 0. -1.
        2   -1    0    0  501    0  0.00000000000E+00  0.00000000000E+00 -0.47127671798E+03  0.47127671798E+03  0.25500000920E-02 0.  1.
    10030    2    1    2    0    0  0.00000000000E+00  0.00000000000E+00  0.61105849726E+02  0.10036592857E+04  0.10017974031E+04 0.  0.
        4    1    3    3  502    0  0.18528111927E+03 -0.14700309444E+03 -0.41180919536E+03  0.47489728280E+03  0.12699999809E+01 0.  1.
       -4    1    3    3    0  502 -0.18528111927E+03  0.14700309444E+03  0.47291504508E+03  0.52876200289E+03  0.12699999809E+01 0. -1.
</event>
<event>
 5   0  0.2405022E-03  0.9920975E+03  0.7818609E-02  0.9317255E-01
        1   -1    0    0  501    0  0.00000000000E+00  0.00000000000E+00  0.27334537581E+03  0.27334537586E+03  0.50400001928E-02 0.  1.
       -1   -1    0    0    0  501  0.00000000000E+00  0.00000000000E+00 -0.90019588353E+03  0.90019588354E+03  0.50400001928E-02 0. -1.
    10030    2    1    2    0    0  0.00000000000E+00  0.00000000000E+00 -0.62685050772E+03  0.11735412594E+04  0.99209753980E+03 0.  0.
        4    1    3    3  502    0 -0.36290957124E+03 -0.23489840557E+03 -0.60119117744E+03  0.74048164229E+03  0.12699999809E+01 0. -1.
       -4    1    3    3    0  502  0.36290957124E+03  0.23489840557E+03 -0.25659330280E+02  0.43305961711E+03  0.12699999809E+01 0.  1.
</event>
<event>
 5   0  0.2378609E-03  0.1003367E+04  0.7818609E-02  0.9304859E-01
        1   -1    0    0  501    0  0.00000000000E+00  0.00000000000E+00  0.57013117987E+03  0.57013117989E+03  0.50400001928E-02 0.  1.
       -1   -1    0    0    0  501  0.00000000000E+00  0.00000000000E+00 -0.44145364418E+03  0.44145364421E+03  0.50400001928E-02 0. -1.
    10030    2    1    2    0    0  0.00000000000E+00  0.00000000000E+00  0.12867753569E+03  0.10115848241E+04  0.10033673047E+04 0.  0.
        1    1    3    3  502    0 -0.20304361263E+03  0.32613208840E+03  0.38962284182E+03  0.54716981515E+03  0.50400001928E-02 0.  1.
       -1    1    3    3    0  502  0.20304361263E+03 -0.32613208840E+03 -0.26094530613E+03  0.46441500895E+03  0.50400001928E-02 0. -1.
</event>
<event>
 5   0  0.4140860E-03  0.9958647E+03  0.7818609E-02  0.9313092E-01
       -2   -1    0    0    0  501  0.00000000000E+00  0.00000000000E+00  0.19544981946E+03  0.19544981947E+03  0.25500000920E-02 0. -1.
        2   -1    0    0  501    0  0.00000000000E+00  0.00000000000E+00 -0.12685437070E+04  0.12685437070E+04  0.25500000920E-02 0.  1.
    10030    2    1    2    0    0  0.00000000000E+00  0.00000000000E+00 -0.10730938876E+04  0.14639935265E+04  0.99586472680E+03 0.  0.
        3    1    3    3  502    0 -0.48254642902E+03 -0.99758523681E+02 -0.64187853976E+03  0.80920386134E+03  0.10100000352E+00 0. -1.
       -3    1    3    3    0  502  0.48254642902E+03  0.99758523681E+02 -0.43121534779E+03  0.65478966514E+03  0.10100000352E+00 0.  1.
</event>
<event>
 5   0  0.2327595E-03  0.1000587E+04  0.7818609E-02  0.9307901E-01
        1   -1    0    0  501    0  0.00000000000E+00  0.00000000000E+00  0.87497692006E+03  0.87497692008E+03  0.50400001928E-02 0.  1.
       -1   -1    0    0    0  501  0.00000000000E+00  0.00000000000E+00 -0.28605734721E+03  0.28605734725E+03  0.50400001928E-02 0. -1.
    10030    2    1    2    0    0  0.00000000000E+00  0.00000000000E+00  0.58891957286E+03  0.11610342673E+04  0.10005869810E+04 0.  0.
        5    1    3    3  502    0 -0.17242649993E+03  0.20577570386E+03  0.78428408070E+03  0.82897415365E+03  0.46999998093E+01 0.  1.
       -5    1    3    3    0  502  0.17242649993E+03 -0.20577570386E+03 -0.19536450784E+03  0.33206011369E+03  0.46999998093E+01 0. -1.
</event>
<event>
 5   0  0.4140860E-03  0.1006192E+04  0.7818609E-02  0.9301779E-01
       -2   -1    0    0    0  501  0.00000000000E+00  0.00000000000E+00  0.17493653175E+03  0.17493653177E+03  0.25500000920E-02 0. -1.
        2   -1    0    0  501    0  0.00000000000E+00  0.00000000000E+00 -0.14468436493E+04  0.14468436493E+04  0.25500000920E-02 0.  1.
    10030    2    1    2    0    0  0.00000000000E+00  0.00000000000E+00 -0.12719071175E+04  0.16217801810E+04  0.10061924468E+04 0.  0.
        3    1    3    3  502    0 -0.10851557321E+03  0.39455946115E+03 -0.11076713212E+04  0.11808423113E+04  0.10100000352E+00 0.  1.
       -3    1    3    3    0  502  0.10851557321E+03 -0.39455946115E+03 -0.16423579629E+03  0.44093786977E+03  0.10100000352E+00 0. -1.
</event>
<event>
 5   0  0.3826483E-03  0.1019649E+04  0.7818609E-02  0.9287253E-01
        2   -1    0    0  501    0  0.00000000000E+00  0.00000000000E+00  0.93469545496E+03  0.93469545496E+03  0.25500000920E-02 0. -1.
       -2   -1    0    0    0  501  0.00000000000E+00  0.00000000000E+00 -0.27808099687E+03  0.27808099688E+03  0.25500000920E-02 0.  1.
    10030    2    1    2    0    0  0.00000000000E+00  0.00000000000E+00  0.65661445809E+03  0.12127764518E+04  0.10196490453E+04 0.  0.
        4    1    3    3  502    0 -0.33584952208E+03 -0.27103293395E+02 -0.12677057811E+03  0.36000261440E+03  0.12699999809E+01 0.  1.
       -4    1    3    3    0  502  0.33584952208E+03  0.27103293395E+02  0.78338503620E+03  0.85277383745E+03  0.12699999809E+01 0. -1.
</event>
<event>
 5   0  0.4140860E-03  0.1004098E+04  0.7818609E-02  0.9304062E-01
       -2   -1    0    0    0  501  0.00000000000E+00  0.00000000000E+00  0.23722083521E+03  0.23722083523E+03  0.25500000920E-02 0.  1.
        2   -1    0    0  501    0  0.00000000000E+00  0.00000000000E+00 -0.10625249899E+04  0.10625249899E+04  0.25500000920E-02 0. -1.
    10030    2    1    2    0    0  0.00000000000E+00  0.00000000000E+00 -0.82530415468E+03  0.12997458251E+04  0.10040977354E+04 0.  0.
        3    1    3    3  502    0  0.40674805895E+02 -0.31343333571E+03 -0.91758078930E+03  0.97048926366E+03  0.10100000352E+00 0. -1.
       -3    1    3    3    0  502 -0.40674805895E+02  0.31343333571E+03  0.92276634630E+02  0.32925656146E+03  0.10100000352E+00 0.  1.
</event>
<event>
 5   0  0.4026829E-03  0.1028364E+04  0.7818609E-02  0.9277972E-01
       -2   -1    0    0    0  501  0.00000000000E+00  0.00000000000E+00  0.27556525387E+03  0.27556525388E+03  0.25500000920E-02 0. -1.
        2   -1    0    0  501    0  0.00000000000E+00  0.00000000000E+00 -0.95942072618E+03  0.95942072619E+03  0.25500000920E-02 0.  1.
    10030    2    1    2    0    0  0.00000000000E+00  0.00000000000E+00 -0.68385547232E+03  0.12349859801E+04  0.10283637800E+04 0.  0.
        1    1    3    3  502    0 -0.12052004411E+03 -0.29376211738E+02 -0.94118118905E+03  0.94932084855E+03  0.50400001928E-02 0.  1.
       -1    1    3    3    0  502  0.12052004411E+03  0.29376211738E+02  0.25732571673E+03  0.28566513152E+03  0.50400001928E-02 0. -1.
</event>
<event>
 5   0  0.2350769E-03  0.1001611E+04  0.7818609E-02  0.9306780E-01
       -1   -1    0    0    0  501  0.00000000000E+00  0.00000000000E+00  0.16368201898E+04  0.16368201898E+04  0.50400001928E-02 0. -1.
        1   -1    0    0  501    0  0.00000000000E+00  0.00000000000E+00 -0.15322769575E+03  0.15322769583E+03  0.50400001928E-02 0.  1.
    10030    2    1    2    0    0  0.00000000000E+00  0.00000000000E+00  0.14835924940E+04  0.17900478856E+04  0.10016110745E+04 0.  0.
        2    1    3    3  502    0  0.34272598710E+03 -0.22491088078E+03  0.12559301505E+04  0.13211383536E+04  0.25500000920E-02 0. -1.
       -2    1    3    3    0  502 -0.34272598710E+03  0.22491088078E+03  0.22766234357E+03  0.46890953201E+03  0.25500000920E-02 0.  1.
</event>
<event>
 5   0  0.2405022E-03  0.1001580E+04  0.7818609E-02  0.9306813E-01
       -1   -1    0    0    0  501  0.00000000000E+00  0.00000000000E+00  0.81104422177E+03  0.81104422178E+03  0.50400001928E-02 0.  1.
        1   -1    0    0  501    0  0.00000000000E+00  0.00000000000E+00 -0.30921949713E+03  0.30921949717E+03  0.50400001928E-02 0. -1.
    10030    2    1    2    0    0  0.00000000000E+00  0.00000000000E+00  0.50182472464E+03  0.11202637190E+04  0.10015801245E+04 0.  0.
        4    1    3    3  502    0 -0.19232686949E+03  0.26625072305E+03 -0.17191772701E+03  0.37072414274E+03  0.12699999809E+01 0. -1.
       -4    1    3    3    0  502  0.19232686949E+03 -0.26625072305E+03  0.67374245165E+03  0.74953957621E+03  0.12699999809E+01 0.  1.
</event>
<event>
 5   0  0.3873874E-03  0.1004747E+04  0.7818609E-02  0.9303354E-01
        2   -1    0    0  501    0  0.00000000000E+00  0.00000000000E+00  0.61037841807E+03  0.61037841807E+03  0.25500000920E-02 0.  1.
       -2   -1    0    0    0  501  0.00000000000E+00  0.00000000000E+00 -0.41347988716E+03  0.41347988716E+03  0.25500000920E-02 0. -1.
    10030    2    1    2    0    0  0.00000000000E+00  0.00000000000E+00  0.19689853091E+03  0.10238583052E+04  0.10047471312E+04 0.  0.
        5    1    3    3  502    0  0.43570722348E+03 -0.23111284724E+03  0.19567462742E+03  0.53062659429E+03  0.46999998093E+01 0.  1.
       -5    1    3    3    0  502 -0.43570722348E+03  0.23111284724E+03  0.12239034929E+01  0.49323171095E+03  0.46999998093E+01 0. -1.
</event>
<event>
 5   0  0.2378609E-03  0.9994282E+03  0.7818609E-02  0.9309172E-01
       -1   -1    0    0    0  501  0.00000000000E+00  0.00000000000E+00  0.70413720568E+03  0.70413720570E+03  0.50400001928E-02 0.  1.
        1   -1    0    0  501    0  0.00000000000E+00  0.00000000000E+00 -0.35463849379E+03  0.35463849383E+03  0.50400001928E-02 0. -1.
    10030    2    1    2    0    0  0.00000000000E+00  0.00000000000E+00  0.34949871189E+03  0.10587756995E+04  0.99942815264E+03 0.  0.
        1    1    3    3  502    0 -0.12797454961E+03  0.23270852568E+03 -0.27368749139E+03  0.38136017915E+03  0.50400001928E-02 0. -1.
       -1    1    3    3    0  502  0.12797454961E+03 -0.23270852568E+03  0.62318620328E+03  0.67741552038E+03  0.50400001928E-02 0.  1.
</event>
<event>
 5   0  0.2405022E-03  0.1005317E+04  0.7818609E-02  0.9302732E-01
       -1   -1    0    0    0  501  0.00000000000E+00  0.00000000000E+00  0.72630726444E+03  0.72630726446E+03  0.50400001928E-02 0.  1.
        1   -1    0    0  501    0  0.00000000000E+00  0.00000000000E+00 -0.34787706387E+03  0.34787706391E+03  0.50400001928E-02 0. -1.
    10030    2    1    2    0    0  0.00000000000E+00  0.00000000000E+00  0.37843020057E+03  0.10741843284E+04  0.10053171413E+04 0.  0.
        4    1    3    3  502    0 -0.41856509611E+03  0.69884240419E+02  0.47708391174E+03  0.63850702305E+03  0.12699999809E+01 0.  1.
       -4    1    3    3    0  502  0.41856509611E+03 -0.69884240419E+02 -0.98653711169E+02  0.43567730532E+03  0.12699999809E+01 0. -1.
</event>
<event>
 5   0  0.2327595E-03  0.9983852E+03  0.7818609E-02  0.9310318E-01
        1   -1    0    0  501    0  0.00000000000E+00  0.00000000000E+00  0.79869470292E+03  0.79869470294E+03  0.50400001928E-02 0. -1.
       -1   -1    0    0    0  501  0.00000000000E+00  0.00000000000E+00 -0.31200061789E+03  0.31200061793E+03  0.50400001928E-02 0.  1.
    10030    2    1    2    0    0  0.00000000000E+00  0.00000000000E+00  0.48669408503E+03  0.11106953209E+04  0.99838517787E+03 0.  0.
        5    1    3    3  502    0  0.34690615085E+03  0.19300673169E+03 -0.93309362440E+02  0.40782864428E+03  0.46999998093E+01 0.  1.
       -5    1    3    3    0  502 -0.34690615085E+03 -0.19300673169E+03  0.58000344747E+03  0.70286667659E+03  0.46999998093E+01 0. -1.
</event>
<event>
 5   0  0.3826483E-03  0.9972852E+03  0.7818609E-02  0.9311527E-01
        2   -1    0    0  501    0  0.00000000000E+00  0.00000000000E+00  0.50024307795E+03  0.50024307796E+03  0.25500000920E-02 0.  1.
       -2   -1    0    0    0  501  0.00000000000E+00  0.00000000000E+00 -0.49704723193E+03  0.49704723194E+03  0.25500000920E-02 0. -1.
    10030    2    1    2    0    0  0.00000000000E+00  0.00000000000E+00  0.31958460160E+01  0.99729030990E+03  0.99728518929E+03 0.  0.
        4    1    3    3  502    0  0.41274183233E+03  0.16951537341E+03  0.22420082318E+03  0.49935849246E+03  0.12699999809E+01 0.  1.
       -4    1    3    3    0  502 -0.41274183233E+03 -0.16951537341E+03 -0.22100497717E+03  0.49793181743E+03  0.12699999809E+01 0. -1.
</event>
<event>
 5   0  0.2378609E-03  0.1010579E+04  0.7818609E-02  0.9297017E-01
       -1   -1    0    0    0  501  0.00000000000E+00  0.00000000000E+00  0.16741882633E+03  0.16741882641E+03  0.50400001928E-02 0.  1.
        1   -1    0    0  501    0  0.00000000000E+00  0.00000000000E+00 -0.15250234453E+04  0.15250234453E+04  0.50400001928E-02 0. -1.
    10030    2    1    2    0    0  0.00000000000E+00  0.00000000000E+00 -0.13576046190E+04  0.16924422717E+04  0.10105793099E+04 0.  0.
        1    1    3    3  502    0  0.32901751407E+03  0.79520959757E+02 -0.50520346270E+02  0.34224028550E+03  0.50400001928E-02 0.  1.
       -1    1    3    3    0  502 -0.32901751407E+03 -0.79520959757E+02 -0.13070842727E+04  0.13502019862E+04  0.50400001928E-02 0. -1.
</event>
<event>
 5   0  0.3895011E-03  0.9300951E+03  0.7818609E-02  0.9388724E-01
       -2   -1    0    0    0  501  0.00000000000E+00  0.00000000000E+00  0.38506199380E+03  0.38506199381E+03  0.25500000920E-02 0.  1.
        2   -1    0    0  501    0  0.00000000000E+00  0.00000000000E+00 -0.56164783240E+03  0.56164783241E+03  0.25500000920E-02 0. -1.
    10030    2    1    2    0    0  0.00000000000E+00  0.00000000000E+00 -0.17658583860E+03  0.94670982622E+03  0.93009512237E+03 0.  0.
        2    1    3    3  502    0  0.34906597931E+02  0.88631931999E+02 -0.55161105969E+03  0.55977571502E+03  0.25500000920E-02 0. -1.
       -2    1    3    3    0  502 -0.34906597931E+02 -0.88631931999E+02  0.37502522109E+03  0.38693411120E+03  0.25500000920E-02 0.  1.
</event>
<event>
 5   0  0.3873874E-03  0.1007717E+04  0.7818609E-02  0.9300121E-01
       -2   -1    0    0    0  501  0.00000000000E+00  0.00000000000E+00  0.62673376000E+03  0.62673376000E+03  0.25500000920E-02 0.  1.
        2   -1    0    0  501    0  0.00000000000E+00  0.00000000000E+00 -0.40507404430E+03  0.40507404431E+03  0.25500000920E-02 0. -1.
    10030    2    1    2    0    0  0.00000000000E+00  0.00000000000E+00  0.22165971570E+03  0.10318078043E+04  0.10077173788E+04 0.  0.
        5    1    3    3  502    0 -0.31295419669E+03  0.30000530458E+03  0.37369260988E+03  0.57237380153E+03  0.46999998093E+01 0.  1.
       -5    1    3    3    0  502  0.31295419669E+03 -0.30000530458E+03 -0.15203289418E+03  0.45943400278E+03  0.46999998093E+01 0. -1.
</event>
<event>
 5   0  0.2313036E-03  0.9991573E+03  0.7818609E-02  0.9309470E-01
       -1   -1    0    0    0  501  0.00000000000E+00  0.00000000000E+00  0.12675245716E+03  0.12675245726E+03  0.50400001928E-02 0. -1.
        1   -1    0    0  501    0  0.00000000000E+00  0.00000000000E+00 -0.19690256647E+04  0.19690256647E+04  0.50400001928E-02 0.  1.
    10030    2    1    2    0    0  0.00000000000E+00  0.00000000000E+00 -0.18422732075E+04  0.20957781220E+04  0.99915732761E+03 0.  0.
        3    1    3    3  502    0  0.90778858049E+02  0.79021220414E+02  0.95889028777E+02  0.15388265135E+03  0.10100000352E+00 0. -1.
       -3    1    3    3    0  502 -0.90778858049E+02 -0.79021220414E+02 -0.19381622363E+04  0.19418954706E+04  0.10100000352E+00 0.  1.
</event>
<event>
 5   0  0.1548000E-03  0.9951602E+03  0.7818609E-02  0.9313869E-01
        3   -1    0    0  501    0  0.00000000000E+00  0.00000000000E+00  0.11701227862E+04  0.11701227905E+04  0.10100000352E+00 0.  1.
       -3   -1    0    0    0  501  0.00000000000E+00  0.00000000000E+00 -0.21158971792E+03  0.21158974202E+03  0.10100000352E+00 0. -1.
    10030    2    1    2    0    0  0.00000000000E+00  0.00000000000E+00  0.95853306824E+03  0.13817125325E+04  0.99516022814E+03 0.  0.
        1    1    3    3  502    0 -0.10031897606E+03 -0.27894907653E+03 -0.75601928528E+02  0.30592831820E+03  0.50400001928E-02 0. -1.
       -1    1    3    3    0  502  0.10031897606E+03  0.27894907653E+03  0.10341349968E+04  0.10757842143E+04  0.50400001928E-02 0.  1.
</event>
<event>
 5   0  0.2327595E-03  0.1001852E+04  0.7818609E-02  0.9306516E-01
       -1   -1    0    0    0  501  0.00000000000E+00  0.00000000000E+00  0.38036466948E+03  0.38036466952E+03  0.50400001928E-02 0.  1.
        1   -1    0    0  501    0  0.00000000000E+00  0.00000000000E+00 -0.65970072027E+03  0.65970072029E+03  0.50400001928E-02 0. -1.
    10030    2    1    2    0    0  0.00000000000E+00  0.00000000000E+00 -0.27933605079E+03  0.10400653898E+04  0.10018519780E+04 0.  0.
        5    1    3    3  502    0 -0.33705883849E+03 -0.33356551698E+03 -0.30716052004E+03  0.56501707036E+03  0.46999998093E+01 0. -1.
       -5    1    3    3    0  502  0.33705883849E+03  0.33356551698E+03  0.27824469252E+02  0.47504831945E+03  0.46999998093E+01 0.  1.
</event>
<event>
 5   0  0.3895011E-03  0.9938625E+03  0.7818609E-02  0.9315302E-01
        2   -1    0    0  501    0  0.00000000000E+00  0.00000000000E+00  0.50098112710E+03  0.50098112711E+03  0.25500000920E-02 0. -1.
       -2   -1    0    0    0  501  0.00000000000E+00  0.00000000000E+00 -0.49291415648E+03  0.49291415649E+03  0.25500000920E-02 0.  1.
    10030    2    1    2    0    0  0.00000000000E+00  0.00000000000E+00  0.80669706240E+01  0.99389528360E+03  0.99386254519E+03 0.  0.
        2    1    3    3  502    0 -0.34708042754E+03  0.34735277876E+03 -0.72270493269E+02  0.49632831905E+03  0.25500000920E-02 0. -1.
       -2    1    3    3    0  502  0.34708042754E+03 -0.34735277876E+03  0.80337463893E+02  0.49756696454E+03  0.25500000920E-02 0.  1.
</event>
<event>
 5   0  0.2405022E-03  0.1008180E+04  0.7818609E-02  0.9299618E-01
       -1   -1    0    0    0  501  0.00000000000E+00  0.00000000000E+00  0.28767709757E+03  0.28767709762E+03  0.50400001928E-02 0.  1.
        1   -1    0    0  501    0  0.00000000000E+00  0.00000000000E+00 -0.88330594820E+03  0.88330594821E+03  0.50400001928E-02 0. -1.
    10030    2    1    2    0    0  0.00000000000E+00  0.00000000000E+00 -0.59562885063E+03  0.11709830458E+04  0.10081803241E+04 0.  0.
        4    1    3    3  502    0 -0.80280465289E+02 -0.51331415725E+02 -0.87274837337E+03  0.87793576273E+03  0.12699999809E+01 0. -1.
       -4    1    3    3    0  502  0.80280465289E+02  0.51331415725E+02  0.27711952275E+03  0.29304728310E+03  0.12699999809E+01 0.  1.
</event>
<event>
 5   0  0.4140860E-03  0.1003652E+04  0.7818609E-02  0.9304548E-01
        2   -1    0    0  501    0  0.00000000000E+00  0.00000000000E+00  0.14976486972E+04  0.14976486972E+04  0.25500000920E-02 0.  1.
       -2   -1    0    0    0  501  0.00000000000E+00  0.00000000000E+00 -0.16814982002E+03  0.16814982004E+03  0.25500000920E-02 0. -1.
    10030    2    1    2    0    0  0.00000000000E+00  0.00000000000E+00  0.13294988772E+04  0.16657985172E+04  0.10036520491E+04 0.  0.
        3    1    3    3  502    0  0.24980019758E+03 -0.10324619530E+03  0.13665051034E+04  0.13929810205E+04  0.10100000352E+00 0.  1.
       -3    1    3    3    0  502 -0.24980019758E+03  0.10324619530E+03 -0.37006226241E+02  0.27281749676E+03  0.10100000352E+00 0. -1.
</event>
<event>
 5   0  0.3873874E-03  0.9998981E+03  0.7818609E-02  0.9308657E-01
        2   -1    0    0  501    0  0.00000000000E+00  0.00000000000E+00  0.23655751532E+03  0.23655751534E+03  0.25500000920E-02 0. -1.
       -2   -1    0    0    0  501  0.00000000000E+00  0.00000000000E+00 -0.10566100182E+04  0.10566100182E+04  0.25500000920E-02 0.  1.
    10030    2    1    2    0    0  0.00000000000E+00  0.00000000000E+00 -0.82005250290E+03  0.12931675336E+04  0.99989807598E+03 0.  0.
        5    1    3    3  502    0  0.83891918357E+02  0.27154606201E+03 -0.94193534348E+03  0.98388993239E+03  0.46999998093E+01 0.  1.
       -5    1    3    3    0  502 -0.83891918357E+02 -0.27154606201E+03  0.12188284058E+03  0.30927760117E+03  0.46999998093E+01 0. -1.
</event>
<event>
 5   0  0.3826483E-03  0.9993558E+03  0.7818609E-02  0.9309252E-01
        2   -1    0    0  501    0  0.00000000000E+00  0.00000000000E+00  0.15618444986E+04  0.15618444986E+04  0.25500000920E-02 0.  1.
       -2   -1    0    0    0  501  0.00000000000E+00  0.00000000000E+00 -0.15986099073E+03  0.15986099075E+03  0.25500000920E-02 0. -1.
    10030    2    1    2    0    0  0.00000000000E+00  0.00000000000E+00  0.14019835079E+04  0.17217054894E+04  0.99935581039E+03 0.  0.
        4    1    3    3  502    0  0.21780612726E+03  0.75132847988E+02  0.14648654913E+04  0.14828745646E+04  0.12699999809E+01 0.  1.
       -4    1    3    3    0  502 -0.21780612726E+03 -0.75132847988E+02 -0.62881983342E+02  0.23883092481E+03  0.12699999809E+01 0. -1.
</event>
<event>
 5   0  0.2405022E-03  0.1006139E+04  0.7818609E-02  0.9301838E-01
        1   -1    0    0  501    0  0.00000000000E+00  0.00000000000E+00  0.87477430605E+03  0.87477430607E+03  0.50400001928E-02 0.  1.
       -1   -1    0    0    0  501  0.00000000000E+00  0.00000000000E+00 -0.28930749332E+03  0.28930749336E+03  0.50400001928E-02 0. -1.
    10030    2    1    2    0    0  0.00000000000E+00  0.00000000000E+00  0.58546681274E+03  0.11640817994E+04  0.10061386818E+04 0.  0.
        4    1    3    3  502    0  0.40108779679E+03 -0.16666070082E+03 -0.94330800944E+00  0.43433824684E+03  0.12699999809E+01 0. -1.
       -4    1    3    3    0  502 -0.40108779679E+03  0.16666070082E+03  0.58641012075E+03  0.72974355259E+03  0.12699999809E+01 0.  1.
</event>
<event>
 5   0  0.4026829E-03  0.1001049E+04  0.7818609E-02  0.9307395E-01
        2   -1    0    0  501    0  0.00000000000E+00  0.00000000000E+00  0.38955964970E+03  0.38955964971E+03  0.25500000920E-02 0. -1.
       -2   -1    0    0    0  501  0.00000000000E+00  0.00000000000E+00 -0.64309695255E+03  0.64309695255E+03  0.25500000920E-02 0.  1.
    10030    2    1    2    0    0  0.00000000000E+00  0.00000000000E+00 -0.25353730285E+03  0.10326566023E+04  0.10010486972E+04 0.  0.
        1    1    3    3  502    0 -0.46009661092E+03  0.12698603467E+03  0.28688948201E+02  0.47816043349E+03  0.50400001928E-02 0.  1.
       -1    1    3    3    0  502  0.46009661092E+03 -0.12698603467E+03 -0.28222625105E+03  0.55449616878E+03  0.50400001928E-02 0. -1.
</event>
<event>
 5   0  0.2405022E-03  0.9998449E+03  0.7818609E-02  0.9308715E-01
        1   -1    0    0  501    0  0.00000000000E+00  0.00000000000E+00  0.51589056010E+03  0.51589056013E+03  0.50400001928E-02 0. -1.
       -1   -1    0    0    0  501  0.00000000000E+00  0.00000000000E+00 -0.48444862296E+03  0.48444862298E+03  0.50400001928E-02 0.  1.
    10030    2    1    2    0    0  0.00000000000E+00  0.00000000000E+00  0.31441937145E+02  0.10003391831E+04  0.99984493091E+03 0.  0.
        4    1    3    3  502    0  0.27696586355E+03 -0.25775547652E+03 -0.31120176120E+03  0.48989399294E+03  0.12699999809E+01 0.  1.
       -4    1    3    3    0  502 -0.27696586355E+03  0.25775547652E+03  0.34264369835E+03  0.51044519017E+03  0.12699999809E+01 0. -1.
</event>
<event>
 5   0  0.3826483E-03  0.1003812E+04  0.7818609E-02  0.9304374E-01
       -2   -1    0    0    0  501  0.00000000000E+00  0.00000000000E+00  0.42075612151E+03  0.42075612152E+03  0.25500000920E-02 0. -1.
        2   -1    0    0  501    0  0.00000000000E+00  0.00000000000E+00 -0.59870659173E+03  0.59870659174E+03  0.25500000920E-02 0.  1.
    10030    2    1    2    0    0  0.00000000000E+00  0.00000000000E+00 -0.17795047022E+03  0.10194627133E+04  0.10038116625E+04 0.  0.
        4    1    3    3  502    0 -0.58381820500E+02  0.31421812616E+02 -0.59423802040E+03  0.59792658835E+03  0.12699999809E+01 0.  1.
       -4    1    3    3    0  502  0.58381820500E+02 -0.31421812616E+02  0.41628755017E+03  0.42153612491E+03  0.12699999809E+01 0. -1.
</event>
<event>
 5   0  0.2378609E-03  0.1006270E+04  0.7818609E-02  0.9301695E-01
       -1   -1    0    0    0  501  0.00000000000E+00  0.00000000000E+00  0.47510460827E+03  0.47510460830E+03  0.50400001928E-02 0. -1.
        1   -1    0    0  501    0  0.00000000000E+00  0.00000000000E+00 -0.53281884651E+03  0.53281884654E+03  0.50400001928E-02 0.  1.
    10030    2    1    2    0    0  0.00000000000E+00  0.00000000000E+00 -0.57714238240E+02  0.10079234548E+04  0.10062697240E+04 0.  0.
        1    1    3    3  502    0  0.26968146084E+02  0.50206832597E+03 -0.47456548031E+02  0.50502674070E+03  0.50400001928E-02 0.  1.
       -1    1    3    3    0  502 -0.26968146084E+02 -0.50206832597E+03 -0.10257690209E+02  0.50289671413E+03  0.50400001928E-02 0. -1.
</event>
<event>
 5   0  0.3873874E-03  0.1012340E+04  0.7818609E-02  0.9295113E-01
       -2   -1    0    0    0  501  0.00000000000E+00  0.00000000000E+00  0.59766388067E+03  0.59766388067E+03  0.25500000920E-02 0.  1.
        2   -1    0    0  501    0  0.00000000000E+00  0.00000000000E+00 -0.42868259222E+03  0.42868259223E+03  0.25500000920E-02 0. -1.
    10030    2    1    2    0    0  0.00000000000E+00  0.00000000000E+00  0.16898128845E+03  0.10263464729E+04  0.10123400647E+04 0.  0.
        5    1    3    3  502    0  0.17725515652E+03  0.57278987924E+02 -0.39264345246E+03  0.43461620279E+03  0.46999998093E+01 0. -1.
       -5    1    3    3    0  502 -0.17725515652E+03 -0.57278987924E+02  0.56162474090E+03  0.59173027011E+03  0.46999998093E+01 0.  1.
</event>
<event>
 5   0  0.3873874E-03  0.1001133E+04  0.7818609E-02  0.9307303E-01
       -2   -1    0    0    0  501  0.00000000000E+00  0.00000000000E+00  0.18377803087E+03  0.18377803089E+03  0.25500000920E-02 0. -1.
        2   -1    0    0  501    0  0.00000000000E+00  0.00000000000E+00 -0.13634221684E+04  0.13634221684E+04  0.25500000920E-02 0.  1.
    10030    2    1    2    0    0  0.00000000000E+00  0.00000000000E+00 -0.11796441376E+04  0.15472001993E+04  0.10011334404E+04 0.  0.
        5    1    3    3  502    0 -0.32479740280E+03  0.16934116810E+03 -0.62610776630E+02  0.37163420649E+03  0.46999998093E+01 0. -1.
       -5    1    3    3    0  502  0.32479740280E+03 -0.16934116810E+03 -0.11170333609E+04  0.11755659928E+04  0.46999998093E+01 0.  1.
</event>
<event>
 5   0  0.3895011E-03  0.9943078E+03  0.7818609E-02  0.9314810E-01
       -2   -1    0    0    0  501  0.00000000000E+00  0.00000000000E+00  0.33086143253E+03  0.33086143254E+03  0.25500000920E-02 0.  1.
        2   -1    0    0  501    0  0.00000000000E+00  0.00000000000E+00 -0.74702572510E+03  0.74702572510E+03  0.25500000920E-02 0. -1.
    10030    2    1    2    0    0  0.00000000000E+00  0.00000000000E+00 -0.41616429257E+03  0.10778871576E+04  0.99430780254E+03 0.  0.
        2    1    3    3  502    0 -0.48021104816E+03 -0.93271887230E+02 -0.11197501908E+03  0.50183732487E+03  0.25500000920E-02 0.  1.
       -2    1    3    3    0  502  0.48021104816E+03  0.93271887230E+02 -0.30418927349E+03  0.57604983277E+03  0.25500000920E-02 0. -1.
</event>
<event>
 5   0  0.3895011E-03  0.1000336E+04  0.7818609E-02  0.9308176E-01
        2   -1    0    0  501    0  0.00000000000E+00  0.00000000000E+00  0.13603260968E+04  0.13603260968E+04  0.25500000920E-02 0.  1.
       -2   -1    0    0    0  501  0.00000000000E+00  0.00000000000E+00 -0.18390299002E+03  0.18390299003E+03  0.25500000920E-02 0. -1.
    10030    2    1    2    0    0  0.00000000000E+00  0.00000000000E+00  0.11764231068E+04  0.15442290868E+04  0.10003360168E+04 0.  0.
        2    1    3    3  502    0 -0.28533843175E+03  0.78948995811E+02  0.12105337873E+04  0.12462114647E+04  0.25500000920E-02 0.  1.
       -2    1    3    3    0  502  0.28533843175E+03 -0.78948995811E+02 -0.34110680502E+02  0.29801762214E+03  0.25500000920E-02 0. -1.
</event>
<event>
 5   0  0.4026829E-03  0.9986386E+03  0.7818609E-02  0.9310039E-01
       -2   -1    0    0    0  501  0.00000000000E+00  0.00000000000E+00  0.18707255168E+03  0.18707255170E+03  0.25500000920E-02 0.  1.
        2   -1    0    0  501    0  0.00000000000E+00  0.00000000000E+00 -0.13327436268E+04  0.13327436268E+04  0.25500000920E-02 0. -1.
    10030    2    1    2    0    0  0.00000000000E+00  0.00000000000E+00 -0.11456710752E+04  0.15198161785E+04  0.99863857532E+03 0.  0.
        1    1    3    3  502    0  0.28739002180E+03 -0.27750638344E+03 -0.11698766116E+03  0.41627987025E+03  0.50400001928E-02 0.  1.
       -1    1    3    3    0  502 -0.28739002180E+03  0.27750638344E+03 -0.10286834140E+04  0.11035363083E+04  0.50400001928E-02 0. -1.
</event>
<event>
 5   0  0.2313036E-03  0.1003423E+04  0.7818609E-02  0.9304799E-01
       -1   -1    0    0    0  501  0.00000000000E+00  0.00000000000E+00  0.44860735709E+03  0.44860735712E+03  0.50400001928E-02 0. -1.
        1   -1    0    0  501    0  0.00000000000E+00  0.00000000000E+00 -0.56110162662E+03  0.56110162665E+03  0.50400001928E-02 0.  1.
    10030    2    1    2    0    0  0.00000000000E+00  0.00000000000E+00 -0.11249426953E+03  0.10097089838E+04  0.10034227779E+04 0.  0.
        3    1    3    3  502    0  0.12443022131E+03  0.46754819821E+03  0.77363114970E+02  0.48996863102E+03  0.10100000352E+00 0. -1.
       -3    1    3    3    0  502 -0.12443022131E+03 -0.46754819821E+03 -0.18985738450E+03  0.51974035275E+03  0.10100000352E+00 0.  1.
</event>
<event>
 5   0  0.2313036E-03  0.9976728E+03  0.7818609E-02  0.9311101E-01
        1   -1    0    0  501    0  0.00000000000E+00  0.00000000000E+00  0.90831138839E+03  0.90831138840E+03  0.50400001928E-02 0.  1.
       -1   -1    0    0    0  501  0.00000000000E+00  0.00000000000E+00 -0.27395645857E+03  0.27395645861E+03  0.50400001928E-02 0. -1.
    10030    2    1    2    0    0  0.00000000000E+00  0.00000000000E+00  0.63435492982E+03  0.11822678470E+04  0.99767283470E+03 0.  0.
        3    1    3    3  502    0 -0.18404560851E+03  0.38973620158E+03  0.61478330390E+03  0.75081663126E+03  0.10100000352E+00 0.  1.
       -3    1    3    3    0  502  0.18404560851E+03 -0.38973620158E+03  0.19571625924E+02  0.43145121575E+03  0.10100000352E+00 0. -1.
</event>
<event>
 5   0  0.1548000E-03  0.1007217E+04  0.7818609E-02  0.9300665E-01
       -3   -1    0    0    0  501  0.00000000000E+00  0.00000000000E+00  0.48868422536E+03  0.48868423580E+03  0.10100000352E+00 0.  1.
        3   -1    0    0  501    0  0.00000000000E+00  0.00000000000E+00 -0.51898822562E+03  0.51898823545E+03  0.10100000352E+00 0. -1.
    10030    2    1    2    0    0  0.00000000000E+00  0.00000000000E+00 -0.30304000260E+02  0.10076724713E+04  0.10072166981E+04 0.  0.
        4    1    3    3  502    0  0.35491679922E+02 -0.28159257222E+02  0.48663966660E+03  0.48874572236E+03  0.12699999809E+01 0.  1.
       -4    1    3    3    0  502 -0.35491679922E+02  0.28159257222E+02 -0.51694366686E+03  0.51892674890E+03  0.12699999809E+01 0. -1.
</event>
<event>
 5   0  0.4140860E-03  0.9961220E+03  0.7818609E-02  0.9312808E-01
       -2   -1    0    0    0  501  0.00000000000E+00  0.00000000000E+00  0.14830825498E+03  0.14830825500E+03  0.25500000920E-02 0.  1.
        2   -1    0    0  501    0  0.00000000000E+00  0.00000000000E+00 -0.16726296066E+04  0.16726296066E+04  0.25500000920E-02 0. -1.
    10030    2    1    2    0    0  0.00000000000E+00  0.00000000000E+00 -0.15243213517E+04  0.18209378616E+04  0.99612203711E+03 0.  0.
        3    1    3    3  502    0  0.32037182950E+03 -0.30786494721E+03 -0.35077000596E+03  0.56609057769E+03  0.10100000352E+00 0.  1.
       -3    1    3    3    0  502 -0.32037182950E+03  0.30786494721E+03 -0.11735513457E+04  0.12548472840E+04  0.10100000352E+00 0. -1.
</event>
<event>
 5   0  0.2378609E-03  0.9975901E+03  0.7818609E-02  0.9311192E-01
        1   -1    0    0  501    0  0.00000000000E+00  0.00000000000E+00  0.29139131173E+03  0.29139131177E+03  0.50400001928E-02 0.  1.
       -1   -1    0    0    0  501  0.00000000000E+00  0.00000000000E+00 -0.85382271438E+03  0.85382271440E+03  0.50400001928E-02 0. -1.
    10030    2    1    2    0    0  0.00000000000E+00  0.00000000000E+00 -0.56243140266E+03  0.11452140262E+04  0.99759013781E+03 0.  0.
        1    1    3    3  502    0  0.15520921080E+03 -0.69616299332E+01 -0.82533685178E+03  0.83983288953E+03  0.50400001928E-02 0. -1.
       -1    1    3    3    0  502 -0.15520921080E+03  0.69616299332E+01  0.26290544913E+03  0.30538113664E+03  0.50400001928E-02 0.  1.
</event>
<event>
 5   0  0.3895011E-03  0.1094728E+04  0.7818609E-02  0.9210345E-01
        2   -1    0    0  501    0  0.00000000000E+00  0.00000000000E+00  0.71502582642E+03  0.71502582643E+03  0.25500000920E-02 0. -1.
       -2   -1    0    0    0  501  0.00000000000E+00  0.00000000000E+00 -0.41901643596E+03  0.41901643596E+03  0.25500000920E-02 0.  1.
    10030    2    1    2    0    0  0.00000000000E+00  0.00000000000E+00  0.29600939047E+03  0.11340422624E+04  0.10947284109E+04 0.  0.
        2    1    3    3  502    0 -0.68209626772E+02  0.35190424484E+02 -0.41341434409E+03  0.42047870228E+03  0.25500000920E-02 0.  1.
       -2    1    3    3    0  502  0.68209626772E+02 -0.35190424484E+02  0.70942373456E+03  0.71356356012E+03  0.25500000920E-02 0. -1.
</event>
<event>
 5   0  0.2405022E-03  0.9440685E+03  0.7818609E-02  0.9372111E-01
       -1   -1    0    0    0  501  0.00000000000E+00  0.00000000000E+00  0.11386347356E+03  0.11386347367E+03  0.50400001928E-02 0. -1.
        1   -1    0    0  501    0  0.00000000000E+00  0.00000000000E+00 -0.19568726719E+04  0.19568726719E+04  0.50400001928E-02 0.  1.
    10030    2    1    2    0    0  0.00000000000E+00  0.00000000000E+00 -0.18430091983E+04  0.20707361455E+04  0.94406847180E+03 0.  0.
        4    1    3    3  502    0 -0.25859050969E+02 -0.37101278386E+03 -0.28391952877E+03  0.46790072454E+03  0.12699999809E+01 0. -1.
       -4    1    3    3    0  502  0.25859050969E+02  0.37101278386E+03 -0.15590896695E+04  0.16028354210E+04  0.12699999809E+01 0.  1.
</event>
<event>
 5   0  0.2378609E-03  0.1015779E+04  0.7818609E-02  0.9291406E-01
       -1   -1    0    0    0  501  0.00000000000E+00  0.00000000000E+00  0.48882682905E+03  0.48882682908E+03  0.50400001928E-02 0.  1.
        1   -1    0    0  501    0  0.00000000000E+00  0.00000000000E+00 -0.52769513630E+03  0.52769513632E+03  0.50400001928E-02 0. -1.
    10030    2    1    2    0    0  0.00000000000E+00  0.00000000000E+00 -0.38868307244E+02  0.10165219654E+04  0.10157785983E+04 0.  0.
        1    1    3    3  502    0 -0.20949111103E+03  0.54232688315E+01  0.44354423510E+03  0.49055827988E+03  0.50400001928E-02 0.  1.
       -1    1    3    3    0  502  0.20949111103E+03 -0.54232688315E+01 -0.48241254235E+03  0.52596368552E+03  0.50400001928E-02 0. -1.
</event>
<event>
 5   0  0.2350769E-03  0.1003190E+04  0.7818609E-02  0.9305053E-01
        1   -1    0    0  501    0  0.00000000000E+00  0.00000000000E+00  0.11171525170E+04  0.11171525170E+04  0.50400001928E-02 0. -1.
       -1   -1    0    0    0  501  0.00000000000E+00  0.00000000000E+00 -0.22521319339E+03  0.22521319345E+03  0.50400001928E-02 0.  1.
    10030    2    1    2    0    0  0.00000000000E+00  0.00000000000E+00  0.89193932357E+03  0.13423657104E+04  0.10031898841E+04 0.  0.
        2    1    3    3  502    0  0.36931191300E+03  0.13376271131E+02  0.89979434810E+03  0.97272816480E+03  0.25500000920E-02 0. -1.
       -2    1    3    3    0  502 -0.36931191300E+03 -0.13376271131E+02 -0.78550245328E+01  0.36963754562E+03  0.25500000920E-02 0.  1.
</event>
<event>
 5   0  0.2313036E-03  0.9882059E+03  0.7818609E-02  0.9321576E-01
        1   -1    0    0  501    0  0.00000000000E+00  0.00000000000E+00  0.65799239089E+03  0.65799239091E+03  0.50400001928E-02 0.  1.
       -1   -1    0    0    0  501  0.00000000000E+00  0.00000000000E+00 -0.37103425871E+03  0.37103425874E+03  0.50400001928E-02 0. -1.
    10030    2    1    2    0    0  0.00000000000E+00  0.00000000000E+00  0.28695813218E+03  0.10290266497E+04  0.98820588749E+03 0.  0.
        3    1    3    3  502    0 -0.29974510923E+03 -0.69593694234E+02  0.54603220380E+03  0.62677076397E+03  0.10100000352E+00 0.  1.
       -3    1    3    3    0  502  0.29974510923E+03  0.69593694234E+02 -0.25907407161E+03  0.40225588568E+03  0.10100000352E+00 0. -1.
</event>
<event>
 5   0  0.3826483E-03  0.1014199E+04  0.7818609E-02  0.9293108E-01
       -2   -1    0    0    0  501  0.00000000000E+00  0.00000000000E+00  0.22422238674E+03  0.22422238675E+03  0.25500000920E-02 0.  1.
        2   -1    0    0  501    0  0.00000000000E+00  0.00000000000E+00 -0.11468509949E+04  0.11468509949E+04  0.25500000920E-02 0. -1.
    10030    2    1    2    0    0  0.00000000000E+00  0.00000000000E+00 -0.92262860819E+03  0.13710733817E+04  0.10141985354E+04 0.  0.
        4    1    3    3  502    0 -0.29733624278E+03 -0.39420306661E+03 -0.30515531357E+03  0.58045351002E+03  0.12699999809E+01 0.  1.
       -4    1    3    3    0  502  0.29733624278E+03  0.39420306661E+03 -0.61747329462E+03  0.79061987166E+03  0.12699999809E+01 0. -1.
</event>
<event>
 5   0  0.3826483E-03  0.1011093E+04  0.7818609E-02  0.9296462E-01
       -2   -1    0    0    0  501  0.00000000000E+00  0.00000000000E+00  0.37335972693E+03  0.37335972694E+03  0.25500000920E-02 0.  1.
        2   -1    0    0  501    0  0.00000000000E+00  0.00000000000E+00 -0.68453313803E+03  0.68453313803E+03  0.25500000920E-02 0. -1.
    10030    2    1    2    0    0  0.00000000000E+00  0.00000000000E+00 -0.31117341109E+03  0.10578928650E+04  0.10110926871E+04 0.  0.
        4    1    3    3  502    0 -0.46167131292E+03 -0.20436106233E+03 -0.18270244563E+03  0.53692237940E+03  0.12699999809E+01 0.  1.
       -4    1    3    3    0  502  0.46167131292E+03  0.20436106233E+03 -0.12847096547E+03  0.52097048557E+03  0.12699999809E+01 0. -1.
</event>
<event>
 5   0  0.2350769E-03  0.1000920E+04  0.7818609E-02  0.9307537E-01
        1   -1    0    0  501    0  0.00000000000E+00  0.00000000000E+00  0.15012545005E+04  0.15012545006E+04  0.50400001928E-02 0. -1.
       -1   -1    0    0    0  501  0.00000000000E+00  0.00000000000E+00 -0.16683383840E+03  0.16683383848E+03  0.50400001928E-02 0.  1.
    10030    2    1    2    0    0  0.00000000000E+00  0.00000000000E+00  0.13344206621E+04  0.16680883390E+04  0.10009196787E+04 0.  0.
        2    1    3    3  502    0  0.25191620463E+03 -0.40809011216E+03  0.42882449093E+03  0.64334264418E+03  0.25500000920E-02 0.  1.
       -2    1    3    3    0  502 -0.25191620463E+03  0.40809011216E+03  0.90559617122E+03  0.10247456949E+04  0.25500000920E-02 0. -1.
</event>
<event>
 5   0  0.3826483E-03  0.1005165E+04  0.7818609E-02  0.9302898E-01
        2   -1    0    0  501    0  0.00000000000E+00  0.00000000000E+00  0.95886197316E+03  0.95886197316E+03  0.25500000920E-02 0.  1.
       -2   -1    0    0    0  501  0.00000000000E+00  0.00000000000E+00 -0.26342579348E+03  0.26342579350E+03  0.25500000920E-02 0. -1.
    10030    2    1    2    0    0  0.00000000000E+00  0.00000000000E+00  0.69543617968E+03  0.12222877667E+04  0.10051646156E+04 0.  0.
        4    1    3    3  502    0 -0.38767493342E+03  0.95202137685E+02 -0.23576754211E+02  0.39989095671E+03  0.12699999809E+01 0. -1.
       -4    1    3    3    0  502  0.38767493342E+03 -0.95202137685E+02  0.71901293389E+03  0.82239680995E+03  0.12699999809E+01 0.  1.
</event>
<event>
 5   0  0.4026829E-03  0.1007165E+04  0.7818609E-02  0.9300721E-01
       -2   -1    0    0    0  501  0.00000000000E+00  0.00000000000E+00  0.72039627427E+03  0.72039627428E+03  0.25500000920E-02 0.  1.
        2   -1    0    0  501    0  0.00000000000E+00  0.00000000000E+00 -0.35202195264E+03  0.35202195265E+03  0.25500000920E-02 0. -1.
    10030    2    1    2    0    0  0.00000000000E+00  0.00000000000E+00  0.36837432163E+03  0.10724182269E+04  0.10071649381E+04 0.  0.
        1    1    3    3  502    0 -0.16232747755E+03  0.43305185447E+03  0.39637476483E+03  0.60909529045E+03  0.50400001928E-02 0.  1.
       -1    1    3    3    0  502  0.16232747755E+03 -0.43305185447E+03 -0.28000443196E+02  0.46332293648E+03  0.50400001928E-02 0. -1.
</event>
<event>
 5   0  0.3826483E-03  0.1004304E+04  0.7818609E-02  0.9303837E-01
        2   -1    0    0  501    0  0.00000000000E+00  0.00000000000E+00  0.10674438631E+04  0.10674438631E+04  0.25500000920E-02 0. -1.
       -2   -1    0    0    0  501  0.00000000000E+00  0.00000000000E+00 -0.23622475465E+03  0.23622475466E+03  0.25500000920E-02 0.  1.
    10030    2    1    2    0    0  0.00000000000E+00  0.00000000000E+00  0.83121910848E+03  0.13036686178E+04  0.10043040669E+04 0.  0.
        4    1    3    3  502    0 -0.46256003840E+03  0.80847354629E+02  0.64656948881E+03  0.79909436278E+03  0.12699999809E+01 0. -1.
       -4    1    3    3    0  502  0.46256003840E+03 -0.80847354629E+02  0.18464961967E+03  0.50457425501E+03  0.12699999809E+01 0.  1.
</event>
<event>
 5   0  0.2313036E-03  0.9963686E+03  0.7818609E-02  0.9312537E-01
        1   -1    0    0  501    0  0.00000000000E+00  0.00000000000E+00  0.45135752837E+03  0.45135752840E+03  0.50400001928E-02 0. -1.
       -1   -1    0    0    0  501  0.00000000000E+00  0.00000000000E+00 -0.54986918607E+03  0.54986918609E+03  0.50400001928E-02 0.  1.
    10030    2    1    2    0    0  0.00000000000E+00  0.00000000000E+00 -0.98511657697E+02  0.10012267145E+04  0.99636860002E+03 0.  0.
        3    1    3    3  502    0 -0.92225757891E+02  0.20841700576E+03 -0.49441054099E+03  0.54441255676E+03  0.10100000352E+00 0.  1.
       -3    1    3    3    0  502  0.92225757891E+02 -0.20841700576E+03  0.39589888330E+03  0.45681415773E+03  0.10100000352E+00 0. -1.
</event>
<event>
 5   0  0.3873874E-03  0.1000458E+04  0.7818609E-02  0.9308042E-01
        2   -1    0    0  501    0  0.00000000000E+00  0.00000000000E+00  0.10118428333E+04  0.10118428333E+04  0.25500000920E-02 0. -1.
       -2   -1    0    0    0  501  0.00000000000E+00  0.00000000000E+00 -0.24730046768E+03  0.24730046770E+03  0.25500000920E-02 0.  1.
    10030    2    1    2    0    0  0.00000000000E+00  0.00000000000E+00  0.76454236560E+03  0.12591433010E+04  0.10004583068E+04 0.  0.
        5    1    3    3  502    0  0.25485761416E+03  0.27708638239E+03 -0.32249970170E+02  0.37787751637E+03  0.46999998093E+01 0.  1.
       -5    1    3    3    0  502 -0.25485761416E+03 -0.27708638239E+03  0.79679233577E+03  0.88126578462E+03  0.46999998093E+01 0. -1.
</event>
<event>
 5   0  0.2313036E-03  0.1048194E+04  0.7818609E-02  0.9257211E-01
       -1   -1    0    0    0  501  0.00000000000E+00  0.00000000000E+00  0.38844265818E+03  0.38844265821E+03  0.50400001928E-02 0.  1.
        1   -1    0    0  501    0  0.00000000000E+00  0.00000000000E+00 -0.70712499215E+03  0.70712499217E+03  0.50400001928E-02 0. -1.
    10030    2    1    2    0    0  0.00000000000E+00  0.00000000000E+00 -0.31868233397E+03  0.10955676504E+04  0.10481937066E+04 0.  0.
        3    1    3    3  502    0 -0.60234148058E+02  0.36083538785E+03  0.23291674975E+03  0.43368254776E+03  0.10100000352E+00 0.  1.
       -3    1    3    3    0  502  0.60234148058E+02 -0.36083538785E+03 -0.55159908372E+03  0.66188510262E+03  0.10100000352E+00 0. -1.
</event>
<event>
 5   0  0.2313036E-03  0.9989691E+03  0.7818609E-02  0.9309676E-01
        1   -1    0    0  501    0  0.00000000000E+00  0.00000000000E+00  0.74031379479E+03  0.74031379481E+03  0.50400001928E-02 0.  1.
       -1   -1    0    0    0  501  0.00000000000E+00  0.00000000000E+00 -0.33699875850E+03  0.33699875854E+03  0.50400001928E-02 0. -1.
    10030    2    1    2    0    0  0.00000000000E+00  0.00000000000E+00  0.40331503630E+03  0.10773125533E+04  0.99896912820E+03 0.  0.
        3    1    3    3  502    0 -0.67276221671E+02 -0.89977403098E+02  0.72651099627E+03  0.73514642145E+03  0.10100000352E+00 0.  1.
       -3    1    3    3    0  502  0.67276221671E+02  0.89977403098E+02 -0.32319595997E+03  0.34216613189E+03  0.10100000352E+00 0. -1.
</event>
<event>
 5   0  0.4140860E-03  0.1004687E+04  0.7818609E-02  0.9303420E-01
       -2   -1    0    0    0  501  0.00000000000E+00  0.00000000000E+00  0.13155640358E+04  0.13155640358E+04  0.25500000920E-02 0. -1.
        2   -1    0    0  501    0  0.00000000000E+00  0.00000000000E+00 -0.19181793019E+03  0.19181793021E+03  0.25500000920E-02 0.  1.
    10030    2    1    2    0    0  0.00000000000E+00  0.00000000000E+00  0.11237461056E+04  0.15073819660E+04  0.10046865589E+04 0.  0.
        3    1    3    3  502    0 -0.42600786550E+03  0.22437355468E+03  0.77680875518E+03  0.91392452962E+03  0.10100000352E+00 0. -1.
       -3    1    3    3    0  502  0.42600786550E+03 -0.22437355468E+03  0.34693735043E+03  0.59345743641E+03  0.10100000352E+00 0.  1.
</event>
<event>
 5   0  0.2378609E-03  0.9803475E+03  0.7818609E-02  0.9330366E-01
        1   -1    0    0  501    0  0.00000000000E+00  0.00000000000E+00  0.45479672173E+03  0.45479672176E+03  0.50400001928E-02 0. -1.
       -1   -1    0    0    0  501  0.00000000000E+00  0.00000000000E+00 -0.52830259348E+03  0.52830259351E+03  0.50400001928E-02 0.  1.
    10030    2    1    2    0    0  0.00000000000E+00  0.00000000000E+00 -0.73505871754E+02  0.98309931527E+03  0.98034746417E+03 0.  0.
        1    1    3    3  502    0  0.32213138756E+03  0.32026434165E+02  0.33235084106E+03  0.46395194246E+03  0.50400001928E-02 0. -1.
       -1    1    3    3    0  502 -0.32213138756E+03 -0.32026434165E+02 -0.40585671281E+03  0.51914737281E+03  0.50400001928E-02 0.  1.
</event>
<event>
 5   0  0.2405022E-03  0.9975884E+03  0.7818609E-02  0.9311194E-01
        1   -1    0    0  501    0  0.00000000000E+00  0.00000000000E+00  0.10523669089E+04  0.10523669089E+04  0.50400001928E-02 0. -1.
       -1   -1    0    0    0  501  0.00000000000E+00  0.00000000000E+00 -0.23641531383E+03  0.23641531389E+03  0.50400001928E-02 0.  1.
    10030    2    1    2    0    0  0.00000000000E+00  0.00000000000E+00  0.81595159503E+03  0.12887822228E+04  0.99758839822E+03 0.  0.
        4    1    3    3  502    0  0.16569105897E+02  0.47127332731E+03  0.61796763316E+03  0.77734078295E+03  0.12699999809E+01 0. -1.
       -4    1    3    3    0  502 -0.16569105897E+02 -0.47127332731E+03  0.19798396187E+03  0.51144143981E+03  0.12699999809E+01 0.  1.
</event>
<event>
 5   0  0.2327595E-03  0.9927878E+03  0.7818609E-02  0.9316491E-01
        1   -1    0    0  501    0  0.00000000000E+00  0.00000000000E+00  0.62433441768E+03  0.62433441770E+03  0.50400001928E-02 0.  1.
       -1   -1    0    0    0  501  0.00000000000E+00  0.00000000000E+00 -0.39467135742E+03  0.39467135745E+03  0.50400001928E-02 0. -1.
    10030    2    1    2    0    0  0.00000000000E+00  0.00000000000E+00  0.22966306026E+03  0.10190057752E+04  0.99278781648E+03 0.  0.
        5    1    3    3  502    0 -0.24560300024E+03 -0.62269431628E+02 -0.32327357137E+03  0.41076295815E+03  0.46999998093E+01 0. -1.
       -5    1    3    3    0  502  0.24560300024E+03  0.62269431628E+02  0.55293663163E+03  0.60824281701E+03  0.46999998093E+01 0.  1.
</event>
<event>
 5   0  0.2405022E-03  0.9970575E+03  0.7818609E-02  0.9311778E-01
       -1   -1    0    0    0  501  0.00000000000E+00  0.00000000000E+00  0.27816484246E+03  0.27816484250E+03  0.50400001928E-02 0. -1.
        1   -1    0    0  501    0  0.00000000000E+00  0.00000000000E+00 -0.89346634478E+03  0.89346634479E+03  0.50400001928E-02 0.  1.
    10030    2    1    2    0    0  0.00000000000E+00  0.00000000000E+00 -0.61530150232E+03  0.11716311873E+04  0.99705752105E+03 0.  0.
        4    1    3    3  502    0 -0.19624806223E+03  0.42488470246E+03 -0.50944125809E+03  0.69178921693E+03  0.12699999809E+01 0.  1.
       -4    1    3    3    0  502  0.19624806223E+03 -0.42488470246E+03 -0.10586024423E+03  0.47984197036E+03  0.12699999809E+01 0. -1.
</event>
<event>
 5   0  0.2378609E-03  0.1002842E+04  0.7818609E-02  0.9305433E-01
       -1   -1    0    0    0  501  0.00000000000E+00  0.00000000000E+00  0.11478273114E+03  0.11478273125E+03  0.50400001928E-02 0.  1.
        1   -1    0    0  501    0  0.00000000000E+00  0.00000000000E+00 -0.21904258566E+04  0.21904258566E+04  0.50400001928E-02 0. -1.
    10030    2    1    2    0    0  0.00000000000E+00  0.00000000000E+00 -0.20756431255E+04  0.23052085879E+04  0.10028420859E+04 0.  0.
        1    1    3    3  502    0 -0.44145457790E+03  0.15869943476E+03 -0.63078455137E+03  0.78610228674E+03  0.50400001928E-02 0.  1.
       -1    1    3    3    0  502  0.44145457790E+03 -0.15869943476E+03 -0.14448585741E+04  0.15191063011E+04  0.50400001928E-02 0. -1.
</event>
<event>
 5   0  0.3826483E-03  0.1046990E+04  0.7818609E-02  0.9258457E-01
        2   -1    0    0  501    0  0.00000000000E+00  0.00000000000E+00  0.17253979870E+04  0.17253979870E+04  0.25500000920E-02 0.  1.
       -2   -1    0    0    0  501  0.00000000000E+00  0.00000000000E+00 -0.15883125244E+03  0.15883125246E+03  0.25500000920E-02 0. -1.
    10030    2    1    2    0    0  0.00000000000E+00  0.00000000000E+00  0.15665667345E+04  0.18842292394E+04  0.10469902067E+04 0.  0.
        4    1    3    3  502    0 -0.12727254719E+03  0.18668946143E+03 -0.66558173384E+02  0.23554799855E+03  0.12699999809E+01 0. -1.
       -4    1    3    3    0  502  0.12727254719E+03 -0.18668946143E+03  0.16331249079E+04  0.16486812409E+04  0.12699999809E+01 0.  1.
</event>
<event>
 5   0  0.2405022E-03  0.9970818E+03  0.7818609E-02  0.9311751E-01
        1   -1    0    0  501    0  0.00000000000E+00  0.00000000000E+00  0.23716328248E+03  0.23716328253E+03  0.50400001928E-02 0.  1.
       -1   -1    0    0    0  501  0.00000000000E+00  0.00000000000E+00 -0.10479827011E+04  0.10479827011E+04  0.50400001928E-02 0. -1.
    10030    2    1    2    0    0  0.00000000000E+00  0.00000000000E+00 -0.81081941865E+03  0.12851459837E+04  0.99708177682E+03 0.  0.
        4    1    3    3  502    0 -0.38444608310E+02  0.17096607690E+03  0.19615802533E+03  0.26303416349E+03  0.12699999809E+01 0.  1.
       -4    1    3    3    0  502  0.38444608310E+02 -0.17096607690E+03 -0.10069774440E+04  0.10221118202E+04  0.12699999809E+01 0. -1.
</event>
<event>
 5   0  0.2405022E-03  0.9438644E+03  0.7818609E-02  0.9372351E-01
       -1   -1    0    0    0  501  0.00000000000E+00  0.00000000000E+00  0.23580645430E+03  0.23580645436E+03  0.50400001928E-02 0. -1.
        1   -1    0    0  501    0  0.00000000000E+00  0.00000000000E+00 -0.94450339862E+03  0.94450339863E+03  0.50400001928E-02 0.  1.
    10030    2    1    2    0    0  0.00000000000E+00  0.00000000000E+00 -0.70869694432E+03  0.11803098530E+04  0.94386439184E+03 0.  0.
        4    1    3    3  502    0 -0.25197890049E+03  0.39895758775E+03 -0.34483626331E+03  0.58444348273E+03  0.12699999809E+01 0. -1.
       -4    1    3    3    0  502  0.25197890049E+03 -0.39895758775E+03 -0.36386068101E+03  0.59586637026E+03  0.12699999809E+01 0.  1.
</event>
<event>
 5   0  0.2313036E-03  0.9960869E+03  0.7818609E-02  0.9312847E-01
       -1   -1    0    0    0  501  0.00000000000E+00  0.00000000000E+00  0.19768382291E+04  0.19768382291E+04  0.50400001928E-02 0.  1.
        1   -1    0    0  501    0  0.00000000000E+00  0.00000000000E+00 -0.12547677628E+03  0.12547677638E+03  0.50400001928E-02 0. -1.
    10030    2    1    2    0    0  0.00000000000E+00  0.00000000000E+00  0.18513614528E+04  0.21023150055E+04  0.99608692056E+03 0.  0.
        3    1    3    3  502    0 -0.43782778143E+03 -0.20453952036E+03  0.67137894069E+03  0.82721174665E+03  0.10100000352E+00 0. -1.
       -3    1    3    3    0  502  0.43782778143E+03  0.20453952036E+03  0.11799825121E+04  0.12751032588E+04  0.10100000352E+00 0.  1.
</event>
<event>
 5   0  0.2313036E-03  0.9931545E+03  0.7818609E-02  0.9316085E-01
        1   -1    0    0  501    0  0.00000000000E+00  0.00000000000E+00  0.10866627087E+04  0.10866627087E+04  0.50400001928E-02 0.  1.
       -1   -1    0    0    0  501  0.00000000000E+00  0.00000000000E+00 -0.22692320923E+03  0.22692320929E+03  0.50400001928E-02 0. -1.
    10030    2    1    2    0    0  0.00000000000E+00  0.00000000000E+00  0.85973949946E+03  0.13135859180E+04  0.99315454840E+03 0.  0.
        3    1    3    3  502    0 -0.31483065154E+03 -0.37602291089E+03  0.32675971575E+03  0.58930763673E+03  0.10100000352E+00 0.  1.
       -3    1    3    3    0  502  0.31483065154E+03  0.37602291089E+03  0.53297978371E+03  0.72427828126E+03  0.10100000352E+00 0. -1.
</event>
<event>
 5   0  0.3826483E-03  0.9956966E+03  0.7818609E-02  0.9313277E-01
        2   -1    0    0  501    0  0.00000000000E+00  0.00000000000E+00  0.13444874442E+04  0.13444874442E+04  0.25500000920E-02 0. -1.
       -2   -1    0    0    0  501  0.00000000000E+00  0.00000000000E+00 -0.18434753219E+03  0.18434753221E+03  0.25500000920E-02 0.  1.
    10030    2    1    2    0    0  0.00000000000E+00  0.00000000000E+00  0.11601399120E+04  0.15288349764E+04  0.99569662531E+03 0.  0.
        4    1    3    3  502    0  0.48138567417E+03  0.57970781455E+02  0.40663595352E+03  0.63280896832E+03  0.12699999809E+01 0.  1.
       -4    1    3    3    0  502 -0.48138567417E+03 -0.57970781455E+02  0.75350395847E+03  0.89602600807E+03  0.12699999809E+01 0. -1.
</event>
<event>
 5   0  0.2350769E-03  0.9958292E+03  0.7818609E-02  0.9313131E-01
       -1   -1    0    0    0  501  0.00000000000E+00  0.00000000000E+00  0.50200387915E+03  0.50200387917E+03  0.50400001928E-02 0. -1.
        1   -1    0    0  501    0  0.00000000000E+00  0.00000000000E+00 -0.49385861604E+03  0.49385861606E+03  0.50400001928E-02 0.  1.
    10030    2    1    2    0    0  0.00000000000E+00  0.00000000000E+00  0.81452631096E+01  0.99586249524E+03  0.99582918420E+03 0.  0.
        2    1    3    3  502    0  0.17750716122E+03  0.38559483778E+03 -0.25617974765E+03  0.49580261629E+03  0.25500000920E-02 0.  1.
       -2    1    3    3    0  502 -0.17750716122E+03 -0.38559483778E+03  0.26432501076E+03  0.50005987894E+03  0.25500000920E-02 0. -1.
</event>
<event>
 5   0  0.2405022E-03  0.1011978E+04  0.7818609E-02  0.9295505E-01
        1   -1    0    0  501    0  0.00000000000E+00  0.00000000000E+00  0.66461303450E+03  0.66461303451E+03  0.50400001928E-02 0.  1.
       -1   -1    0    0    0  501  0.00000000000E+00  0.00000000000E+00 -0.38522359007E+03  0.38522359010E+03  0.50400001928E-02 0. -1.
    10030    2    1    2    0    0  0.00000000000E+00  0.00000000000E+00  0.27938944443E+03  0.10498366246E+04  0.10119775080E+04 0.  0.
        4    1    3    3  502    0  0.40312420004E+03  0.11347410482E+03  0.43428568671E+03  0.60331680210E+03  0.12699999809E+01 0.  1.
       -4    1    3    3    0  502 -0.40312420004E+03 -0.11347410482E+03 -0.15489624228E+03  0.44651982251E+03  0.12699999809E+01 0. -1.
</event>
<event>
 5   0  0.3826483E-03  0.1008428E+04  0.7818609E-02  0.9299350E-01
       -2   -1    0    0    0  501  0.00000000000E+00  0.00000000000E+00  0.87006012364E+03  0.87006012364E+03  0.25500000920E-02 0.  1.
        2   -1    0    0  501    0  0.00000000000E+00  0.00000000000E+00 -0.29219996589E+03  0.29219996591E+03  0.25500000920E-02 0. -1.
    10030    2    1    2    0    0  0.00000000000E+00  0.00000000000E+00  0.57786015774E+03  0.11622600895E+04  0.10084275650E+04 0.  0.
        4    1    3    3  502    0 -0.28545577981E+03  0.40262576181E+03  0.17005884931E+03  0.52202886072E+03  0.12699999809E+01 0. -1.
       -4    1    3    3    0  502  0.28545577981E+03 -0.40262576181E+03  0.40780130843E+03  0.64023122882E+03  0.12699999809E+01 0.  1.
</event>
<event>
 5   0  0.3873874E-03  0.1002498E+04  0.7818609E-02  0.9305809E-01
        2   -1    0    0  501    0  0.00000000000E+00  0.00000000000E+00  0.41442120749E+03  0.41442120750E+03  0.25500000920E-02 0. -1.
       -2   -1    0    0    0  501  0.00000000000E+00  0.00000000000E+00 -0.60626867963E+03  0.60626867964E+03  0.25500000920E-02 0.  1.
    10030    2    1    2    0    0  0.00000000000E+00  0.00000000000E+00 -0.19184747214E+03  0.10206898871E+04  0.10024980764E+04 0.  0.
        5    1    3    3  502    0  0.75694305670E+02  0.36625183708E+03 -0.43568346063E+03  0.57420571569E+03  0.46999998093E+01 0.  1.
       -5    1    3    3    0  502 -0.75694305670E+02 -0.36625183708E+03  0.24383598848E+03  0.44648417144E+03  0.46999998093E+01 0. -1.
</event>
<event>
 5   0  0.2405022E-03  0.1002628E+04  0.7818609E-02  0.9305667E-01
        1   -1    0    0  501    0  0.00000000000E+00  0.00000000000E+00  0.87322717432E+03  0.87322717433E+03  0.50400001928E-02 0. -1.
       -1   -1    0    0    0  501  0.00000000000E+00  0.00000000000E+00 -0.28780095688E+03  0.28780095692E+03  0.50400001928E-02 0.  1.
    10030    2    1    2    0    0  0.00000000000E+00  0.00000000000E+00  0.58542621744E+03  0.11610281313E+04  0.10026277801E+04 0.  0.
        4    1    3    3  502    0 -0.97088067182E+01 -0.17312202431E+03  0.83739530965E+03  0.85515964226E+03  0.12699999809E+01 0. -1.
       -4    1    3    3    0  502  0.97088067182E+01  0.17312202431E+03 -0.25196909221E+03  0.30586848899E+03  0.12699999809E+01 0.  1.
</event>
<event>
 5   0  0.3826483E-03  0.1043815E+04  0.7818609E-02  0.9261753E-01
        2   -1    0    0  501    0  0.00000000000E+00  0.00000000000E+00  0.63537755467E+03  0.63537755467E+03  0.25500000920E-02 0. -1.
       -2   -1    0    0    0  501  0.00000000000E+00  0.00000000000E+00 -0.42870164109E+03  0.42870164110E+03  0.25500000920E-02 0.  1.
    10030    2    1    2    0    0  0.00000000000E+00  0.00000000000E+00  0.20667591358E+03  0.10640791958E+04  0.10438149269E+04 0.  0.
        4    1    3    3  502    0  0.31889411777E+03  0.18982776070E+03 -0.27074345331E+03  0.45938183191E+03  0.12699999809E+01 0.  1.
       -4    1    3    3    0  502 -0.31889411777E+03 -0.18982776070E+03  0.47741936689E+03  0.60469736386E+03  0.12699999809E+01 0. -1.
</event>
<event>
 5   0  0.4140860E-03  0.9974679E+03  0.7818609E-02  0.9311326E-01
       -2   -1    0    0    0  501  0.00000000000E+00  0.00000000000E+00  0.11902257709E+03  0.11902257712E+03  0.25500000920E-02 0.  1.
        2   -1    0    0  501    0  0.00000000000E+00  0.00000000000E+00 -0.20898180375E+04  0.20898180375E+04  0.25500000920E-02 0. -1.
    10030    2    1    2    0    0  0.00000000000E+00  0.00000000000E+00 -0.19707954604E+04  0.22088406146E+04  0.99746785111E+03 0.  0.
        3    1    3    3  502    0 -0.11126600423E+02  0.32733786465E+03 -0.18182822986E+04  0.18475455087E+04  0.10100000352E+00 0. -1.
       -3    1    3    3    0  502  0.11126600423E+02 -0.32733786465E+03 -0.15251316179E+03  0.36129510596E+03  0.10100000352E+00 0.  1.
</event>
<event>
 5   0  0.2327595E-03  0.9967326E+03  0.7818609E-02  0.9312136E-01
        1   -1    0    0  501    0  0.00000000000E+00  0.00000000000E+00  0.75664408836E+03  0.75664408837E+03  0.50400001928E-02 0. -1.
       -1   -1    0    0    0  501  0.00000000000E+00  0.00000000000E+00 -0.32825074460E+03  0.32825074464E+03  0.50400001928E-02 0.  1.
    10030    2    1    2    0    0  0.00000000000E+00  0.00000000000E+00  0.42839334376E+03  0.10848948330E+04  0.99673263302E+03 0.  0.
        5    1    3    3  502    0 -0.31588183922E+03 -0.14395373782E+03 -0.17498039191E+03  0.38877273893E+03  0.46999998093E+01 0.  1.
       -5    1    3    3    0  502  0.31588183922E+03  0.14395373782E+03  0.60337373567E+03  0.69612209408E+03  0.46999998093E+01 0. -1.
</event>
<event>
 5   0  0.3895011E-03  0.9181956E+03  0.7818609E-02  0.9403118E-01
       -2   -1    0    0    0  501  0.00000000000E+00  0.00000000000E+00  0.80115905151E+03  0.80115905152E+03  0.25500000920E-02 0. -1.
        2   -1    0    0  501    0  0.00000000000E+00  0.00000000000E+00 -0.26308235803E+03  0.26308235805E+03  0.25500000920E-02 0.  1.
    10030    2    1    2    0    0  0.00000000000E+00  0.00000000000E+00  0.53807669348E+03  0.10642414096E+04  0.91819564896E+03 0.  0.
        2    1    3    3  502    0  0.39878712876E+01  0.27143516695E+03  0.69816805351E+03  0.74908716711E+03  0.25500000920E-02 0. -1.
       -2    1    3    3    0  502 -0.39878712876E+01 -0.27143516695E+03 -0.16009136003E+03  0.31515424246E+03  0.25500000920E-02 0.  1.
</event>
<event>
 5   0  0.2327595E-03  0.1009910E+04  0.7818609E-02  0.9297743E-01
        1   -1    0    0  501    0  0.00000000000E+00  0.00000000000E+00  0.76786658376E+03  0.76786658378E+03  0.50400001928E-02 0.  1.
       -1   -1    0    0    0  501  0.00000000000E+00  0.00000000000E+00 -0.33206199696E+03  0.33206199700E+03  0.50400001928E-02 0. -1.
    10030    2    1    2    0    0  0.00000000000E+00  0.00000000000E+00  0.43580458681E+03  0.10999285808E+04  0.10099095231E+04 0.  0.
        5    1    3    3  502    0 -0.18903211518E+01  0.32041438930E+03  0.64292804288E+03  0.71836447052E+03  0.46999998093E+01 0.  1.
       -5    1    3    3    0  502  0.18903211518E+01 -0.32041438930E+03 -0.20712345607E+03  0.38156411026E+03  0.46999998093E+01 0. -1.
</event>
<event>
 5   0  0.3895011E-03  0.9980606E+03  0.7818609E-02  0.9310674E-01
        2   -1    0    0  501    0  0.00000000000E+00  0.00000000000E+00  0.93929495384E+03  0.93929495384E+03  0.25500000920E-02 0.  1.
       -2   -1    0    0    0  501  0.00000000000E+00  0.00000000000E+00 -0.26512570692E+03  0.26512570693E+03  0.25500000920E-02 0. -1.
    10030    2    1    2    0    0  0.00000000000E+00  0.00000000000E+00  0.67416924692E+03  0.12044206608E+04  0.99806059666E+03 0.  0.
        2    1    3    3  502    0  0.16749921149E+03 -0.25687089927E+03 -0.13800632923E+03  0.33628022787E+03  0.25500000920E-02 0. -1.
       -2    1    3    3    0  502 -0.16749921149E+03  0.25687089927E+03  0.81217557615E+03  0.86814043291E+03  0.25500000920E-02 0.  1.
</event>
<event>
 5   0  0.2313036E-03  0.9910733E+03  0.7818609E-02  0.9318390E-01
        1   -1    0    0  501    0  0.00000000000E+00  0.00000000000E+00  0.13329290927E+04  0.13329290927E+04  0.50400001928E-02 0. -1.
       -1   -1    0    0    0  501  0.00000000000E+00  0.00000000000E+00 -0.18422326837E+03  0.18422326843E+03  0.50400001928E-02 0.  1.
    10030    2    1    2    0    0  0.00000000000E+00  0.00000000000E+00  0.11487058244E+04  0.15171523612E+04  0.99107326474E+03 0.  0.
        3    1    3    3  502    0  0.42598974430E+03 -0.14285368207E+03  0.25440798682E+03  0.51633116378E+03  0.10100000352E+00 0. -1.
       -3    1    3    3    0  502 -0.42598974430E+03  0.14285368207E+03  0.89429783753E+03  0.10008211974E+04  0.10100000352E+00 0.  1.
</event>
<event>
 5   0  0.4140860E-03  0.1001774E+04  0.7818609E-02  0.9306601E-01
       -2   -1    0    0    0  501  0.00000000000E+00  0.00000000000E+00  0.82898757116E+03  0.82898757117E+03  0.25500000920E-02 0. -1.
        2   -1    0    0  501    0  0.00000000000E+00  0.00000000000E+00 -0.30264349685E+03  0.30264349686E+03  0.25500000920E-02 0.  1.
    10030    2    1    2    0    0  0.00000000000E+00  0.00000000000E+00  0.52634407431E+03  0.11316310680E+04  0.10017738216E+04 0.  0.
        3    1    3    3  502    0  0.20084912117E+03  0.40367694368E+03  0.16736537222E+02  0.45119349088E+03  0.10100000352E+00 0.  1.
       -3    1    3    3    0  502 -0.20084912117E+03 -0.40367694368E+03  0.50960753709E+03  0.68043757715E+03  0.10100000352E+00 0. -1.
</event>
<event>
 5   0  0.2350769E-03  0.1034004E+04  0.7818609E-02  0.9272017E-01
        1   -1    0    0  501    0  0.00000000000E+00  0.00000000000E+00  0.59938402299E+03  0.59938402301E+03  0.50400001928E-02 0.  1.
       -1   -1    0    0    0  501  0.00000000000E+00  0.00000000000E+00 -0.44594275019E+03  0.44594275022E+03  0.50400001928E-02 0. -1.
    10030    2    1    2    0    0  0.00000000000E+00  0.00000000000E+00  0.15344127279E+03  0.10453267732E+04  0.10340037904E+04 0.  0.
        2    1    3    3  502    0  0.15455565487E+03  0.25211027363E+03  0.50544466210E+03  0.58559486590E+03  0.25500000920E-02 0.  1.
       -2    1    3    3    0  502 -0.15455565487E+03 -0.25211027363E+03 -0.35200338931E+03  0.45973190732E+03  0.25500000920E-02 0. -1.
</event>
<event>
 5   0  0.2378609E-03  0.1001038E+04  0.7818609E-02  0.9307407E-01
        1   -1    0    0  501    0  0.00000000000E+00  0.00000000000E+00  0.10414214896E+04  0.10414214896E+04  0.50400001928E-02 0. -1.
       -1   -1    0    0    0  501  0.00000000000E+00  0.00000000000E+00 -0.24055517948E+03  0.24055517953E+03  0.50400001928E-02 0.  1.
    10030    2    1    2    0    0  0.00000000000E+00  0.00000000000E+00  0.80086631008E+03  0.12819766691E+04  0.10010381279E+04 0.  0.
        1    1    3    3  502    0  0.14923173948E+03 -0.13374682484E+03  0.98780364561E+03  0.10079257748E+04  0.50400001928E-02 0. -1.
       -1    1    3    3    0  502 -0.14923173948E+03  0.13374682484E+03 -0.18693733553E+03  0.27405089429E+03  0.50400001928E-02 0.  1.
</event>
<event>
 5   0  0.3895011E-03  0.1001005E+04  0.7818609E-02  0.9307443E-01
       -2   -1    0    0    0  501  0.00000000000E+00  0.00000000000E+00  0.12030192844E+04  0.12030192844E+04  0.25500000920E-02 0.  1.
        2   -1    0    0  501    0  0.00000000000E+00  0.00000000000E+00 -0.20822841389E+03  0.20822841391E+03  0.25500000920E-02 0. -1.
    10030    2    1    2    0    0  0.00000000000E+00  0.00000000000E+00  0.99479087047E+03  0.14112476983E+04  0.10010050899E+04 0.  0.
        2    1    3    3  502    0  0.20348651909E+03 -0.24879752086E+03  0.10382926072E+04  0.10869031732E+04  0.25500000920E-02 0.  1.
       -2    1    3    3    0  502 -0.20348651909E+03  0.24879752086E+03 -0.43501736688E+02  0.32434452507E+03  0.25500000920E-02 0. -1.
</event>
<event>
 5   0  0.2313036E-03  0.9994850E+03  0.7818609E-02  0.9309110E-01
       -1   -1    0    0    0  501  0.00000000000E+00  0.00000000000E+00  0.74489195412E+03  0.74489195414E+03  0.50400001928E-02 0.  1.
        1   -1    0    0  501    0  0.00000000000E+00  0.00000000000E+00 -0.33527354835E+03  0.33527354839E+03  0.50400001928E-02 0. -1.
    10030    2    1    2    0    0  0.00000000000E+00  0.00000000000E+00  0.40961840577E+03  0.10801655025E+04  0.99948500465E+03 0.  0.
        3    1    3    3  502    0 -0.15296214325E+03 -0.17364921283E+03  0.68349843963E+03  0.72161041675E+03  0.10100000352E+00 0.  1.
       -3    1    3    3    0  502  0.15296214325E+03  0.17364921283E+03 -0.27388003386E+03  0.35855508578E+03  0.10100000352E+00 0. -1.
</event>
<event>
 5   0  0.3826483E-03  0.9882172E+03  0.7818609E-02  0.9321563E-01
       -2   -1    0    0    0  501  0.00000000000E+00  0.00000000000E+00  0.49843263819E+03  0.49843263820E+03  0.25500000920E-02 0.  1.
        2   -1    0    0  501    0  0.00000000000E+00  0.00000000000E+00 -0.48982210141E+03  0.48982210142E+03  0.25500000920E-02 0. -1.
    10030    2    1    2    0    0  0.00000000000E+00  0.00000000000E+00  0.86105367793E+01  0.98825473962E+03  0.98821722765E+03 0.  0.
        4    1    3    3  502    0  0.19089292293E+03 -0.39092926587E+03 -0.22995970251E+03  0.49208624917E+03  0.12699999809E+01 0. -1.
       -4    1    3    3    0  502 -0.19089292293E+03  0.39092926587E+03  0.23857023929E+03  0.49616849045E+03  0.12699999809E+01 0.  1.
</event>
<event>
 5   0  0.4140860E-03  0.1005366E+04  0.7818609E-02  0.9302679E-01
       -2   -1    0    0    0  501  0.00000000000E+00  0.00000000000E+00  0.32173890142E+03  0.32173890143E+03  0.25500000920E-02 0. -1.
        2   -1    0    0  501    0  0.00000000000E+00  0.00000000000E+00 -0.78538932860E+03  0.78538932860E+03  0.25500000920E-02 0.  1.
    10030    2    1    2    0    0  0.00000000000E+00  0.00000000000E+00 -0.46365042718E+03  0.11071282300E+04  0.10053662015E+04 0.  0.
        3    1    3    3  502    0  0.73279864965E+01  0.27786278242E+02 -0.78448407018E+03  0.78501021854E+03  0.10100000352E+00 0.  1.
       -3    1    3    3    0  502 -0.73279864965E+01 -0.27786278242E+02  0.32083364300E+03  0.32211801149E+03  0.10100000352E+00 0. -1.
</event>
<event>
 5   0  0.3873874E-03  0.9903024E+03  0.7818609E-02  0.9319245E-01
        2   -1    0    0  501    0  0.00000000000E+00  0.00000000000E+00  0.79761771751E+03  0.79761771752E+03  0.25500000920E-02 0. -1.
       -2   -1    0    0    0  501  0.00000000000E+00  0.00000000000E+00 -0.30738373926E+03  0.30738373928E+03  0.25500000920E-02 0.  1.
    10030    2    1    2    0    0  0.00000000000E+00  0.00000000000E+00  0.49023397825E+03  0.11050014568E+04  0.99030241143E+03 0.  0.
        5    1    3    3  502    0 -0.53405715713E+02  0.84492019759E+02  0.78621778825E+03  0.79256013805E+03  0.46999998093E+01 0. -1.
       -5    1    3    3    0  502  0.53405715713E+02 -0.84492019759E+02 -0.29598381000E+03  0.31244131874E+03  0.46999998093E+01 0.  1.
</event>
<event>
 5   0  0.2405022E-03  0.9998369E+03  0.7818609E-02  0.9308724E-01
        1   -1    0    0  501    0  0.00000000000E+00  0.00000000000E+00  0.78575392690E+03  0.78575392691E+03  0.50400001928E-02 0. -1.
       -1   -1    0    0    0  501  0.00000000000E+00  0.00000000000E+00 -0.31806200779E+03  0.31806200783E+03  0.50400001928E-02 0.  1.
    10030    2    1    2    0    0  0.00000000000E+00  0.00000000000E+00  0.46769191911E+03  0.11038159347E+04  0.99983693000E+03 0.  0.
        4    1    3    3  502    0 -0.96792918042E+02 -0.46992702891E+03  0.78827560293E+02  0.48622595431E+03  0.12699999809E+01 0.  1.
       -4    1    3    3    0  502  0.96792918042E+02  0.46992702891E+03  0.38886435881E+03  0.61758998044E+03  0.12699999809E+01 0. -1.
</event>
<event>
 5   0  0.2313036E-03  0.1001236E+04  0.7818609E-02  0.9307190E-01
        1   -1    0    0  501    0  0.00000000000E+00  0.00000000000E+00  0.91531044367E+03  0.91531044369E+03  0.50400001928E-02 0. -1.
       -1   -1    0    0    0  501  0.00000000000E+00  0.00000000000E+00 -0.27380685880E+03  0.27380685884E+03  0.50400001928E-02 0.  1.
    10030    2    1    2    0    0  0.00000000000E+00  0.00000000000E+00  0.64150358488E+03  0.11891173025E+04  0.10012357913E+04 0.  0.
        3    1    3    3  502    0 -0.40207746358E+03  0.21204422178E+03  0.71658802750E+02  0.46017826212E+03  0.10100000352E+00 0.  1.
       -3    1    3    3    0  502  0.40207746358E+03 -0.21204422178E+03  0.56984478213E+03  0.72893904041E+03  0.10100000352E+00 0. -1.
</event>
<event>
 5   0  0.2327595E-03  0.9853899E+03  0.7818609E-02  0.9324716E-01
       -1   -1    0    0    0  501  0.00000000000E+00  0.00000000000E+00  0.21163423863E+03  0.21163423869E+03  0.50400001928E-02 0. -1.
        1   -1    0    0  501    0  0.00000000000E+00  0.00000000000E+00 -0.11470180908E+04  0.11470180908E+04  0.50400001928E-02 0.  1.
    10030    2    1    2    0    0  0.00000000000E+00  0.00000000000E+00 -0.93538385217E+03  0.13586523295E+04  0.98538987288E+03 0.  0.
        5    1    3    3  502    0 -0.23285435720E+03  0.39811992593E+03 -0.22885510610E+03  0.51489550073E+03  0.46999998093E+01 0. -1.
       -5    1    3    3    0  502  0.23285435720E+03 -0.39811992593E+03 -0.70652874607E+03  0.84375682878E+03  0.46999998093E+01 0.  1.
</event>
<event>
 5   0  0.3826483E-03  0.1008944E+04  0.7818609E-02  0.9298789E-01
        2   -1    0    0  501    0  0.00000000000E+00  0.00000000000E+00  0.16097525852E+04  0.16097525852E+04  0.25500000920E-02 0. -1.
       -2   -1    0    0    0  501  0.00000000000E+00  0.00000000000E+00 -0.15809388394E+03  0.15809388396E+03  0.25500000920E-02 0.  1.
    10030    2    1    2    0    0  0.00000000000E+00  0.00000000000E+00  0.14516587013E+04  0.17678464692E+04  0.10089440785E+04 0.  0.
        4    1    3    3  502    0 -0.46145762328E+03  0.86848761226E+02  0.40272250624E+03  0.61860558948E+03  0.12699999809E+01 0.  1.
       -4    1    3    3    0  502  0.46145762328E+03 -0.86848761226E+02  0.10489361950E+04  0.11492408797E+04  0.12699999809E+01 0. -1.
</event>
<event>
 5   0  0.3826483E-03  0.9920234E+03  0.7818609E-02  0.9317337E-01
       -2   -1    0    0    0  501  0.00000000000E+00  0.00000000000E+00  0.28902896316E+03  0.28902896317E+03  0.25500000920E-02 0. -1.
        2   -1    0    0  501    0  0.00000000000E+00  0.00000000000E+00 -0.85122131636E+03  0.85122131636E+03  0.25500000920E-02 0.  1.
    10030    2    1    2    0    0  0.00000000000E+00  0.00000000000E+00 -0.56219235319E+03  0.11402502795E+04  0.99202341605E+03 0.  0.
        4    1    3    3  502    0  0.27968838501E+03  0.12170410791E+03  0.16848454922E+03  0.34846253575E+03  0.12699999809E+01 0. -1.
       -4    1    3    3    0  502 -0.27968838501E+03 -0.12170410791E+03 -0.73067690241E+03  0.79178774379E+03  0.12699999809E+01 0.  1.
</event>
<event>
 5   0  0.3873874E-03  0.9956702E+03  0.7818609E-02  0.9313306E-01
        2   -1    0    0  501    0  0.00000000000E+00  0.00000000000E+00  0.14474977509E+04  0.14474977509E+04  0.25500000920E-02 0. -1.
       -2   -1    0    0    0  501  0.00000000000E+00  0.00000000000E+00 -0.17121947894E+03  0.17121947896E+03  0.25500000920E-02 0.  1.
    10030    2    1    2    0    0  0.00000000000E+00  0.00000000000E+00  0.12762782719E+04  0.16187172298E+04  0.99567024800E+03 0.  0.
        5    1    3    3  502    0 -0.36473661014E+03 -0.30429905853E+03  0.88030049099E+03  0.10002908358E+04  0.46999998093E+01 0. -1.
       -5    1    3    3    0  502  0.36473661014E+03  0.30429905853E+03  0.39597778092E+03  0.61842639399E+03  0.46999998093E+01 0.  1.
</event>
<event>
 5   0  0.3826483E-03  0.1099327E+04  0.7818609E-02  0.9205848E-01
       -2   -1    0    0    0  501  0.00000000000E+00  0.00000000000E+00  0.68291472219E+03  0.68291472219E+03  0.25500000920E-02 0. -1.
        2   -1    0    0  501    0  0.00000000000E+00  0.00000000000E+00 -0.44241258387E+03  0.44241258387E+03  0.25500000920E-02 0.  1.
    10030    2    1    2    0    0  0.00000000000E+00  0.00000000000E+00  0.24050213832E+03  0.11253273061E+04  0.10993271884E+04 0.  0.
        4    1    3    3  502    0  0.41642584625E+03 -0.73588682932E+02 -0.23919863958E+03  0.48584295997E+03  0.12699999809E+01 0.  1.
       -4    1    3    3    0  502 -0.41642584625E+03  0.73588682932E+02  0.47970077789E+03  0.63948434609E+03  0.12699999809E+01 0. -1.
</event>
<event>
 5   0  0.3895011E-03  0.1000264E+04  0.7818609E-02  0.9308256E-01
        2   -1    0    0  501    0  0.00000000000E+00  0.00000000000E+00  0.40898559917E+03  0.40898559918E+03  0.25500000920E-02 0. -1.
       -2   -1    0    0    0  501  0.00000000000E+00  0.00000000000E+00 -0.61159079313E+03  0.61159079313E+03  0.25500000920E-02 0.  1.
    10030    2    1    2    0    0  0.00000000000E+00  0.00000000000E+00 -0.20260519396E+03  0.10205763923E+04  0.10002636192E+04 0.  0.
        2    1    3    3  502    0  0.45690414824E+03  0.16062512830E+03 -0.22861633627E+03  0.53556256565E+03  0.25500000920E-02 0.  1.
       -2    1    3    3    0  502 -0.45690414824E+03 -0.16062512830E+03  0.26011142306E+02  0.48501382666E+03  0.25500000920E-02 0. -1.
</event>
<event>
 5   0  0.3873874E-03  0.1002124E+04  0.7818609E-02  0.9306218E-01
        2   -1    0    0  501    0  0.00000000000E+00  0.00000000000E+00  0.86257637820E+03  0.86257637820E+03  0.25500000920E-02 0. -1.
       -2   -1    0    0    0  501  0.00000000000E+00  0.00000000000E+00 -0.29106201954E+03  0.29106201955E+03  0.25500000920E-02 0.  1.
    10030    2    1    2    0    0  0.00000000000E+00  0.00000000000E+00  0.57151435865E+03  0.11536383978E+04  0.10021241892E+04 0.  0.
        5    1    3    3  502    0  0.47485405164E+03 -0.71323316457E+02  0.12106113223E+03  0.49522850641E+03  0.46999998093E+01 0.  1.
       -5    1    3    3    0  502 -0.47485405164E+03  0.71323316457E+02  0.45045322643E+03  0.65840989135E+03  0.46999998093E+01 0. -1.
</event>
<event>
 5   0  0.3873874E-03  0.1001161E+04  0.7818609E-02  0.9307272E-01
        2   -1    0    0  501    0  0.00000000000E+00  0.00000000000E+00  0.68733821873E+03  0.68733821873E+03  0.25500000920E-02 0.  1.
       -2   -1    0    0    0  501  0.00000000000E+00  0.00000000000E+00 -0.36456709347E+03  0.36456709348E+03  0.25500000920E-02 0. -1.
    10030    2    1    2    0    0  0.00000000000E+00  0.00000000000E+00  0.32277112526E+03  0.10519053122E+04  0.10011611192E+04 0.  0.
        5    1    3    3  502    0 -0.26598997666E+03  0.27343317976E+03 -0.17914419076E+03  0.42146305005E+03  0.46999998093E+01 0. -1.
       -5    1    3    3    0  502  0.26598997666E+03 -0.27343317976E+03  0.50191531601E+03  0.63044226216E+03  0.46999998093E+01 0.  1.
</event>
<event>
 5   0  0.2350769E-03  0.9814557E+03  0.7818609E-02  0.9329121E-01
       -1   -1    0    0    0  501  0.00000000000E+00  0.00000000000E+00  0.62637105717E+03  0.62637105719E+03  0.50400001928E-02 0. -1.
        1   -1    0    0  501    0  0.00000000000E+00  0.00000000000E+00 -0.38445875288E+03  0.38445875292E+03  0.50400001928E-02 0.  1.
    10030    2    1    2    0    0  0.00000000000E+00  0.00000000000E+00  0.24191230428E+03  0.10108298101E+04  0.98145572597E+03 0.  0.
        2    1    3    3  502    0 -0.26680377221E+03  0.36422991908E+03 -0.77064018749E+02  0.45802461704E+03  0.25500000920E-02 0.  1.
       -2    1    3    3    0  502  0.26680377221E+03 -0.36422991908E+03  0.31897632303E+03  0.55280519307E+03  0.25500000920E-02 0. -1.
</event>
<event>
 5   0  0.2350769E-03  0.1003044E+04  0.7818609E-02  0.9305212E-01
       -1   -1    0    0    0  501  0.00000000000E+00  0.00000000000E+00  0.29441565913E+03  0.29441565918E+03  0.50400001928E-02 0. -1.
        1   -1    0    0  501    0  0.00000000000E+00  0.00000000000E+00 -0.85431753554E+03  0.85431753555E+03  0.50400001928E-02 0.  1.
    10030    2    1    2    0    0  0.00000000000E+00  0.00000000000E+00 -0.55990187641E+03  0.11487331947E+04  0.10030442869E+04 0.  0.
        2    1    3    3  502    0  0.45325765965E+03  0.10558033824E+03 -0.49400716238E+03  0.67869933723E+03  0.25500000920E-02 0.  1.
       -2    1    3    3    0  502 -0.45325765965E+03 -0.10558033824E+03 -0.65894714021E+02  0.47003385750E+03  0.25500000920E-02 0. -1.
</event>
<event>
 5   0  0.1548000E-03  0.9974634E+03  0.7818609E-02  0.9311331E-01
       -4   -1    0    0    0  501  0.00000000000E+00  0.00000000000E+00  0.59756392904E+03  0.59756527861E+03  0.12699999809E+01 0.  1.
        4   -1    0    0  501    0  0.00000000000E+00  0.00000000000E+00 -0.41624271051E+03  0.41624464795E+03  0.12699999809E+01 0. -1.
    10030    2    1    2    0    0  0.00000000000E+00  0.00000000000E+00  0.18132121854E+03  0.10138099266E+04  0.99746337421E+03 0.  0.
        4    1    3    3  502    0  0.10427635061E+03 -0.24686353884E+03 -0.33684692585E+03  0.43044468688E+03  0.12699999809E+01 0. -1.
       -4    1    3    3    0  502 -0.10427635061E+03  0.24686353884E+03  0.51816814439E+03  0.58336523968E+03  0.12699999809E+01 0.  1.
</event>
<event>
 5   0  0.2327595E-03  0.1003835E+04  0.7818609E-02  0.9304349E-01
       -1   -1    0    0    0  501  0.00000000000E+00  0.00000000000E+00  0.36977360322E+03  0.36977360325E+03  0.50400001928E-02 0. -1.
        1   -1    0    0  501    0  0.00000000000E+00  0.00000000000E+00 -0.68128464894E+03  0.68128464896E+03  0.50400001928E-02 0.  1.
    10030    2    1    2    0    0  0.00000000000E+00  0.00000000000E+00 -0.31151104572E+03  0.10510582522E+04  0.10038348061E+04 0.  0.
        5    1    3    3  502    0 -0.13455487752E+03  0.29431460690E+02 -0.66108561942E+03  0.67529809132E+03  0.46999998093E+01 0.  1.
       -5    1    3    3    0  502  0.13455487752E+03 -0.29431460690E+02  0.34957457369E+03  0.37576016089E+03  0.46999998093E+01 0. -1.
</event>
<event>
 5   0  0.4140860E-03  0.9913857E+03  0.7818609E-02  0.9318044E-01
        2   -1    0    0  501    0  0.00000000000E+00  0.00000000000E+00  0.11488780878E+04  0.11488780878E+04  0.25500000920E-02 0.  1.
       -2   -1    0    0    0  501  0.00000000000E+00  0.00000000000E+00 -0.21387075564E+03  0.21387075566E+03  0.25500000920E-02 0. -1.
    10030    2    1    2    0    0  0.00000000000E+00  0.00000000000E+00  0.93500733211E+03  0.13627488434E+04  0.99138574689E+03 0.  0.
        3    1    3    3  502    0 -0.88845029623E+02  0.66738331530E+02 -0.19652993203E+03  0.22576861732E+03  0.10100000352E+00 0. -1.
       -3    1    3    3    0  502  0.88845029623E+02 -0.66738331530E+02  0.11315372641E+04  0.11369802261E+04  0.10100000352E+00 0.  1.
</event>
<event>
 5   0  0.2378609E-03  0.1000242E+04  0.7818609E-02  0.9308279E-01
        1   -1    0    0  501    0  0.00000000000E+00  0.00000000000E+00  0.17895063085E+04  0.17895063085E+04  0.50400001928E-02 0. -1.
       -1   -1    0    0    0  501  0.00000000000E+00  0.00000000000E+00 -0.13977099910E+03  0.13977099919E+03  0.50400001928E-02 0.  1.
    10030    2    1    2    0    0  0.00000000000E+00  0.00000000000E+00  0.16497353094E+04  0.19292773077E+04  0.10002421402E+04 0.  0.
        1    1    3    3  502    0 -0.29571425704E+03 -0.39718134665E+03  0.68955998873E+03  0.84893634745E+03  0.50400001928E-02 0. -1.
       -1    1    3    3    0  502  0.29571425704E+03  0.39718134665E+03  0.96017532070E+03  0.10803409603E+04  0.50400001928E-02 0.  1.
</event>
<event>
 5   0  0.2350769E-03  0.1014285E+04  0.7818609E-02  0.9293014E-01
       -1   -1    0    0    0  501  0.00000000000E+00  0.00000000000E+00  0.66690717765E+03  0.66690717767E+03  0.50400001928E-02 0.  1.
        1   -1    0    0  501    0  0.00000000000E+00  0.00000000000E+00 -0.38565132590E+03  0.38565132593E+03  0.50400001928E-02 0. -1.
    10030    2    1    2    0    0  0.00000000000E+00  0.00000000000E+00  0.28125585175E+03  0.10525585036E+04  0.10142852406E+04 0.  0.
        2    1    3    3  502    0  0.26799166477E+03  0.11629388077E+03 -0.28956246187E+03  0.41132738594E+03  0.25500000920E-02 0. -1.
       -2    1    3    3    0  502 -0.26799166477E+03 -0.11629388077E+03  0.57081831362E+03  0.64123111767E+03  0.25500000920E-02 0.  1.
</event>
<event>
 5   0  0.2327595E-03  0.9121716E+03  0.7818609E-02  0.9410493E-01
       -1   -1    0    0    0  501  0.00000000000E+00  0.00000000000E+00  0.36530456151E+03  0.36530456154E+03  0.50400001928E-02 0. -1.
        1   -1    0    0  501    0  0.00000000000E+00  0.00000000000E+00 -0.56942698526E+03  0.56942698528E+03  0.50400001928E-02 0.  1.
    10030    2    1    2    0    0  0.00000000000E+00  0.00000000000E+00 -0.20412242375E+03  0.93473154682E+03  0.91217163996E+03 0.  0.
        5    1    3    3  502    0  0.36257204897E+03  0.22586040229E+03 -0.26576444183E+03  0.50311454019E+03  0.46999998093E+01 0.  1.
       -5    1    3    3    0  502 -0.36257204897E+03 -0.22586040229E+03  0.61642018074E+02  0.43161700663E+03  0.46999998093E+01 0. -1.
</event>
<event>
 5   0  0.3895011E-03  0.1017528E+04  0.7818609E-02  0.9289527E-01
        2   -1    0    0  501    0  0.00000000000E+00  0.00000000000E+00  0.44656357951E+03  0.44656357952E+03  0.25500000920E-02 0.  1.
       -2   -1    0    0    0  501  0.00000000000E+00  0.00000000000E+00 -0.57962761393E+03  0.57962761394E+03  0.25500000920E-02 0. -1.
    10030    2    1    2    0    0  0.00000000000E+00  0.00000000000E+00 -0.13306403442E+03  0.10261911935E+04  0.10175275565E+04 0.  0.
        2    1    3    3  502    0 -0.32563303617E+03 -0.13181415883E+03 -0.43767180515E+03  0.56122050545E+03  0.25500000920E-02 0. -1.
       -2    1    3    3    0  502  0.32563303617E+03  0.13181415883E+03  0.30460777073E+03  0.46497068801E+03  0.25500000920E-02 0.  1.
</event>
<event>
 5   0  0.3826483E-03  0.1004803E+04  0.7818609E-02  0.9303293E-01
       -2   -1    0    0    0  501  0.00000000000E+00  0.00000000000E+00  0.70783363899E+03  0.70783363900E+03  0.25500000920E-02 0.  1.
        2   -1    0    0  501    0  0.00000000000E+00  0.00000000000E+00 -0.35659111143E+03  0.35659111144E+03  0.25500000920E-02 0. -1.
    10030    2    1    2    0    0  0.00000000000E+00  0.00000000000E+00  0.35124252756E+03  0.10644247504E+04  0.10048028345E+04 0.  0.
        4    1    3    3  502    0  0.78896747179E+02 -0.20755401651E+03  0.65303117590E+03  0.68974973438E+03  0.12699999809E+01 0.  1.
       -4    1    3    3    0  502 -0.78896747179E+02  0.20755401651E+03 -0.30178864834E+03  0.37467501605E+03  0.12699999809E+01 0. -1.
</event>
<event>
 5   0  0.2313036E-03  0.9997843E+03  0.7818609E-02  0.9308781E-01
       -1   -1    0    0    0  501  0.00000000000E+00  0.00000000000E+00  0.39670441295E+03  0.39670441298E+03  0.50400001928E-02 0. -1.
        1   -1    0    0  501    0  0.00000000000E+00  0.00000000000E+00 -0.62992034890E+03  0.62992034892E+03  0.50400001928E-02 0.  1.
    10030    2    1    2    0    0  0.00000000000E+00  0.00000000000E+00 -0.23321593595E+03  0.10266247619E+04  0.99978434123E+03 0.  0.
        3    1    3    3  502    0 -0.48675418563E+03 -0.10675752136E+03 -0.15723484269E+03  0.52254149266E+03  0.10100000352E+00 0.  1.
       -3    1    3    3    0  502  0.48675418563E+03  0.10675752136E+03 -0.75981093259E+02  0.50408326924E+03  0.10100000352E+00 0. -1.
</event>
<event>
 5   0  0.3895011E-03  0.9957960E+03  0.7818609E-02  0.9313168E-01
        2   -1    0    0  501    0  0.00000000000E+00  0.00000000000E+00  0.31103744388E+04  0.31103744388E+04  0.25500000920E-02 0.  1.
       -2   -1    0    0    0  501  0.00000000000E+00  0.00000000000E+00 -0.79701793308E+02  0.79701793349E+02  0.25500000920E-02 0. -1.
    10030    2    1    2    0    0  0.00000000000E+00  0.00000000000E+00  0.30306726455E+04  0.31900762321E+04  0.99579600461E+03 0.  0.
        2    1    3    3  502    0 -0.41925032607E+03 -0.25527601127E+03  0.12479652608E+04  0.13410272070E+04  0.25500000920E-02 0. -1.
       -2    1    3    3    0  502  0.41925032607E+03  0.25527601127E+03  0.17827073847E+04  0.18490490251E+04  0.25500000920E-02 0.  1.
</event>
<event>
 5   0  0.2327595E-03  0.1000459E+04  0.7818609E-02  0.9308042E-01
        1   -1    0    0  501    0  0.00000000000E+00  0.00000000000E+00  0.61769821396E+03  0.61769821398E+03  0.50400001928E-02 0. -1.
       -1   -1    0    0    0  501  0.00000000000E+00  0.00000000000E+00 -0.40509991908E+03  0.40509991911E+03  0.50400001928E-02 0.  1.
    10030    2    1    2    0    0  0.00000000000E+00  0.00000000000E+00  0.21259829488E+03  0.10227981331E+04  0.10004588877E+04 0.  0.
        5    1    3    3  502    0  0.47165532096E+03 -0.15204050155E+03  0.17588026368E+03  0.52586216165E+03  0.46999998093E+01 0. -1.
       -5    1    3    3    0  502 -0.47165532096E+03  0.15204050155E+03  0.36718031205E+02  0.49693597144E+03  0.46999998093E+01 0.  1.
</event>
<event>
 5   0  0.1548000E-03  0.9980334E+03  0.7818609E-02  0.9310704E-01
       -3   -1    0    0    0  501  0.00000000000E+00  0.00000000000E+00  0.32893694316E+03  0.32893695866E+03  0.10100000352E+00 0. -1.
        3   -1    0    0  501    0  0.00000000000E+00  0.00000000000E+00 -0.75703772734E+03  0.75703773408E+03  0.10100000352E+00 0.  1.
    10030    2    1    2    0    0  0.00000000000E+00  0.00000000000E+00 -0.42810078419E+03  0.10859746927E+04  0.99803344225E+03 0.  0.
        4    1    3    3  502    0 -0.14281079721E+03  0.11185765759E+03 -0.71988792821E+03  0.74239295622E+03  0.12699999809E+01 0.  1.
       -4    1    3    3    0  502  0.14281079721E+03 -0.11185765759E+03  0.29178714402E+03  0.34358173653E+03  0.12699999809E+01 0. -1.
</event>
<event>
 5   0  0.2405022E-03  0.9982444E+03  0.7818609E-02  0.9310472E-01
        1   -1    0    0  501    0  0.00000000000E+00  0.00000000000E+00  0.39240455324E+03  0.39240455327E+03  0.50400001928E-02 0. -1.
       -1   -1    0    0    0  501  0.00000000000E+00  0.00000000000E+00 -0.63486260997E+03  0.63486260999E+03  0.50400001928E-02 0.  1.
    10030    2    1    2    0    0  0.00000000000E+00  0.00000000000E+00 -0.24245805673E+03  0.10272671633E+04  0.99824441668E+03 0.  0.
        4    1    3    3  502    0 -0.11982258630E+03 -0.29552256834E+03  0.27390090228E+03  0.42037406885E+03  0.12699999809E+01 0. -1.
       -4    1    3    3    0  502  0.11982258630E+03  0.29552256834E+03 -0.51635895902E+03  0.60689309441E+03  0.12699999809E+01 0.  1.
</event>
<event>
 5   0  0.2350769E-03  0.9959348E+03  0.7818609E-02  0.9313015E-01
       -1   -1    0    0    0  501  0.00000000000E+00  0.00000000000E+00  0.56914024412E+03  0.56914024415E+03  0.50400001928E-02 0.  1.
        1   -1    0    0  501    0  0.00000000000E+00  0.00000000000E+00 -0.43569497440E+03  0.43569497443E+03  0.50400001928E-02 0. -1.
    10030    2    1    2    0    0  0.00000000000E+00  0.00000000000E+00  0.13344526972E+03  0.10048352186E+04  0.99593482542E+03 0.  0.
        2    1    3    3  502    0  0.11803584601E+03 -0.48052418244E+03  0.12321942719E+03  0.50992056057E+03  0.25500000920E-02 0. -1.
       -2    1    3    3    0  502 -0.11803584601E+03  0.48052418244E+03  0.10225842539E+02  0.49491465801E+03  0.25500000920E-02 0.  1.
</event>
<event>
 5   0  0.2327595E-03  0.1001023E+04  0.7818609E-02  0.9307424E-01
        1   -1    0    0  501    0  0.00000000000E+00  0.00000000000E+00  0.44275399463E+03  0.44275399466E+03  0.50400001928E-02 0. -1.
       -1   -1    0    0    0  501  0.00000000000E+00  0.00000000000E+00 -0.56580296307E+03  0.56580296309E+03  0.50400001928E-02 0.  1.
    10030    2    1    2    0    0  0.00000000000E+00  0.00000000000E+00 -0.12304896844E+03  0.10085569578E+04  0.10010225214E+04 0.  0.
        5    1    3    3  502    0  0.45853327088E+03  0.90336430832E+02  0.11892127901E+03  0.48226319769E+03  0.46999998093E+01 0. -1.
       -5    1    3    3    0  502 -0.45853327088E+03 -0.90336430832E+02 -0.24197024744E+03  0.52629376007E+03  0.46999998093E+01 0.  1.
</event>
<event>
 5   0  0.2378609E-03  0.1003258E+04  0.7818609E-02  0.9304979E-01
       -1   -1    0    0    0  501  0.00000000000E+00  0.00000000000E+00  0.21522455566E+03  0.21522455572E+03  0.50400001928E-02 0.  1.
        1   -1    0    0  501    0  0.00000000000E+00  0.00000000000E+00 -0.11691589911E+04  0.11691589911E+04  0.50400001928E-02 0. -1.
    10030    2    1    2    0    0  0.00000000000E+00  0.00000000000E+00 -0.95393443544E+03  0.13843835468E+04  0.10032581411E+04 0.  0.
        1    1    3    3  502    0 -0.14620316703E+03 -0.43427470129E+03 -0.75861930306E+03  0.88626921939E+03  0.50400001928E-02 0. -1.
       -1    1    3    3    0  502  0.14620316703E+03  0.43427470129E+03 -0.19531513238E+03  0.49811432743E+03  0.50400001928E-02 0.  1.
</event>
<event>
 5   0  0.4140860E-03  0.1006083E+04  0.7818609E-02  0.9301898E-01
        2   -1    0    0  501    0  0.00000000000E+00  0.00000000000E+00  0.62980551118E+03  0.62980551118E+03  0.25500000920E-02 0. -1.
       -2   -1    0    0    0  501  0.00000000000E+00  0.00000000000E+00 -0.40179228948E+03  0.40179228949E+03  0.25500000920E-02 0.  1.
    10030    2    1    2    0    0  0.00000000000E+00  0.00000000000E+00  0.22801322170E+03  0.10315978007E+04  0.10060834921E+04 0.  0.
        3    1    3    3  502    0  0.38372781315E+03 -0.15193612635E+03 -0.18089692901E+03  0.45061661110E+03  0.10100000352E+00 0.  1.
       -3    1    3    3    0  502 -0.38372781315E+03  0.15193612635E+03  0.40891015071E+03  0.58098118957E+03  0.10100000352E+00 0. -1.
</event>
<event>
 5   0  0.4140860E-03  0.9989205E+03  0.7818609E-02  0.9309730E-01
       -2   -1    0    0    0  501  0.00000000000E+00  0.00000000000E+00  0.87254214712E+02  0.87254214749E+02  0.25500000920E-02 0. -1.
        2   -1    0    0  501    0  0.00000000000E+00  0.00000000000E+00 -0.28590086828E+04  0.28590086828E+04  0.25500000920E-02 0.  1.
    10030    2    1    2    0    0  0.00000000000E+00  0.00000000000E+00 -0.27717544680E+04  0.29462628975E+04  0.99892053242E+03 0.  0.
        3    1    3    3  502    0 -0.43216227168E+02 -0.20639307192E+03 -0.27212791169E+04  0.27294368988E+04  0.10100000352E+00 0.  1.
       -3    1    3    3    0  502  0.43216227168E+02  0.20639307192E+03 -0.50475351140E+02  0.21682599867E+03  0.10100000352E+00 0. -1.
</event>
<event>
 5   0  0.2327595E-03  0.1042036E+04  0.7818609E-02  0.9263605E-01
        1   -1    0    0  501    0  0.00000000000E+00  0.00000000000E+00  0.63358271145E+03  0.63358271147E+03  0.50400001928E-02 0. -1.
       -1   -1    0    0    0  501  0.00000000000E+00  0.00000000000E+00 -0.42845193786E+03  0.42845193789E+03  0.50400001928E-02 0.  1.
    10030    2    1    2    0    0  0.00000000000E+00  0.00000000000E+00  0.20513077359E+03  0.10620346494E+04  0.10420359697E+04 0.  0.
        5    1    3    3  502    0  0.43398829829E+02 -0.13625659530E+03 -0.40803688415E+03  0.43239508209E+03  0.46999998093E+01 0.  1.
       -5    1    3    3    0  502 -0.43398829829E+02  0.13625659530E+03  0.61316765773E+03  0.62963956728E+03  0.46999998093E+01 0. -1.
</event>
<event>
 5   0  0.2313036E-03  0.9903769E+03  0.7818609E-02  0.9319163E-01
        1   -1    0    0  501    0  0.00000000000E+00  0.00000000000E+00  0.44571078762E+03  0.44571078764E+03  0.50400001928E-02 0. -1.
       -1   -1    0    0    0  501  0.00000000000E+00  0.00000000000E+00 -0.55015852939E+03  0.55015852942E+03  0.50400001928E-02 0.  1.
    10030    2    1    2    0    0  0.00000000000E+00  0.00000000000E+00 -0.10444774178E+03  0.99586931706E+03  0.99037688074E+03 0.  0.
        3    1    3    3  502    0  0.44924518050E+03  0.20677403624E+03 -0.77559774435E+02  0.50059191272E+03  0.10100000352E+00 0.  1.
       -3    1    3    3    0  502 -0.44924518050E+03 -0.20677403624E+03 -0.26887967342E+02  0.49527740434E+03  0.10100000352E+00 0. -1.
</event>
<event>
 5   0  0.2313036E-03  0.1008215E+04  0.7818609E-02  0.9299581E-01
        1   -1    0    0  501    0  0.00000000000E+00  0.00000000000E+00  0.48764718321E+03  0.48764718324E+03  0.50400001928E-02 0.  1.
       -1   -1    0    0    0  501  0.00000000000E+00  0.00000000000E+00 -0.52112313065E+03  0.52112313068E+03  0.50400001928E-02 0. -1.
    10030    2    1    2    0    0  0.00000000000E+00  0.00000000000E+00 -0.33475947443E+02  0.10087703139E+04  0.10082147128E+04 0.  0.
        3    1    3    3  502    0  0.37305981491E+03 -0.33563313135E+03 -0.64733066848E+02  0.50597786958E+03  0.10100000352E+00 0. -1.
       -3    1    3    3    0  502 -0.37305981491E+03  0.33563313135E+03  0.31257119405E+02  0.50279244433E+03  0.10100000352E+00 0.  1.
</event>
<event>
 5   0  0.3895011E-03  0.1002886E+04  0.7818609E-02  0.9305386E-01
       -2   -1    0    0    0  501  0.00000000000E+00  0.00000000000E+00  0.21656874261E+03  0.21656874263E+03  0.25500000920E-02 0.  1.
        2   -1    0    0  501    0  0.00000000000E+00  0.00000000000E+00 -0.11610394252E+04  0.11610394252E+04  0.25500000920E-02 0. -1.
    10030    2    1    2    0    0  0.00000000000E+00  0.00000000000E+00 -0.94447068259E+03  0.13776081678E+04  0.10028855338E+04 0.  0.
        2    1    3    3  502    0  0.99757311238E+00  0.39558124854E+03 -0.89553036318E+03  0.97900978071E+03  0.25500000920E-02 0. -1.
       -2    1    3    3    0  502 -0.99757311238E+00 -0.39558124854E+03 -0.48940319409E+02  0.39859838712E+03  0.25500000920E-02 0.  1.
</event>
<event>
 5   0  0.3895011E-03  0.9987329E+03  0.7818609E-02  0.9309936E-01
        2   -1    0    0  501    0  0.00000000000E+00  0.00000000000E+00  0.16399424595E+04  0.16399424595E+04  0.25500000920E-02 0. -1.
       -2   -1    0    0    0  501  0.00000000000E+00  0.00000000000E+00 -0.15205830566E+03  0.15205830568E+03  0.25500000920E-02 0.  1.
    10030    2    1    2    0    0  0.00000000000E+00  0.00000000000E+00  0.14878841539E+04  0.17920007652E+04  0.99873294089E+03 0.  0.
        2    1    3    3  502    0  0.41053405504E+03  0.17096317367E+03  0.11515238358E+04  0.12344123142E+04  0.25500000920E-02 0. -1.
       -2    1    3    3    0  502 -0.41053405504E+03 -0.17096317367E+03  0.33636031808E+03  0.55758845100E+03  0.25500000920E-02 0.  1.
</event>
<event>
 5   0  0.2405022E-03  0.1046059E+04  0.7818609E-02  0.9259422E-01
        1   -1    0    0  501    0  0.00000000000E+00  0.00000000000E+00  0.56392994708E+03  0.56392994710E+03  0.50400001928E-02 0.  1.
       -1   -1    0    0    0  501  0.00000000000E+00  0.00000000000E+00 -0.48509562942E+03  0.48509562944E+03  0.50400001928E-02 0. -1.
    10030    2    1    2    0    0  0.00000000000E+00  0.00000000000E+00  0.78834317661E+02  0.10490255765E+04  0.10460591812E+04 0.  0.
        4    1    3    3  502    0 -0.58403802056E+02 -0.17709585949E+02  0.56034542167E+03  0.56366056986E+03  0.12699999809E+01 0.  1.
       -4    1    3    3    0  502  0.58403802056E+02  0.17709585949E+02 -0.48151110401E+03  0.48536500668E+03  0.12699999809E+01 0. -1.
</event>
<event>
 5   0  0.4026829E-03  0.9980894E+03  0.7818609E-02  0.9310643E-01
       -2   -1    0    0    0  501  0.00000000000E+00  0.00000000000E+00  0.82382209876E+03  0.82382209877E+03  0.25500000920E-02 0. -1.
        2   -1    0    0  501    0  0.00000000000E+00  0.00000000000E+00 -0.30230510357E+03  0.30230510359E+03  0.25500000920E-02 0.  1.
    10030    2    1    2    0    0  0.00000000000E+00  0.00000000000E+00  0.52151699519E+03  0.11261272024E+04  0.99808942466E+03 0.  0.
        1    1    3    3  502    0 -0.29153917257E+03 -0.29127184337E+03  0.57830799221E+03  0.71012288356E+03  0.50400001928E-02 0. -1.
       -1    1    3    3    0  502  0.29153917257E+03  0.29127184337E+03 -0.56790997019E+02  0.41600431879E+03  0.50400001928E-02 0.  1.
</event>
<event>
 5   0  0.1548000E-03  0.9955396E+03  0.7818609E-02  0.9313451E-01
        3   -1    0    0  501    0  0.00000000000E+00  0.00000000000E+00  0.49978379314E+03  0.49978380335E+03  0.10100000352E+00 0. -1.
       -3   -1    0    0    0  501  0.00000000000E+00  0.00000000000E+00 -0.49576385824E+03  0.49576386852E+03  0.10100000352E+00 0.  1.
    10030    2    1    2    0    0  0.00000000000E+00  0.00000000000E+00  0.40199349075E+01  0.99554767187E+03  0.99553955577E+03 0.  0.
        4    1    3    3  502    0  0.94556004602E+02  0.29299651953E+03  0.39314656104E+03  0.49935321148E+03  0.12699999809E+01 0. -1.
       -4    1    3    3    0  502 -0.94556004602E+02 -0.29299651953E+03 -0.38912662613E+03  0.49619446039E+03  0.12699999809E+01 0.  1.
</event>
<event>
 5   0  0.3873874E-03  0.1026065E+04  0.7818609E-02  0.9280411E-01
        2   -1    0    0  501    0  0.00000000000E+00  0.00000000000E+00  0.13238309068E+04  0.13238309068E+04  0.25500000920E-02 0. -1.
       -2   -1    0    0    0  501  0.00000000000E+00  0.00000000000E+00 -0.19881859078E+03  0.19881859080E+03  0.25500000920E-02 0.  1.
    10030    2    1    2    0    0  0.00000000000E+00  0.00000000000E+00  0.11250123160E+04  0.15226494976E+04  0.10260647062E+04 0.  0.
        5    1    3    3  502    0  0.11435947334E+03  0.19250687400E+03  0.12474562853E+04  0.12674013805E+04  0.46999998093E+01 0. -1.
       -5    1    3    3    0  502 -0.11435947334E+03 -0.19250687400E+03 -0.12244396924E+03  0.25524811710E+03  0.46999998093E+01 0.  1.
</event>
<event>
 5   0  0.3873874E-03  0.9997128E+03  0.7818609E-02  0.9308860E-01
       -2   -1    0    0    0  501  0.00000000000E+00  0.00000000000E+00  0.11898308064E+03  0.11898308067E+03  0.25500000920E-02 0. -1.
        2   -1    0    0  501    0  0.00000000000E+00  0.00000000000E+00 -0.20999324958E+04  0.20999324958E+04  0.25500000920E-02 0.  1.
    10030    2    1    2    0    0  0.00000000000E+00  0.00000000000E+00 -0.19809494151E+04  0.22189155764E+04  0.99971283380E+03 0.  0.
        5    1    3    3  502    0 -0.32034118059E+03  0.37563197061E+03 -0.11640616035E+04  0.12644284701E+04  0.46999998093E+01 0.  1.
       -5    1    3    3    0  502  0.32034118059E+03 -0.37563197061E+03 -0.81688781161E+03  0.95448710629E+03  0.46999998093E+01 0. -1.
</event>
<event>
 5   0  0.3895011E-03  0.1001109E+04  0.7818609E-02  0.9307329E-01
        2   -1    0    0  501    0  0.00000000000E+00  0.00000000000E+00  0.18127780144E+04  0.18127780144E+04  0.25500000920E-02 0. -1.
       -2   -1    0    0    0  501  0.00000000000E+00  0.00000000000E+00 -0.13821594420E+03  0.13821594422E+03  0.25500000920E-02 0.  1.
    10030    2    1    2    0    0  0.00000000000E+00  0.00000000000E+00  0.16745620702E+04  0.19509939586E+04  0.10011090348E+04 0.  0.
        2    1    3    3  502    0 -0.92009486353E+02  0.39465508476E+03  0.14099077703E+04  0.14669895372E+04  0.25500000920E-02 0. -1.
       -2    1    3    3    0  502  0.92009486353E+02 -0.39465508476E+03  0.26465429992E+03  0.48400442144E+03  0.25500000920E-02 0.  1.
</event>
<event>
 5   0  0.2327595E-03  0.1006831E+04  0.7818609E-02  0.9301084E-01
        1   -1    0    0  501    0  0.00000000000E+00  0.00000000000E+00  0.11738573964E+04  0.11738573964E+04  0.50400001928E-02 0. -1.
       -1   -1    0    0    0  501  0.00000000000E+00  0.00000000000E+00 -0.21589277269E+03  0.21589277275E+03  0.50400001928E-02 0.  1.
    10030    2    1    2    0    0  0.00000000000E+00  0.00000000000E+00  0.95796462368E+03  0.13897501691E+04  0.10068313227E+04 0.  0.
        5    1    3    3  502    0 -0.88580259814E+02 -0.43712805835E+02  0.11603184316E+04  0.11645248922E+04  0.46999998093E+01 0. -1.
       -5    1    3    3    0  502  0.88580259814E+02  0.43712805835E+02 -0.20235380789E+03  0.22522527698E+03  0.46999998093E+01 0.  1.
</event>
<event>
 5   0  0.4140860E-03  0.9981822E+03  0.7818609E-02  0.9310541E-01
       -2   -1    0    0    0  501  0.00000000000E+00  0.00000000000E+00  0.15131755794E+03  0.15131755797E+03  0.25500000920E-02 0. -1.
        2   -1    0    0  501    0  0.00000000000E+00  0.00000000000E+00 -0.16461533758E+04  0.16461533758E+04  0.25500000920E-02 0.  1.
    10030    2    1    2    0    0  0.00000000000E+00  0.00000000000E+00 -0.14948358178E+04  0.17974709338E+04  0.99818216543E+03 0.  0.
        3    1    3    3  502    0 -0.47942726359E+02 -0.32767123027E+03 -0.75026227019E+02  0.33955247768E+03  0.10100000352E+00 0. -1.
       -3    1    3    3    0  502  0.47942726359E+02  0.32767123027E+03 -0.14198095908E+04  0.14579184561E+04  0.10100000352E+00 0.  1.
</event>
<event>
 5   0  0.2313036E-03  0.1012556E+04  0.7818609E-02  0.9294880E-01
        1   -1    0    0  501    0  0.00000000000E+00  0.00000000000E+00  0.75962185324E+03  0.75962185326E+03  0.50400001928E-02 0. -1.
       -1   -1    0    0    0  501  0.00000000000E+00  0.00000000000E+00 -0.33742753057E+03  0.33742753061E+03  0.50400001928E-02 0.  1.
    10030    2    1    2    0    0  0.00000000000E+00  0.00000000000E+00  0.42219432266E+03  0.10970493839E+04  0.10125558279E+04 0.  0.
        3    1    3    3  502    0 -0.47424543687E+03 -0.52256461422E+02  0.27620661042E+02  0.47791461922E+03  0.10100000352E+00 0.  1.
       -3    1    3    3    0  502  0.47424543687E+03  0.52256461422E+02  0.39457366162E+03  0.61913476465E+03  0.10100000352E+00 0. -1.
</event>
<event>
 5   0  0.3826483E-03  0.9899421E+03  0.7818609E-02  0.9319645E-01
       -2   -1    0    0    0  501  0.00000000000E+00  0.00000000000E+00  0.17567909272E+03  0.17567909274E+03  0.25500000920E-02 0.  1.
        2   -1    0    0  501    0  0.00000000000E+00  0.00000000000E+00 -0.13945674909E+04  0.13945674909E+04  0.25500000920E-02 0. -1.
    10030    2    1    2    0    0  0.00000000000E+00  0.00000000000E+00 -0.12188883982E+04  0.15702465837E+04  0.98994212268E+03 0.  0.
        4    1    3    3  502    0  0.13762006279E+03  0.44989962375E+03 -0.85335718692E+03  0.97445833903E+03  0.12699999809E+01 0. -1.
       -4    1    3    3    0  502 -0.13762006279E+03 -0.44989962375E+03 -0.36553121129E+03  0.59578824465E+03  0.12699999809E+01 0.  1.
</event>
<event>
 5   0  0.2350769E-03  0.1003808E+04  0.7818609E-02  0.9304378E-01
       -1   -1    0    0    0  501  0.00000000000E+00  0.00000000000E+00  0.54422434610E+03  0.54422434612E+03  0.50400001928E-02 0.  1.
        1   -1    0    0  501    0  0.00000000000E+00  0.00000000000E+00 -0.46287493182E+03  0.46287493184E+03  0.50400001928E-02 0. -1.
    10030    2    1    2    0    0  0.00000000000E+00  0.00000000000E+00  0.81349414281E+02  0.10070992780E+04  0.10038083624E+04 0.  0.
        2    1    3    3  502    0  0.23080600438E+02 -0.14644771778E+02 -0.46212758825E+03  0.46293529924E+03  0.25500000920E-02 0. -1.
       -2    1    3    3    0  502 -0.23080600438E+02  0.14644771778E+02  0.54347700253E+03  0.54416397872E+03  0.25500000920E-02 0.  1.
</event>
<event>
 5   0  0.2378609E-03  0.1001203E+04  0.7818609E-02  0.9307226E-01
       -1   -1    0    0    0  501  0.00000000000E+00  0.00000000000E+00  0.20946068330E+03  0.20946068336E+03  0.50400001928E-02 0.  1.
        1   -1    0    0  501    0  0.00000000000E+00  0.00000000000E+00 -0.11964159058E+04  0.11964159058E+04  0.50400001928E-02 0. -1.
    10030    2    1    2    0    0  0.00000000000E+00  0.00000000000E+00 -0.98695522247E+03  0.14058765891E+04  0.10012034622E+04 0.  0.
        1    1    3    3  502    0 -0.45329475729E+03 -0.20411461109E+03 -0.41084290330E+03  0.64492697467E+03  0.50400001928E-02 0.  1.
       -1    1    3    3    0  502  0.45329475729E+03  0.20411461109E+03 -0.57611231917E+03  0.76094961448E+03  0.50400001928E-02 0. -1.
</event>
<event>
 5   0  0.3873874E-03  0.9963665E+03  0.7818609E-02  0.9312539E-01
        2   -1    0    0  501    0  0.00000000000E+00  0.00000000000E+00  0.14259211190E+04  0.14259211190E+04  0.25500000920E-02 0. -1.
       -2   -1    0    0    0  501  0.00000000000E+00  0.00000000000E+00 -0.17405349442E+03  0.17405349444E+03  0.25500000920E-02 0.  1.
    10030    2    1    2    0    0  0.00000000000E+00  0.00000000000E+00  0.12518676246E+04  0.15999746135E+04  0.99636650597E+03 0.  0.
        5    1    3    3  502    0  0.17310025519E+03 -0.31673652413E+03  0.11772639251E+04  0.12313643504E+04  0.46999998093E+01 0. -1.
       -5    1    3    3    0  502 -0.17310025519E+03  0.31673652413E+03  0.74603699489E+02  0.36861026307E+03  0.46999998093E+01 0.  1.
</event>
<event>
 5   0  0.2327595E-03  0.1016978E+04  0.7818609E-02  0.9290117E-01
        1   -1    0    0  501    0  0.00000000000E+00  0.00000000000E+00  0.51440763514E+03  0.51440763517E+03  0.50400001928E-02 0. -1.
       -1   -1    0    0    0  501  0.00000000000E+00  0.00000000000E+00 -0.50263826483E+03  0.50263826485E+03  0.50400001928E-02 0.  1.
    10030    2    1    2    0    0  0.00000000000E+00  0.00000000000E+00  0.11769370314E+02  0.10170459000E+04  0.10169777995E+04 0.  0.
        5    1    3    3  502    0  0.43188956640E+03  0.19789156254E+03  0.18714031301E+03  0.51062046066E+03  0.46999998093E+01 0. -1.
       -5    1    3    3    0  502 -0.43188956640E+03 -0.19789156254E+03 -0.17537094270E+03  0.50642543936E+03  0.46999998093E+01 0.  1.
</event>
<event>
 5   0  0.4140860E-03  0.1002021E+04  0.7818609E-02  0.9306331E-01
        2   -1    0    0  501    0  0.00000000000E+00  0.00000000000E+00  0.75215861321E+03  0.75215861321E+03  0.25500000920E-02 0.  1.
       -2   -1    0    0    0  501  0.00000000000E+00  0.00000000000E+00 -0.33372141425E+03  0.33372141426E+03  0.25500000920E-02 0. -1.
    10030    2    1    2    0    0  0.00000000000E+00  0.00000000000E+00  0.41843719896E+03  0.10858800275E+04  0.10020208304E+04 0.  0.
        3    1    3    3  502    0 -0.29443237920E+03  0.17671588861E+03 -0.18613152347E+03  0.39059427215E+03  0.10100000352E+00 0. -1.
       -3    1    3    3    0  502  0.29443237920E+03 -0.17671588861E+03  0.60456872243E+03  0.69528575532E+03  0.10100000352E+00 0.  1.
</event>
<event>
 5   0  0.4026829E-03  0.1000048E+04  0.7818609E-02  0.9308492E-01
       -2   -1    0    0    0  501  0.00000000000E+00  0.00000000000E+00  0.20117731413E+03  0.20117731415E+03  0.25500000920E-02 0.  1.
        2   -1    0    0  501    0  0.00000000000E+00  0.00000000000E+00 -0.12428045926E+04  0.12428045926E+04  0.25500000920E-02 0. -1.
    10030    2    1    2    0    0  0.00000000000E+00  0.00000000000E+00 -0.10416272785E+04  0.14439819067E+04  0.10000481787E+04 0.  0.
        1    1    3    3  502    0 -0.83758986793E+02 -0.17280933169E+03  0.14580717301E+03  0.24111898456E+03  0.50400001928E-02 0.  1.
       -1    1    3    3    0  502  0.83758986793E+02  0.17280933169E+03 -0.11874344515E+04  0.12028629222E+04  0.50400001928E-02 0. -1.
</event>
<event>
 5   0  0.2350769E-03  0.1018662E+04  0.7818609E-02  0.9288310E-01
        1   -1    0    0  501    0  0.00000000000E+00  0.00000000000E+00  0.81619170144E+03  0.81619170145E+03  0.50400001928E-02 0.  1.
       -1   -1    0    0    0  501  0.00000000000E+00  0.00000000000E+00 -0.31783958926E+03  0.31783958930E+03  0.50400001928E-02 0. -1.
    10030    2    1    2    0    0  0.00000000000E+00  0.00000000000E+00  0.49835211218E+03  0.11340312907E+04  0.10186619364E+04 0.  0.
        2    1    3    3  502    0 -0.88755439298E+02 -0.42797642441E+03  0.54028060216E+03  0.69494206732E+03  0.25500000920E-02 0.  1.
       -2    1    3    3    0  502  0.88755439298E+02  0.42797642441E+03 -0.41928489981E+02  0.43908922343E+03  0.25500000920E-02 0. -1.
</event>
<event>
 5   0  0.2350769E-03  0.9972635E+03  0.7818609E-02  0.9311551E-01
       -1   -1    0    0    0  501  0.00000000000E+00  0.00000000000E+00  0.37568917125E+03  0.37568917129E+03  0.50400001928E-02 0. -1.
        1   -1    0    0  501    0  0.00000000000E+00  0.00000000000E+00 -0.66180668888E+03  0.66180668890E+03  0.50400001928E-02 0.  1.
    10030    2    1    2    0    0  0.00000000000E+00  0.00000000000E+00 -0.28611751763E+03  0.10374958602E+04  0.99726346870E+03 0.  0.
        2    1    3    3  502    0  0.33599239633E+03  0.29518731971E+03 -0.37242346773E+03  0.58200144624E+03  0.25500000920E-02 0. -1.
       -2    1    3    3    0  502 -0.33599239633E+03 -0.29518731971E+03  0.86305950098E+02  0.45549441394E+03  0.25500000920E-02 0.  1.
</event>
<event>
 5   0  0.4140860E-03  0.1005413E+04  0.7818609E-02  0.9302628E-01
        2   -1    0    0  501    0  0.00000000000E+00  0.00000000000E+00  0.78382583600E+03  0.78382583600E+03  0.25500000920E-02 0. -1.
       -2   -1    0    0    0  501  0.00000000000E+00  0.00000000000E+00 -0.32241080927E+03  0.32241080928E+03  0.25500000920E-02 0.  1.
    10030    2    1    2    0    0  0.00000000000E+00  0.00000000000E+00  0.46141502673E+03  0.11062366453E+04  0.10054131929E+04 0.  0.
        3    1    3    3  502    0  0.36729467153E+03 -0.59400037712E+02 -0.14124620382E+03  0.39797517575E+03  0.10100000352E+00 0.  1.
       -3    1    3    3    0  502 -0.36729467153E+03  0.59400037712E+02  0.60266123055E+03  0.70826146953E+03  0.10100000352E+00 0. -1.
</event>
<event>
 5   0  0.4140860E-03  0.9858639E+03  0.7818609E-02  0.9324186E-01
       -2   -1    0    0    0  501  0.00000000000E+00  0.00000000000E+00  0.15221138895E+03  0.15221138897E+03  0.25500000920E-02 0.  1.
        2   -1    0    0  501    0  0.00000000000E+00  0.00000000000E+00 -0.15963450657E+04  0.15963450657E+04  0.25500000920E-02 0. -1.
    10030    2    1    2    0    0  0.00000000000E+00  0.00000000000E+00 -0.14441336767E+04  0.17485564547E+04  0.98586388455E+03 0.  0.
        3    1    3    3  502    0  0.44018622545E+03 -0.10384452272E+03 -0.10697808099E+04  0.11614553755E+04  0.10100000352E+00 0. -1.
       -3    1    3    3    0  502 -0.44018622545E+03  0.10384452272E+03 -0.37435286684E+03  0.58710107911E+03  0.10100000352E+00 0.  1.
</event>
<event>
 5   0  0.2405022E-03  0.1002794E+04  0.7818609E-02  0.9305486E-01
       -1   -1    0    0    0  501  0.00000000000E+00  0.00000000000E+00  0.28174942841E+03  0.28174942846E+03  0.50400001928E-02 0. -1.
        1   -1    0    0  501    0  0.00000000000E+00  0.00000000000E+00 -0.89227772365E+03  0.89227772366E+03  0.50400001928E-02 0.  1.
    10030    2    1    2    0    0  0.00000000000E+00  0.00000000000E+00 -0.61052829523E+03  0.11740271521E+04  0.10027935753E+04 0.  0.
        4    1    3    3  502    0  0.16024247158E+03 -0.56248824915E+02 -0.85757783833E+03  0.87423277317E+03  0.12699999809E+01 0.  1.
       -4    1    3    3    0  502 -0.16024247158E+03  0.56248824915E+02  0.24704954309E+03  0.29979437894E+03  0.12699999809E+01 0. -1.
</event>
<event>
 5   0  0.2405022E-03  0.9876835E+03  0.7818609E-02  0.9322157E-01
       -1   -1    0    0    0  501  0.00000000000E+00  0.00000000000E+00  0.17191274780E+03  0.17191274787E+03  0.50400001928E-02 0.  1.
        1   -1    0    0  501    0  0.00000000000E+00  0.00000000000E+00 -0.14186246818E+04  0.14186246818E+04  0.50400001928E-02 0. -1.
    10030    2    1    2    0    0  0.00000000000E+00  0.00000000000E+00 -0.12467119340E+04  0.15905374297E+04  0.98768348615E+03 0.  0.
        4    1    3    3  502    0  0.34443058592E+03  0.33829491487E+03 -0.79072755353E+03  0.92645968869E+03  0.12699999809E+01 0. -1.
       -4    1    3    3    0  502 -0.34443058592E+03 -0.33829491487E+03 -0.45598438044E+03  0.66407774097E+03  0.12699999809E+01 0.  1.
</event>
<event>
 5   0  0.2378609E-03  0.1002630E+04  0.7818609E-02  0.9305665E-01
       -1   -1    0    0    0  501  0.00000000000E+00  0.00000000000E+00  0.23591327440E+03  0.23591327446E+03  0.50400001928E-02 0.  1.
        1   -1    0    0  501    0  0.00000000000E+00  0.00000000000E+00 -0.10652936363E+04  0.10652936363E+04  0.50400001928E-02 0. -1.
    10030    2    1    2    0    0  0.00000000000E+00  0.00000000000E+00 -0.82938036185E+03  0.13012069107E+04  0.10026303605E+04 0.  0.
        1    1    3    3  502    0 -0.69706605374E+02  0.41137825940E+03 -0.77534089234E+03  0.88047974565E+03  0.50400001928E-02 0. -1.
       -1    1    3    3    0  502  0.69706605374E+02 -0.41137825940E+03 -0.54039469514E+02  0.42072716508E+03  0.50400001928E-02 0.  1.
</event>
<event>
 5   0  0.2378609E-03  0.9965486E+03  0.7818609E-02  0.9312338E-01
        1   -1    0    0  501    0  0.00000000000E+00  0.00000000000E+00  0.21642307733E+03  0.21642307739E+03  0.50400001928E-02 0.  1.
       -1   -1    0    0    0  501  0.00000000000E+00  0.00000000000E+00 -0.11471848115E+04  0.11471848115E+04  0.50400001928E-02 0. -1.
    10030    2    1    2    0    0  0.00000000000E+00  0.00000000000E+00 -0.93076173415E+03  0.13636078889E+04  0.99654857828E+03 0.  0.
        1    1    3    3  502    0  0.19792670312E+03 -0.43859479239E+03 -0.64240337251E+03  0.80263470194E+03  0.50400001928E-02 0.  1.
       -1    1    3    3    0  502 -0.19792670312E+03  0.43859479239E+03 -0.28835836164E+03  0.56097318695E+03  0.50400001928E-02 0. -1.
</event>
<event>
 5   0  0.2350769E-03  0.9937469E+03  0.7818609E-02  0.9315430E-01
        1   -1    0    0  501    0  0.00000000000E+00  0.00000000000E+00  0.55627161536E+03  0.55627161539E+03  0.50400001928E-02 0. -1.
       -1   -1    0    0    0  501  0.00000000000E+00  0.00000000000E+00 -0.44381774050E+03  0.44381774052E+03  0.50400001928E-02 0.  1.
    10030    2    1    2    0    0  0.00000000000E+00  0.00000000000E+00  0.11245387487E+03  0.10000893559E+04  0.99374687211E+03 0.  0.
        2    1    3    3  502    0 -0.74581305101E+02  0.24215300496E+02 -0.43755154541E+03  0.44452233548E+03  0.25500000920E-02 0.  1.
       -2    1    3    3    0  502  0.74581305101E+02 -0.24215300496E+02  0.55000542027E+03  0.55556702043E+03  0.25500000920E-02 0. -1.
</event>
<event>
 5   0  0.2327595E-03  0.9998203E+03  0.7818609E-02  0.9308742E-01
       -1   -1    0    0    0  501  0.00000000000E+00  0.00000000000E+00  0.41464515904E+03  0.41464515907E+03  0.50400001928E-02 0. -1.
        1   -1    0    0  501    0  0.00000000000E+00  0.00000000000E+00 -0.60270847270E+03  0.60270847272E+03  0.50400001928E-02 0.  1.
    10030    2    1    2    0    0  0.00000000000E+00  0.00000000000E+00 -0.18806331366E+03  0.10173536318E+04  0.99982028494E+03 0.  0.
        5    1    3    3  502    0 -0.30608582904E+03  0.33476633373E+03  0.11972616539E+03  0.46916252793E+03  0.46999998093E+01 0. -1.
       -5    1    3    3    0  502  0.30608582904E+03 -0.33476633373E+03 -0.30778947905E+03  0.54819110386E+03  0.46999998093E+01 0.  1.
</event>
<event>
 5   0  0.2350769E-03  0.9886009E+03  0.7818609E-02  0.9321136E-01
       -1   -1    0    0    0  501  0.00000000000E+00  0.00000000000E+00  0.25899004333E+03  0.25899004338E+03  0.50400001928E-02 0. -1.
        1   -1    0    0  501    0  0.00000000000E+00  0.00000000000E+00 -0.94340667163E+03  0.94340667164E+03  0.50400001928E-02 0.  1.
    10030    2    1    2    0    0  0.00000000000E+00  0.00000000000E+00 -0.68441662830E+03  0.12023967150E+04  0.98860089986E+03 0.  0.
        2    1    3    3  502    0  0.33234584066E+03  0.20788116273E+03  0.24014716768E+02  0.39274042604E+03  0.25500000920E-02 0. -1.
       -2    1    3    3    0  502 -0.33234584066E+03 -0.20788116273E+03 -0.70843134507E+03  0.80965628899E+03  0.25500000920E-02 0.  1.
</event>
<event>
 5   0  0.4026829E-03  0.9910163E+03  0.7818609E-02  0.9318453E-01
       -2   -1    0    0    0  501  0.00000000000E+00  0.00000000000E+00  0.22092153968E+03  0.22092153970E+03  0.25500000920E-02 0. -1.
        2   -1    0    0  501    0  0.00000000000E+00  0.00000000000E+00 -0.11113825093E+04  0.11113825093E+04  0.25500000920E-02 0.  1.
    10030    2    1    2    0    0  0.00000000000E+00  0.00000000000E+00 -0.89046096965E+03  0.13323040490E+04  0.99101631702E+03 0.  0.
        1    1    3    3  502    0 -0.25418284365E+03 -0.23522811854E+03 -0.92165614447E+03  0.98457667778E+03  0.50400001928E-02 0.  1.
       -1    1    3    3    0  502  0.25418284365E+03  0.23522811854E+03  0.31195174823E+02  0.34772737125E+03  0.50400001928E-02 0. -1.
</event>
<event>
 5   0  0.4026829E-03  0.9818955E+03  0.7818609E-02  0.9328627E-01
       -2   -1    0    0    0  501  0.00000000000E+00  0.00000000000E+00  0.19956350473E+03  0.19956350475E+03  0.25500000920E-02 0. -1.
        2   -1    0    0  501    0  0.00000000000E+00  0.00000000000E+00 -0.12077843980E+04  0.12077843980E+04  0.25500000920E-02 0.  1.
    10030    2    1    2    0    0  0.00000000000E+00  0.00000000000E+00 -0.10082208933E+04  0.14073479028E+04  0.98189548822E+03 0.  0.
        1    1    3    3  502    0  0.27616756323E+03  0.40015424512E+03 -0.60171939143E+03  0.77360078136E+03  0.50400001928E-02 0. -1.
       -1    1    3    3    0  502 -0.27616756323E+03 -0.40015424512E+03 -0.40650150187E+03  0.63374712143E+03  0.50400001928E-02 0.  1.
</event>
<event>
 5   0  0.3895011E-03  0.1091967E+04  0.7818609E-02  0.9213057E-01
       -2   -1    0    0    0  501  0.00000000000E+00  0.00000000000E+00  0.52698731886E+03  0.52698731886E+03  0.25500000920E-02 0.  1.
        2   -1    0    0  501    0  0.00000000000E+00  0.00000000000E+00 -0.56566470931E+03  0.56566470932E+03  0.25500000920E-02 0. -1.
    10030    2    1    2    0    0  0.00000000000E+00  0.00000000000E+00 -0.38677390455E+02  0.10926520282E+04  0.10919672679E+04 0.  0.
        2    1    3    3  502    0  0.24002843054E+03  0.11347974653E+03  0.45804205115E+03  0.52942782414E+03  0.25500000920E-02 0.  1.
       -2    1    3    3    0  502 -0.24002843054E+03 -0.11347974653E+03 -0.49671944161E+03  0.56322420404E+03  0.25500000920E-02 0. -1.
</event>
<event>
 5   0  0.2405022E-03  0.9918032E+03  0.7818609E-02  0.9317581E-01
        1   -1    0    0  501    0  0.00000000000E+00  0.00000000000E+00  0.12394933303E+04  0.12394933303E+04  0.50400001928E-02 0.  1.
       -1   -1    0    0    0  501  0.00000000000E+00  0.00000000000E+00 -0.19840235055E+03  0.19840235062E+03  0.50400001928E-02 0. -1.
    10030    2    1    2    0    0  0.00000000000E+00  0.00000000000E+00  0.10410909797E+04  0.14378956809E+04  0.99180318668E+03 0.  0.
        4    1    3    3  502    0  0.29194605674E+03  0.20280592875E+03  0.10218296649E+04  0.10818965855E+04  0.12699999809E+01 0.  1.
       -4    1    3    3    0  502 -0.29194605674E+03 -0.20280592875E+03  0.19261314847E+02  0.35599909541E+03  0.12699999809E+01 0. -1.
</event>
<event>
 5   0  0.2405022E-03  0.1002154E+04  0.7818609E-02  0.9306186E-01
        1   -1    0    0  501    0  0.00000000000E+00  0.00000000000E+00  0.49648154168E+03  0.49648154171E+03  0.50400001928E-02 0.  1.
       -1   -1    0    0    0  501  0.00000000000E+00  0.00000000000E+00 -0.50571457559E+03  0.50571457562E+03  0.50400001928E-02 0. -1.
    10030    2    1    2    0    0  0.00000000000E+00  0.00000000000E+00 -0.92330339090E+01  0.10021961173E+04  0.10021535854E+04 0.  0.
        4    1    3    3  502    0 -0.41166309979E+03 -0.20213560656E+03 -0.20649392323E+03  0.50295791514E+03  0.12699999809E+01 0. -1.
       -4    1    3    3    0  502  0.41166309979E+03  0.20213560656E+03  0.19726088932E+03  0.49923820219E+03  0.12699999809E+01 0.  1.
</event>
<event>
 5   0  0.2378609E-03  0.9942341E+03  0.7818609E-02  0.9314891E-01
       -1   -1    0    0    0  501  0.00000000000E+00  0.00000000000E+00  0.83287332841E+03  0.83287332842E+03  0.50400001928E-02 0. -1.
        1   -1    0    0  501    0  0.00000000000E+00  0.00000000000E+00 -0.29671424026E+03  0.29671424030E+03  0.50400001928E-02 0.  1.
    10030    2    1    2    0    0  0.00000000000E+00  0.00000000000E+00  0.53615908815E+03  0.11295875687E+04  0.99423413119E+03 0.  0.
        1    1    3    3  502    0  0.46938620068E+03  0.15575446125E+03  0.21079158310E+03  0.53760203600E+03  0.50400001928E-02 0.  1.
       -1    1    3    3    0  502 -0.46938620068E+03 -0.15575446125E+03  0.32536750505E+03  0.59198553272E+03  0.50400001928E-02 0. -1.
</event>
<event>
 5   0  0.2350769E-03  0.1007400E+04  0.7818609E-02  0.9300466E-01
        1   -1    0    0  501    0  0.00000000000E+00  0.00000000000E+00  0.39183758086E+03  0.39183758089E+03  0.50400001928E-02 0.  1.
       -1   -1    0    0    0  501  0.00000000000E+00  0.00000000000E+00 -0.64749683199E+03  0.64749683201E+03  0.50400001928E-02 0. -1.
    10030    2    1    2    0    0  0.00000000000E+00  0.00000000000E+00 -0.25565925113E+03  0.10393344129E+04  0.10073998060E+04 0.  0.
        2    1    3    3  502    0 -0.31146402429E+03 -0.67942746543E+01 -0.53617643558E+03  0.62011383687E+03  0.25500000920E-02 0. -1.
       -2    1    3    3    0  502  0.31146402429E+03  0.67942746543E+01  0.28051718444E+03  0.41922057604E+03  0.25500000920E-02 0.  1.
</event>
<event>
 5   0  0.1548000E-03  0.1005914E+04  0.7818609E-02  0.9302082E-01
       -4   -1    0    0    0  501  0.00000000000E+00  0.00000000000E+00  0.11983002707E+04  0.11983009437E+04  0.12699999809E+01 0. -1.
        4   -1    0    0  501    0  0.00000000000E+00  0.00000000000E+00 -0.21110130594E+03  0.21110512611E+03  0.12699999809E+01 0.  1.
    10030    2    1    2    0    0  0.00000000000E+00  0.00000000000E+00  0.98719896475E+03  0.14094060698E+04  0.10059143470E+04 0.  0.
        5    1    3    3  502    0  0.46260556761E+03 -0.19728185772E+03  0.49983183712E+03  0.70906840147E+03  0.46999998093E+01 0. -1.
       -5    1    3    3    0  502 -0.46260556761E+03  0.19728185772E+03  0.48736712762E+03  0.70033766831E+03  0.46999998093E+01 0.  1.
</event>
<event>
 5   0  0.4140860E-03  0.9994295E+03  0.7818609E-02  0.9309171E-01
        2   -1    0    0  501    0  0.00000000000E+00  0.00000000000E+00  0.10518972588E+04  0.10518972588E+04  0.25500000920E-02 0.  1.
       -2   -1    0    0    0  501  0.00000000000E+00  0.00000000000E+00 -0.23739470816E+03  0.23739470817E+03  0.25500000920E-02 0. -1.
    10030    2    1    2    0    0  0.00000000000E+00  0.00000000000E+00  0.81450255061E+03  0.12892919669E+04  0.99942952281E+03 0.  0.
        3    1    3    3  502    0 -0.15006822946E+03  0.13367751989E+03 -0.18296247114E+03  0.27178195095E+03  0.10100000352E+00 0. -1.
       -3    1    3    3    0  502  0.15006822946E+03 -0.13367751989E+03  0.99746502175E+03  0.10175100160E+04  0.10100000352E+00 0.  1.
</event>
<event>
 5   0  0.4026829E-03  0.9990477E+03  0.7818609E-02  0.9309590E-01
        2   -1    0    0  501    0  0.00000000000E+00  0.00000000000E+00  0.14049006035E+04  0.14049006035E+04  0.25500000920E-02 0.  1.
       -2   -1    0    0    0  501  0.00000000000E+00  0.00000000000E+00 -0.17760977335E+03  0.17760977337E+03  0.25500000920E-02 0. -1.
    10030    2    1    2    0    0  0.00000000000E+00  0.00000000000E+00  0.12272908301E+04  0.15825103768E+04  0.99904770212E+03 0.  0.
        1    1    3    3  502    0 -0.45541803472E+03 -0.20456615290E+03  0.63973033835E+03  0.81148493707E+03  0.50400001928E-02 0.  1.
       -1    1    3    3    0  502  0.45541803472E+03  0.20456615290E+03  0.58756049176E+03  0.77102543977E+03  0.50400001928E-02 0. -1.
</event>
<event>
 5   0  0.4140860E-03  0.1008241E+04  0.7818609E-02  0.9299552E-01
        2   -1    0    0  501    0  0.00000000000E+00  0.00000000000E+00  0.12339593557E+04  0.12339593557E+04  0.25500000920E-02 0. -1.
       -2   -1    0    0    0  501  0.00000000000E+00  0.00000000000E+00 -0.20595287811E+03  0.20595287813E+03  0.25500000920E-02 0.  1.
    10030    2    1    2    0    0  0.00000000000E+00  0.00000000000E+00  0.10280064776E+04  0.14399122338E+04  0.10082410045E+04 0.  0.
        3    1    3    3  502    0 -0.47787375140E+03 -0.15289135636E+03  0.44406240670E+03  0.67002277601E+03  0.10100000352E+00 0.  1.
       -3    1    3    3    0  502  0.47787375140E+03  0.15289135636E+03  0.58394407086E+03  0.76988945779E+03  0.10100000352E+00 0. -1.
</event>
<event>
 5   0  0.2405022E-03  0.1004038E+04  0.7818609E-02  0.9304127E-01
       -1   -1    0    0    0  501  0.00000000000E+00  0.00000000000E+00  0.26730555008E+03  0.26730555013E+03  0.50400001928E-02 0. -1.
        1   -1    0    0  501    0  0.00000000000E+00  0.00000000000E+00 -0.94282754798E+03  0.94282754799E+03  0.50400001928E-02 0.  1.
    10030    2    1    2    0    0  0.00000000000E+00  0.00000000000E+00 -0.67552199790E+03  0.12101330981E+04  0.10040379204E+04 0.  0.
        4    1    3    3  502    0 -0.30361357625E+03  0.34754189443E+03 -0.57594935054E+03  0.73802834590E+03  0.12699999809E+01 0.  1.
       -4    1    3    3    0  502  0.30361357625E+03 -0.34754189443E+03 -0.99572647354E+02  0.47210475222E+03  0.12699999809E+01 0. -1.
</event>
<event>
 5   0  0.3895011E-03  0.9953594E+03  0.7818609E-02  0.9313649E-01
       -2   -1    0    0    0  501  0.00000000000E+00  0.00000000000E+00  0.40921525648E+03  0.40921525649E+03  0.25500000920E-02 0.  1.
        2   -1    0    0  501    0  0.00000000000E+00  0.00000000000E+00 -0.60526848001E+03  0.60526848002E+03  0.25500000920E-02 0. -1.
    10030    2    1    2    0    0  0.00000000000E+00  0.00000000000E+00 -0.19605322353E+03  0.10144837365E+04  0.99535942512E+03 0.  0.
        2    1    3    3  502    0  0.46190230371E+03 -0.25520261014E+01  0.90802717327E+02  0.47074981093E+03  0.25500000920E-02 0.  1.
       -2    1    3    3    0  502 -0.46190230371E+03  0.25520261014E+01 -0.28685594086E+03  0.54373392558E+03  0.25500000920E-02 0. -1.
</event>
<event>
 5   0  0.3895011E-03  0.1018780E+04  0.7818609E-02  0.9288184E-01
       -2   -1    0    0    0  501  0.00000000000E+00  0.00000000000E+00  0.25505905983E+03  0.25505905985E+03  0.25500000920E-02 0.  1.
        2   -1    0    0  501    0  0.00000000000E+00  0.00000000000E+00 -0.10173259281E+04  0.10173259281E+04  0.25500000920E-02 0. -1.
    10030    2    1    2    0    0  0.00000000000E+00  0.00000000000E+00 -0.76226686823E+03  0.12723849879E+04  0.10187800445E+04 0.  0.
        2    1    3    3  502    0  0.13587451672E+03  0.47375100140E+03 -0.54193189765E+03  0.73252445510E+03  0.25500000920E-02 0.  1.
       -2    1    3    3    0  502 -0.13587451672E+03 -0.47375100140E+03 -0.22033497058E+03  0.53986053281E+03  0.25500000920E-02 0. -1.
</event>
<event>
 5   0  0.2405022E-03  0.1016365E+04  0.7818609E-02  0.9290776E-01
       -1   -1    0    0    0  501  0.00000000000E+00  0.00000000000E+00  0.42569966705E+03  0.42569966708E+03  0.50400001928E-02 0.  1.
        1   -1    0    0  501    0  0.00000000000E+00  0.00000000000E+00 -0.60664654017E+03  0.60664654019E+03  0.50400001928E-02 0. -1.
    10030    2    1    2    0    0  0.00000000000E+00  0.00000000000E+00 -0.18094687312E+03  0.10323462073E+04  0.10163645610E+04 0.  0.
        4    1    3    3  502    0  0.13035528804E+03  0.38834368853E+03 -0.39594194465E+03  0.56971480407E+03  0.12699999809E+01 0. -1.
       -4    1    3    3    0  502 -0.13035528804E+03 -0.38834368853E+03  0.21499507153E+03  0.46263140320E+03  0.12699999809E+01 0.  1.
</event>
<event>
 5   0  0.2350769E-03  0.9995268E+03  0.7818609E-02  0.9309064E-01
       -1   -1    0    0    0  501  0.00000000000E+00  0.00000000000E+00  0.41494302831E+03  0.41494302834E+03  0.50400001928E-02 0.  1.
        1   -1    0    0  501    0  0.00000000000E+00  0.00000000000E+00 -0.60192234301E+03  0.60192234303E+03  0.50400001928E-02 0. -1.
    10030    2    1    2    0    0  0.00000000000E+00  0.00000000000E+00 -0.18697931470E+03  0.10168653714E+04  0.99952684774E+03 0.  0.
        2    1    3    3  502    0 -0.48307991122E+03  0.99313698877E+02 -0.11253874150E+02  0.49331132270E+03  0.25500000920E-02 0. -1.
       -2    1    3    3    0  502  0.48307991122E+03 -0.99313698877E+02 -0.17572544055E+03  0.52355404867E+03  0.25500000920E-02 0.  1.
</event>
<event>
 5   0  0.2327595E-03  0.1000709E+04  0.7818609E-02  0.9307767E-01
       -1   -1    0    0    0  501  0.00000000000E+00  0.00000000000E+00  0.80738627290E+03  0.80738627292E+03  0.50400001928E-02 0.  1.
        1   -1    0    0  501    0  0.00000000000E+00  0.00000000000E+00 -0.31008056994E+03  0.31008056998E+03  0.50400001928E-02 0. -1.
    10030    2    1    2    0    0  0.00000000000E+00  0.00000000000E+00  0.49730570296E+03  0.11174668429E+04  0.10007093398E+04 0.  0.
        5    1    3    3  502    0  0.25231764198E+03  0.26591043140E+03  0.62891323995E+03  0.72796050948E+03  0.46999998093E+01 0.  1.
       -5    1    3    3    0  502 -0.25231764198E+03 -0.26591043140E+03 -0.13160753699E+03  0.38950633342E+03  0.46999998093E+01 0. -1.
</event>
<event>
 5   0  0.3826483E-03  0.1008457E+04  0.7818609E-02  0.9299318E-01
       -2   -1    0    0    0  501  0.00000000000E+00  0.00000000000E+00  0.15902447211E+03  0.15902447213E+03  0.25500000920E-02 0. -1.
        2   -1    0    0  501    0  0.00000000000E+00  0.00000000000E+00 -0.15987872360E+04  0.15987872360E+04  0.25500000920E-02 0.  1.
    10030    2    1    2    0    0  0.00000000000E+00  0.00000000000E+00 -0.14397627639E+04  0.17578117082E+04  0.10084568335E+04 0.  0.
        4    1    3    3  502    0  0.37461734860E+03  0.15631084625E+03 -0.12412706875E+04  0.13059577983E+04  0.12699999809E+01 0.  1.
       -4    1    3    3    0  502 -0.37461734860E+03 -0.15631084625E+03 -0.19849207646E+03  0.45185390984E+03  0.12699999809E+01 0. -1.
</event>
<event>
 5   0  0.2327595E-03  0.9982669E+03  0.7818609E-02  0.9310448E-01
       -1   -1    0    0    0  501  0.00000000000E+00  0.00000000000E+00  0.99440268220E+02  0.99440268348E+02  0.50400001928E-02 0.  1.
        1   -1    0    0  501    0  0.00000000000E+00  0.00000000000E+00 -0.25053652220E+04  0.25053652220E+04  0.50400001928E-02 0. -1.
    10030    2    1    2    0    0  0.00000000000E+00  0.00000000000E+00 -0.24059249538E+04  0.26048054903E+04  0.99826687782E+03 0.  0.
        5    1    3    3  502    0  0.12474129709E+02 -0.41246895446E+03 -0.47036909832E+03  0.62574389406E+03  0.46999998093E+01 0.  1.
       -5    1    3    3    0  502 -0.12474129709E+02  0.41246895446E+03 -0.19355558554E+04  0.19790615963E+04  0.46999998093E+01 0. -1.
</event>
<event>
 5   0  0.4026829E-03  0.1027269E+04  0.7818609E-02  0.9279132E-01
        2   -1    0    0  501    0  0.00000000000E+00  0.00000000000E+00  0.12597637665E+04  0.12597637665E+04  0.25500000920E-02 0.  1.
       -2   -1    0    0    0  501  0.00000000000E+00  0.00000000000E+00 -0.20942067850E+03  0.20942067851E+03  0.25500000920E-02 0. -1.
    10030    2    1    2    0    0  0.00000000000E+00  0.00000000000E+00  0.10503430880E+04  0.14691844450E+04  0.10272693566E+04 0.  0.
        1    1    3    3  502    0  0.30585675171E+03  0.91992189158E+02  0.11004713409E+04  0.11458831038E+04  0.50400001928E-02 0.  1.
       -1    1    3    3    0  502 -0.30585675171E+03 -0.91992189158E+02 -0.50128252940E+02  0.32330134116E+03  0.50400001928E-02 0. -1.
</event>
<event>
 5   0  0.2327595E-03  0.1000414E+04  0.7818609E-02  0.9308091E-01
       -1   -1    0    0    0  501  0.00000000000E+00  0.00000000000E+00  0.50140084820E+03  0.50140084823E+03  0.50400001928E-02 0.  1.
        1   -1    0    0  501    0  0.00000000000E+00  0.00000000000E+00 -0.49901552592E+03  0.49901552595E+03  0.50400001928E-02 0. -1.
    10030    2    1    2    0    0  0.00000000000E+00  0.00000000000E+00  0.23853222819E+01  0.10004163742E+04  0.10004135305E+04 0.  0.
        5    1    3    3  502    0 -0.80201943615E+02 -0.15524552728E+03  0.46986359177E+03  0.50132565302E+03  0.46999998093E+01 0.  1.
       -5    1    3    3    0  502  0.80201943615E+02  0.15524552728E+03 -0.46747826949E+03  0.49909072116E+03  0.46999998093E+01 0. -1.
</event>
<event>
 5   0  0.2378609E-03  0.1022409E+04  0.7818609E-02  0.9284303E-01
        1   -1    0    0  501    0  0.00000000000E+00  0.00000000000E+00  0.56753574375E+03  0.56753574378E+03  0.50400001928E-02 0.  1.
       -1   -1    0    0    0  501  0.00000000000E+00  0.00000000000E+00 -0.46046414712E+03  0.46046414714E+03  0.50400001928E-02 0. -1.
    10030    2    1    2    0    0  0.00000000000E+00  0.00000000000E+00  0.10707159664E+03  0.10279998909E+04  0.10224086507E+04 0.  0.
        1    1    3    3  502    0 -0.40378414156E+03 -0.13745093670E+03  0.33684873972E+03  0.54350847873E+03  0.50400001928E-02 0.  1.
       -1    1    3    3    0  502  0.40378414156E+03  0.13745093670E+03 -0.22977714309E+03  0.48449141219E+03  0.50400001928E-02 0. -1.
</event>
<event>
 5   0  0.2313036E-03  0.1014605E+04  0.7818609E-02  0.9292670E-01
        1   -1    0    0  501    0  0.00000000000E+00  0.00000000000E+00  0.13735276225E+04  0.13735276225E+04  0.50400001928E-02 0. -1.
       -1   -1    0    0    0  501  0.00000000000E+00  0.00000000000E+00 -0.18736837289E+03  0.18736837296E+03  0.50400001928E-02 0.  1.
    10030    2    1    2    0    0  0.00000000000E+00  0.00000000000E+00  0.11861592496E+04  0.15608959954E+04  0.10146046241E+04 0.  0.
        3    1    3    3  502    0  0.40131743015E+03  0.30854442950E+03  0.64411001772E+03  0.81922711738E+03  0.10100000352E+00 0. -1.
       -3    1    3    3    0  502 -0.40131743015E+03 -0.30854442950E+03  0.54204923184E+03  0.74166887804E+03  0.10100000352E+00 0.  1.
</event>
<event>
 5   0  0.2327595E-03  0.9982587E+03  0.7818609E-02  0.9310457E-01
        1   -1    0    0  501    0  0.00000000000E+00  0.00000000000E+00  0.11032156722E+04  0.11032156723E+04  0.50400001928E-02 0. -1.
       -1   -1    0    0    0  501  0.00000000000E+00  0.00000000000E+00 -0.22582178485E+03  0.22582178491E+03  0.50400001928E-02 0.  1.
    10030    2    1    2    0    0  0.00000000000E+00  0.00000000000E+00  0.87739388739E+03  0.13290374572E+04  0.99825874847E+03 0.  0.
        5    1    3    3  502    0  0.12628973443E+03  0.42295163660E+03  0.74885098274E+03  0.86927387415E+03  0.46999998093E+01 0. -1.
       -5    1    3    3    0  502 -0.12628973443E+03 -0.42295163660E+03  0.12854290465E+03  0.45976358301E+03  0.46999998093E+01 0.  1.
</event>
<event>
 5   0  0.3826483E-03  0.1009423E+04  0.7818609E-02  0.9298270E-01
       -2   -1    0    0    0  501  0.00000000000E+00  0.00000000000E+00  0.34132301967E+03  0.34132301968E+03  0.25500000920E-02 0. -1.
        2   -1    0    0  501    0  0.00000000000E+00  0.00000000000E+00 -0.74631278229E+03  0.74631278229E+03  0.25500000920E-02 0.  1.
    10030    2    1    2    0    0  0.00000000000E+00  0.00000000000E+00 -0.40498976262E+03  0.10876358020E+04  0.10094230678E+04 0.  0.
        4    1    3    3  502    0 -0.16790991743E+03  0.28990632488E+03  0.20423546884E+03  0.39236864963E+03  0.12699999809E+01 0. -1.
       -4    1    3    3    0  502  0.16790991743E+03 -0.28990632488E+03 -0.60922523146E+03  0.69526715234E+03  0.12699999809E+01 0.  1.
</event>
<event>
 5   0  0.4140860E-03  0.9959433E+03  0.7818609E-02  0.9313005E-01
        2   -1    0    0  501    0  0.00000000000E+00  0.00000000000E+00  0.12786236436E+04  0.12786236436E+04  0.25500000920E-02 0. -1.
       -2   -1    0    0    0  501  0.00000000000E+00  0.00000000000E+00 -0.19393961311E+03  0.19393961313E+03  0.25500000920E-02 0.  1.
    10030    2    1    2    0    0  0.00000000000E+00  0.00000000000E+00  0.10846840305E+04  0.14725632567E+04  0.99594332120E+03 0.  0.
        3    1    3    3  502    0 -0.33875683044E+03  0.23447772890E+03  0.12876812210E+03  0.43164480188E+03  0.10100000352E+00 0.  1.
       -3    1    3    3    0  502  0.33875683044E+03 -0.23447772890E+03  0.95591590835E+03  0.10409184548E+04  0.10100000352E+00 0. -1.
</event>
<event>
 5   0  0.3895011E-03  0.9928859E+03  0.7818609E-02  0.9316382E-01
       -2   -1    0    0    0  501  0.00000000000E+00  0.00000000000E+00  0.13306895471E+03  0.13306895473E+03  0.25500000920E-02 0.  1.
        2   -1    0    0  501    0  0.00000000000E+00  0.00000000000E+00 -0.18520893219E+04  0.18520893219E+04  0.25500000920E-02 0. -1.
    10030    2    1    2    0    0  0.00000000000E+00  0.00000000000E+00 -0.17190203671E+04  0.19851582766E+04  0.99288587483E+03 0.  0.
        2    1    3    3  502    0 -0.41603276190E+03  0.46062305686E+02 -0.13932013992E+04  0.14547216688E+04  0.25500000920E-02 0. -1.
       -2    1    3    3    0  502  0.41603276190E+03 -0.46062305686E+02 -0.32581896795E+03  0.53043660777E+03  0.25500000920E-02 0.  1.
</event>
<event>
 5   0  0.4026829E-03  0.9987245E+03  0.7818609E-02  0.9309945E-01
       -2   -1    0    0    0  501  0.00000000000E+00  0.00000000000E+00  0.68133706675E+03  0.68133706676E+03  0.25500000920E-02 0. -1.
        2   -1    0    0  501    0  0.00000000000E+00  0.00000000000E+00 -0.36599018724E+03  0.36599018724E+03  0.25500000920E-02 0.  1.
    10030    2    1    2    0    0  0.00000000000E+00  0.00000000000E+00  0.31534687952E+03  0.10473272540E+04  0.99872454789E+03 0.  0.
        1    1    3    3  502    0  0.88180829045E+02 -0.48871016398E+03  0.10268901821E+03  0.50710799390E+03  0.50400001928E-02 0.  1.
       -1    1    3    3    0  502 -0.88180829045E+02  0.48871016398E+03  0.21265786130E+03  0.54021926010E+03  0.50400001928E-02 0. -1.
</event>
<event>
 5   0  0.3873874E-03  0.1005275E+04  0.7818609E-02  0.9302778E-01
       -2   -1    0    0    0  501  0.00000000000E+00  0.00000000000E+00  0.17653935574E+03  0.17653935576E+03  0.25500000920E-02 0. -1.
        2   -1    0    0  501    0  0.00000000000E+00  0.00000000000E+00 -0.14310934064E+04  0.14310934065E+04  0.25500000920E-02 0.  1.
    10030    2    1    2    0    0  0.00000000000E+00  0.00000000000E+00 -0.12545540507E+04  0.16076327622E+04  0.10052747047E+04 0.  0.
        5    1    3    3  502    0  0.11708753183E+03 -0.18154265448E+03 -0.13530290490E+04  0.13701740484E+04  0.46999998093E+01 0.  1.
       -5    1    3    3    0  502 -0.11708753183E+03  0.18154265448E+03  0.98474998244E+02  0.23745871385E+03  0.46999998093E+01 0. -1.
</event>
<event>
 5   0  0.4140860E-03  0.9994395E+03  0.7818609E-02  0.9309160E-01
       -2   -1    0    0    0  501  0.00000000000E+00  0.00000000000E+00  0.27701291674E+03  0.27701291675E+03  0.25500000920E-02 0.  1.
        2   -1    0    0  501    0  0.00000000000E+00  0.00000000000E+00 -0.90147357285E+03  0.90147357286E+03  0.25500000920E-02 0. -1.
    10030    2    1    2    0    0  0.00000000000E+00  0.00000000000E+00 -0.62446065611E+03  0.11784864896E+04  0.99943949050E+03 0.  0.
        3    1    3    3  502    0  0.19158902734E+03  0.15264761307E+03 -0.82581930258E+03  0.86138561625E+03  0.10100000352E+00 0. -1.
       -3    1    3    3    0  502 -0.19158902734E+03 -0.15264761307E+03  0.20135864647E+03  0.31710087335E+03  0.10100000352E+00 0.  1.
</event>
<event>
 5   0  0.2378609E-03  0.1002714E+04  0.7818609E-02  0.9305573E-01
       -1   -1    0    0    0  501  0.00000000000E+00  0.00000000000E+00  0.90090067675E+03  0.90090067676E+03  0.50400001928E-02 0. -1.
        1   -1    0    0  501    0  0.00000000000E+00  0.00000000000E+00 -0.27900830933E+03  0.27900830938E+03  0.50400001928E-02 0.  1.
    10030    2    1    2    0    0  0.00000000000E+00  0.00000000000E+00  0.62189236742E+03  0.11799089861E+04  0.10027138669E+04 0.  0.
        1    1    3    3  502    0  0.40170334418E+03  0.27041720603E+03  0.46377309725E+03  0.67050468142E+03  0.50400001928E-02 0.  1.
       -1    1    3    3    0  502 -0.40170334418E+03 -0.27041720603E+03  0.15811927016E+03  0.50940430472E+03  0.50400001928E-02 0. -1.
</event>
<event>
 5   0  0.2313036E-03  0.9992583E+03  0.7818609E-02  0.9309359E-01
        1   -1    0    0  501    0  0.00000000000E+00  0.00000000000E+00  0.70024137343E+03  0.70024137345E+03  0.50400001928E-02 0. -1.
       -1   -1    0    0    0  501  0.00000000000E+00  0.00000000000E+00 -0.35649037754E+03  0.35649037757E+03  0.50400001928E-02 0.  1.
    10030    2    1    2    0    0  0.00000000000E+00  0.00000000000E+00  0.34375099589E+03  0.10567317510E+04  0.99925834819E+03 0.  0.
        3    1    3    3  502    0  0.35269285501E+03  0.36083377705E+02  0.54416777683E+03  0.64947120002E+03  0.10100000352E+00 0. -1.
       -3    1    3    3    0  502 -0.35269285501E+03 -0.36083377705E+02 -0.20041678093E+03  0.40726055100E+03  0.10100000352E+00 0.  1.
</event>
<event>
 5   0  0.2327595E-03  0.9975701E+03  0.7818609E-02  0.9311214E-01
        1   -1    0    0  501    0  0.00000000000E+00  0.00000000000E+00  0.11607015698E+04  0.11607015699E+04  0.50400001928E-02 0. -1.
       -1   -1    0    0    0  501  0.00000000000E+00  0.00000000000E+00 -0.21434149623E+03  0.21434149629E+03  0.50400001928E-02 0.  1.
    10030    2    1    2    0    0  0.00000000000E+00  0.00000000000E+00  0.94636007362E+03  0.13750430661E+04  0.99757007013E+03 0.  0.
        5    1    3    3  502    0 -0.38010461951E+03  0.21647059408E+02  0.91730549853E+03  0.99318658095E+03  0.46999998093E+01 0.  1.
       -5    1    3    3    0  502  0.38010461951E+03 -0.21647059408E+02  0.29054575093E+02  0.38185648520E+03  0.46999998093E+01 0. -1.
</event>
<event>
 5   0  0.2313036E-03  0.9963744E+03  0.7818609E-02  0.9312530E-01
        1   -1    0    0  501    0  0.00000000000E+00  0.00000000000E+00  0.15649200984E+04  0.15649200984E+04  0.50400001928E-02 0.  1.
       -1   -1    0    0    0  501  0.00000000000E+00  0.00000000000E+00 -0.15859627795E+03  0.15859627803E+03  0.50400001928E-02 0. -1.
    10030    2    1    2    0    0  0.00000000000E+00  0.00000000000E+00  0.14063238205E+04  0.17235163764E+04  0.99637443357E+03 0.  0.
        3    1    3    3  502    0  0.24346387787E+03 -0.40449063505E+03  0.42800513425E+03  0.63724072282E+03  0.10100000352E+00 0. -1.
       -3    1    3    3    0  502 -0.24346387787E+03  0.40449063505E+03  0.97831868621E+03  0.10862756536E+04  0.10100000352E+00 0.  1.
</event>
<event>
 5   0  0.3895011E-03  0.1003448E+04  0.7818609E-02  0.9304771E-01
       -2   -1    0    0    0  501  0.00000000000E+00  0.00000000000E+00  0.16523787226E+03  0.16523787228E+03  0.25500000920E-02 0.  1.
        2   -1    0    0  501    0  0.00000000000E+00  0.00000000000E+00 -0.15234212376E+04  0.15234212376E+04  0.25500000920E-02 0. -1.
    10030    2    1    2    0    0  0.00000000000E+00  0.00000000000E+00 -0.13581833653E+04  0.16886591099E+04  0.10034478240E+04 0.  0.
        2    1    3    3  502    0 -0.20694939115E+02 -0.33466418712E+02 -0.15208206486E+04  0.15213295918E+04  0.25500000920E-02 0. -1.
       -2    1    3    3    0  502  0.20694939115E+02  0.33466418712E+02  0.16263728329E+03  0.16732951804E+03  0.25500000920E-02 0.  1.
</event>
<event>
 5   0  0.4140860E-03  0.1007694E+04  0.7818609E-02  0.9300146E-01
        2   -1    0    0  501    0  0.00000000000E+00  0.00000000000E+00  0.72472016342E+03  0.72472016343E+03  0.25500000920E-02 0. -1.
       -2   -1    0    0    0  501  0.00000000000E+00  0.00000000000E+00 -0.35028957662E+03  0.35028957663E+03  0.25500000920E-02 0.  1.
    10030    2    1    2    0    0  0.00000000000E+00  0.00000000000E+00  0.37443058680E+03  0.10750097401E+04  0.10076942378E+04 0.  0.
        3    1    3    3  502    0  0.11721148969E+02  0.44129436497E+03  0.44630491957E+03  0.62774691821E+03  0.10100000352E+00 0. -1.
       -3    1    3    3    0  502 -0.11721148969E+02 -0.44129436497E+03 -0.71874332772E+02  0.44726282184E+03  0.10100000352E+00 0.  1.
</event>
<event>
 5   0  0.2313036E-03  0.1005185E+04  0.7818609E-02  0.9302876E-01
       -1   -1    0    0    0  501  0.00000000000E+00  0.00000000000E+00  0.10765001123E+03  0.10765001135E+03  0.50400001928E-02 0. -1.
        1   -1    0    0  501    0  0.00000000000E+00  0.00000000000E+00 -0.23464846488E+04  0.23464846488E+04  0.50400001928E-02 0.  1.
    10030    2    1    2    0    0  0.00000000000E+00  0.00000000000E+00 -0.22388346376E+04  0.24541346602E+04  0.10051847571E+04 0.  0.
        3    1    3    3  502    0  0.27517715832E+03 -0.56862252340E+02 -0.10204125406E+03  0.29894516543E+03  0.10100000352E+00 0. -1.
       -3    1    3    3    0  502 -0.27517715832E+03  0.56862252340E+02 -0.21367933835E+04  0.21551894947E+04  0.10100000352E+00 0.  1.
</event>
<event>
 5   0  0.2350769E-03  0.9188179E+03  0.7818609E-02  0.9402359E-01
       -1   -1    0    0    0  501  0.00000000000E+00  0.00000000000E+00  0.22264085967E+03  0.22264085973E+03  0.50400001928E-02 0.  1.
        1   -1    0    0  501    0  0.00000000000E+00  0.00000000000E+00 -0.94796886120E+03  0.94796886122E+03  0.50400001928E-02 0. -1.
    10030    2    1    2    0    0  0.00000000000E+00  0.00000000000E+00 -0.72532800153E+03  0.11706097209E+04  0.91881794115E+03 0.  0.
        2    1    3    3  502    0 -0.94001316600E+02  0.25932168226E+03 -0.83072827945E+03  0.87532477212E+03  0.25500000920E-02 0. -1.
       -2    1    3    3    0  502  0.94001316600E+02 -0.25932168226E+03  0.10540027792E+03  0.29528494883E+03  0.25500000920E-02 0.  1.
</event>
<event>
 5   0  0.3895011E-03  0.1003140E+04  0.7818609E-02  0.9305107E-01
       -2   -1    0    0    0  501  0.00000000000E+00  0.00000000000E+00  0.37595434021E+03  0.37595434022E+03  0.25500000920E-02 0. -1.
        2   -1    0    0  501    0  0.00000000000E+00  0.00000000000E+00 -0.66915735338E+03  0.66915735338E+03  0.25500000920E-02 0.  1.
    10030    2    1    2    0    0  0.00000000000E+00  0.00000000000E+00 -0.29320301317E+03  0.10451116936E+04  0.10031402919E+04 0.  0.
        2    1    3    3  502    0 -0.43719725630E+03  0.36242493690E+02 -0.39991575632E+03  0.59362241486E+03  0.25500000920E-02 0.  1.
       -2    1    3    3    0  502  0.43719725630E+03 -0.36242493690E+02  0.10671274315E+03  0.45148927874E+03  0.25500000920E-02 0. -1.
</event>
<event>
 5   0  0.2350769E-03  0.1005199E+04  0.7818609E-02  0.9302861E-01
       -1   -1    0    0    0  501  0.00000000000E+00  0.00000000000E+00  0.51613034271E+03  0.51613034274E+03  0.50400001928E-02 0.  1.
        1   -1    0    0  501    0  0.00000000000E+00  0.00000000000E+00 -0.48942317837E+03  0.48942317840E+03  0.50400001928E-02 0. -1.
    10030    2    1    2    0    0  0.00000000000E+00  0.00000000000E+00  0.26707164343E+02  0.10055535211E+04  0.10051987919E+04 0.  0.
        2    1    3    3  502    0 -0.32888153170E+02  0.22659042244E+03 -0.43422056071E+03  0.49088934141E+03  0.25500000920E-02 0. -1.
       -2    1    3    3    0  502  0.32888153170E+02 -0.22659042244E+03  0.46092772506E+03  0.51466417972E+03  0.25500000920E-02 0.  1.
</event>
<event>
 5   0  0.1548000E-03  0.9992114E+03  0.7818609E-02  0.9309410E-01
        3   -1    0    0  501    0  0.00000000000E+00  0.00000000000E+00  0.55938303698E+03  0.55938304610E+03  0.10100000352E+00 0. -1.
       -3   -1    0    0    0  501  0.00000000000E+00  0.00000000000E+00 -0.44621636080E+03  0.44621637223E+03  0.10100000352E+00 0.  1.
    10030    2    1    2    0    0  0.00000000000E+00  0.00000000000E+00  0.11316667619E+03  0.10055994183E+04  0.99921143586E+03 0.  0.
        1    1    3    3  502    0  0.10222087949E+03  0.15082234527E+03  0.52475558293E+03  0.55548619234E+03  0.50400001928E-02 0. -1.
       -1    1    3    3    0  502 -0.10222087949E+03 -0.15082234527E+03 -0.41158890674E+03  0.45011322599E+03  0.50400001928E-02 0.  1.
</event>
<event>
 5   0  0.4026829E-03  0.1015441E+04  0.7818609E-02  0.9291770E-01
        2   -1    0    0  501    0  0.00000000000E+00  0.00000000000E+00  0.44585967129E+03  0.44585967129E+03  0.25500000920E-02 0.  1.
       -2   -1    0    0    0  501  0.00000000000E+00  0.00000000000E+00 -0.57816423313E+03  0.57816423313E+03  0.25500000920E-02 0. -1.
    10030    2    1    2    0    0  0.00000000000E+00  0.00000000000E+00 -0.13230456184E+03  0.10240239044E+04  0.10154410174E+04 0.  0.
        1    1    3    3  502    0  0.22082328888E+03 -0.38302662478E+03  0.18557285427E+03  0.47948889921E+03  0.50400001928E-02 0.  1.
       -1    1    3    3    0  502 -0.22082328888E+03  0.38302662478E+03 -0.31787741611E+03  0.54453500521E+03  0.50400001928E-02 0. -1.
</event>
<event>
 5   0  0.2405022E-03  0.8785985E+03  0.7818609E-02  0.9452737E-01
        1   -1    0    0  501    0  0.00000000000E+00  0.00000000000E+00  0.52215448319E+03  0.52215448321E+03  0.50400001928E-02 0. -1.
       -1   -1    0    0    0  501  0.00000000000E+00  0.00000000000E+00 -0.36959142050E+03  0.36959142054E+03  0.50400001928E-02 0.  1.
    10030    2    1    2    0    0  0.00000000000E+00  0.00000000000E+00  0.15256306269E+03  0.89174590375E+03  0.87859846845E+03 0.  0.
        4    1    3    3  502    0  0.43317307246E+02 -0.43648637507E+03  0.51723184226E+02  0.44167142245E+03  0.12699999809E+01 0. -1.
       -4    1    3    3    0  502 -0.43317307246E+02  0.43648637507E+03  0.10083987846E+03  0.45007448130E+03  0.12699999809E+01 0.  1.
</event>
<event>
 5   0  0.2378609E-03  0.9770923E+03  0.7818609E-02  0.9334033E-01
       -1   -1    0    0    0  501  0.00000000000E+00  0.00000000000E+00  0.69743429399E+03  0.69743429401E+03  0.50400001928E-02 0.  1.
        1   -1    0    0  501    0  0.00000000000E+00  0.00000000000E+00 -0.34222199444E+03  0.34222199448E+03  0.50400001928E-02 0. -1.
    10030    2    1    2    0    0  0.00000000000E+00  0.00000000000E+00  0.35521229955E+03  0.10396562885E+04  0.97709232954E+03 0.  0.
        1    1    3    3  502    0 -0.14726360694E+03  0.24612462064E+03  0.59842117430E+03  0.66360515421E+03  0.50400001928E-02 0.  1.
       -1    1    3    3    0  502  0.14726360694E+03 -0.24612462064E+03 -0.24320887475E+03  0.37605113429E+03  0.50400001928E-02 0. -1.
</event>
<event>
 5   0  0.2350769E-03  0.9905904E+03  0.7818609E-02  0.9318926E-01
        1   -1    0    0  501    0  0.00000000000E+00  0.00000000000E+00  0.10731261377E+04  0.10731261377E+04  0.50400001928E-02 0. -1.
       -1   -1    0    0    0  501  0.00000000000E+00  0.00000000000E+00 -0.22860064418E+03  0.22860064424E+03  0.50400001928E-02 0.  1.
    10030    2    1    2    0    0  0.00000000000E+00  0.00000000000E+00  0.84452549352E+03  0.13017267819E+04  0.99059038236E+03 0.  0.
        2    1    3    3  502    0  0.14906802736E+03  0.37872837933E+03  0.79315540801E+03  0.89148862211E+03  0.25500000920E-02 0. -1.
       -2    1    3    3    0  502 -0.14906802736E+03 -0.37872837933E+03  0.51370085506E+02  0.41023815983E+03  0.25500000920E-02 0.  1.
</event>
<event>
 5   0  0.4026829E-03  0.9973518E+03  0.7818609E-02  0.9311454E-01
       -2   -1    0    0    0  501  0.00000000000E+00  0.00000000000E+00  0.26064766185E+03  0.26064766187E+03  0.25500000920E-02 0. -1.
        2   -1    0    0  501    0  0.00000000000E+00  0.00000000000E+00 -0.95407594926E+03  0.95407594927E+03  0.25500000920E-02 0.  1.
    10030    2    1    2    0    0  0.00000000000E+00  0.00000000000E+00 -0.69342828741E+03  0.12147236111E+04  0.99735182441E+03 0.  0.
        1    1    3    3  502    0  0.26699240414E+03 -0.31557975264E+03 -0.68643707406E+03  0.80129356718E+03  0.50400001928E-02 0.  1.
       -1    1    3    3    0  502 -0.26699240414E+03  0.31557975264E+03 -0.69912133534E+01  0.41343004395E+03  0.50400001928E-02 0. -1.
</event>
<event>
 5   0  0.3873874E-03  0.9996631E+03  0.7818609E-02  0.9308914E-01
        2   -1    0    0  501    0  0.00000000000E+00  0.00000000000E+00  0.10795808943E+04  0.10795808943E+04  0.25500000920E-02 0. -1.
       -2   -1    0    0    0  501  0.00000000000E+00  0.00000000000E+00 -0.23141535978E+03  0.23141535979E+03  0.25500000920E-02 0.  1.
    10030    2    1    2    0    0  0.00000000000E+00  0.00000000000E+00  0.84816553449E+03  0.13109962541E+04  0.99966314539E+03 0.  0.
        5    1    3    3  502    0 -0.18377570509E+03 -0.41910905953E+03  0.16054050362E+03  0.48499614108E+03  0.46999998093E+01 0.  1.
       -5    1    3    3    0  502  0.18377570509E+03  0.41910905953E+03  0.68762503087E+03  0.82600011298E+03  0.46999998093E+01 0. -1.
</event>
<event>
 5   0  0.2313036E-03  0.9972099E+03  0.7818609E-02  0.9311610E-01
       -1   -1    0    0    0  501  0.00000000000E+00  0.00000000000E+00  0.43128174276E+03  0.43128174279E+03  0.50400001928E-02 0. -1.
        1   -1    0    0  501    0  0.00000000000E+00  0.00000000000E+00 -0.57643736334E+03  0.57643736337E+03  0.50400001928E-02 0.  1.
    10030    2    1    2    0    0  0.00000000000E+00  0.00000000000E+00 -0.14515562059E+03  0.10077191062E+04  0.99720992911E+03 0.  0.
        3    1    3    3  502    0 -0.30609427013E+03  0.29593564056E+03  0.18964730317E+03  0.46608766918E+03  0.10100000352E+00 0. -1.
       -3    1    3    3    0  502  0.30609427013E+03 -0.29593564056E+03 -0.33480292376E+03  0.54163143697E+03  0.10100000352E+00 0.  1.
</event>
<event>
 5   0  0.3826483E-03  0.9949608E+03  0.7818609E-02  0.9314089E-01
        2   -1    0    0  501    0  0.00000000000E+00  0.00000000000E+00  0.10825390043E+04  0.10825390043E+04  0.25500000920E-02 0.  1.
       -2   -1    0    0    0  501  0.00000000000E+00  0.00000000000E+00 -0.22861693565E+03  0.22861693566E+03  0.25500000920E-02 0. -1.
    10030    2    1    2    0    0  0.00000000000E+00  0.00000000000E+00  0.85392206864E+03  0.13111559399E+04  0.99496080302E+03 0.  0.
        4    1    3    3  502    0 -0.44351588301E+03  0.13736330270E+03  0.66236436560E+03  0.80889009211E+03  0.12699999809E+01 0.  1.
       -4    1    3    3    0  502  0.44351588301E+03 -0.13736330270E+03  0.19155770304E+03  0.50226584783E+03  0.12699999809E+01 0. -1.
</event>
<event>
 5   0  0.2405022E-03  0.9972759E+03  0.7818609E-02  0.9311538E-01
       -1   -1    0    0    0  501  0.00000000000E+00  0.00000000000E+00  0.11296069793E+04  0.11296069793E+04  0.50400001928E-02 0.  1.
        1   -1    0    0  501    0  0.00000000000E+00  0.00000000000E+00 -0.22011179823E+03  0.22011179829E+03  0.50400001928E-02 0. -1.
    10030    2    1    2    0    0  0.00000000000E+00  0.00000000000E+00  0.90949518110E+03  0.13497187776E+04  0.99727593687E+03 0.  0.
        4    1    3    3  502    0 -0.38791607874E+03  0.24824917059E+02  0.32053559231E+02  0.39003102980E+03  0.12699999809E+01 0.  1.
       -4    1    3    3    0  502  0.38791607874E+03 -0.24824917059E+02  0.87744162187E+03  0.95968774783E+03  0.12699999809E+01 0. -1.
</event>
<event>
 5   0  0.2327595E-03  0.1000912E+04  0.7818609E-02  0.9307545E-01
        1   -1    0    0  501    0  0.00000000000E+00  0.00000000000E+00  0.18881359904E+04  0.18881359905E+04  0.50400001928E-02 0. -1.
       -1   -1    0    0    0  501  0.00000000000E+00  0.00000000000E+00 -0.13264731504E+03  0.13264731513E+03  0.50400001928E-02 0.  1.
    10030    2    1    2    0    0  0.00000000000E+00  0.00000000000E+00  0.17554886754E+04  0.20207833056E+04  0.10009119235E+04 0.  0.
        5    1    3    3  502    0 -0.39773757912E+03 -0.10046787415E+03  0.29909598036E+03  0.50771002654E+03  0.46999998093E+01 0.  1.
       -5    1    3    3    0  502  0.39773757912E+03  0.10046787415E+03  0.14563926950E+04  0.15130732790E+04  0.46999998093E+01 0. -1.
</event>
<event>
 5   0  0.2350769E-03  0.1001461E+04  0.7818609E-02  0.9306944E-01
        1   -1    0    0  501    0  0.00000000000E+00  0.00000000000E+00  0.74192937504E+03  0.74192937506E+03  0.50400001928E-02 0.  1.
       -1   -1    0    0    0  501  0.00000000000E+00  0.00000000000E+00 -0.33794473214E+03  0.33794473218E+03  0.50400001928E-02 0. -1.
    10030    2    1    2    0    0  0.00000000000E+00  0.00000000000E+00  0.40398464290E+03  0.10798741072E+04  0.10014611804E+04 0.  0.
        2    1    3    3  502    0  0.27344615553E+02 -0.31752890111E+03  0.61844287012E+03  0.69573264596E+03  0.25500000920E-02 0.  1.
       -2    1    3    3    0  502 -0.27344615553E+02  0.31752890111E+03 -0.21445822722E+03  0.38414146128E+03  0.25500000920E-02 0. -1.
</event>
<event>
 5   0  0.2350769E-03  0.1001235E+04  0.7818609E-02  0.9307191E-01
        1   -1    0    0  501    0  0.00000000000E+00  0.00000000000E+00  0.47333843591E+03  0.47333843593E+03  0.50400001928E-02 0.  1.
       -1   -1    0    0    0  501  0.00000000000E+00  0.00000000000E+00 -0.52946867623E+03  0.52946867625E+03  0.50400001928E-02 0. -1.
    10030    2    1    2    0    0  0.00000000000E+00  0.00000000000E+00 -0.56130240323E+02  0.10028071122E+04  0.10012349876E+04 0.  0.
        2    1    3    3  502    0 -0.12056649383E+03  0.39529519741E+03 -0.31103892485E+03  0.51724248211E+03  0.25500000920E-02 0.  1.
       -2    1    3    3    0  502  0.12056649383E+03 -0.39529519741E+03  0.25490868453E+03  0.48556463007E+03  0.25500000920E-02 0. -1.
</event>
<event>
 5   0  0.2327595E-03  0.1020157E+04  0.7818609E-02  0.9286709E-01
        1   -1    0    0  501    0  0.00000000000E+00  0.00000000000E+00  0.15572423095E+04  0.15572423095E+04  0.50400001928E-02 0. -1.
       -1   -1    0    0    0  501  0.00000000000E+00  0.00000000000E+00 -0.16707741691E+03  0.16707741698E+03  0.50400001928E-02 0.  1.
    10030    2    1    2    0    0  0.00000000000E+00  0.00000000000E+00  0.13901648926E+04  0.17243197265E+04  0.10201568951E+04 0.  0.
        5    1    3    3  502    0 -0.23490489535E+03 -0.40433967333E+03  0.10393587344E+04  0.11397190663E+04  0.46999998093E+01 0. -1.
       -5    1    3    3    0  502  0.23490489535E+03  0.40433967333E+03  0.35080615820E+03  0.58460066021E+03  0.46999998093E+01 0.  1.
</event>
<event>
 5   0  0.2327595E-03  0.1004632E+04  0.7818609E-02  0.9303479E-01
       -1   -1    0    0    0  501  0.00000000000E+00  0.00000000000E+00  0.34141393492E+03  0.34141393495E+03  0.50400001928E-02 0. -1.
        1   -1    0    0  501    0  0.00000000000E+00  0.00000000000E+00 -0.73904811768E+03  0.73904811770E+03  0.50400001928E-02 0.  1.
    10030    2    1    2    0    0  0.00000000000E+00  0.00000000000E+00 -0.39763418277E+03  0.10804620527E+04  0.10046319246E+04 0.  0.
        5    1    3    3  502    0  0.41229223114E+03 -0.24644656179E+03 -0.40833271922E+02  0.48208944996E+03  0.46999998093E+01 0. -1.
       -5    1    3    3    0  502 -0.41229223114E+03  0.24644656179E+03 -0.35680091085E+03  0.59837260269E+03  0.46999998093E+01 0.  1.
</event>
<event>
 5   0  0.2350769E-03  0.9961050E+03  0.7818609E-02  0.9312827E-01
        1   -1    0    0  501    0  0.00000000000E+00  0.00000000000E+00  0.34122557185E+03  0.34122557189E+03  0.50400001928E-02 0.  1.
       -1   -1    0    0    0  501  0.00000000000E+00  0.00000000000E+00 -0.72695693757E+03  0.72695693759E+03  0.50400001928E-02 0. -1.
    10030    2    1    2    0    0  0.00000000000E+00  0.00000000000E+00 -0.38573136572E+03  0.10681825095E+04  0.99610500804E+03 0.  0.
        2    1    3    3  502    0  0.34112864166E+03 -0.36059400700E+03 -0.23655045831E+03  0.54986626317E+03  0.25500000920E-02 0. -1.
       -2    1    3    3    0  502 -0.34112864166E+03  0.36059400700E+03 -0.14918090741E+03  0.51831624630E+03  0.25500000920E-02 0.  1.
</event>
<event>
 5   0  0.2350769E-03  0.9959958E+03  0.7818609E-02  0.9312947E-01
        1   -1    0    0  501    0  0.00000000000E+00  0.00000000000E+00  0.77603817381E+03  0.77603817383E+03  0.50400001928E-02 0.  1.
       -1   -1    0    0    0  501  0.00000000000E+00  0.00000000000E+00 -0.31957436657E+03  0.31957436661E+03  0.50400001928E-02 0. -1.
    10030    2    1    2    0    0  0.00000000000E+00  0.00000000000E+00  0.45646380724E+03  0.10956125404E+04  0.99599579891E+03 0.  0.
        2    1    3    3  502    0  0.43446114409E+03 -0.70037664974E+02 -0.28192819294E+02  0.44097232941E+03  0.25500000920E-02 0. -1.
       -2    1    3    3    0  502 -0.43446114409E+03  0.70037664974E+02  0.48465662653E+03  0.65464021102E+03  0.25500000920E-02 0.  1.
</event>
<event>
 5   0  0.1548000E-03  0.1000566E+04  0.7818609E-02  0.9307924E-01
       -4   -1    0    0    0  501  0.00000000000E+00  0.00000000000E+00  0.14371343562E+04  0.14371349173E+04  0.12699999809E+01 0. -1.
        4   -1    0    0  501    0  0.00000000000E+00  0.00000000000E+00 -0.17415143659E+03  0.17415606727E+03  0.12699999809E+01 0.  1.
    10030    2    1    2    0    0  0.00000000000E+00  0.00000000000E+00  0.12629829196E+04  0.16112909846E+04  0.10005662306E+04 0.  0.
        4    1    3    3  502    0  0.33656291590E+03 -0.51367139369E+02  0.12217968026E+04  0.12683462536E+04  0.12699999809E+01 0. -1.
       -4    1    3    3    0  502 -0.33656291590E+03  0.51367139369E+02  0.41186116995E+02  0.34294473097E+03  0.12699999809E+01 0.  1.
</event>
<event>
 5   0  0.4026829E-03  0.1001233E+04  0.7818609E-02  0.9307193E-01
       -2   -1    0    0    0  501  0.00000000000E+00  0.00000000000E+00  0.32873123787E+03  0.32873123788E+03  0.25500000920E-02 0.  1.
        2   -1    0    0  501    0  0.00000000000E+00  0.00000000000E+00 -0.76237651960E+03  0.76237651961E+03  0.25500000920E-02 0. -1.
    10030    2    1    2    0    0  0.00000000000E+00  0.00000000000E+00 -0.43364528173E+03  0.10911077575E+04  0.10012331937E+04 0.  0.
        1    1    3    3  502    0 -0.13685122519E+03 -0.46556251753E+03 -0.35091347471E+03  0.59884637623E+03  0.50400001928E-02 0. -1.
       -1    1    3    3    0  502  0.13685122519E+03  0.46556251753E+03 -0.82731807019E+02  0.49226138126E+03  0.50400001928E-02 0.  1.
</event>
<event>
 5   0  0.2327595E-03  0.1010763E+04  0.7818609E-02  0.9296818E-01
       -1   -1    0    0    0  501  0.00000000000E+00  0.00000000000E+00  0.21022601235E+03  0.21022601241E+03  0.50400001928E-02 0. -1.
        1   -1    0    0  501    0  0.00000000000E+00  0.00000000000E+00 -0.12149337204E+04  0.12149337204E+04  0.50400001928E-02 0.  1.
    10030    2    1    2    0    0  0.00000000000E+00  0.00000000000E+00 -0.10047077080E+04  0.14251597328E+04  0.10107634171E+04 0.  0.
        5    1    3    3  502    0 -0.44930991974E+03  0.19793033700E+03 -0.67115637506E+03  0.83158210181E+03  0.46999998093E+01 0.  1.
       -5    1    3    3    0  502  0.44930991974E+03 -0.19793033700E+03 -0.33355133295E+03  0.59357763097E+03  0.46999998093E+01 0. -1.
</event>
<event>
 5   0  0.2350769E-03  0.1080460E+04  0.7818609E-02  0.9224449E-01
        1   -1    0    0  501    0  0.00000000000E+00  0.00000000000E+00  0.13234201558E+04  0.13234201558E+04  0.50400001928E-02 0.  1.
       -1   -1    0    0    0  501  0.00000000000E+00  0.00000000000E+00 -0.22052579961E+03  0.22052579967E+03  0.50400001928E-02 0. -1.
    10030    2    1    2    0    0  0.00000000000E+00  0.00000000000E+00  0.11028943562E+04  0.15439459555E+04  0.10804596950E+04 0.  0.
        2    1    3    3  502    0 -0.19120030740E+03  0.50022626744E+03  0.44975488620E+03  0.69933063271E+03  0.25500000920E-02 0. -1.
       -2    1    3    3    0  502  0.19120030740E+03 -0.50022626744E+03  0.65313947001E+03  0.84461532278E+03  0.25500000920E-02 0.  1.
</event>
<event>
 5   0  0.2378609E-03  0.1002090E+04  0.7818609E-02  0.9306255E-01
       -1   -1    0    0    0  501  0.00000000000E+00  0.00000000000E+00  0.35106676686E+03  0.35106676689E+03  0.50400001928E-02 0.  1.
        1   -1    0    0  501    0  0.00000000000E+00  0.00000000000E+00 -0.71509510556E+03  0.71509510558E+03  0.50400001928E-02 0. -1.
    10030    2    1    2    0    0  0.00000000000E+00  0.00000000000E+00 -0.36402833870E+03  0.10661618725E+04  0.10020900693E+04 0.  0.
        1    1    3    3  502    0 -0.34422106162E+03  0.16381236429E+03  0.16392691992E+03  0.41496345026E+03  0.50400001928E-02 0.  1.
       -1    1    3    3    0  502  0.34422106162E+03 -0.16381236429E+03 -0.52795525862E+03  0.65119842221E+03  0.50400001928E-02 0. -1.
</event>
<event>
 5   0  0.3873874E-03  0.1005323E+04  0.7818609E-02  0.9302726E-01
        2   -1    0    0  501    0  0.00000000000E+00  0.00000000000E+00  0.15649797220E+04  0.15649797220E+04  0.25500000920E-02 0.  1.
       -2   -1    0    0    0  501  0.00000000000E+00  0.00000000000E+00 -0.16145160507E+03  0.16145160509E+03  0.25500000920E-02 0. -1.
    10030    2    1    2    0    0  0.00000000000E+00  0.00000000000E+00  0.14035281170E+04  0.17264313271E+04  0.10053228099E+04 0.  0.
        5    1    3    3  502    0  0.84951262326E+02 -0.42278303558E+03  0.11452248198E+04  0.12237337088E+04  0.46999998093E+01 0.  1.
       -5    1    3    3    0  502 -0.84951262326E+02  0.42278303558E+03  0.25830329715E+03  0.50269761832E+03  0.46999998093E+01 0. -1.
</event>
<event>
 5   0  0.3873874E-03  0.9961818E+03  0.7818609E-02  0.9312743E-01
       -2   -1    0    0    0  501  0.00000000000E+00  0.00000000000E+00  0.25028618898E+03  0.25028618899E+03  0.25500000920E-02 0. -1.
        2   -1    0    0  501    0  0.00000000000E+00  0.00000000000E+00 -0.99124335674E+03  0.99124335674E+03  0.25500000920E-02 0.  1.
    10030    2    1    2    0    0  0.00000000000E+00  0.00000000000E+00 -0.74095716776E+03  0.12415295457E+04  0.99618175474E+03 0.  0.
        5    1    3    3  502    0 -0.19421513416E+03 -0.23748263105E+03  0.11852861585E+03  0.32892041767E+03  0.46999998093E+01 0. -1.
       -5    1    3    3    0  502  0.19421513416E+03  0.23748263105E+03 -0.85948578361E+03  0.91260912806E+03  0.46999998093E+01 0.  1.
</event>
<event>
 5   0  0.3826483E-03  0.9992200E+03  0.7818609E-02  0.9309401E-01
       -2   -1    0    0    0  501  0.00000000000E+00  0.00000000000E+00  0.45995277445E+03  0.45995277445E+03  0.25500000920E-02 0. -1.
        2   -1    0    0  501    0  0.00000000000E+00  0.00000000000E+00 -0.54268644144E+03  0.54268644144E+03  0.25500000920E-02 0.  1.
    10030    2    1    2    0    0  0.00000000000E+00  0.00000000000E+00 -0.82733666990E+02  0.10026392159E+04  0.99921996457E+03 0.  0.
        4    1    3    3  502    0 -0.30696826638E+03 -0.57106905393E+02 -0.43272428854E+03  0.53361281656E+03  0.12699999809E+01 0.  1.
       -4    1    3    3    0  502  0.30696826638E+03  0.57106905393E+02  0.34999062155E+03  0.46902639934E+03  0.12699999809E+01 0. -1.
</event>
<event>
 5   0  0.2327595E-03  0.9979216E+03  0.7818609E-02  0.9310827E-01
       -1   -1    0    0    0  501  0.00000000000E+00  0.00000000000E+00  0.27190904974E+04  0.27190904974E+04  0.50400001928E-02 0.  1.
        1   -1    0    0  501    0  0.00000000000E+00  0.00000000000E+00 -0.91560725596E+02  0.91560725735E+02  0.50400001928E-02 0. -1.
    10030    2    1    2    0    0  0.00000000000E+00  0.00000000000E+00  0.26275297718E+04  0.28106512231E+04  0.99792163841E+03 0.  0.
        5    1    3    3  502    0  0.32964364487E+03 -0.29481606889E+03  0.19643614446E+04  0.20135340628E+04  0.46999998093E+01 0.  1.
       -5    1    3    3    0  502 -0.32964364487E+03  0.29481606889E+03  0.66316832721E+03  0.79711716033E+03  0.46999998093E+01 0. -1.
</event>
<event>
 5   0  0.3895011E-03  0.1002336E+04  0.7818609E-02  0.9305986E-01
        2   -1    0    0  501    0  0.00000000000E+00  0.00000000000E+00  0.84875082023E+03  0.84875082023E+03  0.25500000920E-02 0. -1.
       -2   -1    0    0    0  501  0.00000000000E+00  0.00000000000E+00 -0.29592849462E+03  0.29592849463E+03  0.25500000920E-02 0.  1.
    10030    2    1    2    0    0  0.00000000000E+00  0.00000000000E+00  0.55282232561E+03  0.11446793149E+04  0.10023363758E+04 0.  0.
        2    1    3    3  502    0  0.22980816348E+03  0.23720853125E+03 -0.15406777427E+03  0.36444006143E+03  0.25500000920E-02 0.  1.
       -2    1    3    3    0  502 -0.22980816348E+03 -0.23720853125E+03  0.70689009987E+03  0.78023925344E+03  0.25500000920E-02 0. -1.
</event>
<event>
 5   0  0.2350769E-03  0.9863206E+03  0.7818609E-02  0.9323677E-01
       -1   -1    0    0    0  501  0.00000000000E+00  0.00000000000E+00  0.29354993055E+03  0.29354993060E+03  0.50400001928E-02 0.  1.
        1   -1    0    0  501    0  0.00000000000E+00  0.00000000000E+00 -0.82850325956E+03  0.82850325957E+03  0.50400001928E-02 0. -1.
    10030    2    1    2    0    0  0.00000000000E+00  0.00000000000E+00 -0.53495332900E+03  0.11220531902E+04  0.98632058549E+03 0.  0.
        2    1    3    3  502    0  0.46495625191E+03  0.15874794299E+03 -0.31603362640E+03  0.58417675288E+03  0.25500000920E-02 0. -1.
       -2    1    3    3    0  502 -0.46495625191E+03 -0.15874794299E+03 -0.21891970261E+03  0.53787643729E+03  0.25500000920E-02 0.  1.
</event>
<event>
 5   0  0.3895011E-03  0.1005816E+04  0.7818609E-02  0.9302189E-01
        2   -1    0    0  501    0  0.00000000000E+00  0.00000000000E+00  0.47777007741E+03  0.47777007742E+03  0.25500000920E-02 0.  1.
       -2   -1    0    0    0  501  0.00000000000E+00  0.00000000000E+00 -0.52936842911E+03  0.52936842912E+03  0.25500000920E-02 0. -1.
    10030    2    1    2    0    0  0.00000000000E+00  0.00000000000E+00 -0.51598351702E+02  0.10071385065E+04  0.10058158785E+04 0.  0.
        2    1    3    3  502    0  0.25151964326E+03  0.33759738039E+03  0.24966669394E+03  0.48945641304E+03  0.25500000920E-02 0.  1.
       -2    1    3    3    0  502 -0.25151964326E+03 -0.33759738039E+03 -0.30126504564E+03  0.51768209350E+03  0.25500000920E-02 0. -1.
</event>
<event>
 5   0  0.2327595E-03  0.1000389E+04  0.7818609E-02  0.9308118E-01
        1   -1    0    0  501    0  0.00000000000E+00  0.00000000000E+00  0.37607321146E+03  0.37607321150E+03  0.50400001928E-02 0.  1.
       -1   -1    0    0    0  501  0.00000000000E+00  0.00000000000E+00 -0.66528143494E+03  0.66528143496E+03  0.50400001928E-02 0. -1.
    10030    2    1    2    0    0  0.00000000000E+00  0.00000000000E+00 -0.28920822348E+03  0.10413546465E+04  0.10003889759E+04 0.  0.
        5    1    3    3  502    0 -0.49255613154E+03 -0.55237422661E+02 -0.21450851962E+03  0.54009139094E+03  0.46999998093E+01 0. -1.
       -5    1    3    3    0  502  0.49255613154E+03  0.55237422661E+02 -0.74699703855E+02  0.50126325552E+03  0.46999998093E+01 0.  1.
</event>
<event>
 5   0  0.3826483E-03  0.1002654E+04  0.7818609E-02  0.9305639E-01
       -2   -1    0    0    0  501  0.00000000000E+00  0.00000000000E+00  0.87163720528E+03  0.87163720529E+03  0.25500000920E-02 0.  1.
        2   -1    0    0  501    0  0.00000000000E+00  0.00000000000E+00 -0.28834073864E+03  0.28834073866E+03  0.25500000920E-02 0. -1.
    10030    2    1    2    0    0  0.00000000000E+00  0.00000000000E+00  0.58329646664E+03  0.11599779439E+04  0.10026535107E+04 0.  0.
        4    1    3    3  502    0 -0.24224350329E+03  0.14930322384E+03 -0.18585292343E+03  0.33987687415E+03  0.12699999809E+01 0. -1.
       -4    1    3    3    0  502  0.24224350329E+03 -0.14930322384E+03  0.76914939007E+03  0.82010106979E+03  0.12699999809E+01 0.  1.
</event>
<event>
 5   0  0.2378609E-03  0.9555331E+03  0.7818609E-02  0.9358707E-01
       -1   -1    0    0    0  501  0.00000000000E+00  0.00000000000E+00  0.20017771076E+03  0.20017771082E+03  0.50400001928E-02 0.  1.
        1   -1    0    0  501    0  0.00000000000E+00  0.00000000000E+00 -0.11402910545E+04  0.11402910545E+04  0.50400001928E-02 0. -1.
    10030    2    1    2    0    0  0.00000000000E+00  0.00000000000E+00 -0.94011334376E+03  0.13404687654E+04  0.95553305111E+03 0.  0.
        1    1    3    3  502    0 -0.17044395386E+03  0.23581167538E+02 -0.10953146601E+04  0.11087476798E+04  0.50400001928E-02 0. -1.
       -1    1    3    3    0  502  0.17044395386E+03 -0.23581167538E+02  0.15520131633E+03  0.23172108554E+03  0.50400001928E-02 0.  1.
</event>
<event>
 5   0  0.2327595E-03  0.1001941E+04  0.7818609E-02  0.9306419E-01
       -1   -1    0    0    0  501  0.00000000000E+00  0.00000000000E+00  0.10616408727E+04  0.10616408727E+04  0.50400001928E-02 0. -1.
        1   -1    0    0  501    0  0.00000000000E+00  0.00000000000E+00 -0.23639935207E+03  0.23639935212E+03  0.50400001928E-02 0.  1.
    10030    2    1    2    0    0  0.00000000000E+00  0.00000000000E+00  0.82524152064E+03  0.12980402248E+04  0.10019405461E+04 0.  0.
        5    1    3    3  502    0  0.13460957456E+03  0.14074010808E+03 -0.18531982112E+03  0.26887365376E+03  0.46999998093E+01 0.  1.
       -5    1    3    3    0  502 -0.13460957456E+03 -0.14074010808E+03  0.10105613418E+04  0.10291665711E+04  0.46999998093E+01 0. -1.
</event>
<event>
 5   0  0.2405022E-03  0.1018978E+04  0.7818609E-02  0.9287971E-01
        1   -1    0    0  501    0  0.00000000000E+00  0.00000000000E+00  0.21311380381E+03  0.21311380387E+03  0.50400001928E-02 0.  1.
       -1   -1    0    0    0  501  0.00000000000E+00  0.00000000000E+00 -0.12180310928E+04  0.12180310928E+04  0.50400001928E-02 0. -1.
    10030    2    1    2    0    0  0.00000000000E+00  0.00000000000E+00 -0.10049172890E+04  0.14311448967E+04  0.10189783892E+04 0.  0.
        4    1    3    3  502    0  0.16174030765E+03  0.34651278817E+03 -0.29609228913E+02  0.38354837872E+03  0.12699999809E+01 0.  1.
       -4    1    3    3    0  502 -0.16174030765E+03 -0.34651278817E+03 -0.97530806007E+03  0.10475965179E+04  0.12699999809E+01 0. -1.
</event>
<event>
 5   0  0.3895011E-03  0.9875848E+03  0.7818609E-02  0.9322267E-01
       -2   -1    0    0    0  501  0.00000000000E+00  0.00000000000E+00  0.32419653356E+03  0.32419653357E+03  0.25500000920E-02 0.  1.
        2   -1    0    0  501    0  0.00000000000E+00  0.00000000000E+00 -0.75210846325E+03  0.75210846325E+03  0.25500000920E-02 0. -1.
    10030    2    1    2    0    0  0.00000000000E+00  0.00000000000E+00 -0.42791192968E+03  0.10763049968E+04  0.98758484528E+03 0.  0.
        2    1    3    3  502    0  0.29343523123E+03 -0.38565209691E+03 -0.11056979316E+03  0.49704874403E+03  0.25500000920E-02 0.  1.
       -2    1    3    3    0  502 -0.29343523123E+03  0.38565209691E+03 -0.31734213653E+03  0.57925625279E+03  0.25500000920E-02 0. -1.
</event>
<event>
 5   0  0.4140860E-03  0.1006114E+04  0.7818609E-02  0.9301864E-01
        2   -1    0    0  501    0  0.00000000000E+00  0.00000000000E+00  0.14533006503E+04  0.14533006503E+04  0.25500000920E-02 0.  1.
       -2   -1    0    0    0  501  0.00000000000E+00  0.00000000000E+00 -0.17413227166E+03  0.17413227168E+03  0.25500000920E-02 0. -1.
    10030    2    1    2    0    0  0.00000000000E+00  0.00000000000E+00  0.12791683786E+04  0.16274329219E+04  0.10061143944E+04 0.  0.
        3    1    3    3  502    0 -0.40146534789E+02 -0.42983113904E+03  0.10573362398E+04  0.11420711390E+04  0.10100000352E+00 0.  1.
       -3    1    3    3    0  502  0.40146534789E+02  0.42983113904E+03  0.22183213882E+03  0.48536178296E+03  0.10100000352E+00 0. -1.
</event>
<event>
 5   0  0.2327595E-03  0.1000091E+04  0.7818609E-02  0.9308444E-01
        1   -1    0    0  501    0  0.00000000000E+00  0.00000000000E+00  0.10684073753E+04  0.10684073753E+04  0.50400001928E-02 0. -1.
       -1   -1    0    0    0  501  0.00000000000E+00  0.00000000000E+00 -0.23403595844E+03  0.23403595850E+03  0.50400001928E-02 0.  1.
    10030    2    1    2    0    0  0.00000000000E+00  0.00000000000E+00  0.83437141684E+03  0.13024433338E+04  0.10000914841E+04 0.  0.
        5    1    3    3  502    0 -0.33632187049E+03  0.16175452749E+03 -0.16209950441E+02  0.37357968390E+03  0.46999998093E+01 0.  1.
       -5    1    3    3    0  502  0.33632187049E+03 -0.16175452749E+03  0.85058136728E+03  0.92886364989E+03  0.46999998093E+01 0. -1.
</event>
<event>
 5   0  0.3873874E-03  0.9991474E+03  0.7818609E-02  0.9309480E-01
        2   -1    0    0  501    0  0.00000000000E+00  0.00000000000E+00  0.11945710124E+04  0.11945710124E+04  0.25500000920E-02 0. -1.
       -2   -1    0    0    0  501  0.00000000000E+00  0.00000000000E+00 -0.20892343337E+03  0.20892343339E+03  0.25500000920E-02 0.  1.
    10030    2    1    2    0    0  0.00000000000E+00  0.00000000000E+00  0.98564757903E+03  0.14034944458E+04  0.99914739120E+03 0.  0.
        5    1    3    3  502    0  0.42476635956E+03  0.18861317818E+03  0.75011797137E+03  0.88244005585E+03  0.46999998093E+01 0. -1.
       -5    1    3    3    0  502 -0.42476635956E+03 -0.18861317818E+03  0.23552960766E+03  0.52105438994E+03  0.46999998093E+01 0.  1.
</event>
<event>
 5   0  0.3873874E-03  0.9942132E+03  0.7818609E-02  0.9314915E-01
       -2   -1    0    0    0  501  0.00000000000E+00  0.00000000000E+00  0.33992059251E+03  0.33992059252E+03  0.25500000920E-02 0. -1.
        2   -1    0    0  501    0  0.00000000000E+00  0.00000000000E+00 -0.72697847121E+03  0.72697847121E+03  0.25500000920E-02 0.  1.
    10030    2    1    2    0    0  0.00000000000E+00  0.00000000000E+00 -0.38705787870E+03  0.10668990637E+04  0.99421316162E+03 0.  0.
        5    1    3    3  502    0 -0.30724878901E+03 -0.31215927001E+03 -0.44576122175E+03  0.62495630648E+03  0.46999998093E+01 0. -1.
       -5    1    3    3    0  502  0.30724878901E+03  0.31215927001E+03  0.58703343047E+02  0.44194275725E+03  0.46999998093E+01 0.  1.
</event>
<event>
 5   0  0.3873874E-03  0.9922386E+03  0.7818609E-02  0.9317099E-01
        2   -1    0    0  501    0  0.00000000000E+00  0.00000000000E+00  0.35876363086E+03  0.35876363087E+03  0.25500000920E-02 0.  1.
       -2   -1    0    0    0  501  0.00000000000E+00  0.00000000000E+00 -0.68606271233E+03  0.68606271233E+03  0.25500000920E-02 0. -1.
    10030    2    1    2    0    0  0.00000000000E+00  0.00000000000E+00 -0.32729908147E+03  0.10448263432E+04  0.99223857954E+03 0.  0.
        5    1    3    3  502    0 -0.34008837768E+03  0.36112610248E+03 -0.17031704217E+03  0.52450181256E+03  0.46999998093E+01 0.  1.
       -5    1    3    3    0  502  0.34008837768E+03 -0.36112610248E+03 -0.15698203930E+03  0.52032453064E+03  0.46999998093E+01 0. -1.
</event>
<event>
 5   0  0.2405022E-03  0.9970418E+03  0.7818609E-02  0.9311795E-01
       -1   -1    0    0    0  501  0.00000000000E+00  0.00000000000E+00  0.11550404954E+03  0.11550404965E+03  0.50400001928E-02 0. -1.
        1   -1    0    0  501    0  0.00000000000E+00  0.00000000000E+00 -0.21516396659E+04  0.21516396659E+04  0.50400001928E-02 0.  1.
    10030    2    1    2    0    0  0.00000000000E+00  0.00000000000E+00 -0.20361356163E+04  0.22671437155E+04  0.99704181396E+03 0.  0.
        4    1    3    3  502    0 -0.44410272617E+03 -0.22461455627E+03 -0.10840708439E+04  0.11928495872E+04  0.12699999809E+01 0. -1.
       -4    1    3    3    0  502  0.44410272617E+03  0.22461455627E+03 -0.95206477244E+03  0.10742941283E+04  0.12699999809E+01 0.  1.
</event>
<event>
 5   0  0.3826483E-03  0.1003841E+04  0.7818609E-02  0.9304342E-01
        2   -1    0    0  501    0  0.00000000000E+00  0.00000000000E+00  0.91850365921E+03  0.91850365921E+03  0.25500000920E-02 0. -1.
       -2   -1    0    0    0  501  0.00000000000E+00  0.00000000000E+00 -0.27427667469E+03  0.27427667471E+03  0.25500000920E-02 0.  1.
    10030    2    1    2    0    0  0.00000000000E+00  0.00000000000E+00  0.64422698452E+03  0.11927803339E+04  0.10038408825E+04 0.  0.
        4    1    3    3  502    0  0.15365648994E+03 -0.43076011009E+03  0.76414196043E+02  0.46368667395E+03  0.12699999809E+01 0.  1.
       -4    1    3    3    0  502 -0.15365648994E+03  0.43076011009E+03  0.56781278847E+03  0.72909365996E+03  0.12699999809E+01 0. -1.
</event>
<event>
 5   0  0.2378609E-03  0.9975582E+03  0.7818609E-02  0.9311227E-01
        1   -1    0    0  501    0  0.00000000000E+00  0.00000000000E+00  0.79770694470E+03  0.79770694471E+03  0.50400001928E-02 0.  1.
       -1   -1    0    0    0  501  0.00000000000E+00  0.00000000000E+00 -0.31186962848E+03  0.31186962852E+03  0.50400001928E-02 0. -1.
    10030    2    1    2    0    0  0.00000000000E+00  0.00000000000E+00  0.48583731622E+03  0.11095765732E+04  0.99755815572E+03 0.  0.
        1    1    3    3  502    0 -0.24515317841E+03  0.22645496668E+03  0.65521574409E+03  0.73531598932E+03  0.50400001928E-02 0.  1.
       -1    1    3    3    0  502  0.24515317841E+03 -0.22645496668E+03 -0.16937842787E+03  0.37426058392E+03  0.50400001928E-02 0. -1.
</event>
<event>
 5   0  0.1548000E-03  0.9993926E+03  0.7818609E-02  0.9309211E-01
       -3   -1    0    0    0  501  0.00000000000E+00  0.00000000000E+00  0.24515794641E+03  0.24515796722E+03  0.10100000352E+00 0. -1.
        3   -1    0    0  501    0  0.00000000000E+00  0.00000000000E+00 -0.10185122576E+04  0.10185122627E+04  0.10100000352E+00 0.  1.
    10030    2    1    2    0    0  0.00000000000E+00  0.00000000000E+00 -0.77335431124E+03  0.12636702299E+04  0.99939259511E+03 0.  0.
        5    1    3    3  502    0  0.80955383072E+02  0.44046029609E+03 -0.66690147382E+03  0.80332976557E+03  0.46999998093E+01 0.  1.
       -5    1    3    3    0  502 -0.80955383072E+02 -0.44046029609E+03 -0.10645283742E+03  0.46034046430E+03  0.46999998093E+01 0. -1.
</event>
<event>
 5   0  0.2378609E-03  0.9821088E+03  0.7818609E-02  0.9328388E-01
        1   -1    0    0  501    0  0.00000000000E+00  0.00000000000E+00  0.19501911516E+03  0.19501911522E+03  0.50400001928E-02 0. -1.
       -1   -1    0    0    0  501  0.00000000000E+00  0.00000000000E+00 -0.12364655196E+04  0.12364655196E+04  0.50400001928E-02 0.  1.
    10030    2    1    2    0    0  0.00000000000E+00  0.00000000000E+00 -0.10414464044E+04  0.14314846348E+04  0.98210877525E+03 0.  0.
        1    1    3    3  502    0  0.81064760029E+02  0.90041299720E+02  0.17289186264E+03  0.21111733033E+03  0.50400001928E-02 0. -1.
       -1    1    3    3    0  502 -0.81064760029E+02 -0.90041299720E+02 -0.12143382671E+04  0.12203673045E+04  0.50400001928E-02 0.  1.
</event>
<event>
 5   0  0.2350769E-03  0.9951782E+03  0.7818609E-02  0.9313849E-01
        1   -1    0    0  501    0  0.00000000000E+00  0.00000000000E+00  0.55354336050E+03  0.55354336052E+03  0.50400001928E-02 0. -1.
       -1   -1    0    0    0  501  0.00000000000E+00  0.00000000000E+00 -0.44729095137E+03  0.44729095139E+03  0.50400001928E-02 0.  1.
    10030    2    1    2    0    0  0.00000000000E+00  0.00000000000E+00  0.10625240913E+03  0.10008343119E+04  0.99517824808E+03 0.  0.
        2    1    3    3  502    0 -0.40554591537E+03 -0.23777295738E+03  0.21712190601E+03  0.51782756861E+03  0.25500000920E-02 0. -1.
       -2    1    3    3    0  502  0.40554591537E+03  0.23777295738E+03 -0.11086949688E+03  0.48300674331E+03  0.25500000920E-02 0.  1.
</event>
<event>
 5   0  0.3826483E-03  0.9877519E+03  0.7818609E-02  0.9322081E-01
        2   -1    0    0  501    0  0.00000000000E+00  0.00000000000E+00  0.39566746546E+03  0.39566746546E+03  0.25500000920E-02 0. -1.
       -2   -1    0    0    0  501  0.00000000000E+00  0.00000000000E+00 -0.61646068984E+03  0.61646068985E+03  0.25500000920E-02 0.  1.
    10030    2    1    2    0    0  0.00000000000E+00  0.00000000000E+00 -0.22079322439E+03  0.10121281553E+04  0.98775186906E+03 0.  0.
        4    1    3    3  502    0  0.25808196823E+03  0.61930349041E+02  0.31637942823E+03  0.41296395238E+03  0.12699999809E+01 0. -1.
       -4    1    3    3    0  502 -0.25808196823E+03 -0.61930349041E+02 -0.53717265261E+03  0.59916420293E+03  0.12699999809E+01 0.  1.
</event>
<event>
 5   0  0.2405022E-03  0.9227246E+03  0.7818609E-02  0.9397612E-01
        1   -1    0    0  501    0  0.00000000000E+00  0.00000000000E+00  0.94503994365E+03  0.94503994367E+03  0.50400001928E-02 0. -1.
       -1   -1    0    0    0  501  0.00000000000E+00  0.00000000000E+00 -0.22523404838E+03  0.22523404843E+03  0.50400001928E-02 0.  1.
    10030    2    1    2    0    0  0.00000000000E+00  0.00000000000E+00  0.71980589528E+03  0.11702739921E+04  0.92272460123E+03 0.  0.
        4    1    3    3  502    0 -0.49515693631E+02  0.44651773705E+03  0.22674150880E+03  0.50323276734E+03  0.12699999809E+01 0.  1.
       -4    1    3    3    0  502  0.49515693631E+02 -0.44651773705E+03  0.49306438648E+03  0.66704122476E+03  0.12699999809E+01 0. -1.
</event>
<event>
 5   0  0.2313036E-03  0.9747752E+03  0.7818609E-02  0.9336652E-01
        1   -1    0    0  501    0  0.00000000000E+00  0.00000000000E+00  0.36160958284E+03  0.36160958287E+03  0.50400001928E-02 0. -1.
       -1   -1    0    0    0  501  0.00000000000E+00  0.00000000000E+00 -0.65691470705E+03  0.65691470707E+03  0.50400001928E-02 0.  1.
    10030    2    1    2    0    0  0.00000000000E+00  0.00000000000E+00 -0.29530512422E+03  0.10185242899E+04  0.97477516014E+03 0.  0.
        3    1    3    3  502    0  0.31143201504E+02  0.16308544720E+03  0.33114924345E+03  0.37044107997E+03  0.10100000352E+00 0. -1.
       -3    1    3    3    0  502 -0.31143201504E+02 -0.16308544720E+03 -0.62645436767E+03  0.64808320998E+03  0.10100000352E+00 0.  1.
</event>
<event>
 5   0  0.4026829E-03  0.1029985E+04  0.7818609E-02  0.9276255E-01
        2   -1    0    0  501    0  0.00000000000E+00  0.00000000000E+00  0.92847467631E+03  0.92847467631E+03  0.25500000920E-02 0. -1.
       -2   -1    0    0    0  501  0.00000000000E+00  0.00000000000E+00 -0.28564862121E+03  0.28564862122E+03  0.25500000920E-02 0.  1.
    10030    2    1    2    0    0  0.00000000000E+00  0.00000000000E+00  0.64282605510E+03  0.12141232975E+04  0.10299854584E+04 0.  0.
        1    1    3    3  502    0 -0.14312066740E+03 -0.33021444781E+02 -0.26043447770E+03  0.29899842551E+03  0.50400001928E-02 0.  1.
       -1    1    3    3    0  502  0.14312066740E+03  0.33021444781E+02  0.90326053280E+03  0.91512487202E+03  0.50400001928E-02 0. -1.
</event>
<event>
 5   0  0.3873874E-03  0.1014432E+04  0.7818609E-02  0.9292856E-01
       -2   -1    0    0    0  501  0.00000000000E+00  0.00000000000E+00  0.16834488837E+03  0.16834488839E+03  0.25500000920E-02 0. -1.
        2   -1    0    0  501    0  0.00000000000E+00  0.00000000000E+00 -0.15282197933E+04  0.15282197933E+04  0.25500000920E-02 0.  1.
    10030    2    1    2    0    0  0.00000000000E+00  0.00000000000E+00 -0.13598749050E+04  0.16965646817E+04  0.10144318420E+04 0.  0.
        5    1    3    3  502    0  0.80203015234E+02  0.10429677675E+03 -0.14991467211E+04  0.15049163839E+04  0.46999998093E+01 0.  1.
       -5    1    3    3    0  502 -0.80203015234E+02 -0.10429677675E+03  0.13927181611E+03  0.19164829781E+03  0.46999998093E+01 0. -1.
</event>
<event>
 5   0  0.2405022E-03  0.9761270E+03  0.7818609E-02  0.9335123E-01
        1   -1    0    0  501    0  0.00000000000E+00  0.00000000000E+00  0.16740110647E+04  0.16740110647E+04  0.50400001928E-02 0. -1.
       -1   -1    0    0    0  501  0.00000000000E+00  0.00000000000E+00 -0.14229653861E+03  0.14229653870E+03  0.50400001928E-02 0.  1.
    10030    2    1    2    0    0  0.00000000000E+00  0.00000000000E+00  0.15317145261E+04  0.18163076034E+04  0.97612700032E+03 0.  0.
        4    1    3    3  502    0  0.21801123220E+03  0.14889176794E+03  0.20361185073E+01  0.26401404244E+03  0.12699999809E+01 0.  1.
       -4    1    3    3    0  502 -0.21801123220E+03 -0.14889176794E+03  0.15296784076E+04  0.15522935610E+04  0.12699999809E+01 0. -1.
</event>
<event>
 5   0  0.3826483E-03  0.9893306E+03  0.7818609E-02  0.9320325E-01
       -2   -1    0    0    0  501  0.00000000000E+00  0.00000000000E+00  0.28930018411E+03  0.28930018413E+03  0.25500000920E-02 0. -1.
        2   -1    0    0  501    0  0.00000000000E+00  0.00000000000E+00 -0.84581258201E+03  0.84581258201E+03  0.25500000920E-02 0.  1.
    10030    2    1    2    0    0  0.00000000000E+00  0.00000000000E+00 -0.55651239789E+03  0.11351127661E+04  0.98933055287E+03 0.  0.
        4    1    3    3  502    0 -0.49269271040E+03 -0.12917235161E+02 -0.22986067380E+03  0.54382948073E+03  0.12699999809E+01 0.  1.
       -4    1    3    3    0  502  0.49269271040E+03  0.12917235161E+02 -0.32665172409E+03  0.59128328541E+03  0.12699999809E+01 0. -1.
</event>
<event>
 5   0  0.3895011E-03  0.1014292E+04  0.7818609E-02  0.9293007E-01
        2   -1    0    0  501    0  0.00000000000E+00  0.00000000000E+00  0.97641237930E+03  0.97641237930E+03  0.25500000920E-02 0.  1.
       -2   -1    0    0    0  501  0.00000000000E+00  0.00000000000E+00 -0.26341037942E+03  0.26341037943E+03  0.25500000920E-02 0. -1.
    10030    2    1    2    0    0  0.00000000000E+00  0.00000000000E+00  0.71300199988E+03  0.12398227587E+04  0.10142921774E+04 0.  0.
        2    1    3    3  502    0  0.49982949112E+03 -0.47820610843E+02  0.26937182215E+03  0.56980479955E+03  0.25500000920E-02 0. -1.
       -2    1    3    3    0  502 -0.49982949112E+03  0.47820610843E+02  0.44363017773E+03  0.67001795918E+03  0.25500000920E-02 0.  1.
</event>
<event>
 5   0  0.2378609E-03  0.9983829E+03  0.7818609E-02  0.9310320E-01
       -1   -1    0    0    0  501  0.00000000000E+00  0.00000000000E+00  0.11464666447E+03  0.11464666458E+03  0.50400001928E-02 0. -1.
        1   -1    0    0  501    0  0.00000000000E+00  0.00000000000E+00 -0.21735661861E+04  0.21735661861E+04  0.50400001928E-02 0.  1.
    10030    2    1    2    0    0  0.00000000000E+00  0.00000000000E+00 -0.20589195216E+04  0.22882128507E+04  0.99838291928E+03 0.  0.
        1    1    3    3  502    0 -0.33258911521E+03  0.32789928932E+03 -0.62554421891E+03  0.78066576288E+03  0.50400001928E-02 0. -1.
       -1    1    3    3    0  502  0.33258911521E+03 -0.32789928932E+03 -0.14333753027E+04  0.15075470878E+04  0.50400001928E-02 0.  1.
</event>
<event>
 5   0  0.3895011E-03  0.1005067E+04  0.7818609E-02  0.9303004E-01
        2   -1    0    0  501    0  0.00000000000E+00  0.00000000000E+00  0.66887716831E+03  0.66887716832E+03  0.25500000920E-02 0.  1.
       -2   -1    0    0    0  501  0.00000000000E+00  0.00000000000E+00 -0.37755824663E+03  0.37755824664E+03  0.25500000920E-02 0. -1.
    10030    2    1    2    0    0  0.00000000000E+00  0.00000000000E+00  0.29131892168E+03  0.10464354150E+04  0.10050673428E+04 0.  0.
        2    1    3    3  502    0 -0.24846886261E+03  0.26885324072E+03 -0.21277964001E+03  0.42343124110E+03  0.25500000920E-02 0. -1.
       -2    1    3    3    0  502  0.24846886261E+03 -0.26885324072E+03  0.50409856169E+03  0.62300417385E+03  0.25500000920E-02 0.  1.
</event>
<event>
 5   0  0.2350769E-03  0.1002831E+04  0.7818609E-02  0.9305445E-01
       -1   -1    0    0    0  501  0.00000000000E+00  0.00000000000E+00  0.34052893872E+03  0.34052893876E+03  0.50400001928E-02 0.  1.
        1   -1    0    0  501    0  0.00000000000E+00  0.00000000000E+00 -0.73831488078E+03  0.73831488079E+03  0.50400001928E-02 0. -1.
    10030    2    1    2    0    0  0.00000000000E+00  0.00000000000E+00 -0.39778594206E+03  0.10788438195E+04  0.10028311579E+04 0.  0.
        2    1    3    3  502    0 -0.44120406418E+03  0.94168610301E+02  0.36529476001E+02  0.45261811281E+03  0.25500000920E-02 0.  1.
       -2    1    3    3    0  502  0.44120406418E+03 -0.94168610301E+02 -0.43431541806E+03  0.62622570674E+03  0.25500000920E-02 0. -1.
</event>
<event>
 5   0  0.2405022E-03  0.9947888E+03  0.7818609E-02  0.9314279E-01
        1   -1    0    0  501    0  0.00000000000E+00  0.00000000000E+00  0.13651419003E+04  0.13651419003E+04  0.50400001928E-02 0.  1.
       -1   -1    0    0    0  501  0.00000000000E+00  0.00000000000E+00 -0.18122744641E+03  0.18122744648E+03  0.50400001928E-02 0. -1.
    10030    2    1    2    0    0  0.00000000000E+00  0.00000000000E+00  0.11839144539E+04  0.15463693468E+04  0.99478878289E+03 0.  0.
        4    1    3    3  502    0 -0.11820850652E+03 -0.24022614101E+03 -0.59656357736E+02  0.27430337905E+03  0.12699999809E+01 0. -1.
       -4    1    3    3    0  502  0.11820850652E+03  0.24022614101E+03  0.12435708117E+04  0.12720659678E+04  0.12699999809E+01 0.  1.
</event>
<event>
 5   0  0.4026829E-03  0.9940478E+03  0.7818609E-02  0.9315097E-01
       -2   -1    0    0    0  501  0.00000000000E+00  0.00000000000E+00  0.16432559647E+03  0.16432559649E+03  0.25500000920E-02 0.  1.
        2   -1    0    0  501    0  0.00000000000E+00  0.00000000000E+00 -0.15033126488E+04  0.15033126488E+04  0.25500000920E-02 0. -1.
    10030    2    1    2    0    0  0.00000000000E+00  0.00000000000E+00 -0.13389870523E+04  0.16676382453E+04  0.99404778097E+03 0.  0.
        1    1    3    3  502    0 -0.52437254467E+02 -0.44829887314E+03 -0.32035746611E+03  0.55348934175E+03  0.50400001928E-02 0.  1.
       -1    1    3    3    0  502  0.52437254467E+02  0.44829887314E+03 -0.10186295862E+04  0.11141489035E+04  0.50400001928E-02 0. -1.
</event>
<event>
 5   0  0.3895011E-03  0.1000812E+04  0.7818609E-02  0.9307655E-01
        2   -1    0    0  501    0  0.00000000000E+00  0.00000000000E+00  0.73615416627E+03  0.73615416627E+03  0.25500000920E-02 0.  1.
       -2   -1    0    0    0  501  0.00000000000E+00  0.00000000000E+00 -0.34015445638E+03  0.34015445639E+03  0.25500000920E-02 0. -1.
    10030    2    1    2    0    0  0.00000000000E+00  0.00000000000E+00  0.39599970989E+03  0.10763086227E+04  0.10008119109E+04 0.  0.
        2    1    3    3  502    0  0.44239295863E+03  0.19970773919E+03  0.32888264547E+03  0.58630922340E+03  0.25500000920E-02 0. -1.
       -2    1    3    3    0  502 -0.44239295863E+03 -0.19970773919E+03  0.67117064417E+02  0.48999939927E+03  0.25500000920E-02 0.  1.
</event>
<event>
 5   0  0.2378609E-03  0.1002351E+04  0.7818609E-02  0.9305970E-01
        1   -1    0    0  501    0  0.00000000000E+00  0.00000000000E+00  0.81218241939E+03  0.81218241941E+03  0.50400001928E-02 0.  1.
       -1   -1    0    0    0  501  0.00000000000E+00  0.00000000000E+00 -0.30926158129E+03  0.30926158133E+03  0.50400001928E-02 0. -1.
    10030    2    1    2    0    0  0.00000000000E+00  0.00000000000E+00  0.50292083810E+03  0.11214440007E+04  0.10023508754E+04 0.  0.
        1    1    3    3  502    0  0.98471244057E+02 -0.12471373007E+03  0.78325219359E+03  0.79920842035E+03  0.50400001928E-02 0.  1.
       -1    1    3    3    0  502 -0.98471244057E+02  0.12471373007E+03 -0.28033135549E+03  0.32223558039E+03  0.50400001928E-02 0. -1.
</event>
<event>
 5   0  0.2350769E-03  0.1000900E+04  0.7818609E-02  0.9307559E-01
       -1   -1    0    0    0  501  0.00000000000E+00  0.00000000000E+00  0.21689954834E+03  0.21689954840E+03  0.50400001928E-02 0. -1.
        1   -1    0    0  501    0  0.00000000000E+00  0.00000000000E+00 -0.11546819878E+04  0.11546819878E+04  0.50400001928E-02 0.  1.
    10030    2    1    2    0    0  0.00000000000E+00  0.00000000000E+00 -0.93778243948E+03  0.13715815362E+04  0.10008995987E+04 0.  0.
        2    1    3    3  502    0  0.33502550123E+03  0.36863560166E+03 -0.40294755937E+03  0.64070354212E+03  0.25500000920E-02 0. -1.
       -2    1    3    3    0  502 -0.33502550123E+03 -0.36863560166E+03 -0.53483488011E+03  0.73087799411E+03  0.25500000920E-02 0.  1.
</event>
<event>
 5   0  0.4026829E-03  0.9961432E+03  0.7818609E-02  0.9312785E-01
        2   -1    0    0  501    0  0.00000000000E+00  0.00000000000E+00  0.51425056736E+03  0.51425056736E+03  0.25500000920E-02 0.  1.
       -2   -1    0    0    0  501  0.00000000000E+00  0.00000000000E+00 -0.48240160146E+03  0.48240160147E+03  0.25500000920E-02 0. -1.
    10030    2    1    2    0    0  0.00000000000E+00  0.00000000000E+00  0.31848965894E+02  0.99665216883E+03  0.99614315688E+03 0.  0.
        1    1    3    3  502    0  0.18510286595E+03 -0.37614936631E+03 -0.25314393189E+03  0.48972774787E+03  0.50400001928E-02 0. -1.
       -1    1    3    3    0  502 -0.18510286595E+03  0.37614936631E+03  0.28499289778E+03  0.50692442096E+03  0.50400001928E-02 0.  1.
</event>
<event>
 5   0  0.2350769E-03  0.9987523E+03  0.7818609E-02  0.9309914E-01
        1   -1    0    0  501    0  0.00000000000E+00  0.00000000000E+00  0.10498105537E+04  0.10498105537E+04  0.50400001928E-02 0.  1.
       -1   -1    0    0    0  501  0.00000000000E+00  0.00000000000E+00 -0.23754431542E+03  0.23754431548E+03  0.50400001928E-02 0. -1.
    10030    2    1    2    0    0  0.00000000000E+00  0.00000000000E+00  0.81226623830E+03  0.12873548692E+04  0.99875228030E+03 0.  0.
        2    1    3    3  502    0 -0.58283839912E+02  0.49217350620E+03  0.48501053489E+03  0.69344573339E+03  0.25500000920E-02 0.  1.
       -2    1    3    3    0  502  0.58283839912E+02 -0.49217350620E+03  0.32725570341E+03  0.59390913583E+03  0.25500000920E-02 0. -1.
</event>
<event>
 5   0  0.2313036E-03  0.9992678E+03  0.7818609E-02  0.9309348E-01
        1   -1    0    0  501    0  0.00000000000E+00  0.00000000000E+00  0.98007612500E+03  0.98007612501E+03  0.50400001928E-02 0. -1.
       -1   -1    0    0    0  501  0.00000000000E+00  0.00000000000E+00 -0.25470880518E+03  0.25470880523E+03  0.50400001928E-02 0.  1.
    10030    2    1    2    0    0  0.00000000000E+00  0.00000000000E+00  0.72536731982E+03  0.12347849302E+04  0.99926776957E+03 0.  0.
        3    1    3    3  502    0  0.23231660370E+03  0.15454526767E+03 -0.14946280352E+03  0.31653496481E+03  0.10100000352E+00 0.  1.
       -3    1    3    3    0  502 -0.23231660370E+03 -0.15454526767E+03  0.87483012334E+03  0.91824996543E+03  0.10100000352E+00 0. -1.
</event>
<event>
 5   0  0.3826483E-03  0.9975801E+03  0.7818609E-02  0.9311203E-01
        2   -1    0    0  501    0  0.00000000000E+00  0.00000000000E+00  0.15210857088E+04  0.15210857088E+04  0.25500000920E-02 0. -1.
       -2   -1    0    0    0  501  0.00000000000E+00  0.00000000000E+00 -0.16356179068E+03  0.16356179070E+03  0.25500000920E-02 0.  1.
    10030    2    1    2    0    0  0.00000000000E+00  0.00000000000E+00  0.13575239182E+04  0.16846474995E+04  0.99758007666E+03 0.  0.
        4    1    3    3  502    0 -0.17023066130E+03  0.14353577163E+03 -0.74967754673E+02  0.23495270359E+03  0.12699999809E+01 0.  1.
       -4    1    3    3    0  502  0.17023066130E+03 -0.14353577163E+03  0.14324916728E+04  0.14496947959E+04  0.12699999809E+01 0. -1.
</event>
<event>
 5   0  0.3826483E-03  0.9913312E+03  0.7818609E-02  0.9318104E-01
       -2   -1    0    0    0  501  0.00000000000E+00  0.00000000000E+00  0.26056609895E+03  0.26056609896E+03  0.25500000920E-02 0. -1.
        2   -1    0    0  501    0  0.00000000000E+00  0.00000000000E+00 -0.94288706639E+03  0.94288706639E+03  0.25500000920E-02 0.  1.
    10030    2    1    2    0    0  0.00000000000E+00  0.00000000000E+00 -0.68232096744E+03  0.12034531654E+04  0.99133123556E+03 0.  0.
        4    1    3    3  502    0 -0.40231759899E+03  0.24129323397E+02 -0.69141145869E+03  0.80030812367E+03  0.12699999809E+01 0.  1.
       -4    1    3    3    0  502  0.40231759899E+03 -0.24129323397E+02  0.90904912477E+01  0.40314504169E+03  0.12699999809E+01 0. -1.
</event>
<event>
 5   0  0.3826483E-03  0.9949027E+03  0.7818609E-02  0.9314153E-01
       -2   -1    0    0    0  501  0.00000000000E+00  0.00000000000E+00  0.36116614192E+03  0.36116614193E+03  0.25500000920E-02 0.  1.
        2   -1    0    0  501    0  0.00000000000E+00  0.00000000000E+00 -0.68516347683E+03  0.68516347684E+03  0.25500000920E-02 0. -1.
    10030    2    1    2    0    0  0.00000000000E+00  0.00000000000E+00 -0.32399733491E+03  0.10463296188E+04  0.99490270785E+03 0.  0.
        4    1    3    3  502    0  0.38091956077E+03  0.17376622461E+03  0.12051642754E+03  0.43568364073E+03  0.12699999809E+01 0.  1.
       -4    1    3    3    0  502 -0.38091956077E+03 -0.17376622461E+03 -0.44451376245E+03  0.61064597804E+03  0.12699999809E+01 0. -1.
</event>
<event>
 5   0  0.4140860E-03  0.1003592E+04  0.7818609E-02  0.9304614E-01
        2   -1    0    0  501    0  0.00000000000E+00  0.00000000000E+00  0.85393270520E+03  0.85393270520E+03  0.25500000920E-02 0. -1.
       -2   -1    0    0    0  501  0.00000000000E+00  0.00000000000E+00 -0.29487028787E+03  0.29487028788E+03  0.25500000920E-02 0.  1.
    10030    2    1    2    0    0  0.00000000000E+00  0.00000000000E+00  0.55906241733E+03  0.11488029931E+04  0.10035923129E+04 0.  0.
        3    1    3    3  502    0  0.22310087534E+03 -0.25536410325E+03  0.70293463685E+03  0.78044983163E+03  0.10100000352E+00 0. -1.
       -3    1    3    3    0  502 -0.22310087534E+03  0.25536410325E+03 -0.14387221951E+03  0.36835316146E+03  0.10100000352E+00 0.  1.
</event>
<event>
 5   0  0.2378609E-03  0.9962914E+03  0.7818609E-02  0.9312622E-01
        1   -1    0    0  501    0  0.00000000000E+00  0.00000000000E+00  0.23891515600E+04  0.23891515600E+04  0.50400001928E-02 0.  1.
       -1   -1    0    0    0  501  0.00000000000E+00  0.00000000000E+00 -0.10386497301E+03  0.10386497313E+03  0.50400001928E-02 0. -1.
    10030    2    1    2    0    0  0.00000000000E+00  0.00000000000E+00  0.22852865870E+04  0.24930165332E+04  0.99629144825E+03 0.  0.
        1    1    3    3  502    0 -0.65199817834E+02  0.48341515884E+03  0.88982551773E+03  0.10147564654E+04  0.50400001928E-02 0.  1.
       -1    1    3    3    0  502  0.65199817834E+02 -0.48341515884E+03  0.13954610693E+04  0.14782600678E+04  0.50400001928E-02 0. -1.
</event>
<event>
 5   0  0.3895011E-03  0.1001575E+04  0.7818609E-02  0.9306819E-01
        2   -1    0    0  501    0  0.00000000000E+00  0.00000000000E+00  0.10229806786E+04  0.10229806786E+04  0.25500000920E-02 0. -1.
       -2   -1    0    0    0  501  0.00000000000E+00  0.00000000000E+00 -0.24515445902E+03  0.24515445903E+03  0.25500000920E-02 0.  1.
    10030    2    1    2    0    0  0.00000000000E+00  0.00000000000E+00  0.77782621956E+03  0.12681351376E+04  0.10015753089E+04 0.  0.
        2    1    3    3  502    0 -0.32828298866E+03 -0.14735941566E+02  0.86737590002E+03  0.92753858171E+03  0.25500000920E-02 0. -1.
       -2    1    3    3    0  502  0.32828298866E+03  0.14735941566E+02 -0.89549680468E+02  0.34059655590E+03  0.25500000920E-02 0.  1.
</event>
<event>
 5   0  0.4026829E-03  0.8993747E+03  0.7818609E-02  0.9426363E-01
        2   -1    0    0  501    0  0.00000000000E+00  0.00000000000E+00  0.66502011043E+03  0.66502011044E+03  0.25500000920E-02 0.  1.
       -2   -1    0    0    0  501  0.00000000000E+00  0.00000000000E+00 -0.30407907841E+03  0.30407907842E+03  0.25500000920E-02 0. -1.
    10030    2    1    2    0    0  0.00000000000E+00  0.00000000000E+00  0.36094103203E+03  0.96909918885E+03  0.89937467678E+03 0.  0.
        1    1    3    3  502    0 -0.35111254694E+03 -0.24732241017E+03  0.32411039857E+03  0.53804827449E+03  0.50400001928E-02 0.  1.
       -1    1    3    3    0  502  0.35111254694E+03  0.24732241017E+03  0.36830633452E+02  0.43105091436E+03  0.50400001928E-02 0. -1.
</event>
<event>
 5   0  0.2350769E-03  0.9972427E+03  0.7818609E-02  0.9311574E-01
       -1   -1    0    0    0  501  0.00000000000E+00  0.00000000000E+00  0.36164411551E+04  0.36164411551E+04  0.50400001928E-02 0. -1.
        1   -1    0    0  501    0  0.00000000000E+00  0.00000000000E+00 -0.68748036226E+02  0.68748036411E+02  0.50400001928E-02 0.  1.
    10030    2    1    2    0    0  0.00000000000E+00  0.00000000000E+00  0.35476931189E+04  0.36851891915E+04  0.99724265429E+03 0.  0.
        2    1    3    3  502    0 -0.13849888077E+03 -0.31621231730E+03  0.44427491205E+03  0.56262986685E+03  0.25500000920E-02 0.  1.
       -2    1    3    3    0  502  0.13849888077E+03  0.31621231730E+03  0.31034182068E+04  0.31225593247E+04  0.25500000920E-02 0. -1.
</event>
<event>
 5   0  0.2350769E-03  0.1000946E+04  0.7818609E-02  0.9307508E-01
        1   -1    0    0  501    0  0.00000000000E+00  0.00000000000E+00  0.34691015269E+03  0.34691015272E+03  0.50400001928E-02 0.  1.
       -1   -1    0    0    0  501  0.00000000000E+00  0.00000000000E+00 -0.72201169480E+03  0.72201169482E+03  0.50400001928E-02 0. -1.
    10030    2    1    2    0    0  0.00000000000E+00  0.00000000000E+00 -0.37510154212E+03  0.10689218475E+04  0.10009459272E+04 0.  0.
        2    1    3    3  502    0  0.15537370898E+02 -0.49992612000E+03 -0.16888057299E+03  0.52790925669E+03  0.25500000920E-02 0. -1.
       -2    1    3    3    0  502 -0.15537370898E+02  0.49992612000E+03 -0.20622096913E+03  0.54101259086E+03  0.25500000920E-02 0.  1.
</event>
<event>
 5   0  0.3826483E-03  0.9770584E+03  0.7818609E-02  0.9334071E-01
       -2   -1    0    0    0  501  0.00000000000E+00  0.00000000000E+00  0.21007272393E+03  0.21007272395E+03  0.25500000920E-02 0.  1.
        2   -1    0    0  501    0  0.00000000000E+00  0.00000000000E+00 -0.11360864724E+04  0.11360864724E+04  0.25500000920E-02 0. -1.
    10030    2    1    2    0    0  0.00000000000E+00  0.00000000000E+00 -0.92601374848E+03  0.13461591964E+04  0.97705840132E+03 0.  0.
        4    1    3    3  502    0 -0.37213387331E+03  0.30877925640E+03 -0.55876832975E+03  0.73895325162E+03  0.12699999809E+01 0. -1.
       -4    1    3    3    0  502  0.37213387331E+03 -0.30877925640E+03 -0.36724541874E+03  0.60720594475E+03  0.12699999809E+01 0.  1.
</event>
<event>
 5   0  0.3826483E-03  0.1003294E+04  0.7818609E-02  0.9304940E-01
        2   -1    0    0  501    0  0.00000000000E+00  0.00000000000E+00  0.40451643794E+03  0.40451643795E+03  0.25500000920E-02 0.  1.
       -2   -1    0    0    0  501  0.00000000000E+00  0.00000000000E+00 -0.62209979103E+03  0.62209979103E+03  0.25500000920E-02 0. -1.
    10030    2    1    2    0    0  0.00000000000E+00  0.00000000000E+00 -0.21758335309E+03  0.10266162290E+04  0.10032937586E+04 0.  0.
        4    1    3    3  502    0 -0.42349667637E+03  0.18344360744E+03  0.92366566245E+02  0.47067418398E+03  0.12699999809E+01 0. -1.
       -4    1    3    3    0  502  0.42349667637E+03 -0.18344360744E+03 -0.30994991934E+03  0.55594204500E+03  0.12699999809E+01 0.  1.
</event>
<event>
 5   0  0.3826483E-03  0.9980245E+03  0.7818609E-02  0.9310714E-01
        2   -1    0    0  501    0  0.00000000000E+00  0.00000000000E+00  0.62314743316E+03  0.62314743316E+03  0.25500000920E-02 0. -1.
       -2   -1    0    0    0  501  0.00000000000E+00  0.00000000000E+00 -0.39960561571E+03  0.39960561571E+03  0.25500000920E-02 0.  1.
    10030    2    1    2    0    0  0.00000000000E+00  0.00000000000E+00  0.22354181745E+03  0.10227530489E+04  0.99802447607E+03 0.  0.
        4    1    3    3  502    0 -0.49300659664E+03 -0.75642202724E+02  0.12745883164E+03  0.51480541356E+03  0.12699999809E+01 0.  1.
       -4    1    3    3    0  502  0.49300659664E+03  0.75642202724E+02  0.96082985814E+02  0.50794763532E+03  0.12699999809E+01 0. -1.
</event>
<event>
 5   0  0.2313036E-03  0.1001949E+04  0.7818609E-02  0.9306410E-01
       -1   -1    0    0    0  501  0.00000000000E+00  0.00000000000E+00  0.29747311614E+03  0.29747311618E+03  0.50400001928E-02 0.  1.
        1   -1    0    0  501    0  0.00000000000E+00  0.00000000000E+00 -0.84369089048E+03  0.84369089049E+03  0.50400001928E-02 0. -1.
    10030    2    1    2    0    0  0.00000000000E+00  0.00000000000E+00 -0.54621777433E+03  0.11411640067E+04  0.10019488176E+04 0.  0.
        3    1    3    3  502    0  0.33200067756E+03  0.10215985963E+03  0.13803941507E+03  0.37378600447E+03  0.10100000352E+00 0.  1.
       -3    1    3    3    0  502 -0.33200067756E+03 -0.10215985963E+03 -0.68425718940E+03  0.76737800221E+03  0.10100000352E+00 0. -1.
</event>
<event>
 5   0  0.1548000E-03  0.1003726E+04  0.7818609E-02  0.9304467E-01
        3   -1    0    0  501    0  0.00000000000E+00  0.00000000000E+00  0.55421400524E+03  0.55421401444E+03  0.10100000352E+00 0.  1.
       -3   -1    0    0    0  501  0.00000000000E+00  0.00000000000E+00 -0.45445736235E+03  0.45445737357E+03  0.10100000352E+00 0. -1.
    10030    2    1    2    0    0  0.00000000000E+00  0.00000000000E+00  0.99756642889E+02  0.10086713880E+04  0.10037263478E+04 0.  0.
        3    1    3    3  502    0 -0.22431405158E+03  0.34696445057E+03  0.33617752638E+03  0.53265041363E+03  0.10100000352E+00 0.  1.
       -3    1    3    3    0  502  0.22431405158E+03 -0.34696445057E+03 -0.23642088350E+03  0.47602097438E+03  0.10100000352E+00 0. -1.
</event>
<event>
 5   0  0.2313036E-03  0.1001616E+04  0.7818609E-02  0.9306775E-01
        1   -1    0    0  501    0  0.00000000000E+00  0.00000000000E+00  0.92860856190E+03  0.92860856191E+03  0.50400001928E-02 0. -1.
       -1   -1    0    0    0  501  0.00000000000E+00  0.00000000000E+00 -0.27009056820E+03  0.27009056824E+03  0.50400001928E-02 0.  1.
    10030    2    1    2    0    0  0.00000000000E+00  0.00000000000E+00  0.65851799370E+03  0.11986991302E+04  0.10016155233E+04 0.  0.
        3    1    3    3  502    0 -0.15033578040E+02 -0.30575923695E+03  0.80359763934E+03  0.85993249480E+03  0.10100000352E+00 0. -1.
       -3    1    3    3    0  502  0.15033578040E+02  0.30575923695E+03 -0.14507964564E+03  0.33876663536E+03  0.10100000352E+00 0.  1.
</event>
<event>
 5   0  0.3895011E-03  0.9988411E+03  0.7818609E-02  0.9309817E-01
       -2   -1    0    0    0  501  0.00000000000E+00  0.00000000000E+00  0.14492711264E+03  0.14492711266E+03  0.25500000920E-02 0. -1.
        2   -1    0    0  501    0  0.00000000000E+00  0.00000000000E+00 -0.17210091673E+04  0.17210091673E+04  0.25500000920E-02 0.  1.
    10030    2    1    2    0    0  0.00000000000E+00  0.00000000000E+00 -0.15760820547E+04  0.18659362800E+04  0.99884110743E+03 0.  0.
        2    1    3    3  502    0  0.77744352114E+02 -0.46137965079E+03 -0.11143204154E+04  0.12085633432E+04  0.25500000920E-02 0. -1.
       -2    1    3    3    0  502 -0.77744352114E+02  0.46137965079E+03 -0.46176163928E+03  0.65737293674E+03  0.25500000920E-02 0.  1.
</event>
<event>
 5   0  0.2350769E-03  0.9983143E+03  0.7818609E-02  0.9310396E-01
        1   -1    0    0  501    0  0.00000000000E+00  0.00000000000E+00  0.49692079338E+03  0.49692079341E+03  0.50400001928E-02 0. -1.
       -1   -1    0    0    0  501  0.00000000000E+00  0.00000000000E+00 -0.50140360666E+03  0.50140360669E+03  0.50400001928E-02 0.  1.
    10030    2    1    2    0    0  0.00000000000E+00  0.00000000000E+00 -0.44828132838E+01  0.99832440010E+03  0.99831433537E+03 0.  0.
        2    1    3    3  502    0 -0.93715375688E+02  0.67770762880E+02  0.48333781894E+03  0.49698178554E+03  0.25500000920E-02 0. -1.
       -2    1    3    3    0  502  0.93715375688E+02 -0.67770762880E+02 -0.48782063222E+03  0.50134261455E+03  0.25500000920E-02 0.  1.
</event>
<event>
 5   0  0.2350769E-03  0.9978225E+03  0.7818609E-02  0.9310936E-01
        1   -1    0    0  501    0  0.00000000000E+00  0.00000000000E+00  0.45228228498E+03  0.45228228501E+03  0.50400001928E-02 0.  1.
       -1   -1    0    0    0  501  0.00000000000E+00  0.00000000000E+00 -0.55034755584E+03  0.55034755586E+03  0.50400001928E-02 0. -1.
    10030    2    1    2    0    0  0.00000000000E+00  0.00000000000E+00 -0.98065270863E+02  0.10026298409E+04  0.99782252954E+03 0.  0.
        2    1    3    3  502    0 -0.21375887731E+03 -0.11842016136E+02 -0.50184701806E+03  0.54560381278E+03  0.25500000920E-02 0. -1.
       -2    1    3    3    0  502  0.21375887731E+03  0.11842016136E+02  0.40378174720E+03  0.45702602809E+03  0.25500000920E-02 0.  1.
</event>
<event>
 5   0  0.2378609E-03  0.9942870E+03  0.7818609E-02  0.9314833E-01
       -1   -1    0    0    0  501  0.00000000000E+00  0.00000000000E+00  0.41737674906E+03  0.41737674909E+03  0.50400001928E-02 0.  1.
        1   -1    0    0  501    0  0.00000000000E+00  0.00000000000E+00 -0.59215479994E+03  0.59215479996E+03  0.50400001928E-02 0. -1.
    10030    2    1    2    0    0  0.00000000000E+00  0.00000000000E+00 -0.17477805088E+03  0.10095315491E+04  0.99428697139E+03 0.  0.
        1    1    3    3  502    0 -0.43805674061E+03  0.77114508381E+02 -0.31285516493E+03  0.54380024793E+03  0.50400001928E-02 0. -1.
       -1    1    3    3    0  502  0.43805674061E+03 -0.77114508381E+02  0.13807711405E+03  0.46573130113E+03  0.50400001928E-02 0.  1.
</event>
<event>
 5   0  0.3895011E-03  0.9943110E+03  0.7818609E-02  0.9314807E-01
       -2   -1    0    0    0  501  0.00000000000E+00  0.00000000000E+00  0.13518749441E+03  0.13518749443E+03  0.25500000920E-02 0.  1.
        2   -1    0    0  501    0  0.00000000000E+00  0.00000000000E+00 -0.18283020184E+04  0.18283020184E+04  0.25500000920E-02 0. -1.
    10030    2    1    2    0    0  0.00000000000E+00  0.00000000000E+00 -0.16931145240E+04  0.19634895129E+04  0.99431095521E+03 0.  0.
        2    1    3    3  502    0  0.15077477714E+03 -0.47247167074E+03 -0.77812073530E+03  0.92273202599E+03  0.25500000920E-02 0. -1.
       -2    1    3    3    0  502 -0.15077477714E+03  0.47247167074E+03 -0.91499378872E+03  0.10407574869E+04  0.25500000920E-02 0.  1.
</event>
<event>
 5   0  0.3826483E-03  0.1000904E+04  0.7818609E-02  0.9307554E-01
       -2   -1    0    0    0  501  0.00000000000E+00  0.00000000000E+00  0.13010988524E+03  0.13010988527E+03  0.25500000920E-02 0.  1.
        2   -1    0    0  501    0  0.00000000000E+00  0.00000000000E+00 -0.19249279774E+04  0.19249279774E+04  0.25500000920E-02 0. -1.
    10030    2    1    2    0    0  0.00000000000E+00  0.00000000000E+00 -0.17948180921E+04  0.20550378626E+04  0.10009039080E+04 0.  0.
        4    1    3    3  502    0 -0.56731764938E+02  0.19986151992E+03  0.37380660013E+02  0.21109724523E+03  0.12699999809E+01 0.  1.
       -4    1    3    3    0  502  0.56731764938E+02 -0.19986151992E+03 -0.18321987521E+04  0.18439406174E+04  0.12699999809E+01 0. -1.
</event>
<event>
 5   0  0.2378609E-03  0.1003538E+04  0.7818609E-02  0.9304673E-01
        1   -1    0    0  501    0  0.00000000000E+00  0.00000000000E+00  0.86809024240E+03  0.86809024241E+03  0.50400001928E-02 0.  1.
       -1   -1    0    0    0  501  0.00000000000E+00  0.00000000000E+00 -0.29002962023E+03  0.29002962027E+03  0.50400001928E-02 0. -1.
    10030    2    1    2    0    0  0.00000000000E+00  0.00000000000E+00  0.57806062217E+03  0.11581198627E+04  0.10035375097E+04 0.  0.
        1    1    3    3  502    0 -0.29952503599E+02  0.31430145727E+03  0.73908911966E+03  0.80370099250E+03  0.50400001928E-02 0.  1.
       -1    1    3    3    0  502  0.29952503599E+02 -0.31430145727E+03 -0.16102849749E+03  0.35441887019E+03  0.50400001928E-02 0. -1.
</event>
<event>
 5   0  0.4026829E-03  0.9986541E+03  0.7818609E-02  0.9310022E-01
       -2   -1    0    0    0  501  0.00000000000E+00  0.00000000000E+00  0.50344812205E+03  0.50344812206E+03  0.25500000920E-02 0.  1.
        2   -1    0    0  501    0  0.00000000000E+00  0.00000000000E+00 -0.49523975640E+03  0.49523975640E+03  0.25500000920E-02 0. -1.
    10030    2    1    2    0    0  0.00000000000E+00  0.00000000000E+00  0.82083656550E+01  0.99868787846E+03  0.99865414499E+03 0.  0.
        1    1    3    3  502    0 -0.49237762574E+03 -0.24109865740E+02 -0.75337240094E+02  0.49869099824E+03  0.50400001928E-02 0. -1.
       -1    1    3    3    0  502  0.49237762574E+03  0.24109865740E+02  0.83545605749E+02  0.49999688021E+03  0.50400001928E-02 0.  1.
</event>
<event>
 5   0  0.2350769E-03  0.1010114E+04  0.7818609E-02  0.9297521E-01
       -1   -1    0    0    0  501  0.00000000000E+00  0.00000000000E+00  0.24281962207E+03  0.24281962212E+03  0.50400001928E-02 0.  1.
        1   -1    0    0  501    0  0.00000000000E+00  0.00000000000E+00 -0.10505020236E+04  0.10505020236E+04  0.50400001928E-02 0. -1.
    10030    2    1    2    0    0  0.00000000000E+00  0.00000000000E+00 -0.80768240150E+03  0.12933216457E+04  0.10101138637E+04 0.  0.
        2    1    3    3  502    0  0.21904548966E+03  0.38412096681E+03 -0.71629571189E+03  0.84178939798E+03  0.25500000920E-02 0. -1.
       -2    1    3    3    0  502 -0.21904548966E+03 -0.38412096681E+03 -0.91386689611E+02  0.45153224772E+03  0.25500000920E-02 0.  1.
</event>
<event>
 5   0  0.2405022E-03  0.9978523E+03  0.7818609E-02  0.9310904E-01
        1   -1    0    0  501    0  0.00000000000E+00  0.00000000000E+00  0.57591586615E+03  0.57591586617E+03  0.50400001928E-02 0.  1.
       -1   -1    0    0    0  501  0.00000000000E+00  0.00000000000E+00 -0.43222856388E+03  0.43222856391E+03  0.50400001928E-02 0. -1.
    10030    2    1    2    0    0  0.00000000000E+00  0.00000000000E+00  0.14368730227E+03  0.10081444301E+04  0.99785226916E+03 0.  0.
        4    1    3    3  502    0  0.40240202581E+03 -0.14110637824E+03 -0.18983999361E+03  0.46677535971E+03  0.12699999809E+01 0. -1.
       -4    1    3    3    0  502 -0.40240202581E+03  0.14110637824E+03  0.33352729588E+03  0.54136907037E+03  0.12699999809E+01 0.  1.
</event>
<event>
 5   0  0.2378609E-03  0.1000040E+04  0.7818609E-02  0.9308501E-01
       -1   -1    0    0    0  501  0.00000000000E+00  0.00000000000E+00  0.33345357188E+03  0.33345357192E+03  0.50400001928E-02 0. -1.
        1   -1    0    0  501    0  0.00000000000E+00  0.00000000000E+00 -0.74978911997E+03  0.74978911998E+03  0.50400001928E-02 0.  1.
    10030    2    1    2    0    0  0.00000000000E+00  0.00000000000E+00 -0.41633554809E+03  0.10832426919E+04  0.10000397197E+04 0.  0.
        1    1    3    3  502    0 -0.39519528822E+03 -0.19366390121E+03  0.48929245483E+02  0.44280819047E+03  0.50400001928E-02 0. -1.
       -1    1    3    3    0  502  0.39519528822E+03  0.19366390121E+03 -0.46526479357E+03  0.64043450143E+03  0.50400001928E-02 0.  1.
</event>
<event>
 5   0  0.2378609E-03  0.1010368E+04  0.7818609E-02  0.9297246E-01
       -1   -1    0    0    0  501  0.00000000000E+00  0.00000000000E+00  0.41134271308E+03  0.41134271311E+03  0.50400001928E-02 0.  1.
        1   -1    0    0  501    0  0.00000000000E+00  0.00000000000E+00 -0.62043395840E+03  0.62043395842E+03  0.50400001928E-02 0. -1.
    10030    2    1    2    0    0  0.00000000000E+00  0.00000000000E+00 -0.20909124532E+03  0.10317766715E+04  0.10103682255E+04 0.  0.
        1    1    3    3  502    0 -0.38926228249E+03 -0.26626535613E+03  0.80367450105E+02  0.47841539639E+03  0.50400001928E-02 0. -1.
       -1    1    3    3    0  502  0.38926228249E+03  0.26626535613E+03 -0.28945869543E+03  0.55336127514E+03  0.50400001928E-02 0.  1.
</event>
<event>
 5   0  0.2378609E-03  0.9754914E+03  0.7818609E-02  0.9335841E-01
       -1   -1    0    0    0  501  0.00000000000E+00  0.00000000000E+00  0.13316489184E+03  0.13316489193E+03  0.50400001928E-02 0. -1.
        1   -1    0    0  501    0  0.00000000000E+00  0.00000000000E+00 -0.17864758487E+04  0.17864758487E+04  0.50400001928E-02 0.  1.
    10030    2    1    2    0    0  0.00000000000E+00  0.00000000000E+00 -0.16533109569E+04  0.19196407407E+04  0.97549139056E+03 0.  0.
        1    1    3    3  502    0 -0.12907372804E+03  0.43784339733E+03 -0.48849655390E+03  0.66857740842E+03  0.50400001928E-02 0. -1.
       -1    1    3    3    0  502  0.12907372804E+03 -0.43784339733E+03 -0.11648144030E+04  0.12510633323E+04  0.50400001928E-02 0.  1.
</event>
<event>
 5   0  0.2350769E-03  0.1003673E+04  0.7818609E-02  0.9304525E-01
        1   -1    0    0  501    0  0.00000000000E+00  0.00000000000E+00  0.74720112425E+03  0.74720112427E+03  0.50400001928E-02 0. -1.
       -1   -1    0    0    0  501  0.00000000000E+00  0.00000000000E+00 -0.33704434103E+03  0.33704434107E+03  0.50400001928E-02 0.  1.
    10030    2    1    2    0    0  0.00000000000E+00  0.00000000000E+00  0.41015678322E+03  0.10842454653E+04  0.10036730754E+04 0.  0.
        2    1    3    3  502    0 -0.22727030007E+02  0.59713703776E+02  0.74278935493E+03  0.74553220595E+03  0.25500000920E-02 0. -1.
       -2    1    3    3    0  502  0.22727030007E+02 -0.59713703776E+02 -0.33263257171E+03  0.33871325938E+03  0.25500000920E-02 0.  1.
</event>
<event>
 5   0  0.2405022E-03  0.9984345E+03  0.7818609E-02  0.9310263E-01
       -1   -1    0    0    0  501  0.00000000000E+00  0.00000000000E+00  0.23417897286E+03  0.23417897292E+03  0.50400001928E-02 0.  1.
        1   -1    0    0  501    0  0.00000000000E+00  0.00000000000E+00 -0.10642196870E+04  0.10642196870E+04  0.50400001928E-02 0. -1.
    10030    2    1    2    0    0  0.00000000000E+00  0.00000000000E+00 -0.83004071411E+03  0.12983986599E+04  0.99843452111E+03 0.  0.
        4    1    3    3  502    0  0.60629321428E+02 -0.41343182874E+03 -0.77024247195E+03  0.87628583814E+03  0.12699999809E+01 0. -1.
       -4    1    3    3    0  502 -0.60629321428E+02  0.41343182874E+03 -0.59798242161E+02  0.42211282176E+03  0.12699999809E+01 0.  1.
</event>
<event>
 5   0  0.3895011E-03  0.9930736E+03  0.7818609E-02  0.9316174E-01
       -2   -1    0    0    0  501  0.00000000000E+00  0.00000000000E+00  0.27296980073E+03  0.27296980074E+03  0.25500000920E-02 0.  1.
        2   -1    0    0  501    0  0.00000000000E+00  0.00000000000E+00 -0.90320909798E+03  0.90320909798E+03  0.25500000920E-02 0. -1.
    10030    2    1    2    0    0  0.00000000000E+00  0.00000000000E+00 -0.63023929725E+03  0.11761788987E+04  0.99307362769E+03 0.  0.
        2    1    3    3  502    0  0.31966713078E+03  0.30597627130E+03 -0.58190885491E+03  0.73104477875E+03  0.25500000920E-02 0. -1.
       -2    1    3    3    0  502 -0.31966713078E+03 -0.30597627130E+03 -0.48330442344E+02  0.44513411998E+03  0.25500000920E-02 0.  1.
</event>
<event>
 5   0  0.2350769E-03  0.9937547E+03  0.7818609E-02  0.9315421E-01
        1   -1    0    0  501    0  0.00000000000E+00  0.00000000000E+00  0.12142932714E+04  0.12142932714E+04  0.50400001928E-02 0.  1.
       -1   -1    0    0    0  501  0.00000000000E+00  0.00000000000E+00 -0.20331753686E+03  0.20331753692E+03  0.50400001928E-02 0. -1.
    10030    2    1    2    0    0  0.00000000000E+00  0.00000000000E+00  0.10109757345E+04  0.14176108083E+04  0.99375473233E+03 0.  0.
        2    1    3    3  502    0 -0.11794184720E+03 -0.23847893756E+03 -0.93148639561E+02  0.28188499790E+03  0.25500000920E-02 0. -1.
       -2    1    3    3    0  502  0.11794184720E+03  0.23847893756E+03  0.11041243741E+04  0.11357258104E+04  0.25500000920E-02 0.  1.
</event>
<event>
 5   0  0.2327595E-03  0.9183381E+03  0.7818609E-02  0.9402944E-01
        1   -1    0    0  501    0  0.00000000000E+00  0.00000000000E+00  0.76646406571E+03  0.76646406573E+03  0.50400001928E-02 0.  1.
       -1   -1    0    0    0  501  0.00000000000E+00  0.00000000000E+00 -0.27507644629E+03  0.27507644634E+03  0.50400001928E-02 0. -1.
    10030    2    1    2    0    0  0.00000000000E+00  0.00000000000E+00  0.49138761942E+03  0.10415405121E+04  0.91833808903E+03 0.  0.
        5    1    3    3  502    0  0.23245207518E+03  0.10433440604E+03  0.67889835883E+03  0.72515150635E+03  0.46999998093E+01 0.  1.
       -5    1    3    3    0  502 -0.23245207518E+03 -0.10433440604E+03 -0.18751073942E+03  0.31638900571E+03  0.46999998093E+01 0. -1.
</event>
<event>
 5   0  0.4026829E-03  0.9961897E+03  0.7818609E-02  0.9312734E-01
        2   -1    0    0  501    0  0.00000000000E+00  0.00000000000E+00  0.46268615229E+03  0.46268615230E+03  0.25500000920E-02 0. -1.
       -2   -1    0    0    0  501  0.00000000000E+00  0.00000000000E+00 -0.53621336785E+03  0.53621336786E+03  0.25500000920E-02 0.  1.
    10030    2    1    2    0    0  0.00000000000E+00  0.00000000000E+00 -0.73527215561E+02  0.99889952016E+03  0.99618974093E+03 0.  0.
        1    1    3    3  502    0  0.13249275275E+03  0.46627268878E+03  0.78151577324E+02  0.49099105786E+03  0.50400001928E-02 0. -1.
       -1    1    3    3    0  502 -0.13249275275E+03 -0.46627268878E+03 -0.15167879289E+03  0.50790846230E+03  0.50400001928E-02 0.  1.
</event>
<event>
 5   0  0.4026829E-03  0.1031022E+04  0.7818609E-02  0.9275160E-01
        2   -1    0    0  501    0  0.00000000000E+00  0.00000000000E+00  0.64251770329E+03  0.64251770329E+03  0.25500000920E-02 0. -1.
       -2   -1    0    0    0  501  0.00000000000E+00  0.00000000000E+00 -0.41360960770E+03  0.41360960770E+03  0.25500000920E-02 0.  1.
    10030    2    1    2    0    0  0.00000000000E+00  0.00000000000E+00  0.22890809559E+03  0.10561273110E+04  0.10310218139E+04 0.  0.
        1    1    3    3  502    0 -0.14355963163E+03  0.22676550612E+03 -0.33639912020E+03  0.43034443263E+03  0.50400001928E-02 0.  1.
       -1    1    3    3    0  502  0.14355963163E+03 -0.22676550612E+03  0.56530721579E+03  0.62578287836E+03  0.50400001928E-02 0. -1.
</event>
<event>
 5   0  0.3895011E-03  0.1005499E+04  0.7818609E-02  0.9302534E-01
        2   -1    0    0  501    0  0.00000000000E+00  0.00000000000E+00  0.10108640579E+04  0.10108640579E+04  0.25500000920E-02 0. -1.
       -2   -1    0    0    0  501  0.00000000000E+00  0.00000000000E+00 -0.25004049521E+03  0.25004049522E+03  0.25500000920E-02 0.  1.
    10030    2    1    2    0    0  0.00000000000E+00  0.00000000000E+00  0.76082356266E+03  0.12609045531E+04  0.10054987810E+04 0.  0.
        2    1    3    3  502    0  0.37074009963E+03 -0.16243343309E+03  0.64644629601E+01  0.40481431663E+03  0.25500000920E-02 0.  1.
       -2    1    3    3    0  502 -0.37074009963E+03  0.16243343309E+03  0.75435909970E+03  0.85609023646E+03  0.25500000920E-02 0. -1.
</event>
<event>
 5   0  0.3873874E-03  0.1003819E+04  0.7818609E-02  0.9304366E-01
        2   -1    0    0  501    0  0.00000000000E+00  0.00000000000E+00  0.11328975539E+04  0.11328975539E+04  0.25500000920E-02 0. -1.
       -2   -1    0    0    0  501  0.00000000000E+00  0.00000000000E+00 -0.22236178232E+03  0.22236178233E+03  0.25500000920E-02 0.  1.
    10030    2    1    2    0    0  0.00000000000E+00  0.00000000000E+00  0.91053577157E+03  0.13552593362E+04  0.10038189464E+04 0.  0.
        5    1    3    3  502    0 -0.15698362803E+03 -0.46819385032E+02  0.10957565730E+04  0.11079442547E+04  0.46999998093E+01 0. -1.
       -5    1    3    3    0  502  0.15698362803E+03  0.46819385032E+02 -0.18522080140E+03  0.24731508154E+03  0.46999998093E+01 0.  1.
</event>
<event>
 5   0  0.2405022E-03  0.1001490E+04  0.7818609E-02  0.9306912E-01
        1   -1    0    0  501    0  0.00000000000E+00  0.00000000000E+00  0.38087833676E+03  0.38087833680E+03  0.50400001928E-02 0.  1.
       -1   -1    0    0    0  501  0.00000000000E+00  0.00000000000E+00 -0.65833512632E+03  0.65833512634E+03  0.50400001928E-02 0. -1.
    10030    2    1    2    0    0  0.00000000000E+00  0.00000000000E+00 -0.27745678956E+03  0.10392134631E+04  0.10014900658E+04 0.  0.
        4    1    3    3  502    0  0.11201972964E+03 -0.28005064065E+03 -0.55349322404E+03  0.63034367064E+03  0.12699999809E+01 0. -1.
       -4    1    3    3    0  502 -0.11201972964E+03  0.28005064065E+03  0.27603643448E+03  0.40886979250E+03  0.12699999809E+01 0.  1.
</event>
<event>
 5   0  0.4026829E-03  0.9999062E+03  0.7818609E-02  0.9308648E-01
       -2   -1    0    0    0  501  0.00000000000E+00  0.00000000000E+00  0.11555947170E+03  0.11555947173E+03  0.25500000920E-02 0.  1.
        2   -1    0    0  501    0  0.00000000000E+00  0.00000000000E+00 -0.21629822356E+04  0.21629822356E+04  0.25500000920E-02 0. -1.
    10030    2    1    2    0    0  0.00000000000E+00  0.00000000000E+00 -0.20474227639E+04  0.22785417074E+04  0.99990616455E+03 0.  0.
        1    1    3    3  502    0 -0.45535299817E+03  0.20631654278E+03 -0.10381623001E+04  0.11522559742E+04  0.50400001928E-02 0. -1.
       -1    1    3    3    0  502  0.45535299817E+03 -0.20631654278E+03 -0.10092604638E+04  0.11262857331E+04  0.50400001928E-02 0.  1.
</event>
<event>
 5   0  0.2378609E-03  0.9995784E+03  0.7818609E-02  0.9309007E-01
       -1   -1    0    0    0  501  0.00000000000E+00  0.00000000000E+00  0.10685493115E+03  0.10685493127E+03  0.50400001928E-02 0.  1.
        1   -1    0    0  501    0  0.00000000000E+00  0.00000000000E+00 -0.23376484628E+04  0.23376484629E+04  0.50400001928E-02 0. -1.
    10030    2    1    2    0    0  0.00000000000E+00  0.00000000000E+00 -0.22307935317E+04  0.24445033941E+04  0.99957844257E+03 0.  0.
        1    1    3    3  502    0  0.36558999148E+01  0.38988019143E+03 -0.35072492585E+03  0.52443102779E+03  0.50400001928E-02 0. -1.
       -1    1    3    3    0  502 -0.36558999148E+01 -0.38988019143E+03 -0.18800686058E+04  0.19200723663E+04  0.50400001928E-02 0.  1.
</event>
<event>
 5   0  0.1548000E-03  0.1054805E+04  0.7818609E-02  0.9250397E-01
        4   -1    0    0  501    0  0.00000000000E+00  0.00000000000E+00  0.32306102262E+03  0.32306351889E+03  0.12699999809E+01 0. -1.
       -4   -1    0    0    0  501  0.00000000000E+00  0.00000000000E+00 -0.86098754993E+03  0.86098848659E+03  0.12699999809E+01 0.  1.
    10030    2    1    2    0    0  0.00000000000E+00  0.00000000000E+00 -0.53792652731E+03  0.11840520055E+04  0.10548052915E+04 0.  0.
        1    1    3    3  502    0 -0.33536385914E+03  0.10916101558E+02  0.18779179184E+03  0.38451766722E+03  0.50400001928E-02 0. -1.
       -1    1    3    3    0  502  0.33536385914E+03 -0.10916101558E+02 -0.72571831915E+03  0.79953433826E+03  0.50400001928E-02 0.  1.
</event>
<event>
 5   0  0.2378609E-03  0.1003855E+04  0.7818609E-02  0.9304326E-01
        1   -1    0    0  501    0  0.00000000000E+00  0.00000000000E+00  0.21282341265E+03  0.21282341270E+03  0.50400001928E-02 0. -1.
       -1   -1    0    0    0  501  0.00000000000E+00  0.00000000000E+00 -0.11837581979E+04  0.11837581979E+04  0.50400001928E-02 0.  1.
    10030    2    1    2    0    0  0.00000000000E+00  0.00000000000E+00 -0.97093478523E+03  0.13965816106E+04  0.10038554865E+04 0.  0.
        1    1    3    3  502    0 -0.24491375782E+03  0.34485478626E+03 -0.10951955116E+03  0.43692345381E+03  0.50400001928E-02 0. -1.
       -1    1    3    3    0  502  0.24491375782E+03 -0.34485478626E+03 -0.86141523407E+03  0.95965815678E+03  0.50400001928E-02 0.  1.
</event>
<event>
 5   0  0.2327595E-03  0.1003517E+04  0.7818609E-02  0.9304696E-01
       -1   -1    0    0    0  501  0.00000000000E+00  0.00000000000E+00  0.70038639406E+03  0.70038639408E+03  0.50400001928E-02 0.  1.
        1   -1    0    0  501    0  0.00000000000E+00  0.00000000000E+00 -0.35946077734E+03  0.35946077738E+03  0.50400001928E-02 0. -1.
    10030    2    1    2    0    0  0.00000000000E+00  0.00000000000E+00  0.34092561672E+03  0.10598471715E+04  0.10035166918E+04 0.  0.
        5    1    3    3  502    0  0.18630505081E+03 -0.41793042130E+03 -0.46915802841E+02  0.45999846909E+03  0.46999998093E+01 0. -1.
       -5    1    3    3    0  502 -0.18630505081E+03  0.41793042130E+03  0.38784141956E+03  0.59984870237E+03  0.46999998093E+01 0.  1.
</event>
<event>
 5   0  0.1548000E-03  0.1003458E+04  0.7818609E-02  0.9304760E-01
       -4   -1    0    0    0  501  0.00000000000E+00  0.00000000000E+00  0.44841566666E+03  0.44841746510E+03  0.12699999809E+01 0.  1.
        4   -1    0    0  501    0  0.00000000000E+00  0.00000000000E+00 -0.56137748158E+03  0.56137891814E+03  0.12699999809E+01 0. -1.
    10030    2    1    2    0    0  0.00000000000E+00  0.00000000000E+00 -0.11296181492E+03  0.10097963832E+04  0.10034582024E+04 0.  0.
        5    1    3    3  502    0  0.25406871277E+03  0.36732629993E+03 -0.28646432870E+03  0.53062550169E+03  0.46999998093E+01 0. -1.
       -5    1    3    3    0  502 -0.25406871277E+03 -0.36732629993E+03  0.17350251378E+03  0.47917088154E+03  0.46999998093E+01 0.  1.
</event>
<event>
 5   0  0.4026829E-03  0.1000468E+04  0.7818609E-02  0.9308032E-01
        2   -1    0    0  501    0  0.00000000000E+00  0.00000000000E+00  0.47990753001E+03  0.47990753002E+03  0.25500000920E-02 0.  1.
       -2   -1    0    0    0  501  0.00000000000E+00  0.00000000000E+00 -0.52142087999E+03  0.52142088000E+03  0.25500000920E-02 0. -1.
    10030    2    1    2    0    0  0.00000000000E+00  0.00000000000E+00 -0.41513349978E+02  0.10013284100E+04  0.10004675040E+04 0.  0.
        1    1    3    3  502    0  0.34628196088E+03  0.18596506108E+03 -0.33044110421E+03  0.51350318767E+03  0.50400001928E-02 0.  1.
       -1    1    3    3    0  502 -0.34628196088E+03 -0.18596506108E+03  0.28892775423E+03  0.48782522235E+03  0.50400001928E-02 0. -1.
</event>
<event>
 5   0  0.4140860E-03  0.9952592E+03  0.7818609E-02  0.9313760E-01
        2   -1    0    0  501    0  0.00000000000E+00  0.00000000000E+00  0.21598646782E+04  0.21598646782E+04  0.25500000920E-02 0. -1.
       -2   -1    0    0    0  501  0.00000000000E+00  0.00000000000E+00 -0.11465311929E+03  0.11465311932E+03  0.25500000920E-02 0.  1.
    10030    2    1    2    0    0  0.00000000000E+00  0.00000000000E+00  0.20452115589E+04  0.22745177975E+04  0.99525920769E+03 0.  0.
        3    1    3    3  502    0 -0.45411215456E+03  0.19238539310E+03  0.11742888581E+04  0.12736499994E+04  0.10100000352E+00 0. -1.
       -3    1    3    3    0  502  0.45411215456E+03 -0.19238539310E+03  0.87092270073E+03  0.10008677981E+04  0.10100000352E+00 0.  1.
</event>
<event>
 5   0  0.2378609E-03  0.1008436E+04  0.7818609E-02  0.9299341E-01
        1   -1    0    0  501    0  0.00000000000E+00  0.00000000000E+00  0.44405137500E+03  0.44405137503E+03  0.50400001928E-02 0. -1.
       -1   -1    0    0    0  501  0.00000000000E+00  0.00000000000E+00 -0.57253652881E+03  0.57253652883E+03  0.50400001928E-02 0.  1.
    10030    2    1    2    0    0  0.00000000000E+00  0.00000000000E+00 -0.12848515381E+03  0.10165879039E+04  0.10084356854E+04 0.  0.
        1    1    3    3  502    0 -0.71028486430E+02  0.18691683794E+03  0.40237368099E+03  0.44931896173E+03  0.50400001928E-02 0. -1.
       -1    1    3    3    0  502  0.71028486430E+02 -0.18691683794E+03 -0.53085883481E+03  0.56726894213E+03  0.50400001928E-02 0.  1.
</event>
<event>
 5   0  0.2350769E-03  0.1007311E+04  0.7818609E-02  0.9300563E-01
        1   -1    0    0  501    0  0.00000000000E+00  0.00000000000E+00  0.28883132435E+03  0.28883132439E+03  0.50400001928E-02 0. -1.
       -1   -1    0    0    0  501  0.00000000000E+00  0.00000000000E+00 -0.87825900795E+03  0.87825900797E+03  0.50400001928E-02 0.  1.
    10030    2    1    2    0    0  0.00000000000E+00  0.00000000000E+00 -0.58942768360E+03  0.11670903324E+04  0.10073107017E+04 0.  0.
        2    1    3    3  502    0 -0.35766018729E+03  0.25178628965E+03 -0.54029989167E+01  0.43743152336E+03  0.25500000920E-02 0. -1.
       -2    1    3    3    0  502  0.35766018729E+03 -0.25178628965E+03 -0.58402468469E+03  0.72965880900E+03  0.25500000920E-02 0.  1.
</event>
<event>
 5   0  0.1548000E-03  0.9883171E+03  0.7818609E-02  0.9321452E-01
        3   -1    0    0  501    0  0.00000000000E+00  0.00000000000E+00  0.11287013255E+04  0.11287013300E+04  0.10100000352E+00 0. -1.
       -3   -1    0    0    0  501  0.00000000000E+00  0.00000000000E+00 -0.21634831826E+03  0.21634834183E+03  0.10100000352E+00 0.  1.
    10030    2    1    2    0    0  0.00000000000E+00  0.00000000000E+00  0.91235300723E+03  0.13450496718E+04  0.98831705940E+03 0.  0.
        1    1    3    3  502    0  0.12474994307E+03  0.36203863562E+03  0.88125953175E+03  0.96086049159E+03  0.50400001928E-02 0.  1.
       -1    1    3    3    0  502 -0.12474994307E+03 -0.36203863562E+03  0.31093475479E+02  0.38418918025E+03  0.50400001928E-02 0. -1.
</event>
<event>
 5   0  0.2405022E-03  0.1003640E+04  0.7818609E-02  0.9304561E-01
        1   -1    0    0  501    0  0.00000000000E+00  0.00000000000E+00  0.56372992275E+03  0.56372992277E+03  0.50400001928E-02 0.  1.
       -1   -1    0    0    0  501  0.00000000000E+00  0.00000000000E+00 -0.44670945919E+03  0.44670945922E+03  0.50400001928E-02 0. -1.
    10030    2    1    2    0    0  0.00000000000E+00  0.00000000000E+00  0.11702046356E+03  0.10104393820E+04  0.10036403518E+04 0.  0.
        4    1    3    3  502    0 -0.11202422737E+03  0.48902709959E+03  0.47256655904E+02  0.50391639790E+03  0.12699999809E+01 0. -1.
       -4    1    3    3    0  502  0.11202422737E+03 -0.48902709959E+03  0.69763807653E+02  0.50652298409E+03  0.12699999809E+01 0.  1.
</event>
<event>
 5   0  0.2350769E-03  0.9893951E+03  0.7818609E-02  0.9320253E-01
       -1   -1    0    0    0  501  0.00000000000E+00  0.00000000000E+00  0.21312189516E+03  0.21312189522E+03  0.50400001928E-02 0. -1.
        1   -1    0    0  501    0  0.00000000000E+00  0.00000000000E+00 -0.11482897463E+04  0.11482897463E+04  0.50400001928E-02 0.  1.
    10030    2    1    2    0    0  0.00000000000E+00  0.00000000000E+00 -0.93516785111E+03  0.13614116415E+04  0.98939514244E+03 0.  0.
        2    1    3    3  502    0  0.18958705378E+03 -0.81280458496E+02  0.15112218241E+03  0.25571014434E+03  0.25500000920E-02 0. -1.
       -2    1    3    3    0  502 -0.18958705378E+03  0.81280458496E+02 -0.10862900335E+04  0.11057014972E+04  0.25500000920E-02 0.  1.
</event>
<event>
 5   0  0.2313036E-03  0.9413680E+03  0.7818609E-02  0.9375297E-01
        1   -1    0    0  501    0  0.00000000000E+00  0.00000000000E+00  0.77119871511E+03  0.77119871512E+03  0.50400001928E-02 0. -1.
       -1   -1    0    0    0  501  0.00000000000E+00  0.00000000000E+00 -0.28727153988E+03  0.28727153993E+03  0.50400001928E-02 0.  1.
    10030    2    1    2    0    0  0.00000000000E+00  0.00000000000E+00  0.48392717522E+03  0.10584702551E+04  0.94136803107E+03 0.  0.
        3    1    3    3  502    0 -0.12036979698E+03  0.11991134772E+03 -0.25158829467E+03  0.30358573674E+03  0.10100000352E+00 0.  1.
       -3    1    3    3    0  502  0.12036979698E+03 -0.11991134772E+03  0.73551546989E+03  0.75488451831E+03  0.10100000352E+00 0. -1.
</event>
<event>
 5   0  0.4026829E-03  0.9971383E+03  0.7818609E-02  0.9311689E-01
        2   -1    0    0  501    0  0.00000000000E+00  0.00000000000E+00  0.28542430506E+03  0.28542430507E+03  0.25500000920E-02 0. -1.
       -2   -1    0    0    0  501  0.00000000000E+00  0.00000000000E+00 -0.87088313395E+03  0.87088313396E+03  0.25500000920E-02 0.  1.
    10030    2    1    2    0    0  0.00000000000E+00  0.00000000000E+00 -0.58545882889E+03  0.11563074390E+04  0.99713833205E+03 0.  0.
        1    1    3    3  502    0 -0.28490876474E+03 -0.10586512625E+03  0.16556610407E+03  0.34611062397E+03  0.50400001928E-02 0. -1.
       -1    1    3    3    0  502  0.28490876474E+03  0.10586512625E+03 -0.75102493296E+03  0.81019681506E+03  0.50400001928E-02 0.  1.
</event>
<event>
 5   0  0.2327595E-03  0.9936800E+03  0.7818609E-02  0.9315504E-01
        1   -1    0    0  501    0  0.00000000000E+00  0.00000000000E+00  0.99521358466E+03  0.99521358467E+03  0.50400001928E-02 0. -1.
       -1   -1    0    0    0  501  0.00000000000E+00  0.00000000000E+00 -0.24803720318E+03  0.24803720323E+03  0.50400001928E-02 0.  1.
    10030    2    1    2    0    0  0.00000000000E+00  0.00000000000E+00  0.74717638148E+03  0.12432507879E+04  0.99368001720E+03 0.  0.
        5    1    3    3  502    0 -0.18133865071E+03 -0.17181079801E+03 -0.16371865569E+03  0.29871147412E+03  0.46999998093E+01 0.  1.
       -5    1    3    3    0  502  0.18133865071E+03  0.17181079801E+03  0.91089503716E+03  0.94453931378E+03  0.46999998093E+01 0. -1.
</event>
<event>
 5   0  0.3895011E-03  0.1002012E+04  0.7818609E-02  0.9306341E-01
       -2   -1    0    0    0  501  0.00000000000E+00  0.00000000000E+00  0.58976186152E+03  0.58976186153E+03  0.25500000920E-02 0.  1.
        2   -1    0    0  501    0  0.00000000000E+00  0.00000000000E+00 -0.42560738001E+03  0.42560738001E+03  0.25500000920E-02 0. -1.
    10030    2    1    2    0    0  0.00000000000E+00  0.00000000000E+00  0.16415448152E+03  0.10153692415E+04  0.10020119774E+04 0.  0.
        2    1    3    3  502    0  0.10192726610E+02 -0.26913128027E+03 -0.34601315280E+03  0.43847535805E+03  0.25500000920E-02 0. -1.
       -2    1    3    3    0  502 -0.10192726610E+02  0.26913128027E+03  0.51016763432E+03  0.57689388349E+03  0.25500000920E-02 0.  1.
</event>
<event>
 5   0  0.2350769E-03  0.1001171E+04  0.7818609E-02  0.9307261E-01
       -1   -1    0    0    0  501  0.00000000000E+00  0.00000000000E+00  0.33629425119E+03  0.33629425123E+03  0.50400001928E-02 0. -1.
        1   -1    0    0  501    0  0.00000000000E+00  0.00000000000E+00 -0.74513923634E+03  0.74513923635E+03  0.50400001928E-02 0.  1.
    10030    2    1    2    0    0  0.00000000000E+00  0.00000000000E+00 -0.40884498515E+03  0.10814334876E+04  0.10011713970E+04 0.  0.
        2    1    3    3  502    0  0.32271061013E+03 -0.29795848711E+03 -0.46380828619E+03  0.63877971498E+03  0.25500000920E-02 0.  1.
       -2    1    3    3    0  502 -0.32271061013E+03  0.29795848711E+03  0.54963301044E+02  0.44265377260E+03  0.25500000920E-02 0. -1.
</event>
<event>
 5   0  0.4140860E-03  0.9836134E+03  0.7818609E-02  0.9326702E-01
        2   -1    0    0  501    0  0.00000000000E+00  0.00000000000E+00  0.80329973596E+03  0.80329973597E+03  0.25500000920E-02 0. -1.
       -2   -1    0    0    0  501  0.00000000000E+00  0.00000000000E+00 -0.30110034933E+03  0.30110034934E+03  0.25500000920E-02 0.  1.
    10030    2    1    2    0    0  0.00000000000E+00  0.00000000000E+00  0.50219938664E+03  0.11044000853E+04  0.98361340194E+03 0.  0.
        3    1    3    3  502    0 -0.27059838818E+02 -0.86128241755E+02  0.79391638753E+03  0.79903288386E+03  0.10100000352E+00 0. -1.
       -3    1    3    3    0  502  0.27059838818E+02  0.86128241755E+02 -0.29171700089E+03  0.30536720144E+03  0.10100000352E+00 0.  1.
</event>
<event>
 5   0  0.2378609E-03  0.1008056E+04  0.7818609E-02  0.9299753E-01
       -1   -1    0    0    0  501  0.00000000000E+00  0.00000000000E+00  0.11356141184E+04  0.11356141184E+04  0.50400001928E-02 0. -1.
        1   -1    0    0  501    0  0.00000000000E+00  0.00000000000E+00 -0.22370642455E+03  0.22370642461E+03  0.50400001928E-02 0.  1.
    10030    2    1    2    0    0  0.00000000000E+00  0.00000000000E+00  0.91190769387E+03  0.13593205430E+04  0.10080558995E+04 0.  0.
        1    1    3    3  502    0 -0.43471628379E+03 -0.28448367449E+02  0.79777284244E+03  0.90897143253E+03  0.50400001928E-02 0.  1.
       -1    1    3    3    0  502  0.43471628379E+03  0.28448367449E+02  0.11413485143E+03  0.45034911051E+03  0.50400001928E-02 0. -1.
</event>
<event>
 5   0  0.4140860E-03  0.9991107E+03  0.7818609E-02  0.9309521E-01
        2   -1    0    0  501    0  0.00000000000E+00  0.00000000000E+00  0.11170732464E+04  0.11170732464E+04  0.25500000920E-02 0.  1.
       -2   -1    0    0    0  501  0.00000000000E+00  0.00000000000E+00 -0.22340125280E+03  0.22340125282E+03  0.25500000920E-02 0. -1.
    10030    2    1    2    0    0  0.00000000000E+00  0.00000000000E+00  0.89367199357E+03  0.13404744992E+04  0.99911073004E+03 0.  0.
        3    1    3    3  502    0  0.33200095179E+03  0.34159995568E+03  0.24495897323E+03  0.53564920469E+03  0.10100000352E+00 0. -1.
       -3    1    3    3    0  502 -0.33200095179E+03 -0.34159995568E+03  0.64871302034E+03  0.80482529450E+03  0.10100000352E+00 0.  1.
</event>
<event>
 5   0  0.2313036E-03  0.9984093E+03  0.7818609E-02  0.9310291E-01
       -1   -1    0    0    0  501  0.00000000000E+00  0.00000000000E+00  0.31826731283E+03  0.31826731287E+03  0.50400001928E-02 0. -1.
        1   -1    0    0  501    0  0.00000000000E+00  0.00000000000E+00 -0.78300618495E+03  0.78300618496E+03  0.50400001928E-02 0.  1.
    10030    2    1    2    0    0  0.00000000000E+00  0.00000000000E+00 -0.46473887212E+03  0.11012734978E+04  0.99840928369E+03 0.  0.
        3    1    3    3  502    0 -0.28838680148E+03  0.17986246851E+03 -0.63567339104E+03  0.72083155114E+03  0.10100000352E+00 0.  1.
       -3    1    3    3    0  502  0.28838680148E+03 -0.17986246851E+03  0.17093451892E+03  0.38044194669E+03  0.10100000352E+00 0. -1.
</event>
<event>
 5   0  0.2327595E-03  0.9980617E+03  0.7818609E-02  0.9310673E-01
        1   -1    0    0  501    0  0.00000000000E+00  0.00000000000E+00  0.45387391263E+03  0.45387391266E+03  0.50400001928E-02 0.  1.
       -1   -1    0    0    0  501  0.00000000000E+00  0.00000000000E+00 -0.54868049987E+03  0.54868049989E+03  0.50400001928E-02 0. -1.
    10030    2    1    2    0    0  0.00000000000E+00  0.00000000000E+00 -0.94806587237E+02  0.10025544125E+04  0.99806165197E+03 0.  0.
        5    1    3    3  502    0 -0.34758815746E+03  0.20771347300E+03  0.24553810441E+03  0.47357519443E+03  0.46999998093E+01 0.  1.
       -5    1    3    3    0  502  0.34758815746E+03 -0.20771347300E+03 -0.34034469164E+03  0.52897921811E+03  0.46999998093E+01 0. -1.
</event>
<event>
 5   0  0.2313036E-03  0.1005779E+04  0.7818609E-02  0.9302230E-01
        1   -1    0    0  501    0  0.00000000000E+00  0.00000000000E+00  0.13608156795E+04  0.13608156795E+04  0.50400001928E-02 0.  1.
       -1   -1    0    0    0  501  0.00000000000E+00  0.00000000000E+00 -0.18584267791E+03  0.18584267798E+03  0.50400001928E-02 0. -1.
    10030    2    1    2    0    0  0.00000000000E+00  0.00000000000E+00  0.11749730016E+04  0.15466583575E+04  0.10057785643E+04 0.  0.
        3    1    3    3  502    0  0.30192765699E+03  0.36112897999E+03  0.85964685936E+03  0.98008529387E+03  0.10100000352E+00 0. -1.
       -3    1    3    3    0  502 -0.30192765699E+03 -0.36112897999E+03  0.31532614224E+03  0.56657306363E+03  0.10100000352E+00 0.  1.
</event>
<event>
 5   0  0.3873874E-03  0.1002380E+04  0.7818609E-02  0.9305938E-01
       -2   -1    0    0    0  501  0.00000000000E+00  0.00000000000E+00  0.59945380102E+03  0.59945380102E+03  0.25500000920E-02 0. -1.
        2   -1    0    0  501    0  0.00000000000E+00  0.00000000000E+00 -0.41903416993E+03  0.41903416994E+03  0.25500000920E-02 0.  1.
    10030    2    1    2    0    0  0.00000000000E+00  0.00000000000E+00  0.18041963108E+03  0.10184879710E+04  0.10023804187E+04 0.  0.
        5    1    3    3  502    0 -0.15079980386E+03 -0.28864455341E+03 -0.29684894759E+03  0.44067862070E+03  0.46999998093E+01 0.  1.
       -5    1    3    3    0  502  0.15079980386E+03  0.28864455341E+03  0.47726857868E+03  0.57780935026E+03  0.46999998093E+01 0. -1.
</event>
<event>
 5   0  0.4026829E-03  0.9984013E+03  0.7818609E-02  0.9310300E-01
       -2   -1    0    0    0  501  0.00000000000E+00  0.00000000000E+00  0.17111796752E+03  0.17111796754E+03  0.25500000920E-02 0. -1.
        2   -1    0    0  501    0  0.00000000000E+00  0.00000000000E+00 -0.14563127531E+04  0.14563127531E+04  0.25500000920E-02 0.  1.
    10030    2    1    2    0    0  0.00000000000E+00  0.00000000000E+00 -0.12851947856E+04  0.16274307207E+04  0.99840127886E+03 0.  0.
        1    1    3    3  502    0  0.11777917770E+03  0.47551297655E+03 -0.48610747902E+03  0.69013404985E+03  0.50400001928E-02 0.  1.
       -1    1    3    3    0  502 -0.11777917770E+03 -0.47551297655E+03 -0.79908730656E+03  0.93729667081E+03  0.50400001928E-02 0. -1.
</event>
<event>
 5   0  0.4026829E-03  0.9973636E+03  0.7818609E-02  0.9311441E-01
        2   -1    0    0  501    0  0.00000000000E+00  0.00000000000E+00  0.13113442805E+04  0.13113442805E+04  0.25500000920E-02 0.  1.
       -2   -1    0    0    0  501  0.00000000000E+00  0.00000000000E+00 -0.18964014675E+03  0.18964014677E+03  0.25500000920E-02 0. -1.
    10030    2    1    2    0    0  0.00000000000E+00  0.00000000000E+00  0.11217041337E+04  0.15009844272E+04  0.99736356822E+03 0.  0.
        1    1    3    3  502    0  0.28041000987E+03 -0.36855002307E+03  0.28243743314E+03  0.54242953165E+03  0.50400001928E-02 0. -1.
       -1    1    3    3    0  502 -0.28041000987E+03  0.36855002307E+03  0.83926670058E+03  0.95855489559E+03  0.50400001928E-02 0.  1.
</event>
<event>
 5   0  0.2350769E-03  0.1008346E+04  0.7818609E-02  0.9299438E-01
        1   -1    0    0  501    0  0.00000000000E+00  0.00000000000E+00  0.55337483067E+03  0.55337483070E+03  0.50400001928E-02 0.  1.
       -1   -1    0    0    0  501  0.00000000000E+00  0.00000000000E+00 -0.45934583639E+03  0.45934583642E+03  0.50400001928E-02 0. -1.
    10030    2    1    2    0    0  0.00000000000E+00  0.00000000000E+00  0.94028994278E+02  0.10127206671E+04  0.10083460209E+04 0.  0.
        2    1    3    3  502    0 -0.42114073210E+03  0.20279005418E+03 -0.14276853763E+03  0.48873937600E+03  0.25500000920E-02 0. -1.
       -2    1    3    3    0  502  0.42114073210E+03 -0.20279005418E+03  0.23679753191E+03  0.52398129111E+03  0.25500000920E-02 0.  1.
</event>
<event>
 5   0  0.1548000E-03  0.1001720E+04  0.7818609E-02  0.9306661E-01
       -4   -1    0    0    0  501  0.00000000000E+00  0.00000000000E+00  0.54400940136E+03  0.54401088377E+03  0.12699999809E+01 0.  1.
        4   -1    0    0  501    0  0.00000000000E+00  0.00000000000E+00 -0.46112997653E+03  0.46113172538E+03  0.12699999809E+01 0. -1.
    10030    2    1    2    0    0  0.00000000000E+00  0.00000000000E+00  0.82879424826E+02  0.10051426092E+04  0.10017198539E+04 0.  0.
        2    1    3    3  502    0  0.13652873189E+03  0.48189229284E+03  0.40813169859E+02  0.50251964277E+03  0.25500000920E-02 0. -1.
       -2    1    3    3    0  502 -0.13652873189E+03 -0.48189229284E+03  0.42066254967E+02  0.50262296639E+03  0.25500000920E-02 0.  1.
</event>
<event>
 5   0  0.3895011E-03  0.1000743E+04  0.7818609E-02  0.9307730E-01
        2   -1    0    0  501    0  0.00000000000E+00  0.00000000000E+00  0.83584904725E+03  0.83584904725E+03  0.25500000920E-02 0. -1.
       -2   -1    0    0    0  501  0.00000000000E+00  0.00000000000E+00 -0.29954197972E+03  0.29954197973E+03  0.25500000920E-02 0.  1.
    10030    2    1    2    0    0  0.00000000000E+00  0.00000000000E+00  0.53630706753E+03  0.11353910270E+04  0.10007434804E+04 0.  0.
        2    1    3    3  502    0  0.72281937735E+02 -0.49238286299E+03  0.20913180218E+03  0.53981633263E+03  0.25500000920E-02 0.  1.
       -2    1    3    3    0  502 -0.72281937735E+02  0.49238286299E+03  0.32717526535E+03  0.59557469435E+03  0.25500000920E-02 0. -1.
</event>
<event>
 5   0  0.2327595E-03  0.1001714E+04  0.7818609E-02  0.9306666E-01
       -1   -1    0    0    0  501  0.00000000000E+00  0.00000000000E+00  0.67127666493E+03  0.67127666495E+03  0.50400001928E-02 0.  1.
        1   -1    0    0  501    0  0.00000000000E+00  0.00000000000E+00 -0.37370274496E+03  0.37370274499E+03  0.50400001928E-02 0. -1.
    10030    2    1    2    0    0  0.00000000000E+00  0.00000000000E+00  0.29757391997E+03  0.10449794099E+04  0.10017143951E+04 0.  0.
        5    1    3    3  502    0 -0.21957726986E+03  0.12116451983E+03 -0.30345867292E+03  0.39370582225E+03  0.46999998093E+01 0. -1.
       -5    1    3    3    0  502  0.21957726986E+03 -0.12116451983E+03  0.60103259289E+03  0.65127358769E+03  0.46999998093E+01 0.  1.
</event>
<event>
 5   0  0.2405022E-03  0.1010953E+04  0.7818609E-02  0.9296613E-01
        1   -1    0    0  501    0  0.00000000000E+00  0.00000000000E+00  0.92425248911E+03  0.92425248913E+03  0.50400001928E-02 0.  1.
       -1   -1    0    0    0  501  0.00000000000E+00  0.00000000000E+00 -0.27644638978E+03  0.27644638983E+03  0.50400001928E-02 0. -1.
    10030    2    1    2    0    0  0.00000000000E+00  0.00000000000E+00  0.64780609933E+03  0.12006988790E+04  0.10109525486E+04 0.  0.
        4    1    3    3  502    0  0.48556226295E+03  0.90478744430E+02  0.19627444907E+03  0.53149072114E+03  0.12699999809E+01 0. -1.
       -4    1    3    3    0  502 -0.48556226295E+03 -0.90478744430E+02  0.45153165026E+03  0.66920815781E+03  0.12699999809E+01 0.  1.
</event>
<event>
 5   0  0.2313036E-03  0.1003693E+04  0.7818609E-02  0.9304504E-01
       -1   -1    0    0    0  501  0.00000000000E+00  0.00000000000E+00  0.30172917903E+03  0.30172917907E+03  0.50400001928E-02 0. -1.
        1   -1    0    0  501    0  0.00000000000E+00  0.00000000000E+00 -0.83468789532E+03  0.83468789533E+03  0.50400001928E-02 0.  1.
    10030    2    1    2    0    0  0.00000000000E+00  0.00000000000E+00 -0.53295871629E+03  0.11364170744E+04  0.10036925693E+04 0.  0.
        3    1    3    3  502    0  0.40383521426E+03 -0.29727071928E+03 -0.24392191586E+03  0.55762951146E+03  0.10100000352E+00 0.  1.
       -3    1    3    3    0  502 -0.40383521426E+03  0.29727071928E+03 -0.28903680043E+03  0.57878756294E+03  0.10100000352E+00 0. -1.
</event>
<event>
 5   0  0.2327595E-03  0.9946927E+03  0.7818609E-02  0.9314385E-01
        1   -1    0    0  501    0  0.00000000000E+00  0.00000000000E+00  0.35880767623E+03  0.35880767626E+03  0.50400001928E-02 0.  1.
       -1   -1    0    0    0  501  0.00000000000E+00  0.00000000000E+00 -0.68937602244E+03  0.68937602246E+03  0.50400001928E-02 0. -1.
    10030    2    1    2    0    0  0.00000000000E+00  0.00000000000E+00 -0.33056834621E+03  0.10481836987E+04  0.99469273384E+03 0.  0.
        5    1    3    3  502    0  0.37739654321E+03  0.30497081480E+03 -0.50350209078E+02  0.48784483421E+03  0.46999998093E+01 0. -1.
       -5    1    3    3    0  502 -0.37739654321E+03 -0.30497081480E+03 -0.28021813713E+03  0.56033886451E+03  0.46999998093E+01 0.  1.
</event>
<event>
 5   0  0.3895011E-03  0.9982542E+03  0.7818609E-02  0.9310462E-01
       -2   -1    0    0    0  501  0.00000000000E+00  0.00000000000E+00  0.51915573732E+03  0.51915573733E+03  0.25500000920E-02 0.  1.
        2   -1    0    0  501    0  0.00000000000E+00  0.00000000000E+00 -0.47987112070E+03  0.47987112071E+03  0.25500000920E-02 0. -1.
    10030    2    1    2    0    0  0.00000000000E+00  0.00000000000E+00  0.39284616622E+02  0.99902685803E+03  0.99825416702E+03 0.  0.
        2    1    3    3  502    0  0.57841107925E+02 -0.46787683013E+03 -0.14441604149E+03  0.49306218166E+03  0.25500000920E-02 0. -1.
       -2    1    3    3    0  502 -0.57841107925E+02  0.46787683013E+03  0.18370065811E+03  0.50596467637E+03  0.25500000920E-02 0.  1.
</event>
<event>
 5   0  0.3895011E-03  0.9922400E+03  0.7818609E-02  0.9317097E-01
       -2   -1    0    0    0  501  0.00000000000E+00  0.00000000000E+00  0.90591674513E+03  0.90591674513E+03  0.25500000920E-02 0. -1.
        2   -1    0    0  501    0  0.00000000000E+00  0.00000000000E+00 -0.27169720126E+03  0.27169720127E+03  0.25500000920E-02 0.  1.
    10030    2    1    2    0    0  0.00000000000E+00  0.00000000000E+00  0.63421954387E+03  0.11776139464E+04  0.99223997951E+03 0.  0.
        2    1    3    3  502    0  0.22880151506E+03  0.25078229716E+03  0.74649260672E+03  0.82005676984E+03  0.25500000920E-02 0. -1.
       -2    1    3    3    0  502 -0.22880151506E+03 -0.25078229716E+03 -0.11227306285E+03  0.35755717656E+03  0.25500000920E-02 0.  1.
</event>
<event>
 5   0  0.2405022E-03  0.1002836E+04  0.7818609E-02  0.9305440E-01
       -1   -1    0    0    0  501  0.00000000000E+00  0.00000000000E+00  0.29698898323E+03  0.29698898327E+03  0.50400001928E-02 0.  1.
        1   -1    0    0  501    0  0.00000000000E+00  0.00000000000E+00 -0.84656343052E+03  0.84656343054E+03  0.50400001928E-02 0. -1.
    10030    2    1    2    0    0  0.00000000000E+00  0.00000000000E+00 -0.54957444729E+03  0.11435524138E+04  0.10028360035E+04 0.  0.
        4    1    3    3  502    0 -0.20402862165E+03 -0.28078860546E+03  0.13785758771E+03  0.37346518820E+03  0.12699999809E+01 0.  1.
       -4    1    3    3    0  502  0.20402862165E+03  0.28078860546E+03 -0.68743203500E+03  0.77008722561E+03  0.12699999809E+01 0. -1.
</event>
<event>
 5   0  0.2378609E-03  0.9999626E+03  0.7818609E-02  0.9308586E-01
       -1   -1    0    0    0  501  0.00000000000E+00  0.00000000000E+00  0.17574655317E+03  0.17574655324E+03  0.50400001928E-02 0.  1.
        1   -1    0    0  501    0  0.00000000000E+00  0.00000000000E+00 -0.14223966152E+04  0.14223966152E+04  0.50400001928E-02 0. -1.
    10030    2    1    2    0    0  0.00000000000E+00  0.00000000000E+00 -0.12466500620E+04  0.15981431685E+04  0.99996260416E+03 0.  0.
        1    1    3    3  502    0  0.15504001195E+03 -0.10037538845E+03 -0.13658768054E+04  0.13783076839E+04  0.50400001928E-02 0. -1.
       -1    1    3    3    0  502 -0.15504001195E+03  0.10037538845E+03  0.11922674337E+03  0.21983548456E+03  0.50400001928E-02 0.  1.
</event>
<event>
 5   0  0.2378609E-03  0.9887463E+03  0.7818609E-02  0.9320974E-01
        1   -1    0    0  501    0  0.00000000000E+00  0.00000000000E+00  0.40464322825E+03  0.40464322828E+03  0.50400001928E-02 0.  1.
       -1   -1    0    0    0  501  0.00000000000E+00  0.00000000000E+00 -0.60400079704E+03  0.60400079706E+03  0.50400001928E-02 0. -1.
    10030    2    1    2    0    0  0.00000000000E+00  0.00000000000E+00 -0.19935756879E+03  0.10086440253E+04  0.98874634241E+03 0.  0.
        1    1    3    3  502    0  0.40753299330E+03  0.19482235246E+03  0.10527718902E+03  0.46381265204E+03  0.50400001928E-02 0.  1.
       -1    1    3    3    0  502 -0.40753299330E+03 -0.19482235246E+03 -0.30463475781E+03  0.54483137330E+03  0.50400001928E-02 0. -1.
</event>
<event>
 5   0  0.1548000E-03  0.1008353E+04  0.7818609E-02  0.9299431E-01
       -3   -1    0    0    0  501  0.00000000000E+00  0.00000000000E+00  0.59344674670E+03  0.59344675529E+03  0.10100000352E+00 0.  1.
        3   -1    0    0  501    0  0.00000000000E+00  0.00000000000E+00 -0.42833448477E+03  0.42833449668E+03  0.10100000352E+00 0. -1.
    10030    2    1    2    0    0  0.00000000000E+00  0.00000000000E+00  0.16511226193E+03  0.10217812520E+04  0.10083525514E+04 0.  0.
        1    1    3    3  502    0 -0.39034023964E+03 -0.10364730450E+03 -0.22326679119E+03  0.46147191300E+03  0.50400001928E-02 0. -1.
       -1    1    3    3    0  502  0.39034023964E+03  0.10364730450E+03  0.38837905312E+03  0.56030933897E+03  0.50400001928E-02 0.  1.
</event>
<event>
 5   0  0.2327595E-03  0.1021252E+04  0.7818609E-02  0.9285538E-01
       -1   -1    0    0    0  501  0.00000000000E+00  0.00000000000E+00  0.25049580393E+03  0.25049580398E+03  0.50400001928E-02 0. -1.
        1   -1    0    0  501    0  0.00000000000E+00  0.00000000000E+00 -0.10408921986E+04  0.10408921986E+04  0.50400001928E-02 0.  1.
    10030    2    1    2    0    0  0.00000000000E+00  0.00000000000E+00 -0.79039639464E+03  0.12913880026E+04  0.10212524235E+04 0.  0.
        5    1    3    3  502    0 -0.19254674838E+03 -0.44235322146E+03 -0.60666492668E+03  0.77512260069E+03  0.46999998093E+01 0.  1.
       -5    1    3    3    0  502  0.19254674838E+03  0.44235322146E+03 -0.18373146796E+03  0.51626540186E+03  0.46999998093E+01 0. -1.
</event>
<event>
 5   0  0.3826483E-03  0.9997996E+03  0.7818609E-02  0.9308765E-01
       -2   -1    0    0    0  501  0.00000000000E+00  0.00000000000E+00  0.63534936857E+03  0.63534936858E+03  0.25500000920E-02 0. -1.
        2   -1    0    0  501    0  0.00000000000E+00  0.00000000000E+00 -0.39332662834E+03  0.39332662835E+03  0.25500000920E-02 0.  1.
    10030    2    1    2    0    0  0.00000000000E+00  0.00000000000E+00  0.24202274023E+03  0.10286759969E+04  0.99979962986E+03 0.  0.
        4    1    3    3  502    0 -0.10383154075E+03 -0.18526104708E+03  0.58662524244E+03  0.62388575267E+03  0.12699999809E+01 0. -1.
       -4    1    3    3    0  502  0.10383154075E+03  0.18526104708E+03 -0.34460250221E+03  0.40479024426E+03  0.12699999809E+01 0.  1.
</event>
<event>
 5   0  0.4140860E-03  0.1002325E+04  0.7818609E-02  0.9305999E-01
       -2   -1    0    0    0  501  0.00000000000E+00  0.00000000000E+00  0.34170603679E+03  0.34170603680E+03  0.25500000920E-02 0. -1.
        2   -1    0    0  501    0  0.00000000000E+00  0.00000000000E+00 -0.73502871310E+03  0.73502871310E+03  0.25500000920E-02 0.  1.
    10030    2    1    2    0    0  0.00000000000E+00  0.00000000000E+00 -0.39332267631E+03  0.10767347499E+04  0.10023247946E+04 0.  0.
        3    1    3    3  502    0 -0.12560584192E+03 -0.18993003512E+03  0.28292699038E+03  0.36317755692E+03  0.10100000352E+00 0. -1.
       -3    1    3    3    0  502  0.12560584192E+03  0.18993003512E+03 -0.67624966669E+03  0.71355719299E+03  0.10100000352E+00 0.  1.
</event>
<event>
 5   0  0.4026829E-03  0.9967440E+03  0.7818609E-02  0.9312123E-01
       -2   -1    0    0    0  501  0.00000000000E+00  0.00000000000E+00  0.13586525456E+03  0.13586525459E+03  0.25500000920E-02 0.  1.
        2   -1    0    0  501    0  0.00000000000E+00  0.00000000000E+00 -0.18280955983E+04  0.18280955983E+04  0.25500000920E-02 0. -1.
    10030    2    1    2    0    0  0.00000000000E+00  0.00000000000E+00 -0.16922303437E+04  0.19639608529E+04  0.99674404708E+03 0.  0.
        1    1    3    3  502    0  0.16451373708E+03  0.45429764572E+03 -0.10868202739E+04  0.11893819522E+04  0.50400001928E-02 0. -1.
       -1    1    3    3    0  502 -0.16451373708E+03 -0.45429764572E+03 -0.60541006986E+03  0.77457890064E+03  0.50400001928E-02 0.  1.
</event>
<event>
 5   0  0.4140860E-03  0.1003335E+04  0.7818609E-02  0.9304895E-01
        2   -1    0    0  501    0  0.00000000000E+00  0.00000000000E+00  0.36333077101E+03  0.36333077102E+03  0.25500000920E-02 0.  1.
       -2   -1    0    0    0  501  0.00000000000E+00  0.00000000000E+00 -0.69267526389E+03  0.69267526389E+03  0.25500000920E-02 0. -1.
    10030    2    1    2    0    0  0.00000000000E+00  0.00000000000E+00 -0.32934449287E+03  0.10560060349E+04  0.10033349146E+04 0.  0.
        3    1    3    3  502    0 -0.37787013052E+03  0.31769777661E+03 -0.25853055317E+03  0.55727530891E+03  0.10100000352E+00 0.  1.
       -3    1    3    3    0  502  0.37787013052E+03 -0.31769777661E+03 -0.70813939710E+02  0.49873072600E+03  0.10100000352E+00 0. -1.
</event>
<event>
 5   0  0.3873874E-03  0.9942761E+03  0.7818609E-02  0.9314845E-01
        2   -1    0    0  501    0  0.00000000000E+00  0.00000000000E+00  0.30464228334E+03  0.30464228335E+03  0.25500000920E-02 0.  1.
       -2   -1    0    0    0  501  0.00000000000E+00  0.00000000000E+00 -0.81126698511E+03  0.81126698511E+03  0.25500000920E-02 0. -1.
    10030    2    1    2    0    0  0.00000000000E+00  0.00000000000E+00 -0.50662470177E+03  0.11159092685E+04  0.99427607182E+03 0.  0.
        5    1    3    3  502    0 -0.32732189583E+03  0.26887698386E+03  0.38687836398E+02  0.42538605363E+03  0.46999998093E+01 0.  1.
       -5    1    3    3    0  502  0.32732189583E+03 -0.26887698386E+03 -0.54531253817E+03  0.69052321483E+03  0.46999998093E+01 0. -1.
</event>
<event>
 5   0  0.1548000E-03  0.9910167E+03  0.7818609E-02  0.9318453E-01
       -4   -1    0    0    0  501  0.00000000000E+00  0.00000000000E+00  0.38903257177E+03  0.38903464473E+03  0.12699999809E+01 0. -1.
        4   -1    0    0  501    0  0.00000000000E+00  0.00000000000E+00 -0.63112143092E+03  0.63112270872E+03  0.12699999809E+01 0.  1.
    10030    2    1    2    0    0  0.00000000000E+00  0.00000000000E+00 -0.24208885915E+03  0.10201573534E+04  0.99101665479E+03 0.  0.
        2    1    3    3  502    0 -0.45374670040E+03 -0.56166542831E+02 -0.31767895572E+03  0.55674111360E+03  0.25500000920E-02 0.  1.
       -2    1    3    3    0  502  0.45374670040E+03  0.56166542831E+02  0.75590096569E+02  0.46341623985E+03  0.25500000920E-02 0. -1.
</event>
<event>
 5   0  0.2378609E-03  0.1002055E+04  0.7818609E-02  0.9306294E-01
       -1   -1    0    0    0  501  0.00000000000E+00  0.00000000000E+00  0.44721492896E+03  0.44721492899E+03  0.50400001928E-02 0. -1.
        1   -1    0    0  501    0  0.00000000000E+00  0.00000000000E+00 -0.56131501752E+03  0.56131501755E+03  0.50400001928E-02 0.  1.
    10030    2    1    2    0    0  0.00000000000E+00  0.00000000000E+00 -0.11410008857E+03  0.10085299465E+04  0.10020548003E+04 0.  0.
        1    1    3    3  502    0  0.24113277494E+03 -0.11730887107E+03 -0.48301304167E+03  0.55245631939E+03  0.50400001928E-02 0.  1.
       -1    1    3    3    0  502 -0.24113277494E+03  0.11730887107E+03  0.36891295311E+03  0.45607362714E+03  0.50400001928E-02 0. -1.
</event>
<event>
 5   0  0.3826483E-03  0.1001376E+04  0.7818609E-02  0.9307036E-01
       -2   -1    0    0    0  501  0.00000000000E+00  0.00000000000E+00  0.34165775622E+03  0.34165775623E+03  0.25500000920E-02 0.  1.
        2   -1    0    0  501    0  0.00000000000E+00  0.00000000000E+00 -0.73374215897E+03  0.73374215897E+03  0.25500000920E-02 0. -1.
    10030    2    1    2    0    0  0.00000000000E+00  0.00000000000E+00 -0.39208440275E+03  0.10753999152E+04  0.10013764521E+04 0.  0.
        4    1    3    3  502    0  0.20894422387E+03 -0.43842989424E+03 -0.32672848409E+03  0.58534739776E+03  0.12699999809E+01 0. -1.
       -4    1    3    3    0  502 -0.20894422387E+03  0.43842989424E+03 -0.65355918662E+02  0.49005251744E+03  0.12699999809E+01 0.  1.
</event>
<event>
 5   0  0.2313036E-03  0.9469265E+03  0.7818609E-02  0.9368750E-01
        1   -1    0    0  501    0  0.00000000000E+00  0.00000000000E+00  0.64822128784E+03  0.64822128786E+03  0.50400001928E-02 0. -1.
       -1   -1    0    0    0  501  0.00000000000E+00  0.00000000000E+00 -0.34581936277E+03  0.34581936281E+03  0.50400001928E-02 0.  1.
    10030    2    1    2    0    0  0.00000000000E+00  0.00000000000E+00  0.30240192506E+03  0.99404065067E+03  0.94692654989E+03 0.  0.
        3    1    3    3  502    0  0.24576713407E+02 -0.85281218240E+02  0.63941092287E+03  0.64554104402E+03  0.10100000352E+00 0. -1.
       -3    1    3    3    0  502 -0.24576713407E+02  0.85281218240E+02 -0.33700899781E+03  0.34849960664E+03  0.10100000352E+00 0.  1.
</event>
<event>
 5   0  0.2350769E-03  0.1003514E+04  0.7818609E-02  0.9304700E-01
        1   -1    0    0  501    0  0.00000000000E+00  0.00000000000E+00  0.38212412005E+03  0.38212412008E+03  0.50400001928E-02 0.  1.
       -1   -1    0    0    0  501  0.00000000000E+00  0.00000000000E+00 -0.65884324450E+03  0.65884324452E+03  0.50400001928E-02 0. -1.
    10030    2    1    2    0    0  0.00000000000E+00  0.00000000000E+00 -0.27671912445E+03  0.10409673646E+04  0.10035136174E+04 0.  0.
        2    1    3    3  502    0 -0.45083951125E+03 -0.19077169981E+03 -0.25251119482E+03  0.55082847590E+03  0.25500000920E-02 0. -1.
       -2    1    3    3    0  502  0.45083951125E+03  0.19077169981E+03 -0.24207929630E+02  0.49013888870E+03  0.25500000920E-02 0.  1.
</event>
<event>
 5   0  0.2405022E-03  0.1006335E+04  0.7818609E-02  0.9301624E-01
       -1   -1    0    0    0  501  0.00000000000E+00  0.00000000000E+00  0.13612124151E+03  0.13612124161E+03  0.50400001928E-02 0. -1.
        1   -1    0    0  501    0  0.00000000000E+00  0.00000000000E+00 -0.18599398622E+04  0.18599398622E+04  0.50400001928E-02 0.  1.
    10030    2    1    2    0    0  0.00000000000E+00  0.00000000000E+00 -0.17238186207E+04  0.19960611038E+04  0.10063345831E+04 0.  0.
        4    1    3    3  502    0 -0.31965814559E+03 -0.72338977903E+02 -0.16191828429E+04  0.16520196577E+04  0.12699999809E+01 0.  1.
       -4    1    3    3    0  502  0.31965814559E+03  0.72338977903E+02 -0.10463577780E+03  0.34404144614E+03  0.12699999809E+01 0. -1.
</event>
<event>
 5   0  0.3826483E-03  0.1011085E+04  0.7818609E-02  0.9296470E-01
       -2   -1    0    0    0  501  0.00000000000E+00  0.00000000000E+00  0.20659027070E+03  0.20659027072E+03  0.25500000920E-02 0. -1.
        2   -1    0    0  501    0  0.00000000000E+00  0.00000000000E+00 -0.12371024553E+04  0.12371024553E+04  0.25500000920E-02 0.  1.
    10030    2    1    2    0    0  0.00000000000E+00  0.00000000000E+00 -0.10305121846E+04  0.14436927260E+04  0.10110852212E+04 0.  0.
        4    1    3    3  502    0 -0.12883981140E+03  0.15232046887E+03 -0.11785149151E+04  0.11952824939E+04  0.12699999809E+01 0.  1.
       -4    1    3    3    0  502  0.12883981140E+03 -0.15232046887E+03  0.14800273056E+03  0.24841023206E+03  0.12699999809E+01 0. -1.
</event>
<event>
 5   0  0.2327595E-03  0.1054935E+04  0.7818609E-02  0.9250264E-01
        1   -1    0    0  501    0  0.00000000000E+00  0.00000000000E+00  0.19304973287E+04  0.19304973287E+04  0.50400001928E-02 0.  1.
       -1   -1    0    0    0  501  0.00000000000E+00  0.00000000000E+00 -0.14411923063E+03  0.14411923072E+03  0.50400001928E-02 0. -1.
    10030    2    1    2    0    0  0.00000000000E+00  0.00000000000E+00  0.17863780980E+04  0.20746165594E+04  0.10549346707E+04 0.  0.
        5    1    3    3  502    0  0.13302894286E+03  0.27984285752E+03  0.53776022309E+02  0.31451975315E+03  0.46999998093E+01 0. -1.
       -5    1    3    3    0  502 -0.13302894286E+03 -0.27984285752E+03  0.17326020757E+04  0.17600968063E+04  0.46999998093E+01 0.  1.
</event>
<event>
 5   0  0.2327595E-03  0.9996305E+03  0.7818609E-02  0.9308950E-01
       -1   -1    0    0    0  501  0.00000000000E+00  0.00000000000E+00  0.55375003178E+03  0.55375003181E+03  0.50400001928E-02 0.  1.
        1   -1    0    0  501    0  0.00000000000E+00  0.00000000000E+00 -0.45113370968E+03  0.45113370971E+03  0.50400001928E-02 0. -1.
    10030    2    1    2    0    0  0.00000000000E+00  0.00000000000E+00  0.10261632210E+03  0.10048837415E+04  0.99963054395E+03 0.  0.
        5    1    3    3  502    0 -0.38191565403E+03  0.26784831948E+03  0.23166933109E+03  0.52085992168E+03  0.46999998093E+01 0.  1.
       -5    1    3    3    0  502  0.38191565403E+03 -0.26784831948E+03 -0.12905300899E+03  0.48402381984E+03  0.46999998093E+01 0. -1.
</event>
<event>
 5   0  0.2327595E-03  0.1001266E+04  0.7818609E-02  0.9307157E-01
        1   -1    0    0  501    0  0.00000000000E+00  0.00000000000E+00  0.63854466170E+03  0.63854466172E+03  0.50400001928E-02 0. -1.
       -1   -1    0    0    0  501  0.00000000000E+00  0.00000000000E+00 -0.39250743419E+03  0.39250743422E+03  0.50400001928E-02 0.  1.
    10030    2    1    2    0    0  0.00000000000E+00  0.00000000000E+00  0.24603722751E+03  0.10310520959E+04  0.10012662519E+04 0.  0.
        5    1    3    3  502    0 -0.20443425913E+03  0.38311086532E+03 -0.13347786033E+03  0.45431897454E+03  0.46999998093E+01 0.  1.
       -5    1    3    3    0  502  0.20443425913E+03 -0.38311086532E+03  0.37951508784E+03  0.57673312141E+03  0.46999998093E+01 0. -1.
</event>
<event>
 5   0  0.3873874E-03  0.9989435E+03  0.7818609E-02  0.9309704E-01
       -2   -1    0    0    0  501  0.00000000000E+00  0.00000000000E+00  0.56817208965E+03  0.56817208965E+03  0.25500000920E-02 0. -1.
        2   -1    0    0  501    0  0.00000000000E+00  0.00000000000E+00 -0.43907831109E+03  0.43907831110E+03  0.25500000920E-02 0.  1.
    10030    2    1    2    0    0  0.00000000000E+00  0.00000000000E+00  0.12909377855E+03  0.10072504008E+04  0.99894352501E+03 0.  0.
        5    1    3    3  502    0 -0.26672273438E+03 -0.32824016783E+03  0.33240101826E+03  0.53795460008E+03  0.46999998093E+01 0. -1.
       -5    1    3    3    0  502  0.26672273438E+03  0.32824016783E+03 -0.20330723971E+03  0.46929580067E+03  0.46999998093E+01 0.  1.
</event>
<event>
 5   0  0.4026829E-03  0.9997955E+03  0.7818609E-02  0.9308769E-01
        2   -1    0    0  501    0  0.00000000000E+00  0.00000000000E+00  0.10520344305E+04  0.10520344305E+04  0.25500000920E-02 0. -1.
       -2   -1    0    0    0  501  0.00000000000E+00  0.00000000000E+00 -0.23753763400E+03  0.23753763401E+03  0.25500000920E-02 0.  1.
    10030    2    1    2    0    0  0.00000000000E+00  0.00000000000E+00  0.81449679652E+03  0.12895720645E+04  0.99979551813E+03 0.  0.
        1    1    3    3  502    0 -0.41227146685E+03 -0.27209378952E+03  0.30821641380E+03  0.58223719431E+03  0.50400001928E-02 0.  1.
       -1    1    3    3    0  502  0.41227146685E+03  0.27209378952E+03  0.50628038272E+03  0.70733487022E+03  0.50400001928E-02 0. -1.
</event>
<event>
 5   0  0.2350769E-03  0.9961592E+03  0.7818609E-02  0.9312767E-01
        1   -1    0    0  501    0  0.00000000000E+00  0.00000000000E+00  0.74730997227E+03  0.74730997229E+03  0.50400001928E-02 0. -1.
       -1   -1    0    0    0  501  0.00000000000E+00  0.00000000000E+00 -0.33196839187E+03  0.33196839191E+03  0.50400001928E-02 0.  1.
    10030    2    1    2    0    0  0.00000000000E+00  0.00000000000E+00  0.41534158040E+03  0.10792783642E+04  0.99615920365E+03 0.  0.
        2    1    3    3  502    0 -0.38888416051E+03  0.18097162287E+03 -0.66637791857E+02  0.43407627658E+03  0.25500000920E-02 0.  1.
       -2    1    3    3    0  502  0.38888416051E+03 -0.18097162287E+03  0.48197937226E+03  0.64520208762E+03  0.25500000920E-02 0. -1.
</event>
<event>
 5   0  0.3873874E-03  0.9975173E+03  0.7818609E-02  0.9311272E-01
       -2   -1    0    0    0  501  0.00000000000E+00  0.00000000000E+00  0.32449348164E+03  0.32449348165E+03  0.25500000920E-02 0. -1.
        2   -1    0    0  501    0  0.00000000000E+00  0.00000000000E+00 -0.76661069944E+03  0.76661069945E+03  0.25500000920E-02 0.  1.
    10030    2    1    2    0    0  0.00000000000E+00  0.00000000000E+00 -0.44211721780E+03  0.10911041811E+04  0.99751726789E+03 0.  0.
        5    1    3    3  502    0 -0.29756392895E+02  0.28169118355E+03 -0.67006162084E+03  0.72748885320E+03  0.46999998093E+01 0.  1.
       -5    1    3    3    0  502  0.29756392895E+02 -0.28169118355E+03  0.22794440304E+03  0.36361532790E+03  0.46999998093E+01 0. -1.
</event>
<event>
 5   0  0.4026829E-03  0.9982989E+03  0.7818609E-02  0.9310413E-01
        2   -1    0    0  501    0  0.00000000000E+00  0.00000000000E+00  0.99842719966E+03  0.99842719966E+03  0.25500000920E-02 0.  1.
       -2   -1    0    0    0  501  0.00000000000E+00  0.00000000000E+00 -0.24954264505E+03  0.24954264506E+03  0.25500000920E-02 0. -1.
    10030    2    1    2    0    0  0.00000000000E+00  0.00000000000E+00  0.74888455461E+03  0.12479698447E+04  0.99829888170E+03 0.  0.
        1    1    3    3  502    0 -0.29717150661E+03 -0.70354003045E+02  0.86801601352E+03  0.92016976142E+03  0.50400001928E-02 0.  1.
       -1    1    3    3    0  502  0.29717150661E+03  0.70354003045E+02 -0.11913145890E+03  0.32780008330E+03  0.50400001928E-02 0. -1.
</event>
<event>
 5   0  0.1548000E-03  0.9911562E+03  0.7818609E-02  0.9318298E-01
       -3   -1    0    0    0  501  0.00000000000E+00  0.00000000000E+00  0.10944914291E+04  0.10944914338E+04  0.10100000352E+00 0. -1.
        3   -1    0    0  501    0  0.00000000000E+00  0.00000000000E+00 -0.22439430447E+03  0.22439432720E+03  0.10100000352E+00 0.  1.
    10030    2    1    2    0    0  0.00000000000E+00  0.00000000000E+00  0.87009712463E+03  0.13188857610E+04  0.99115621582E+03 0.  0.
        4    1    3    3  502    0 -0.34458621493E+03 -0.94096255122E+02 -0.22050442975E+02  0.35788489725E+03  0.12699999809E+01 0.  1.
       -4    1    3    3    0  502  0.34458621493E+03  0.94096255122E+02  0.89214756761E+03  0.96100086370E+03  0.12699999809E+01 0. -1.
</event>
<event>
 5   0  0.4026829E-03  0.1011737E+04  0.7818609E-02  0.9295765E-01
       -2   -1    0    0    0  501  0.00000000000E+00  0.00000000000E+00  0.18975549621E+03  0.18975549623E+03  0.25500000920E-02 0. -1.
        2   -1    0    0  501    0  0.00000000000E+00  0.00000000000E+00 -0.13485925050E+04  0.13485925050E+04  0.25500000920E-02 0.  1.
    10030    2    1    2    0    0  0.00000000000E+00  0.00000000000E+00 -0.11588370088E+04  0.15383480012E+04  0.10117368037E+04 0.  0.
        1    1    3    3  502    0  0.16104615763E+03  0.42409591092E+03 -0.23905134053E+03  0.51277553567E+03  0.50400001928E-02 0. -1.
       -1    1    3    3    0  502 -0.16104615763E+03 -0.42409591092E+03 -0.91978566828E+03  0.10255724656E+04  0.50400001928E-02 0.  1.
</event>
<event>
 5   0  0.4140860E-03  0.1005511E+04  0.7818609E-02  0.9302521E-01
       -2   -1    0    0    0  501  0.00000000000E+00  0.00000000000E+00  0.35500410539E+03  0.35500410540E+03  0.25500000920E-02 0.  1.
        2   -1    0    0  501    0  0.00000000000E+00  0.00000000000E+00 -0.71200070670E+03  0.71200070670E+03  0.25500000920E-02 0. -1.
    10030    2    1    2    0    0  0.00000000000E+00  0.00000000000E+00 -0.35699660131E+03  0.10670048121E+04  0.10055111614E+04 0.  0.
        3    1    3    3  502    0  0.86659111868E+02 -0.21009103671E+03  0.29738650849E+03  0.37428170007E+03  0.10100000352E+00 0.  1.
       -3    1    3    3    0  502 -0.86659111868E+02  0.21009103671E+03 -0.65438310979E+03  0.69272311204E+03  0.10100000352E+00 0. -1.
</event>
<event>
 5   0  0.2405022E-03  0.1016984E+04  0.7818609E-02  0.9290111E-01
       -1   -1    0    0    0  501  0.00000000000E+00  0.00000000000E+00  0.56074221830E+03  0.56074221833E+03  0.50400001928E-02 0. -1.
        1   -1    0    0  501    0  0.00000000000E+00  0.00000000000E+00 -0.46111064679E+03  0.46111064681E+03  0.50400001928E-02 0.  1.
    10030    2    1    2    0    0  0.00000000000E+00  0.00000000000E+00  0.99631571517E+02  0.10218528651E+04  0.10169841827E+04 0.  0.
        4    1    3    3  502    0  0.10417416175E+03  0.46549809449E+03  0.22678922885E+03  0.52818150211E+03  0.12699999809E+01 0. -1.
       -4    1    3    3    0  502 -0.10417416175E+03 -0.46549809449E+03 -0.12715765733E+03  0.49367136303E+03  0.12699999809E+01 0.  1.
</event>
<event>
 5   0  0.2405022E-03  0.1003179E+04  0.7818609E-02  0.9305066E-01
       -1   -1    0    0    0  501  0.00000000000E+00  0.00000000000E+00  0.11454031484E+04  0.11454031484E+04  0.50400001928E-02 0.  1.
        1   -1    0    0  501    0  0.00000000000E+00  0.00000000000E+00 -0.21965347533E+03  0.21965347538E+03  0.50400001928E-02 0. -1.
    10030    2    1    2    0    0  0.00000000000E+00  0.00000000000E+00  0.92574967303E+03  0.13650566237E+04  0.10031785130E+04 0.  0.
        4    1    3    3  502    0 -0.16862982941E+03 -0.44945873608E+02 -0.17700765060E+03  0.24857488246E+03  0.12699999809E+01 0. -1.
       -4    1    3    3    0  502  0.16862982941E+03  0.44945873608E+02  0.11027573236E+04  0.11164817413E+04  0.12699999809E+01 0.  1.
</event>
<event>
 5   0  0.2378609E-03  0.1006050E+04  0.7818609E-02  0.9301934E-01
        1   -1    0    0  501    0  0.00000000000E+00  0.00000000000E+00  0.92030330327E+03  0.92030330329E+03  0.50400001928E-02 0.  1.
       -1   -1    0    0    0  501  0.00000000000E+00  0.00000000000E+00 -0.27494667012E+03  0.27494667017E+03  0.50400001928E-02 0. -1.
    10030    2    1    2    0    0  0.00000000000E+00  0.00000000000E+00  0.64535663316E+03  0.11952499735E+04  0.10060503541E+04 0.  0.
        1    1    3    3  502    0  0.32166401065E+03  0.20838744196E+03  0.70974087085E+03  0.80661339283E+03  0.50400001928E-02 0.  1.
       -1    1    3    3    0  502 -0.32166401065E+03 -0.20838744196E+03 -0.64384237691E+02  0.38863658063E+03  0.50400001928E-02 0. -1.
</event>
<event>
 5   0  0.3873874E-03  0.9911022E+03  0.7818609E-02  0.9318358E-01
       -2   -1    0    0    0  501  0.00000000000E+00  0.00000000000E+00  0.70097846150E+03  0.70097846151E+03  0.25500000920E-02 0. -1.
        2   -1    0    0  501    0  0.00000000000E+00  0.00000000000E+00 -0.35032586646E+03  0.35032586647E+03  0.25500000920E-02 0.  1.
    10030    2    1    2    0    0  0.00000000000E+00  0.00000000000E+00  0.35065259505E+03  0.10513043280E+04  0.99110218828E+03 0.  0.
        5    1    3    3  502    0  0.28963239296E+03  0.17391557719E+03  0.55985865741E+03  0.65390928829E+03  0.46999998093E+01 0. -1.
       -5    1    3    3    0  502 -0.28963239296E+03 -0.17391557719E+03 -0.20920606237E+03  0.39739503968E+03  0.46999998093E+01 0.  1.
</event>
<event>
 5   0  0.2378609E-03  0.1001337E+04  0.7818609E-02  0.9307080E-01
       -1   -1    0    0    0  501  0.00000000000E+00  0.00000000000E+00  0.20736002746E+03  0.20736002752E+03  0.50400001928E-02 0. -1.
        1   -1    0    0  501    0  0.00000000000E+00  0.00000000000E+00 -0.12088579521E+04  0.12088579521E+04  0.50400001928E-02 0.  1.
    10030    2    1    2    0    0  0.00000000000E+00  0.00000000000E+00 -0.10014979246E+04  0.14162179796E+04  0.10013367429E+04 0.  0.
        1    1    3    3  502    0 -0.20104992941E+03  0.57254207635E+02  0.14268404527E+03  0.25309653338E+03  0.50400001928E-02 0. -1.
       -1    1    3    3    0  502  0.20104992941E+03 -0.57254207635E+02 -0.11441819699E+04  0.11631214462E+04  0.50400001928E-02 0.  1.
</event>
<event>
 5   0  0.1548000E-03  0.1002357E+04  0.7818609E-02  0.9305964E-01
        3   -1    0    0  501    0  0.00000000000E+00  0.00000000000E+00  0.11588216109E+04  0.11588216153E+04  0.10100000352E+00 0. -1.
       -3   -1    0    0    0  501  0.00000000000E+00  0.00000000000E+00 -0.21675449508E+03  0.21675451861E+03  0.10100000352E+00 0.  1.
    10030    2    1    2    0    0  0.00000000000E+00  0.00000000000E+00  0.94206711580E+03  0.13755761339E+04  0.10023568474E+04 0.  0.
        1    1    3    3  502    0  0.28131155103E+03 -0.22058369732E+03 -0.11020802950E+02  0.35765180607E+03  0.50400001928E-02 0.  1.
       -1    1    3    3    0  502 -0.28131155103E+03  0.22058369732E+03  0.95308791875E+03  0.10179243278E+04  0.50400001928E-02 0. -1.
</event>
<event>
 5   0  0.3873874E-03  0.9955921E+03  0.7818609E-02  0.9313393E-01
        2   -1    0    0  501    0  0.00000000000E+00  0.00000000000E+00  0.19834155687E+04  0.19834155687E+04  0.25500000920E-02 0.  1.
       -2   -1    0    0    0  501  0.00000000000E+00  0.00000000000E+00 -0.12493645200E+03  0.12493645203E+03  0.25500000920E-02 0. -1.
    10030    2    1    2    0    0  0.00000000000E+00  0.00000000000E+00  0.18584791167E+04  0.21083520208E+04  0.99559209325E+03 0.  0.
        5    1    3    3  502    0  0.29113431043E+03 -0.39296279853E+03  0.11256242067E+04  0.12272859864E+04  0.46999998093E+01 0.  1.
       -5    1    3    3    0  502 -0.29113431043E+03  0.39296279853E+03  0.73285491006E+03  0.88106603438E+03  0.46999998093E+01 0. -1.
</event>
<event>
 5   0  0.4026829E-03  0.1003743E+04  0.7818609E-02  0.9304449E-01
       -2   -1    0    0    0  501  0.00000000000E+00  0.00000000000E+00  0.32425738623E+03  0.32425738624E+03  0.25500000920E-02 0. -1.
        2   -1    0    0  501    0  0.00000000000E+00  0.00000000000E+00 -0.77677439854E+03  0.77677439855E+03  0.25500000920E-02 0.  1.
    10030    2    1    2    0    0  0.00000000000E+00  0.00000000000E+00 -0.45251701231E+03  0.11010317848E+04  0.10037426686E+04 0.  0.
        1    1    3    3  502    0  0.22213550351E+03 -0.50436995582E+02  0.26428563890E+03  0.34890539033E+03  0.50400001928E-02 0. -1.
       -1    1    3    3    0  502 -0.22213550351E+03  0.50436995582E+02 -0.71680265121E+03  0.75212639447E+03  0.50400001928E-02 0.  1.
</event>
<event>
 5   0  0.3826483E-03  0.1000775E+04  0.7818609E-02  0.9307695E-01
       -2   -1    0    0    0  501  0.00000000000E+00  0.00000000000E+00  0.13836503314E+03  0.13836503316E+03  0.25500000920E-02 0.  1.
        2   -1    0    0  501    0  0.00000000000E+00  0.00000000000E+00 -0.18096156301E+04  0.18096156301E+04  0.25500000920E-02 0. -1.
    10030    2    1    2    0    0  0.00000000000E+00  0.00000000000E+00 -0.16712505969E+04  0.19479806632E+04  0.10007747532E+04 0.  0.
        4    1    3    3  502    0 -0.35151061279E+02 -0.14206003806E+03 -0.17670267129E+04  0.17730768931E+04  0.12699999809E+01 0. -1.
       -4    1    3    3    0  502  0.35151061279E+02  0.14206003806E+03  0.95776116013E+02  0.17490377018E+03  0.12699999809E+01 0.  1.
</event>
<event>
 5   0  0.3873874E-03  0.9964164E+03  0.7818609E-02  0.9312484E-01
        2   -1    0    0  501    0  0.00000000000E+00  0.00000000000E+00  0.90661566341E+03  0.90661566342E+03  0.25500000920E-02 0. -1.
       -2   -1    0    0    0  501  0.00000000000E+00  0.00000000000E+00 -0.27377800130E+03  0.27377800132E+03  0.25500000920E-02 0.  1.
    10030    2    1    2    0    0  0.00000000000E+00  0.00000000000E+00  0.63283766211E+03  0.11803936647E+04  0.99641642758E+03 0.  0.
        5    1    3    3  502    0  0.33955760260E+03  0.19735263674E+03  0.67950998955E+03  0.78485880552E+03  0.46999998093E+01 0. -1.
       -5    1    3    3    0  502 -0.33955760260E+03 -0.19735263674E+03 -0.46672327434E+02  0.39553485922E+03  0.46999998093E+01 0.  1.
</event>
<event>
 5   0  0.2405022E-03  0.9956076E+03  0.7818609E-02  0.9313376E-01
        1   -1    0    0  501    0  0.00000000000E+00  0.00000000000E+00  0.55048443933E+03  0.55048443935E+03  0.50400001928E-02 0. -1.
       -1   -1    0    0    0  501  0.00000000000E+00  0.00000000000E+00 -0.45016458639E+03  0.45016458642E+03  0.50400001928E-02 0.  1.
    10030    2    1    2    0    0  0.00000000000E+00  0.00000000000E+00  0.10031985294E+03  0.10006490258E+04  0.99560755315E+03 0.  0.
        4    1    3    3  502    0  0.74676303581E+02 -0.27387353716E+03 -0.36084075074E+03  0.45911972836E+03  0.12699999809E+01 0.  1.
       -4    1    3    3    0  502 -0.74676303581E+02  0.27387353716E+03  0.46116060368E+03  0.54152929741E+03  0.12699999809E+01 0. -1.
</event>
<event>
 5   0  0.4026829E-03  0.9299600E+03  0.7818609E-02  0.9388886E-01
       -2   -1    0    0    0  501  0.00000000000E+00  0.00000000000E+00  0.85525042181E+03  0.85525042181E+03  0.25500000920E-02 0.  1.
        2   -1    0    0  501    0  0.00000000000E+00  0.00000000000E+00 -0.25279894943E+03  0.25279894944E+03  0.25500000920E-02 0. -1.
    10030    2    1    2    0    0  0.00000000000E+00  0.00000000000E+00  0.60245147238E+03  0.11080493713E+04  0.92996001665E+03 0.  0.
        1    1    3    3  502    0  0.98691268905E+02  0.82263884987E+02  0.83368070377E+03  0.84352286821E+03  0.50400001928E-02 0.  1.
       -1    1    3    3    0  502 -0.98691268905E+02 -0.82263884987E+02 -0.23122923140E+03  0.26452650304E+03  0.50400001928E-02 0. -1.
</event>
<event>
 5   0  0.2405022E-03  0.9996344E+03  0.7818609E-02  0.9308946E-01
        1   -1    0    0  501    0  0.00000000000E+00  0.00000000000E+00  0.43399755749E+03  0.43399755752E+03  0.50400001928E-02 0.  1.
       -1   -1    0    0    0  501  0.00000000000E+00  0.00000000000E+00 -0.57561894797E+03  0.57561894800E+03  0.50400001928E-02 0. -1.
    10030    2    1    2    0    0  0.00000000000E+00  0.00000000000E+00 -0.14162139048E+03  0.10096165055E+04  0.99963436814E+03 0.  0.
        4    1    3    3  502    0 -0.88331024579E+02  0.35887609778E+03  0.26903291089E+03  0.45713755425E+03  0.12699999809E+01 0.  1.
       -4    1    3    3    0  502  0.88331024579E+02 -0.35887609778E+03 -0.41065430137E+03  0.55247895127E+03  0.12699999809E+01 0. -1.
</event>
<event>
 5   0  0.2350769E-03  0.8917223E+03  0.7818609E-02  0.9435988E-01
       -1   -1    0    0    0  501  0.00000000000E+00  0.00000000000E+00  0.37601034397E+03  0.37601034401E+03  0.50400001928E-02 0. -1.
        1   -1    0    0  501    0  0.00000000000E+00  0.00000000000E+00 -0.52868805980E+03  0.52868805983E+03  0.50400001928E-02 0.  1.
    10030    2    1    2    0    0  0.00000000000E+00  0.00000000000E+00 -0.15267771583E+03  0.90469840383E+03  0.89172233178E+03 0.  0.
        2    1    3    3  502    0 -0.31277527381E+03  0.24902059190E+03 -0.27657484817E+03  0.48614120762E+03  0.25500000920E-02 0.  1.
       -2    1    3    3    0  502  0.31277527381E+03 -0.24902059190E+03  0.12389713234E+03  0.41855719622E+03  0.25500000920E-02 0. -1.
</event>
<event>
 5   0  0.1548000E-03  0.1001559E+04  0.7818609E-02  0.9306837E-01
        4   -1    0    0  501    0  0.00000000000E+00  0.00000000000E+00  0.90159031546E+03  0.90159120994E+03  0.12699999809E+01 0. -1.
       -4   -1    0    0    0  501  0.00000000000E+00  0.00000000000E+00 -0.27815032966E+03  0.27815322897E+03  0.12699999809E+01 0.  1.
    10030    2    1    2    0    0  0.00000000000E+00  0.00000000000E+00  0.62343998581E+03  0.11797444389E+04  0.10015585481E+04 0.  0.
        1    1    3    3  502    0 -0.45190392553E+02  0.45811548042E+03  0.54394405973E+03  0.71259182224E+03  0.50400001928E-02 0. -1.
       -1    1    3    3    0  502  0.45190392553E+02 -0.45811548042E+03  0.79495926078E+02  0.46715261667E+03  0.50400001928E-02 0.  1.
</event>
<event>
 5   0  0.2378609E-03  0.1008281E+04  0.7818609E-02  0.9299508E-01
        1   -1    0    0  501    0  0.00000000000E+00  0.00000000000E+00  0.49866253602E+03  0.49866253604E+03  0.50400001928E-02 0. -1.
       -1   -1    0    0    0  501  0.00000000000E+00  0.00000000000E+00 -0.50967891310E+03  0.50967891313E+03  0.50400001928E-02 0.  1.
    10030    2    1    2    0    0  0.00000000000E+00  0.00000000000E+00 -0.11016377088E+02  0.10083414492E+04  0.10082812691E+04 0.  0.
        1    1    3    3  502    0 -0.28433910777E+03  0.34674269124E+03 -0.23590978032E+03  0.50668791836E+03  0.50400001928E-02 0.  1.
       -1    1    3    3    0  502  0.28433910777E+03 -0.34674269124E+03  0.22489340323E+03  0.50165353081E+03  0.50400001928E-02 0. -1.
</event>
<event>
 5   0  0.2405022E-03  0.9992727E+03  0.7818609E-02  0.9309343E-01
       -1   -1    0    0    0  501  0.00000000000E+00  0.00000000000E+00  0.29139911787E+03  0.29139911791E+03  0.50400001928E-02 0.  1.
        1   -1    0    0  501    0  0.00000000000E+00  0.00000000000E+00 -0.85668232508E+03  0.85668232509E+03  0.50400001928E-02 0. -1.
    10030    2    1    2    0    0  0.00000000000E+00  0.00000000000E+00 -0.56528320721E+03  0.11480814430E+04  0.99927268321E+03 0.  0.
        4    1    3    3  502    0 -0.41346723043E+03 -0.14809901832E+03 -0.55633089508E+03  0.70879767747E+03  0.12699999809E+01 0. -1.
       -4    1    3    3    0  502  0.41346723043E+03  0.14809901832E+03 -0.89523121370E+01  0.43928376553E+03  0.12699999809E+01 0.  1.
</event>
<event>
 5   0  0.3826483E-03  0.1056414E+04  0.7818609E-02  0.9248747E-01
        2   -1    0    0  501    0  0.00000000000E+00  0.00000000000E+00  0.55347600858E+03  0.55347600859E+03  0.25500000920E-02 0. -1.
       -2   -1    0    0    0  501  0.00000000000E+00  0.00000000000E+00 -0.50409130024E+03  0.50409130024E+03  0.25500000920E-02 0.  1.
    10030    2    1    2    0    0  0.00000000000E+00  0.00000000000E+00  0.49384708345E+02  0.10575673088E+04  0.10564136327E+04 0.  0.
        4    1    3    3  502    0 -0.43808281240E+03 -0.29477531118E+03  0.38556424555E+02  0.52943105819E+03  0.12699999809E+01 0.  1.
       -4    1    3    3    0  502  0.43808281240E+03  0.29477531118E+03  0.10828283790E+02  0.52813625064E+03  0.12699999809E+01 0. -1.
</event>
<event>
 5   0  0.3895011E-03  0.1000993E+04  0.7818609E-02  0.9307457E-01
       -2   -1    0    0    0  501  0.00000000000E+00  0.00000000000E+00  0.79693179750E+03  0.79693179751E+03  0.25500000920E-02 0.  1.
        2   -1    0    0  501    0  0.00000000000E+00  0.00000000000E+00 -0.31432628206E+03  0.31432628207E+03  0.25500000920E-02 0. -1.
    10030    2    1    2    0    0  0.00000000000E+00  0.00000000000E+00  0.48260551544E+03  0.11112580796E+04  0.10009927252E+04 0.  0.
        2    1    3    3  502    0  0.21218253839E+03 -0.42322385221E+03  0.42153394404E+03  0.63390119472E+03  0.25500000920E-02 0.  1.
       -2    1    3    3    0  502 -0.21218253839E+03  0.42322385221E+03  0.61071571405E+02  0.47735688486E+03  0.25500000920E-02 0. -1.
</event>
<event>
 5   0  0.2313036E-03  0.9922890E+03  0.7818609E-02  0.9317043E-01
        1   -1    0    0  501    0  0.00000000000E+00  0.00000000000E+00  0.96581409283E+03  0.96581409284E+03  0.50400001928E-02 0.  1.
       -1   -1    0    0    0  501  0.00000000000E+00  0.00000000000E+00 -0.25487238656E+03  0.25487238661E+03  0.50400001928E-02 0. -1.
    10030    2    1    2    0    0  0.00000000000E+00  0.00000000000E+00  0.71094170626E+03  0.12206864795E+04  0.99228895561E+03 0.  0.
        3    1    3    3  502    0  0.49076543878E+03 -0.45833162425E+02  0.42514617086E+03  0.65092293820E+03  0.10100000352E+00 0.  1.
       -3    1    3    3    0  502 -0.49076543878E+03  0.45833162425E+02  0.28579553541E+03  0.56976354125E+03  0.10100000352E+00 0. -1.
</event>
<event>
 5   0  0.3895011E-03  0.9938252E+03  0.7818609E-02  0.9315343E-01
        2   -1    0    0  501    0  0.00000000000E+00  0.00000000000E+00  0.15891107971E+04  0.15891107971E+04  0.25500000920E-02 0.  1.
       -2   -1    0    0    0  501  0.00000000000E+00  0.00000000000E+00 -0.15538384538E+03  0.15538384540E+03  0.25500000920E-02 0. -1.
    10030    2    1    2    0    0  0.00000000000E+00  0.00000000000E+00  0.14337269517E+04  0.17444946425E+04  0.99382522891E+03 0.  0.
        2    1    3    3  502    0  0.20492690510E+03  0.33250825752E+03  0.12560834149E+04  0.13154095648E+04  0.25500000920E-02 0.  1.
       -2    1    3    3    0  502 -0.20492690510E+03 -0.33250825752E+03  0.17764353673E+03  0.42908507770E+03  0.25500000920E-02 0. -1.
</event>
<event>
 5   0  0.2327595E-03  0.1003377E+04  0.7818609E-02  0.9304848E-01
        1   -1    0    0  501    0  0.00000000000E+00  0.00000000000E+00  0.22561285110E+04  0.22561285110E+04  0.50400001928E-02 0. -1.
       -1   -1    0    0    0  501  0.00000000000E+00  0.00000000000E+00 -0.11155906310E+03  0.11155906322E+03  0.50400001928E-02 0.  1.
    10030    2    1    2    0    0  0.00000000000E+00  0.00000000000E+00  0.21445694478E+04  0.23676875742E+04  0.10033774625E+04 0.  0.
        5    1    3    3  502    0  0.48958461236E+03  0.38385870756E+02  0.13141175172E+04  0.14028875603E+04  0.46999998093E+01 0.  1.
       -5    1    3    3    0  502 -0.48958461236E+03 -0.38385870756E+02  0.83045193064E+03  0.96480001390E+03  0.46999998093E+01 0. -1.
</event>
<event>
 5   0  0.4026829E-03  0.1009093E+04  0.7818609E-02  0.9298627E-01
       -2   -1    0    0    0  501  0.00000000000E+00  0.00000000000E+00  0.13728212713E+03  0.13728212716E+03  0.25500000920E-02 0.  1.
        2   -1    0    0  501    0  0.00000000000E+00  0.00000000000E+00 -0.18543366506E+04  0.18543366506E+04  0.25500000920E-02 0. -1.
    10030    2    1    2    0    0  0.00000000000E+00  0.00000000000E+00 -0.17170545234E+04  0.19916187777E+04  0.10090932164E+04 0.  0.
        1    1    3    3  502    0 -0.30917244189E+03  0.11044075099E+03 -0.10237005152E+03  0.34389589381E+03  0.50400001928E-02 0.  1.
       -1    1    3    3    0  502  0.30917244189E+03 -0.11044075099E+03 -0.16146844719E+04  0.16477228839E+04  0.50400001928E-02 0. -1.
</event>
<event>
 5   0  0.3826483E-03  0.9967674E+03  0.7818609E-02  0.9312097E-01
       -2   -1    0    0    0  501  0.00000000000E+00  0.00000000000E+00  0.64671695148E+03  0.64671695149E+03  0.25500000920E-02 0. -1.
        2   -1    0    0  501    0  0.00000000000E+00  0.00000000000E+00 -0.38407264946E+03  0.38407264947E+03  0.25500000920E-02 0.  1.
    10030    2    1    2    0    0  0.00000000000E+00  0.00000000000E+00  0.26264430202E+03  0.10307896010E+04  0.99676736104E+03 0.  0.
        4    1    3    3  502    0 -0.86586866130E+02 -0.30082901080E+03 -0.26971507747E+03  0.41321086026E+03  0.12699999809E+01 0.  1.
       -4    1    3    3    0  502  0.86586866130E+02  0.30082901080E+03  0.53235937949E+03  0.61757874069E+03  0.12699999809E+01 0. -1.
</event>
<event>
 5   0  0.2313036E-03  0.1002732E+04  0.7818609E-02  0.9305553E-01
       -1   -1    0    0    0  501  0.00000000000E+00  0.00000000000E+00  0.30999683459E+03  0.30999683463E+03  0.50400001928E-02 0. -1.
        1   -1    0    0  501    0  0.00000000000E+00  0.00000000000E+00 -0.81087299258E+03  0.81087299260E+03  0.50400001928E-02 0.  1.
    10030    2    1    2    0    0  0.00000000000E+00  0.00000000000E+00 -0.50087615799E+03  0.11208698272E+04  0.10027323890E+04 0.  0.
        3    1    3    3  502    0  0.26972439207E+03 -0.47069408077E+02  0.21904613483E+03  0.35063941056E+03  0.10100000352E+00 0. -1.
       -3    1    3    3    0  502 -0.26972439207E+03  0.47069408077E+02 -0.71992229282E+03  0.77023041667E+03  0.10100000352E+00 0.  1.
</event>
<event>
 5   0  0.3826483E-03  0.1003504E+04  0.7818609E-02  0.9304710E-01
       -2   -1    0    0    0  501  0.00000000000E+00  0.00000000000E+00  0.20513570580E+03  0.20513570581E+03  0.25500000920E-02 0.  1.
        2   -1    0    0  501    0  0.00000000000E+00  0.00000000000E+00 -0.12272611698E+04  0.12272611698E+04  0.25500000920E-02 0. -1.
    10030    2    1    2    0    0  0.00000000000E+00  0.00000000000E+00 -0.10221254640E+04  0.14323968756E+04  0.10035040334E+04 0.  0.
        4    1    3    3  502    0 -0.19869919296E+03 -0.20059157012E+03  0.80979664193E+02  0.29373060140E+03  0.12699999809E+01 0.  1.
       -4    1    3    3    0  502  0.19869919296E+03  0.20059157012E+03 -0.11031051282E+04  0.11386662742E+04  0.12699999809E+01 0. -1.
</event>
<event>
 5   0  0.3873874E-03  0.1029822E+04  0.7818609E-02  0.9276428E-01
       -2   -1    0    0    0  501  0.00000000000E+00  0.00000000000E+00  0.37596776208E+03  0.37596776209E+03  0.25500000920E-02 0.  1.
        2   -1    0    0  501    0  0.00000000000E+00  0.00000000000E+00 -0.70520244979E+03  0.70520244980E+03  0.25500000920E-02 0. -1.
    10030    2    1    2    0    0  0.00000000000E+00  0.00000000000E+00 -0.32923468771E+03  0.10811702119E+04  0.10298220951E+04 0.  0.
        5    1    3    3  502    0 -0.23244481290E+03 -0.40616529282E+03 -0.39005766632E+03  0.60923551209E+03  0.46999998093E+01 0. -1.
       -5    1    3    3    0  502  0.23244481290E+03  0.40616529282E+03  0.60822978610E+02  0.47193469979E+03  0.46999998093E+01 0.  1.
</event>
<event>
 5   0  0.4026829E-03  0.1002280E+04  0.7818609E-02  0.9306047E-01
       -2   -1    0    0    0  501  0.00000000000E+00  0.00000000000E+00  0.81386417176E+03  0.81386417177E+03  0.25500000920E-02 0.  1.
        2   -1    0    0  501    0  0.00000000000E+00  0.00000000000E+00 -0.30857910592E+03  0.30857910593E+03  0.25500000920E-02 0. -1.
    10030    2    1    2    0    0  0.00000000000E+00  0.00000000000E+00  0.50528506584E+03  0.11224432777E+04  0.10022803569E+04 0.  0.
        1    1    3    3  502    0 -0.34442217774E+03 -0.24050389805E+03 -0.53381941673E+02  0.42346002553E+03  0.50400001928E-02 0. -1.
       -1    1    3    3    0  502  0.34442217774E+03  0.24050389805E+03  0.55866700752E+03  0.69898325217E+03  0.50400001928E-02 0.  1.
</event>
<event>
 5   0  0.2405022E-03  0.9989719E+03  0.7818609E-02  0.9309673E-01
        1   -1    0    0  501    0  0.00000000000E+00  0.00000000000E+00  0.52606976946E+03  0.52606976948E+03  0.50400001928E-02 0. -1.
       -1   -1    0    0    0  501  0.00000000000E+00  0.00000000000E+00 -0.47424548768E+03  0.47424548770E+03  0.50400001928E-02 0.  1.
    10030    2    1    2    0    0  0.00000000000E+00  0.00000000000E+00  0.51824281780E+02  0.10003152572E+04  0.99897190029E+03 0.  0.
        4    1    3    3  502    0 -0.42624499203E+03 -0.32319241778E+02 -0.23280572183E+03  0.48675398677E+03  0.12699999809E+01 0.  1.
       -4    1    3    3    0  502  0.42624499203E+03  0.32319241778E+02  0.28463000361E+03  0.51356127042E+03  0.12699999809E+01 0. -1.
</event>
<event>
 5   0  0.4026829E-03  0.9968943E+03  0.7818609E-02  0.9311958E-01
       -2   -1    0    0    0  501  0.00000000000E+00  0.00000000000E+00  0.18344937922E+03  0.18344937924E+03  0.25500000920E-02 0. -1.
        2   -1    0    0  501    0  0.00000000000E+00  0.00000000000E+00 -0.13543223051E+04  0.13543223051E+04  0.25500000920E-02 0.  1.
    10030    2    1    2    0    0  0.00000000000E+00  0.00000000000E+00 -0.11708729259E+04  0.15377716844E+04  0.99689434979E+03 0.  0.
        1    1    3    3  502    0 -0.25522832044E+03  0.41608773379E+03 -0.74106784270E+03  0.88738494763E+03  0.50400001928E-02 0.  1.
       -1    1    3    3    0  502  0.25522832044E+03 -0.41608773379E+03 -0.42980508322E+03  0.65038673676E+03  0.50400001928E-02 0. -1.
</event>
<event>
 5   0  0.2350769E-03  0.9994861E+03  0.7818609E-02  0.9309109E-01
        1   -1    0    0  501    0  0.00000000000E+00  0.00000000000E+00  0.35621473078E+03  0.35621473081E+03  0.50400001928E-02 0.  1.
       -1   -1    0    0    0  501  0.00000000000E+00  0.00000000000E+00 -0.70110271360E+03  0.70110271362E+03  0.50400001928E-02 0. -1.
    10030    2    1    2    0    0  0.00000000000E+00  0.00000000000E+00 -0.34488798282E+03  0.10573174444E+04  0.99948609675E+03 0.  0.
        2    1    3    3  502    0 -0.30459782868E+03 -0.26453685518E+03 -0.48443864580E+03  0.63042873232E+03  0.25500000920E-02 0. -1.
       -2    1    3    3    0  502  0.30459782868E+03  0.26453685518E+03  0.13955066298E+03  0.42688871211E+03  0.25500000920E-02 0.  1.
</event>
<event>
 5   0  0.4140860E-03  0.1035964E+04  0.7818609E-02  0.9269956E-01
       -2   -1    0    0    0  501  0.00000000000E+00  0.00000000000E+00  0.20931731077E+03  0.20931731078E+03  0.25500000920E-02 0.  1.
        2   -1    0    0  501    0  0.00000000000E+00  0.00000000000E+00 -0.12818125223E+04  0.12818125223E+04  0.25500000920E-02 0. -1.
    10030    2    1    2    0    0  0.00000000000E+00  0.00000000000E+00 -0.10724952115E+04  0.14911298330E+04  0.10359643818E+04 0.  0.
        3    1    3    3  502    0  0.12750039385E+03 -0.49763671051E+03 -0.44069623363E+03  0.67683958706E+03  0.10100000352E+00 0.  1.
       -3    1    3    3    0  502 -0.12750039385E+03  0.49763671051E+03 -0.63179897786E+03  0.81429024598E+03  0.10100000352E+00 0. -1.
</event>
<event>
 5   0  0.2405022E-03  0.1005974E+04  0.7818609E-02  0.9302017E-01
       -1   -1    0    0    0  501  0.00000000000E+00  0.00000000000E+00  0.27944584752E+03  0.27944584756E+03  0.50400001928E-02 0. -1.
        1   -1    0    0  501    0  0.00000000000E+00  0.00000000000E+00 -0.90534840084E+03  0.90534840085E+03  0.50400001928E-02 0.  1.
    10030    2    1    2    0    0  0.00000000000E+00  0.00000000000E+00 -0.62590255332E+03  0.11847942484E+04  0.10059738589E+04 0.  0.
        4    1    3    3  502    0 -0.19820132962E+03  0.14177233959E+03  0.20527727901E+03  0.31862758436E+03  0.12699999809E+01 0. -1.
       -4    1    3    3    0  502  0.19820132962E+03 -0.14177233959E+03 -0.83117983233E+03  0.86616666405E+03  0.12699999809E+01 0.  1.
</event>
<event>
 5   0  0.2405022E-03  0.1003722E+04  0.7818609E-02  0.9304472E-01
       -1   -1    0    0    0  501  0.00000000000E+00  0.00000000000E+00  0.33011022504E+03  0.33011022508E+03  0.50400001928E-02 0.  1.
        1   -1    0    0  501    0  0.00000000000E+00  0.00000000000E+00 -0.76297047156E+03  0.76297047158E+03  0.50400001928E-02 0. -1.
    10030    2    1    2    0    0  0.00000000000E+00  0.00000000000E+00 -0.43286024652E+03  0.10930806967E+04  0.10037217824E+04 0.  0.
        4    1    3    3  502    0 -0.41532366285E+03  0.99688486354E+02 -0.50338672303E+03  0.66017523814E+03  0.12699999809E+01 0. -1.
       -4    1    3    3    0  502  0.41532366285E+03 -0.99688486354E+02  0.70526476504E+02  0.43290545852E+03  0.12699999809E+01 0.  1.
</event>
<event>
 5   0  0.4026829E-03  0.9954274E+03  0.7818609E-02  0.9313574E-01
       -2   -1    0    0    0  501  0.00000000000E+00  0.00000000000E+00  0.19839000959E+03  0.19839000961E+03  0.25500000920E-02 0.  1.
        2   -1    0    0  501    0  0.00000000000E+00  0.00000000000E+00 -0.12486462545E+04  0.12486462545E+04  0.25500000920E-02 0. -1.
    10030    2    1    2    0    0  0.00000000000E+00  0.00000000000E+00 -0.10502562449E+04  0.14470362641E+04  0.99542743063E+03 0.  0.
        1    1    3    3  502    0  0.44080074029E+03  0.22539126248E+03 -0.59942867106E+03  0.77744533284E+03  0.50400001928E-02 0. -1.
       -1    1    3    3    0  502 -0.44080074029E+03 -0.22539126248E+03 -0.45082757380E+03  0.66959093122E+03  0.50400001928E-02 0.  1.
</event>
<event>
 5   0  0.3826483E-03  0.1002101E+04  0.7818609E-02  0.9306243E-01
       -2   -1    0    0    0  501  0.00000000000E+00  0.00000000000E+00  0.59263941981E+03  0.59263941982E+03  0.25500000920E-02 0. -1.
        2   -1    0    0  501    0  0.00000000000E+00  0.00000000000E+00 -0.42361648465E+03  0.42361648465E+03  0.25500000920E-02 0.  1.
    10030    2    1    2    0    0  0.00000000000E+00  0.00000000000E+00  0.16902293517E+03  0.10162559045E+04  0.10021014473E+04 0.  0.
        4    1    3    3  502    0  0.47098016530E+03  0.16590431851E+03  0.12636983819E+03  0.51508980567E+03  0.12699999809E+01 0.  1.
       -4    1    3    3    0  502 -0.47098016530E+03 -0.16590431851E+03  0.42653096981E+02  0.50116609880E+03  0.12699999809E+01 0. -1.
</event>
<event>
 5   0  0.2327595E-03  0.9862845E+03  0.7818609E-02  0.9323717E-01
        1   -1    0    0  501    0  0.00000000000E+00  0.00000000000E+00  0.12842674208E+04  0.12842674208E+04  0.50400001928E-02 0. -1.
       -1   -1    0    0    0  501  0.00000000000E+00  0.00000000000E+00 -0.18936030681E+03  0.18936030687E+03  0.50400001928E-02 0.  1.
    10030    2    1    2    0    0  0.00000000000E+00  0.00000000000E+00  0.10949071140E+04  0.14736277276E+04  0.98628448812E+03 0.  0.
        5    1    3    3  502    0  0.10965312485E+03 -0.39834240362E+03  0.94966538494E+03  0.10356577194E+04  0.46999998093E+01 0. -1.
       -5    1    3    3    0  502 -0.10965312485E+03  0.39834240362E+03  0.14524172901E+03  0.43797000828E+03  0.46999998093E+01 0.  1.
</event>
<event>
 5   0  0.4026829E-03  0.9799788E+03  0.7818609E-02  0.9330780E-01
       -2   -1    0    0    0  501  0.00000000000E+00  0.00000000000E+00  0.18770649736E+03  0.18770649738E+03  0.25500000920E-02 0. -1.
        2   -1    0    0  501    0  0.00000000000E+00  0.00000000000E+00 -0.12790691933E+04  0.12790691933E+04  0.25500000920E-02 0.  1.
    10030    2    1    2    0    0  0.00000000000E+00  0.00000000000E+00 -0.10913626960E+04  0.14667756907E+04  0.97997877155E+03 0.  0.
        1    1    3    3  502    0  0.89132942870E+02  0.30794441070E+03 -0.11003150731E+04  0.11460661856E+04  0.50400001928E-02 0. -1.
       -1    1    3    3    0  502 -0.89132942870E+02 -0.30794441070E+03  0.89523771639E+01  0.32070950511E+03  0.50400001928E-02 0.  1.
</event>
<event>
 5   0  0.4140860E-03  0.9981601E+03  0.7818609E-02  0.9310565E-01
       -2   -1    0    0    0  501  0.00000000000E+00  0.00000000000E+00  0.78849171053E+02  0.78849171094E+02  0.25500000920E-02 0. -1.
        2   -1    0    0  501    0  0.00000000000E+00  0.00000000000E+00 -0.31589537349E+04  0.31589537349E+04  0.25500000920E-02 0.  1.
    10030    2    1    2    0    0  0.00000000000E+00  0.00000000000E+00 -0.30801045639E+04  0.32378029060E+04  0.99816007426E+03 0.  0.
        3    1    3    3  502    0 -0.77677035817E+01  0.43919961492E+03 -0.23085196467E+04  0.23499403414E+04  0.10100000352E+00 0. -1.
       -3    1    3    3    0  502  0.77677035817E+01 -0.43919961492E+03 -0.77158491722E+03  0.88786256462E+03  0.10100000352E+00 0.  1.
</event>
<event>
 5   0  0.2378609E-03  0.1006613E+04  0.7818609E-02  0.9301321E-01
        1   -1    0    0  501    0  0.00000000000E+00  0.00000000000E+00  0.86536365226E+03  0.86536365227E+03  0.50400001928E-02 0.  1.
       -1   -1    0    0    0  501  0.00000000000E+00  0.00000000000E+00 -0.29272957581E+03  0.29272957585E+03  0.50400001928E-02 0. -1.
    10030    2    1    2    0    0  0.00000000000E+00  0.00000000000E+00  0.57263407645E+03  0.11580932281E+04  0.10066132025E+04 0.  0.
        1    1    3    3  502    0 -0.12405491515E+03 -0.34882134100E+03  0.67858274406E+03  0.77300743236E+03  0.50400001928E-02 0.  1.
       -1    1    3    3    0  502  0.12405491515E+03  0.34882134100E+03 -0.10594866761E+03  0.38508579577E+03  0.50400001928E-02 0. -1.
</event>
<event>
 5   0  0.2405022E-03  0.9968841E+03  0.7818609E-02  0.9311969E-01
        1   -1    0    0  501    0  0.00000000000E+00  0.00000000000E+00  0.60025127223E+03  0.60025127225E+03  0.50400001928E-02 0. -1.
       -1   -1    0    0    0  501  0.00000000000E+00  0.00000000000E+00 -0.41390079895E+03  0.41390079898E+03  0.50400001928E-02 0.  1.
    10030    2    1    2    0    0  0.00000000000E+00  0.00000000000E+00  0.18635047328E+03  0.10141520712E+04  0.99688410796E+03 0.  0.
        4    1    3    3  502    0  0.44926301303E+03 -0.16260478979E+03 -0.51289119769E+02  0.48053070583E+03  0.12699999809E+01 0.  1.
       -4    1    3    3    0  502 -0.44926301303E+03  0.16260478979E+03  0.23763959305E+03  0.53362136541E+03  0.12699999809E+01 0. -1.
</event>
<event>
 5   0  0.2313036E-03  0.1002317E+04  0.7818609E-02  0.9306008E-01
        1   -1    0    0  501    0  0.00000000000E+00  0.00000000000E+00  0.28547619942E+03  0.28547619947E+03  0.50400001928E-02 0.  1.
       -1   -1    0    0    0  501  0.00000000000E+00  0.00000000000E+00 -0.87979195785E+03  0.87979195786E+03  0.50400001928E-02 0. -1.
    10030    2    1    2    0    0  0.00000000000E+00  0.00000000000E+00 -0.59431575842E+03  0.11652681573E+04  0.10023166455E+04 0.  0.
        3    1    3    3  502    0 -0.47647834494E+03  0.14545271155E+03 -0.36053207179E+03  0.61495649397E+03  0.10100000352E+00 0.  1.
       -3    1    3    3    0  502  0.47647834494E+03 -0.14545271155E+03 -0.23378368663E+03  0.55031166336E+03  0.10100000352E+00 0. -1.
</event>
<event>
 5   0  0.2327595E-03  0.1006314E+04  0.7818609E-02  0.9301646E-01
        1   -1    0    0  501    0  0.00000000000E+00  0.00000000000E+00  0.14169951998E+04  0.14169951998E+04  0.50400001928E-02 0. -1.
       -1   -1    0    0    0  501  0.00000000000E+00  0.00000000000E+00 -0.17866481053E+03  0.17866481060E+03  0.50400001928E-02 0.  1.
    10030    2    1    2    0    0  0.00000000000E+00  0.00000000000E+00  0.12383303892E+04  0.15956600104E+04  0.10063144220E+04 0.  0.
        5    1    3    3  502    0  0.60043133317E+02  0.47937873690E+03  0.84192434212E+03  0.97070481563E+03  0.46999998093E+01 0. -1.
       -5    1    3    3    0  502 -0.60043133317E+02 -0.47937873690E+03  0.39640604713E+03  0.62495519476E+03  0.46999998093E+01 0.  1.
</event>
<event>
 5   0  0.1548000E-03  0.9994457E+03  0.7818609E-02  0.9309153E-01
        3   -1    0    0  501    0  0.00000000000E+00  0.00000000000E+00  0.75412840094E+03  0.75412840770E+03  0.10100000352E+00 0.  1.
       -3   -1    0    0    0  501  0.00000000000E+00  0.00000000000E+00 -0.33114113961E+03  0.33114115501E+03  0.10100000352E+00 0. -1.
    10030    2    1    2    0    0  0.00000000000E+00  0.00000000000E+00  0.42298726133E+03  0.10852695627E+04  0.99944574665E+03 0.  0.
        3    1    3    3  502    0  0.11344477855E+03 -0.11882549918E+03 -0.30097983873E+03  0.34289661789E+03  0.10100000352E+00 0. -1.
       -3    1    3    3    0  502 -0.11344477855E+03  0.11882549918E+03  0.72396710006E+03  0.74237294483E+03  0.10100000352E+00 0.  1.
</event>
<event>
 5   0  0.2313036E-03  0.9909630E+03  0.7818609E-02  0.9318512E-01
        1   -1    0    0  501    0  0.00000000000E+00  0.00000000000E+00  0.41608033205E+03  0.41608033208E+03  0.50400001928E-02 0. -1.
       -1   -1    0    0    0  501  0.00000000000E+00  0.00000000000E+00 -0.59003489193E+03  0.59003489195E+03  0.50400001928E-02 0.  1.
    10030    2    1    2    0    0  0.00000000000E+00  0.00000000000E+00 -0.17395455988E+03  0.10061152240E+04  0.99096299381E+03 0.  0.
        3    1    3    3  502    0  0.35661435176E+03  0.25493766942E+03  0.14749742370E+03  0.46251757952E+03  0.10100000352E+00 0. -1.
       -3    1    3    3    0  502 -0.35661435176E+03 -0.25493766942E+03 -0.32145198358E+03  0.54359764451E+03  0.10100000352E+00 0.  1.
</event>
<event>
 5   0  0.3826483E-03  0.1002107E+04  0.7818609E-02  0.9306237E-01
        2   -1    0    0  501    0  0.00000000000E+00  0.00000000000E+00  0.16133389745E+03  0.16133389747E+03  0.25500000920E-02 0. -1.
       -2   -1    0    0    0  501  0.00000000000E+00  0.00000000000E+00 -0.15561189855E+04  0.15561189855E+04  0.25500000920E-02 0.  1.
    10030    2    1    2    0    0  0.00000000000E+00  0.00000000000E+00 -0.13947850880E+04  0.17174528829E+04  0.10021072614E+04 0.  0.
        4    1    3    3  502    0 -0.24444702765E+03  0.39850770995E+03 -0.10063139783E+04  0.11096090212E+04  0.12699999809E+01 0.  1.
       -4    1    3    3    0  502  0.24444702765E+03 -0.39850770995E+03 -0.38847110974E+03  0.60784386171E+03  0.12699999809E+01 0. -1.
</event>
<event>
 5   0  0.4026829E-03  0.1000078E+04  0.7818609E-02  0.9308460E-01
       -2   -1    0    0    0  501  0.00000000000E+00  0.00000000000E+00  0.24740835554E+03  0.24740835555E+03  0.25500000920E-02 0. -1.
        2   -1    0    0  501    0  0.00000000000E+00  0.00000000000E+00 -0.10106322619E+04  0.10106322619E+04  0.25500000920E-02 0.  1.
    10030    2    1    2    0    0  0.00000000000E+00  0.00000000000E+00 -0.76322390636E+03  0.12580406175E+04  0.10000777289E+04 0.  0.
        1    1    3    3  502    0 -0.12789599056E+02 -0.19659919163E+03  0.19652747672E+03  0.27827659824E+03  0.50400001928E-02 0. -1.
       -1    1    3    3    0  502  0.12789599056E+02  0.19659919163E+03 -0.95975138309E+03  0.97976401922E+03  0.50400001928E-02 0.  1.
</event>
<event>
 5   0  0.2350769E-03  0.1001160E+04  0.7818609E-02  0.9307273E-01
        1   -1    0    0  501    0  0.00000000000E+00  0.00000000000E+00  0.19084786881E+04  0.19084786881E+04  0.50400001928E-02 0. -1.
       -1   -1    0    0    0  501  0.00000000000E+00  0.00000000000E+00 -0.13129848876E+03  0.13129848886E+03  0.50400001928E-02 0.  1.
    10030    2    1    2    0    0  0.00000000000E+00  0.00000000000E+00  0.17771801994E+04  0.20397771770E+04  0.10011600625E+04 0.  0.
        2    1    3    3  502    0 -0.23798633320E+03 -0.26420122153E+03  0.16064440746E+04  0.16453274279E+04  0.25500000920E-02 0. -1.
       -2    1    3    3    0  502  0.23798633320E+03  0.26420122153E+03  0.17073612480E+03  0.39444974910E+03  0.25500000920E-02 0.  1.
</event>
<event>
 5   0  0.3873874E-03  0.1007479E+04  0.7818609E-02  0.9300380E-01
       -2   -1    0    0    0  501  0.00000000000E+00  0.00000000000E+00  0.29115802232E+03  0.29115802233E+03  0.25500000920E-02 0. -1.
        2   -1    0    0  501    0  0.00000000000E+00  0.00000000000E+00 -0.87153107238E+03  0.87153107239E+03  0.25500000920E-02 0.  1.
    10030    2    1    2    0    0  0.00000000000E+00  0.00000000000E+00 -0.58037305006E+03  0.11626890947E+04  0.10074785624E+04 0.  0.
        5    1    3    3  502    0  0.21988898588E+03 -0.37029193791E+03  0.11338453677E+02  0.43083400043E+03  0.46999998093E+01 0.  1.
       -5    1    3    3    0  502 -0.21988898588E+03  0.37029193791E+03 -0.59171150374E+03  0.73185509430E+03  0.46999998093E+01 0. -1.
</event>
<event>
 5   0  0.2350769E-03  0.1057496E+04  0.7818609E-02  0.9247639E-01
        1   -1    0    0  501    0  0.00000000000E+00  0.00000000000E+00  0.66107940345E+03  0.66107940347E+03  0.50400001928E-02 0. -1.
       -1   -1    0    0    0  501  0.00000000000E+00  0.00000000000E+00 -0.42290621686E+03  0.42290621689E+03  0.50400001928E-02 0.  1.
    10030    2    1    2    0    0  0.00000000000E+00  0.00000000000E+00  0.23817318659E+03  0.10839856204E+04  0.10574962687E+04 0.  0.
        2    1    3    3  502    0 -0.31279830326E+03  0.23057099509E+03 -0.24846009900E+03  0.46123549636E+03  0.25500000920E-02 0.  1.
       -2    1    3    3    0  502  0.31279830326E+03 -0.23057099509E+03  0.48663328558E+03  0.62275012400E+03  0.25500000920E-02 0. -1.
</event>
<event>
 5   0  0.3895011E-03  0.9997062E+03  0.7818609E-02  0.9308867E-01
        2   -1    0    0  501    0  0.00000000000E+00  0.00000000000E+00  0.52268026776E+03  0.52268026776E+03  0.25500000920E-02 0. -1.
       -2   -1    0    0    0  501  0.00000000000E+00  0.00000000000E+00 -0.47802287749E+03  0.47802287750E+03  0.25500000920E-02 0.  1.
    10030    2    1    2    0    0  0.00000000000E+00  0.00000000000E+00  0.44657390263E+02  0.10007031453E+04  0.99970620806E+03 0.  0.
        2    1    3    3  502    0 -0.31222753109E+02 -0.41935360850E+03 -0.24816442136E+03  0.48828054365E+03  0.25500000920E-02 0.  1.
       -2    1    3    3    0  502  0.31222753109E+02  0.41935360850E+03  0.29282181162E+03  0.51242260161E+03  0.25500000920E-02 0. -1.
</event>
<event>
 5   0  0.4140860E-03  0.9985496E+03  0.7818609E-02  0.9310137E-01
       -2   -1    0    0    0  501  0.00000000000E+00  0.00000000000E+00  0.36450534433E+03  0.36450534434E+03  0.25500000920E-02 0. -1.
        2   -1    0    0  501    0  0.00000000000E+00  0.00000000000E+00 -0.68387287916E+03  0.68387287917E+03  0.25500000920E-02 0.  1.
    10030    2    1    2    0    0  0.00000000000E+00  0.00000000000E+00 -0.31936753483E+03  0.10483782235E+04  0.99854958676E+03 0.  0.
        3    1    3    3  502    0  0.61531597617E+02 -0.39081917421E+03 -0.47942912542E+03  0.62159316353E+03  0.10100000352E+00 0.  1.
       -3    1    3    3    0  502 -0.61531597617E+02  0.39081917421E+03  0.16006159059E+03  0.42678505998E+03  0.10100000352E+00 0. -1.
</event>
<event>
 5   0  0.1548000E-03  0.1005278E+04  0.7818609E-02  0.9302775E-01
        3   -1    0    0  501    0  0.00000000000E+00  0.00000000000E+00  0.12353517389E+03  0.12353521518E+03  0.10100000352E+00 0. -1.
       -3   -1    0    0    0  501  0.00000000000E+00  0.00000000000E+00 -0.20451344357E+04  0.20451344382E+04  0.10100000352E+00 0.  1.
    10030    2    1    2    0    0  0.00000000000E+00  0.00000000000E+00 -0.19215992618E+04  0.21686696534E+04  0.10052782413E+04 0.  0.
        4    1    3    3  502    0 -0.99542109696E+02 -0.42957860288E+02  0.98007660158E+02  0.14615445157E+03  0.12699999809E+01 0. -1.
       -4    1    3    3    0  502  0.99542109696E+02  0.42957860288E+02 -0.20196069220E+04  0.20225152018E+04  0.12699999809E+01 0.  1.
</event>
<event>
 5   0  0.4026829E-03  0.9305229E+03  0.7818609E-02  0.9388211E-01
       -2   -1    0    0    0  501  0.00000000000E+00  0.00000000000E+00  0.28977663130E+03  0.28977663131E+03  0.25500000920E-02 0. -1.
        2   -1    0    0  501    0  0.00000000000E+00  0.00000000000E+00 -0.74701755121E+03  0.74701755122E+03  0.25500000920E-02 0.  1.
    10030    2    1    2    0    0  0.00000000000E+00  0.00000000000E+00 -0.45724091992E+03  0.10367941825E+04  0.93052292721E+03 0.  0.
        1    1    3    3  502    0 -0.17180759416E+03  0.53498241030E+02  0.24943533675E+03  0.30756771360E+03  0.50400001928E-02 0. -1.
       -1    1    3    3    0  502  0.17180759416E+03 -0.53498241030E+02 -0.70667625667E+03  0.72922646892E+03  0.50400001928E-02 0.  1.
</event>
<event>
 5   0  0.3826483E-03  0.1009903E+04  0.7818609E-02  0.9297749E-01
       -2   -1    0    0    0  501  0.00000000000E+00  0.00000000000E+00  0.74957368396E+03  0.74957368396E+03  0.25500000920E-02 0. -1.
        2   -1    0    0  501    0  0.00000000000E+00  0.00000000000E+00 -0.34016163893E+03  0.34016163894E+03  0.25500000920E-02 0.  1.
    10030    2    1    2    0    0  0.00000000000E+00  0.00000000000E+00  0.40941204503E+03  0.10897353229E+04  0.10099033871E+04 0.  0.
        4    1    3    3  502    0 -0.48223098447E+03 -0.14808834140E+03  0.18063281001E+03  0.53582338900E+03  0.12699999809E+01 0.  1.
       -4    1    3    3    0  502  0.48223098447E+03  0.14808834140E+03  0.22877923502E+03  0.55391193390E+03  0.12699999809E+01 0. -1.
</event>
<event>
 5   0  0.2327595E-03  0.1007521E+04  0.7818609E-02  0.9300334E-01
       -1   -1    0    0    0  501  0.00000000000E+00  0.00000000000E+00  0.17707150873E+03  0.17707150880E+03  0.50400001928E-02 0. -1.
        1   -1    0    0  501    0  0.00000000000E+00  0.00000000000E+00 -0.14331764748E+04  0.14331764748E+04  0.50400001928E-02 0.  1.
    10030    2    1    2    0    0  0.00000000000E+00  0.00000000000E+00 -0.12561049661E+04  0.16102479836E+04  0.10075211576E+04 0.  0.
        5    1    3    3  502    0  0.39727322379E+03 -0.28831709844E+03 -0.44723462511E+03  0.66407353771E+03  0.46999998093E+01 0. -1.
       -5    1    3    3    0  502 -0.39727322379E+03  0.28831709844E+03 -0.80887034098E+03  0.94617444591E+03  0.46999998093E+01 0.  1.
</event>
<event>
 5   0  0.2350769E-03  0.9736482E+03  0.7818609E-02  0.9337929E-01
        1   -1    0    0  501    0  0.00000000000E+00  0.00000000000E+00  0.48155733716E+03  0.48155733719E+03  0.50400001928E-02 0. -1.
       -1   -1    0    0    0  501  0.00000000000E+00  0.00000000000E+00 -0.49214848787E+03  0.49214848789E+03  0.50400001928E-02 0.  1.
    10030    2    1    2    0    0  0.00000000000E+00  0.00000000000E+00 -0.10591150700E+02  0.97370582508E+03  0.97364822258E+03 0.  0.
        2    1    3    3  502    0  0.38001407290E+03  0.26528981105E+03 -0.15432900685E+03  0.48847397251E+03  0.25500000920E-02 0.  1.
       -2    1    3    3    0  502 -0.38001407290E+03 -0.26528981105E+03  0.14373785615E+03  0.48523185257E+03  0.25500000920E-02 0. -1.
</event>
<event>
 5   0  0.2327595E-03  0.9999086E+03  0.7818609E-02  0.9308645E-01
        1   -1    0    0  501    0  0.00000000000E+00  0.00000000000E+00  0.46291037367E+03  0.46291037370E+03  0.50400001928E-02 0.  1.
       -1   -1    0    0    0  501  0.00000000000E+00  0.00000000000E+00 -0.53996267354E+03  0.53996267357E+03  0.50400001928E-02 0. -1.
    10030    2    1    2    0    0  0.00000000000E+00  0.00000000000E+00 -0.77052299873E+02  0.10028730473E+04  0.99990864183E+03 0.  0.
        5    1    3    3  502    0  0.27052887895E+03 -0.31652876579E+02  0.38193556005E+03  0.46913179488E+03  0.46999998093E+01 0.  1.
       -5    1    3    3    0  502 -0.27052887895E+03  0.31652876579E+02 -0.45898785992E+03  0.53374125238E+03  0.46999998093E+01 0. -1.
</event>
<event>
 5   0  0.4140860E-03  0.9830878E+03  0.7818609E-02  0.9327291E-01
        2   -1    0    0  501    0  0.00000000000E+00  0.00000000000E+00  0.10288201674E+04  0.10288201674E+04  0.25500000920E-02 0. -1.
       -2   -1    0    0    0  501  0.00000000000E+00  0.00000000000E+00 -0.23484708140E+03  0.23484708141E+03  0.25500000920E-02 0.  1.
    10030    2    1    2    0    0  0.00000000000E+00  0.00000000000E+00  0.79397308603E+03  0.12636672489E+04  0.98308781626E+03 0.  0.
        3    1    3    3  502    0  0.41653547876E+03 -0.10081816686E+03  0.87555061552E+02  0.43741514244E+03  0.10100000352E+00 0. -1.
       -3    1    3    3    0  502 -0.41653547876E+03  0.10081816686E+03  0.70641802448E+03  0.82625210641E+03  0.10100000352E+00 0.  1.
</event>
<event>
 5   0  0.3895011E-03  0.1000645E+04  0.7818609E-02  0.9307838E-01
       -2   -1    0    0    0  501  0.00000000000E+00  0.00000000000E+00  0.30598710007E+03  0.30598710008E+03  0.25500000920E-02 0. -1.
        2   -1    0    0  501    0  0.00000000000E+00  0.00000000000E+00 -0.81808186616E+03  0.81808186616E+03  0.25500000920E-02 0.  1.
    10030    2    1    2    0    0  0.00000000000E+00  0.00000000000E+00 -0.51209476609E+03  0.11240689662E+04  0.10006447878E+04 0.  0.
        2    1    3    3  502    0  0.43741541851E+03  0.22306345704E+03 -0.36398755667E+03  0.61120904413E+03  0.25500000920E-02 0.  1.
       -2    1    3    3    0  502 -0.43741541851E+03 -0.22306345704E+03 -0.14810720942E+03  0.51285992210E+03  0.25500000920E-02 0. -1.
</event>
<event>
 5   0  0.3873874E-03  0.1000025E+04  0.7818609E-02  0.9308517E-01
       -2   -1    0    0    0  501  0.00000000000E+00  0.00000000000E+00  0.10213353160E+03  0.10213353163E+03  0.25500000920E-02 0.  1.
        2   -1    0    0  501    0  0.00000000000E+00  0.00000000000E+00 -0.24479000590E+04  0.24479000590E+04  0.25500000920E-02 0. -1.
    10030    2    1    2    0    0  0.00000000000E+00  0.00000000000E+00 -0.23457665274E+04  0.25500335906E+04  0.10000253558E+04 0.  0.
        5    1    3    3  502    0 -0.37646222435E+03  0.31859589804E+03 -0.96317354162E+03  0.10821055928E+04  0.46999998093E+01 0. -1.
       -5    1    3    3    0  502  0.37646222435E+03 -0.31859589804E+03 -0.13825929858E+04  0.14679279979E+04  0.46999998093E+01 0.  1.
</event>
<event>
 5   0  0.2405022E-03  0.9992839E+03  0.7818609E-02  0.9309331E-01
        1   -1    0    0  501    0  0.00000000000E+00  0.00000000000E+00  0.41305715123E+03  0.41305715126E+03  0.50400001928E-02 0.  1.
       -1   -1    0    0    0  501  0.00000000000E+00  0.00000000000E+00 -0.60437659464E+03  0.60437659466E+03  0.50400001928E-02 0. -1.
    10030    2    1    2    0    0  0.00000000000E+00  0.00000000000E+00 -0.19131944341E+03  0.10174337459E+04  0.99928389256E+03 0.  0.
        4    1    3    3  502    0 -0.32266127270E+03 -0.26110985797E+03  0.18751369576E+03  0.45546860905E+03  0.12699999809E+01 0.  1.
       -4    1    3    3    0  502  0.32266127270E+03  0.26110985797E+03 -0.37883313917E+03  0.56196513688E+03  0.12699999809E+01 0. -1.
</event>
<event>
 5   0  0.2378609E-03  0.9912493E+03  0.7818609E-02  0.9318195E-01
       -1   -1    0    0    0  501  0.00000000000E+00  0.00000000000E+00  0.23225166956E+03  0.23225166961E+03  0.50400001928E-02 0.  1.
        1   -1    0    0  501    0  0.00000000000E+00  0.00000000000E+00 -0.10576620185E+04  0.10576620185E+04  0.50400001928E-02 0. -1.
    10030    2    1    2    0    0  0.00000000000E+00  0.00000000000E+00 -0.82541034891E+03  0.12899136881E+04  0.99124925152E+03 0.  0.
        1    1    3    3  502    0  0.21173405356E+02  0.44935419167E+03 -0.14199618693E+03  0.47173130042E+03  0.50400001928E-02 0.  1.
       -1    1    3    3    0  502 -0.21173405356E+02 -0.44935419167E+03 -0.68341416198E+03  0.81818238767E+03  0.50400001928E-02 0. -1.
</event>
<event>
 5   0  0.3895011E-03  0.1003820E+04  0.7818609E-02  0.9304365E-01
        2   -1    0    0  501    0  0.00000000000E+00  0.00000000000E+00  0.46944507599E+03  0.46944507599E+03  0.25500000920E-02 0.  1.
       -2   -1    0    0    0  501  0.00000000000E+00  0.00000000000E+00 -0.53661970996E+03  0.53661970997E+03  0.25500000920E-02 0. -1.
    10030    2    1    2    0    0  0.00000000000E+00  0.00000000000E+00 -0.67174633974E+02  0.10060647860E+04  0.10038196661E+04 0.  0.
        2    1    3    3  502    0  0.37378223966E+02 -0.29293881533E+03  0.37315678682E+03  0.47587421522E+03  0.25500000920E-02 0.  1.
       -2    1    3    3    0  502 -0.37378223966E+02  0.29293881533E+03 -0.44033142079E+03  0.53019057074E+03  0.25500000920E-02 0. -1.
</event>
<event>
 5   0  0.1548000E-03  0.1001570E+04  0.7818609E-02  0.9306825E-01
        3   -1    0    0  501    0  0.00000000000E+00  0.00000000000E+00  0.10046402579E+04  0.10046402630E+04  0.10100000352E+00 0.  1.
       -3   -1    0    0    0  501  0.00000000000E+00  0.00000000000E+00 -0.24962714180E+03  0.24962716223E+03  0.10100000352E+00 0. -1.
    10030    2    1    2    0    0  0.00000000000E+00  0.00000000000E+00  0.75501311609E+03  0.12542674252E+04  0.10015697522E+04 0.  0.
        2    1    3    3  502    0 -0.18095495416E+03 -0.15587669013E+03  0.92872309471E+03  0.95894151262E+03  0.25500000920E-02 0.  1.
       -2    1    3    3    0  502  0.18095495416E+03  0.15587669013E+03 -0.17370997863E+03  0.29532591258E+03  0.25500000920E-02 0. -1.
</event>
<event>
 5   0  0.2405022E-03  0.9703266E+03  0.7818609E-02  0.9341702E-01
        1   -1    0    0  501    0  0.00000000000E+00  0.00000000000E+00  0.20292610233E+04  0.20292610233E+04  0.50400001928E-02 0. -1.
       -1   -1    0    0    0  501  0.00000000000E+00  0.00000000000E+00 -0.11599465464E+03  0.11599465475E+03  0.50400001928E-02 0.  1.
    10030    2    1    2    0    0  0.00000000000E+00  0.00000000000E+00  0.19132663687E+04  0.21452556781E+04  0.97032660832E+03 0.  0.
        4    1    3    3  502    0  0.49416701913E+02  0.36666773693E+03  0.26278048271E+03  0.45380880856E+03  0.12699999809E+01 0.  1.
       -4    1    3    3    0  502 -0.49416701913E+02 -0.36666773693E+03  0.16504858860E+04  0.16914468695E+04  0.12699999809E+01 0. -1.
</event>
<event>
 5   0  0.3826483E-03  0.9969111E+03  0.7818609E-02  0.9311939E-01
        2   -1    0    0  501    0  0.00000000000E+00  0.00000000000E+00  0.17699066270E+04  0.17699066270E+04  0.25500000920E-02 0.  1.
       -2   -1    0    0    0  501  0.00000000000E+00  0.00000000000E+00 -0.14037912545E+03  0.14037912547E+03  0.25500000920E-02 0. -1.
    10030    2    1    2    0    0  0.00000000000E+00  0.00000000000E+00  0.16295275015E+04  0.19102857524E+04  0.99691111830E+03 0.  0.
        4    1    3    3  502    0 -0.36125352539E+01 -0.24027515467E+03  0.16515796403E+04  0.16689703777E+04  0.12699999809E+01 0.  1.
       -4    1    3    3    0  502  0.36125352539E+01  0.24027515467E+03 -0.22052138815E+02  0.24131537475E+03  0.12699999809E+01 0. -1.
</event>
<event>
 5   0  0.2327595E-03  0.9941637E+03  0.7818609E-02  0.9314969E-01
        1   -1    0    0  501    0  0.00000000000E+00  0.00000000000E+00  0.66913629444E+03  0.66913629446E+03  0.50400001928E-02 0.  1.
       -1   -1    0    0    0  501  0.00000000000E+00  0.00000000000E+00 -0.36926758370E+03  0.36926758374E+03  0.50400001928E-02 0. -1.
    10030    2    1    2    0    0  0.00000000000E+00  0.00000000000E+00  0.29986871074E+03  0.10384038782E+04  0.99416365382E+03 0.  0.
        5    1    3    3  502    0 -0.34952490075E+03 -0.33765865650E+03  0.25891944377E+03  0.55067448907E+03  0.46999998093E+01 0.  1.
       -5    1    3    3    0  502  0.34952490075E+03  0.33765865650E+03  0.40949266964E+02  0.48772938913E+03  0.46999998093E+01 0. -1.
</event>
<event>
 5   0  0.4140860E-03  0.1001864E+04  0.7818609E-02  0.9306503E-01
        2   -1    0    0  501    0  0.00000000000E+00  0.00000000000E+00  0.61003437628E+03  0.61003437629E+03  0.25500000920E-02 0. -1.
       -2   -1    0    0    0  501  0.00000000000E+00  0.00000000000E+00 -0.41134194195E+03  0.41134194196E+03  0.25500000920E-02 0.  1.
    10030    2    1    2    0    0  0.00000000000E+00  0.00000000000E+00  0.19869243433E+03  0.10213763182E+04  0.10018637133E+04 0.  0.
        3    1    3    3  502    0 -0.43382466992E+03 -0.24374291979E+03  0.40619960575E+02  0.49926390474E+03  0.10100000352E+00 0.  1.
       -3    1    3    3    0  502  0.43382466992E+03  0.24374291979E+03  0.15807247376E+03  0.52211241351E+03  0.10100000352E+00 0. -1.
</event>
<event>
 5   0  0.4026829E-03  0.9168723E+03  0.7818609E-02  0.9404733E-01
       -2   -1    0    0    0  501  0.00000000000E+00  0.00000000000E+00  0.40236455791E+03  0.40236455791E+03  0.25500000920E-02 0.  1.
        2   -1    0    0  501    0  0.00000000000E+00  0.00000000000E+00 -0.52232155387E+03  0.52232155388E+03  0.25500000920E-02 0. -1.
    10030    2    1    2    0    0  0.00000000000E+00  0.00000000000E+00 -0.11995699597E+03  0.92468611179E+03  0.91687225090E+03 0.  0.
        1    1    3    3  502    0 -0.10730979842E+03  0.37811911266E+03 -0.29794322950E+03  0.49321356858E+03  0.50400001928E-02 0. -1.
       -1    1    3    3    0  502  0.10730979842E+03 -0.37811911266E+03  0.17798623353E+03  0.43147254322E+03  0.50400001928E-02 0.  1.
</event>
<event>
 5   0  0.2378609E-03  0.1001338E+04  0.7818609E-02  0.9307078E-01
       -1   -1    0    0    0  501  0.00000000000E+00  0.00000000000E+00  0.27324404934E+03  0.27324404939E+03  0.50400001928E-02 0.  1.
        1   -1    0    0  501    0  0.00000000000E+00  0.00000000000E+00 -0.91738363322E+03  0.91738363323E+03  0.50400001928E-02 0. -1.
    10030    2    1    2    0    0  0.00000000000E+00  0.00000000000E+00 -0.64413958388E+03  0.11906276826E+04  0.10013383420E+04 0.  0.
        1    1    3    3  502    0 -0.61052841019E+02  0.27438139821E+03 -0.81470552664E+03  0.86183391453E+03  0.50400001928E-02 0. -1.
       -1    1    3    3    0  502  0.61052841019E+02 -0.27438139821E+03  0.17056594276E+03  0.32879376809E+03  0.50400001928E-02 0.  1.
</event>
<event>
 5   0  0.1548000E-03  0.9979702E+03  0.7818609E-02  0.9310774E-01
        3   -1    0    0  501    0  0.00000000000E+00  0.00000000000E+00  0.88569629906E+03  0.88569630482E+03  0.10100000352E+00 0. -1.
       -3   -1    0    0    0  501  0.00000000000E+00  0.00000000000E+00 -0.28111904831E+03  0.28111906645E+03  0.10100000352E+00 0.  1.
    10030    2    1    2    0    0  0.00000000000E+00  0.00000000000E+00  0.60457725076E+03  0.11668153713E+04  0.99797016915E+03 0.  0.
        3    1    3    3  502    0  0.31178927274E+03  0.35836811008E+03  0.12364421114E+03  0.49084432773E+03  0.10100000352E+00 0.  1.
       -3    1    3    3    0  502 -0.31178927274E+03 -0.35836811008E+03  0.48093303961E+03  0.67597104354E+03  0.10100000352E+00 0. -1.
</event>
<event>
 5   0  0.2350769E-03  0.1003240E+04  0.7818609E-02  0.9304998E-01
       -1   -1    0    0    0  501  0.00000000000E+00  0.00000000000E+00  0.29921631348E+03  0.29921631352E+03  0.50400001928E-02 0.  1.
        1   -1    0    0  501    0  0.00000000000E+00  0.00000000000E+00 -0.84093935940E+03  0.84093935942E+03  0.50400001928E-02 0. -1.
    10030    2    1    2    0    0  0.00000000000E+00  0.00000000000E+00 -0.54172304592E+03  0.11401556729E+04  0.10032403003E+04 0.  0.
        2    1    3    3  502    0  0.12889295889E+03  0.11979650925E+03  0.26298841359E+03  0.31642930359E+03  0.25500000920E-02 0.  1.
       -2    1    3    3    0  502 -0.12889295889E+03 -0.11979650925E+03 -0.80471145951E+03  0.82372636935E+03  0.25500000920E-02 0. -1.
</event>
<event>
 5   0  0.2405022E-03  0.9904280E+03  0.7818609E-02  0.9319106E-01
        1   -1    0    0  501    0  0.00000000000E+00  0.00000000000E+00  0.87292985444E+03  0.87292985445E+03  0.50400001928E-02 0.  1.
       -1   -1    0    0    0  501  0.00000000000E+00  0.00000000000E+00 -0.28093543657E+03  0.28093543661E+03  0.50400001928E-02 0. -1.
    10030    2    1    2    0    0  0.00000000000E+00  0.00000000000E+00  0.59199441787E+03  0.11538652911E+04  0.99042804844E+03 0.  0.
        4    1    3    3  502    0 -0.29740286047E+03 -0.29107823993E+03  0.60873491989E+03  0.73738376628E+03  0.12699999809E+01 0.  1.
       -4    1    3    3    0  502  0.29740286047E+03  0.29107823993E+03 -0.16740502022E+02  0.41648152478E+03  0.12699999809E+01 0. -1.
</event>
<event>
 5   0  0.2405022E-03  0.1004859E+04  0.7818609E-02  0.9303231E-01
       -1   -1    0    0    0  501  0.00000000000E+00  0.00000000000E+00  0.28375112723E+03  0.28375112728E+03  0.50400001928E-02 0. -1.
        1   -1    0    0  501    0  0.00000000000E+00  0.00000000000E+00 -0.88963717671E+03  0.88963717672E+03  0.50400001928E-02 0.  1.
    10030    2    1    2    0    0  0.00000000000E+00  0.00000000000E+00 -0.60588604947E+03  0.11733883040E+04  0.10048592971E+04 0.  0.
        4    1    3    3  502    0 -0.24367430099E+03 -0.11325304343E+03  0.19279321733E+03  0.33071778657E+03  0.12699999809E+01 0. -1.
       -4    1    3    3    0  502  0.24367430099E+03  0.11325304343E+03 -0.79867926680E+03  0.84267051742E+03  0.12699999809E+01 0.  1.
</event>
<event>
 5   0  0.2378609E-03  0.1053908E+04  0.7818609E-02  0.9251318E-01
       -1   -1    0    0    0  501  0.00000000000E+00  0.00000000000E+00  0.36432844234E+03  0.36432844238E+03  0.50400001928E-02 0. -1.
        1   -1    0    0  501    0  0.00000000000E+00  0.00000000000E+00 -0.76217108373E+03  0.76217108374E+03  0.50400001928E-02 0.  1.
    10030    2    1    2    0    0  0.00000000000E+00  0.00000000000E+00 -0.39784264138E+03  0.11264995261E+04  0.10539081625E+04 0.  0.
        1    1    3    3  502    0 -0.50497256804E+03 -0.12641589661E+03 -0.28642799120E+03  0.59415424560E+03  0.50400001928E-02 0.  1.
       -1    1    3    3    0  502  0.50497256804E+03  0.12641589661E+03 -0.11141465018E+03  0.53234528052E+03  0.50400001928E-02 0. -1.
</event>
<event>
 5   0  0.3873874E-03  0.1014081E+04  0.7818609E-02  0.9293235E-01
       -2   -1    0    0    0  501  0.00000000000E+00  0.00000000000E+00  0.36845578681E+03  0.36845578682E+03  0.25500000920E-02 0.  1.
        2   -1    0    0  501    0  0.00000000000E+00  0.00000000000E+00 -0.69774964808E+03  0.69774964808E+03  0.25500000920E-02 0. -1.
    10030    2    1    2    0    0  0.00000000000E+00  0.00000000000E+00 -0.32929386127E+03  0.10662054349E+04  0.10140806587E+04 0.  0.
        5    1    3    3  502    0 -0.30407606091E+03 -0.10169445569E+03  0.24830584956E+03  0.40556367942E+03  0.46999998093E+01 0.  1.
       -5    1    3    3    0  502  0.30407606091E+03  0.10169445569E+03 -0.57759971083E+03  0.66064175548E+03  0.46999998093E+01 0. -1.
</event>
<event>
 5   0  0.3895011E-03  0.9994678E+03  0.7818609E-02  0.9309129E-01
        2   -1    0    0  501    0  0.00000000000E+00  0.00000000000E+00  0.53112410777E+03  0.53112410778E+03  0.25500000920E-02 0.  1.
       -2   -1    0    0    0  501  0.00000000000E+00  0.00000000000E+00 -0.47019890427E+03  0.47019890427E+03  0.25500000920E-02 0. -1.
    10030    2    1    2    0    0  0.00000000000E+00  0.00000000000E+00  0.60925203502E+02  0.10013230121E+04  0.99946780540E+03 0.  0.
        2    1    3    3  502    0  0.17618153490E+03 -0.29744301691E+03  0.39199486063E+03  0.52265882975E+03  0.25500000920E-02 0.  1.
       -2    1    3    3    0  502 -0.17618153490E+03  0.29744301691E+03 -0.33106965712E+03  0.47866418231E+03  0.25500000920E-02 0. -1.
</event>
<event>
 5   0  0.2350769E-03  0.1000625E+04  0.7818609E-02  0.9307860E-01
       -1   -1    0    0    0  501  0.00000000000E+00  0.00000000000E+00  0.34315860324E+03  0.34315860328E+03  0.50400001928E-02 0.  1.
        1   -1    0    0  501    0  0.00000000000E+00  0.00000000000E+00 -0.72943643322E+03  0.72943643324E+03  0.50400001928E-02 0. -1.
    10030    2    1    2    0    0  0.00000000000E+00  0.00000000000E+00 -0.38627782998E+03  0.10725950365E+04  0.10006245802E+04 0.  0.
        2    1    3    3  502    0  0.43143745907E+03 -0.25326550620E+03 -0.19907721558E+03  0.53843610159E+03  0.25500000920E-02 0.  1.
       -2    1    3    3    0  502 -0.43143745907E+03  0.25326550620E+03 -0.18720061440E+03  0.53415893492E+03  0.25500000920E-02 0. -1.
</event>
<event>
 5   0  0.2378609E-03  0.1007785E+04  0.7818609E-02  0.9300047E-01
        1   -1    0    0  501    0  0.00000000000E+00  0.00000000000E+00  0.68664805810E+03  0.68664805812E+03  0.50400001928E-02 0.  1.
       -1   -1    0    0    0  501  0.00000000000E+00  0.00000000000E+00 -0.36977838397E+03  0.36977838400E+03  0.50400001928E-02 0. -1.
    10030    2    1    2    0    0  0.00000000000E+00  0.00000000000E+00  0.31686967413E+03  0.10564264421E+04  0.10077849162E+04 0.  0.
        1    1    3    3  502    0  0.30257492004E+02  0.14371178266E+03  0.66371527286E+03  0.67976948722E+03  0.50400001928E-02 0.  1.
       -1    1    3    3    0  502 -0.30257492004E+02 -0.14371178266E+03 -0.34684559873E+03  0.37665695491E+03  0.50400001928E-02 0. -1.
</event>
<event>
 5   0  0.2313036E-03  0.1001024E+04  0.7818609E-02  0.9307423E-01
       -1   -1    0    0    0  501  0.00000000000E+00  0.00000000000E+00  0.16286759128E+03  0.16286759136E+03  0.50400001928E-02 0. -1.
        1   -1    0    0  501    0  0.00000000000E+00  0.00000000000E+00 -0.15381338652E+04  0.15381338652E+04  0.50400001928E-02 0.  1.
    10030    2    1    2    0    0  0.00000000000E+00  0.00000000000E+00 -0.13752662739E+04  0.17010014566E+04  0.10010237914E+04 0.  0.
        3    1    3    3  502    0 -0.20432152861E+03 -0.35868841278E+03 -0.11685797041E+04  0.12393478929E+04  0.10100000352E+00 0.  1.
       -3    1    3    3    0  502  0.20432152861E+03  0.35868841278E+03 -0.20668656979E+03  0.46165356367E+03  0.10100000352E+00 0. -1.
</event>
<event>
 5   0  0.2378609E-03  0.9910496E+03  0.7818609E-02  0.9318416E-01
       -1   -1    0    0    0  501  0.00000000000E+00  0.00000000000E+00  0.58689222682E+03  0.58689222684E+03  0.50400001928E-02 0.  1.
        1   -1    0    0  501    0  0.00000000000E+00  0.00000000000E+00 -0.41838149335E+03  0.41838149338E+03  0.50400001928E-02 0. -1.
    10030    2    1    2    0    0  0.00000000000E+00  0.00000000000E+00  0.16851073347E+03  0.10052737202E+04  0.99104963814E+03 0.  0.
        1    1    3    3  502    0 -0.34501236085E+03  0.20476260037E+03  0.37926214252E+03  0.55208787744E+03  0.50400001928E-02 0.  1.
       -1    1    3    3    0  502  0.34501236085E+03 -0.20476260037E+03 -0.21075140904E+03  0.45318584277E+03  0.50400001928E-02 0. -1.
</event>
<event>
 5   0  0.2405022E-03  0.9963625E+03  0.7818609E-02  0.9312543E-01
       -1   -1    0    0    0  501  0.00000000000E+00  0.00000000000E+00  0.46706016565E+03  0.46706016568E+03  0.50400001928E-02 0. -1.
        1   -1    0    0  501    0  0.00000000000E+00  0.00000000000E+00 -0.53137597464E+03  0.53137597466E+03  0.50400001928E-02 0.  1.
    10030    2    1    2    0    0  0.00000000000E+00  0.00000000000E+00 -0.64315808989E+02  0.99843614034E+03  0.99636248577E+03 0.  0.
        4    1    3    3  502    0 -0.66339134244E+02 -0.15782452236E+03 -0.50097074055E+03  0.52941737446E+03  0.12699999809E+01 0.  1.
       -4    1    3    3    0  502  0.66339134244E+02  0.15782452236E+03  0.43665493157E+03  0.46901876588E+03  0.12699999809E+01 0. -1.
</event>
<event>
 5   0  0.2405022E-03  0.9974013E+03  0.7818609E-02  0.9311400E-01
        1   -1    0    0  501    0  0.00000000000E+00  0.00000000000E+00  0.17038226523E+04  0.17038226523E+04  0.50400001928E-02 0.  1.
       -1   -1    0    0    0  501  0.00000000000E+00  0.00000000000E+00 -0.14596726870E+03  0.14596726879E+03  0.50400001928E-02 0. -1.
    10030    2    1    2    0    0  0.00000000000E+00  0.00000000000E+00  0.15578553836E+04  0.18497899211E+04  0.99740130136E+03 0.  0.
        4    1    3    3  502    0 -0.20406164506E+03  0.45498298698E+03  0.76580671761E+03  0.91384474342E+03  0.12699999809E+01 0.  1.
       -4    1    3    3    0  502  0.20406164506E+03 -0.45498298698E+03  0.79204866595E+03  0.93594517765E+03  0.12699999809E+01 0. -1.
</event>
<event>
 5   0  0.2313036E-03  0.1000737E+04  0.7818609E-02  0.9307737E-01
        1   -1    0    0  501    0  0.00000000000E+00  0.00000000000E+00  0.67770968019E+03  0.67770968021E+03  0.50400001928E-02 0. -1.
       -1   -1    0    0    0  501  0.00000000000E+00  0.00000000000E+00 -0.36943367693E+03  0.36943367697E+03  0.50400001928E-02 0.  1.
    10030    2    1    2    0    0  0.00000000000E+00  0.00000000000E+00  0.30827600326E+03  0.10471433572E+04  0.10007372864E+04 0.  0.
        3    1    3    3  502    0  0.86467571509E+02  0.44305937142E+03  0.37999567276E+03  0.59006352967E+03  0.10100000352E+00 0. -1.
       -3    1    3    3    0  502 -0.86467571509E+02 -0.44305937142E+03 -0.71719669505E+02  0.45707982751E+03  0.10100000352E+00 0.  1.
</event>
<event>
 5   0  0.3895011E-03  0.9820955E+03  0.7818609E-02  0.9328403E-01
        2   -1    0    0  501    0  0.00000000000E+00  0.00000000000E+00  0.86594481931E+03  0.86594481931E+03  0.25500000920E-02 0. -1.
       -2   -1    0    0    0  501  0.00000000000E+00  0.00000000000E+00 -0.27845643115E+03  0.27845643116E+03  0.25500000920E-02 0.  1.
    10030    2    1    2    0    0  0.00000000000E+00  0.00000000000E+00  0.58748838816E+03  0.11444012505E+04  0.98209552277E+03 0.  0.
        2    1    3    3  502    0  0.35206723226E+03 -0.20717224830E+03 -0.23790390067E+02  0.40919147006E+03  0.25500000920E-02 0.  1.
       -2    1    3    3    0  502 -0.35206723226E+03  0.20717224830E+03  0.61127877823E+03  0.73520978041E+03  0.25500000920E-02 0. -1.
</event>
<event>
 5   0  0.2327595E-03  0.9990314E+03  0.7818609E-02  0.9309608E-01
       -1   -1    0    0    0  501  0.00000000000E+00  0.00000000000E+00  0.26199953123E+03  0.26199953128E+03  0.50400001928E-02 0. -1.
        1   -1    0    0  501    0  0.00000000000E+00  0.00000000000E+00 -0.95235253670E+03  0.95235253671E+03  0.50400001928E-02 0.  1.
    10030    2    1    2    0    0  0.00000000000E+00  0.00000000000E+00 -0.69035300546E+03  0.12143520680E+04  0.99903136732E+03 0.  0.
        5    1    3    3  502    0  0.30162644553E+03 -0.16340623830E+03  0.96135557058E+02  0.35629236125E+03  0.46999998093E+01 0. -1.
       -5    1    3    3    0  502 -0.30162644553E+03  0.16340623830E+03 -0.78648856252E+03  0.85805970674E+03  0.46999998093E+01 0.  1.
</event>
<event>
 5   0  0.4026829E-03  0.9877277E+03  0.7818609E-02  0.9322108E-01
       -2   -1    0    0    0  501  0.00000000000E+00  0.00000000000E+00  0.10177134851E+04  0.10177134851E+04  0.25500000920E-02 0.  1.
        2   -1    0    0  501    0  0.00000000000E+00  0.00000000000E+00 -0.23965633727E+03  0.23965633728E+03  0.25500000920E-02 0. -1.
    10030    2    1    2    0    0  0.00000000000E+00  0.00000000000E+00  0.77805714785E+03  0.12573698224E+04  0.98772766741E+03 0.  0.
        1    1    3    3  502    0 -0.21538842987E+03 -0.22784346684E-02  0.95477210949E+03  0.97876552698E+03  0.50400001928E-02 0.  1.
       -1    1    3    3    0  502  0.21538842987E+03  0.22784346684E-02 -0.17671496164E+03  0.27860429541E+03  0.50400001928E-02 0. -1.
</event>
<event>
 5   0  0.2313036E-03  0.9960407E+03  0.7818609E-02  0.9312898E-01
       -1   -1    0    0    0  501  0.00000000000E+00  0.00000000000E+00  0.41516537960E+03  0.41516537963E+03  0.50400001928E-02 0. -1.
        1   -1    0    0  501    0  0.00000000000E+00  0.00000000000E+00 -0.59741072057E+03  0.59741072059E+03  0.50400001928E-02 0.  1.
    10030    2    1    2    0    0  0.00000000000E+00  0.00000000000E+00 -0.18224534097E+03  0.10125761002E+04  0.99604065903E+03 0.  0.
        3    1    3    3  502    0 -0.43702793525E+03  0.12034322199E+03  0.11857416220E+03  0.46854642184E+03  0.10100000352E+00 0. -1.
       -3    1    3    3    0  502  0.43702793525E+03 -0.12034322199E+03 -0.30081950318E+03  0.54402967839E+03  0.10100000352E+00 0.  1.
</event>
<event>
 5   0  0.4026829E-03  0.1004768E+04  0.7818609E-02  0.9303331E-01
        2   -1    0    0  501    0  0.00000000000E+00  0.00000000000E+00  0.20789349055E+04  0.20789349055E+04  0.25500000920E-02 0. -1.
       -2   -1    0    0    0  501  0.00000000000E+00  0.00000000000E+00 -0.12140337032E+03  0.12140337034E+03  0.25500000920E-02 0.  1.
    10030    2    1    2    0    0  0.00000000000E+00  0.00000000000E+00  0.19575315352E+04  0.22003382758E+04  0.10047680413E+04 0.  0.
        1    1    3    3  502    0 -0.45810194586E+03 -0.20123228509E+03  0.87990754008E+03  0.10122198894E+04  0.50400001928E-02 0. -1.
       -1    1    3    3    0  502  0.45810194586E+03  0.20123228509E+03  0.10776239951E+04  0.11881183864E+04  0.50400001928E-02 0.  1.
</event>
<event>
 5   0  0.2378609E-03  0.9979908E+03  0.7818609E-02  0.9310751E-01
       -1   -1    0    0    0  501  0.00000000000E+00  0.00000000000E+00  0.57448249341E+03  0.57448249343E+03  0.50400001928E-02 0. -1.
        1   -1    0    0  501    0  0.00000000000E+00  0.00000000000E+00 -0.43342733220E+03  0.43342733223E+03  0.50400001928E-02 0.  1.
    10030    2    1    2    0    0  0.00000000000E+00  0.00000000000E+00  0.14105516121E+03  0.10079098257E+04  0.99799081066E+03 0.  0.
        1    1    3    3  502    0 -0.25443301793E+02  0.41014447863E+03 -0.21535929891E+03  0.46394555996E+03  0.50400001928E-02 0.  1.
       -1    1    3    3    0  502  0.25443301793E+02 -0.41014447863E+03  0.35641446012E+03  0.54396426570E+03  0.50400001928E-02 0. -1.
</event>
<event>
 5   0  0.3873874E-03  0.1004515E+04  0.7818609E-02  0.9303606E-01
        2   -1    0    0  501    0  0.00000000000E+00  0.00000000000E+00  0.11381141286E+04  0.11381141286E+04  0.25500000920E-02 0.  1.
       -2   -1    0    0    0  501  0.00000000000E+00  0.00000000000E+00 -0.22164973930E+03  0.22164973931E+03  0.25500000920E-02 0. -1.
    10030    2    1    2    0    0  0.00000000000E+00  0.00000000000E+00  0.91646438928E+03  0.13597638679E+04  0.10045152063E+04 0.  0.
        5    1    3    3  502    0 -0.53640210844E+02 -0.12128678989E+03 -0.19749002470E+03  0.23793309454E+03  0.46999998093E+01 0. -1.
       -5    1    3    3    0  502  0.53640210844E+02  0.12128678989E+03  0.11139544140E+04  0.11218307734E+04  0.46999998093E+01 0.  1.
</event>
<event>
 5   0  0.2350769E-03  0.1005859E+04  0.7818609E-02  0.9302142E-01
       -1   -1    0    0    0  501  0.00000000000E+00  0.00000000000E+00  0.90240412574E+03  0.90240412576E+03  0.50400001928E-02 0. -1.
        1   -1    0    0  501    0  0.00000000000E+00  0.00000000000E+00 -0.28029379239E+03  0.28029379244E+03  0.50400001928E-02 0.  1.
    10030    2    1    2    0    0  0.00000000000E+00  0.00000000000E+00  0.62211033335E+03  0.11826979182E+04  0.10058593832E+04 0.  0.
        2    1    3    3  502    0  0.49031961657E+03  0.73551070613E+02  0.21187387493E+03  0.53917865802E+03  0.25500000920E-02 0.  1.
       -2    1    3    3    0  502 -0.49031961657E+03 -0.73551070613E+02  0.41023645842E+03  0.64351926017E+03  0.25500000920E-02 0. -1.
</event>
<event>
 5   0  0.4140860E-03  0.1000083E+04  0.7818609E-02  0.9308454E-01
       -2   -1    0    0    0  501  0.00000000000E+00  0.00000000000E+00  0.40786369629E+03  0.40786369630E+03  0.25500000920E-02 0.  1.
        2   -1    0    0  501    0  0.00000000000E+00  0.00000000000E+00 -0.61305176182E+03  0.61305176182E+03  0.25500000920E-02 0. -1.
    10030    2    1    2    0    0  0.00000000000E+00  0.00000000000E+00 -0.20518806552E+03  0.10209154581E+04  0.10000831117E+04 0.  0.
        3    1    3    3  502    0  0.40983196020E+03 -0.15562961042E+03  0.14295496037E+03  0.46110621568E+03  0.10100000352E+00 0.  1.
       -3    1    3    3    0  502 -0.40983196020E+03  0.15562961042E+03 -0.34814302590E+03  0.55980924244E+03  0.10100000352E+00 0. -1.
</event>
<event>
 5   0  0.3895011E-03  0.9884904E+03  0.7818609E-02  0.9321259E-01
        2   -1    0    0  501    0  0.00000000000E+00  0.00000000000E+00  0.41806787849E+03  0.41806787850E+03  0.25500000920E-02 0.  1.
       -2   -1    0    0    0  501  0.00000000000E+00  0.00000000000E+00 -0.58430294937E+03  0.58430294938E+03  0.25500000920E-02 0. -1.
    10030    2    1    2    0    0  0.00000000000E+00  0.00000000000E+00 -0.16623507088E+03  0.10023708279E+04  0.98849035291E+03 0.  0.
        2    1    3    3  502    0  0.31073208555E+03 -0.31884548921E+03 -0.30075048212E+03  0.53727807278E+03  0.25500000920E-02 0. -1.
       -2    1    3    3    0  502 -0.31073208555E+03  0.31884548921E+03  0.13451541124E+03  0.46509275510E+03  0.25500000920E-02 0.  1.
</event>
<event>
 5   0  0.1548000E-03  0.1000045E+04  0.7818609E-02  0.9308495E-01
        4   -1    0    0  501    0  0.00000000000E+00  0.00000000000E+00  0.42919642010E+03  0.42919829908E+03  0.12699999809E+01 0. -1.
       -4   -1    0    0    0  501  0.00000000000E+00  0.00000000000E+00 -0.58253248106E+03  0.58253386545E+03  0.12699999809E+01 0.  1.
    10030    2    1    2    0    0  0.00000000000E+00  0.00000000000E+00 -0.15333606096E+03  0.10117321645E+04  0.10000450116E+04 0.  0.
        1    1    3    3  502    0  0.35495137258E+03 -0.34809125010E+03 -0.22521422643E+02  0.49765973294E+03  0.50400001928E-02 0.  1.
       -1    1    3    3    0  502 -0.35495137258E+03  0.34809125010E+03 -0.13081463831E+03  0.51407243158E+03  0.50400001928E-02 0. -1.
</event>
<event>
 5   0  0.3873874E-03  0.9861462E+03  0.7818609E-02  0.9323871E-01
        2   -1    0    0  501    0  0.00000000000E+00  0.00000000000E+00  0.10592583754E+04  0.10592583754E+04  0.25500000920E-02 0.  1.
       -2   -1    0    0    0  501  0.00000000000E+00  0.00000000000E+00 -0.22952008659E+03  0.22952008661E+03  0.25500000920E-02 0. -1.
    10030    2    1    2    0    0  0.00000000000E+00  0.00000000000E+00  0.82973828882E+03  0.12887784620E+04  0.98614618401E+03 0.  0.
        5    1    3    3  502    0  0.10268281820E+00  0.27214621434E+03  0.95218025209E+03  0.99031959235E+03  0.46999998093E+01 0.  1.
       -5    1    3    3    0  502 -0.10268281820E+00 -0.27214621434E+03 -0.12244196326E+03  0.29845886968E+03  0.46999998093E+01 0. -1.
</event>
<event>
 5   0  0.3873874E-03  0.9721056E+03  0.7818609E-02  0.9339679E-01
       -2   -1    0    0    0  501  0.00000000000E+00  0.00000000000E+00  0.15129713693E+03  0.15129713695E+03  0.25500000920E-02 0. -1.
        2   -1    0    0  501    0  0.00000000000E+00  0.00000000000E+00 -0.15614792575E+04  0.15614792575E+04  0.25500000920E-02 0.  1.
    10030    2    1    2    0    0  0.00000000000E+00  0.00000000000E+00 -0.14101821205E+04  0.17127763944E+04  0.97210563428E+03 0.  0.
        5    1    3    3  502    0  0.32466276474E+03  0.34812270512E+03 -0.87799249730E+03  0.99874333237E+03  0.46999998093E+01 0. -1.
       -5    1    3    3    0  502 -0.32466276474E+03 -0.34812270512E+03 -0.53218962322E+03  0.71403306204E+03  0.46999998093E+01 0.  1.
</event>
<event>
 5   0  0.4140860E-03  0.9875237E+03  0.7818609E-02  0.9322335E-01
        2   -1    0    0  501    0  0.00000000000E+00  0.00000000000E+00  0.94353591909E+03  0.94353591910E+03  0.25500000920E-02 0.  1.
       -2   -1    0    0    0  501  0.00000000000E+00  0.00000000000E+00 -0.25839056247E+03  0.25839056248E+03  0.25500000920E-02 0. -1.
    10030    2    1    2    0    0  0.00000000000E+00  0.00000000000E+00  0.68514535662E+03  0.12019264816E+04  0.98752372499E+03 0.  0.
        3    1    3    3  502    0 -0.26862254680E+03 -0.22959835968E+02 -0.16089905377E+03  0.31396455600E+03  0.10100000352E+00 0. -1.
       -3    1    3    3    0  502  0.26862254680E+03  0.22959835968E+02  0.84604441039E+03  0.88796192558E+03  0.10100000352E+00 0.  1.
</event>
<event>
 5   0  0.4026829E-03  0.1001519E+04  0.7818609E-02  0.9306881E-01
        2   -1    0    0  501    0  0.00000000000E+00  0.00000000000E+00  0.83636712423E+03  0.83636712423E+03  0.25500000920E-02 0. -1.
       -2   -1    0    0    0  501  0.00000000000E+00  0.00000000000E+00 -0.29982030237E+03  0.29982030238E+03  0.25500000920E-02 0.  1.
    10030    2    1    2    0    0  0.00000000000E+00  0.00000000000E+00  0.53654682186E+03  0.11361874266E+04  0.10015185352E+04 0.  0.
        1    1    3    3  502    0  0.46482871268E+03 -0.92075632179E+02  0.84587530309E+02  0.48135091616E+03  0.50400001928E-02 0. -1.
       -1    1    3    3    0  502 -0.46482871268E+03  0.92075632179E+02  0.45195929155E+03  0.65483651045E+03  0.50400001928E-02 0.  1.
</event>
<event>
 5   0  0.2327595E-03  0.9986605E+03  0.7818609E-02  0.9310015E-01
        1   -1    0    0  501    0  0.00000000000E+00  0.00000000000E+00  0.80125284814E+03  0.80125284816E+03  0.50400001928E-02 0.  1.
       -1   -1    0    0    0  501  0.00000000000E+00  0.00000000000E+00 -0.31117605918E+03  0.31117605922E+03  0.50400001928E-02 0. -1.
    10030    2    1    2    0    0  0.00000000000E+00  0.00000000000E+00  0.49007678896E+03  0.11124289074E+04  0.99866051033E+03 0.  0.
        5    1    3    3  502    0  0.13605963627E+03 -0.13653082317E+03  0.75811447093E+03  0.78224838213E+03  0.46999998093E+01 0.  1.
       -5    1    3    3    0  502 -0.13605963627E+03  0.13653082317E+03 -0.26803768197E+03  0.33018052525E+03  0.46999998093E+01 0. -1.
</event>
<event>
 5   0  0.2378609E-03  0.9949608E+03  0.7818609E-02  0.9314089E-01
        1   -1    0    0  501    0  0.00000000000E+00  0.00000000000E+00  0.10957065734E+04  0.10957065734E+04  0.50400001928E-02 0.  1.
       -1   -1    0    0    0  501  0.00000000000E+00  0.00000000000E+00 -0.22586954979E+03  0.22586954984E+03  0.50400001928E-02 0. -1.
    10030    2    1    2    0    0  0.00000000000E+00  0.00000000000E+00  0.86983702365E+03  0.13215761233E+04  0.99496080423E+03 0.  0.
        1    1    3    3  502    0  0.20978394429E+03  0.45072847934E+03  0.45872698246E+03  0.67645835780E+03  0.50400001928E-02 0. -1.
       -1    1    3    3    0  502 -0.20978394429E+03 -0.45072847934E+03  0.41111004118E+03  0.64511776549E+03  0.50400001928E-02 0.  1.
</event>
<event>
 5   0  0.1548000E-03  0.9976456E+03  0.7818609E-02  0.9311131E-01
       -3   -1    0    0    0  501  0.00000000000E+00  0.00000000000E+00  0.55357316946E+03  0.55357317868E+03  0.10100000352E+00 0.  1.
        3   -1    0    0  501    0  0.00000000000E+00  0.00000000000E+00 -0.44948740448E+03  0.44948741582E+03  0.10100000352E+00 0. -1.
    10030    2    1    2    0    0  0.00000000000E+00  0.00000000000E+00  0.10408576499E+03  0.10030605945E+04  0.99764558324E+03 0.  0.
        1    1    3    3  502    0 -0.40130834561E+03  0.26578024754E+03  0.18366044335E+03  0.51518801103E+03  0.50400001928E-02 0.  1.
       -1    1    3    3    0  502  0.40130834561E+03 -0.26578024754E+03 -0.79574678357E+02  0.48787258347E+03  0.50400001928E-02 0. -1.
</event>
<event>
 5   0  0.3895011E-03  0.9835662E+03  0.7818609E-02  0.9326755E-01
        2   -1    0    0  501    0  0.00000000000E+00  0.00000000000E+00  0.16724582298E+04  0.16724582298E+04  0.25500000920E-02 0. -1.
       -2   -1    0    0    0  501  0.00000000000E+00  0.00000000000E+00 -0.14460787919E+03  0.14460787921E+03  0.25500000920E-02 0.  1.
    10030    2    1    2    0    0  0.00000000000E+00  0.00000000000E+00  0.15278503506E+04  0.18170661090E+04  0.98356624112E+03 0.  0.
        2    1    3    3  502    0 -0.36906548008E+03  0.17332226492E+03  0.25596457589E+03  0.48142268353E+03  0.25500000920E-02 0.  1.
       -2    1    3    3    0  502  0.36906548008E+03 -0.17332226492E+03  0.12718857747E+04  0.13356434255E+04  0.25500000920E-02 0. -1.
</event>
<event>
 5   0  0.2350769E-03  0.1003848E+04  0.7818609E-02  0.9304335E-01
       -1   -1    0    0    0  501  0.00000000000E+00  0.00000000000E+00  0.53090305998E+03  0.53090306001E+03  0.50400001928E-02 0. -1.
        1   -1    0    0  501    0  0.00000000000E+00  0.00000000000E+00 -0.47452638049E+03  0.47452638051E+03  0.50400001928E-02 0.  1.
    10030    2    1    2    0    0  0.00000000000E+00  0.00000000000E+00  0.56376679498E+02  0.10054294405E+04  0.10038476129E+04 0.  0.
        2    1    3    3  502    0  0.47605532645E+03 -0.12924994122E+03  0.12103439323E+03  0.50792080633E+03  0.25500000920E-02 0. -1.
       -2    1    3    3    0  502 -0.47605532645E+03  0.12924994122E+03 -0.64657713729E+02  0.49750863420E+03  0.25500000920E-02 0.  1.
</event>
<event>
 5   0  0.4026829E-03  0.9941559E+03  0.7818609E-02  0.9314978E-01
       -2   -1    0    0    0  501  0.00000000000E+00  0.00000000000E+00  0.10796711121E+03  0.10796711124E+03  0.25500000920E-02 0.  1.
        2   -1    0    0  501    0  0.00000000000E+00  0.00000000000E+00 -0.22885347311E+04  0.22885347311E+04  0.25500000920E-02 0. -1.
    10030    2    1    2    0    0  0.00000000000E+00  0.00000000000E+00 -0.21805676199E+04  0.23965018423E+04  0.99415589093E+03 0.  0.
        1    1    3    3  502    0  0.46599554928E+03 -0.73387765901E+02 -0.71259074573E+03  0.85458948452E+03  0.50400001928E-02 0.  1.
       -1    1    3    3    0  502 -0.46599554928E+03  0.73387765901E+02 -0.14679768741E+04  0.15419123578E+04  0.50400001928E-02 0. -1.
</event>
<event>
 5   0  0.3873874E-03  0.1005026E+04  0.7818609E-02  0.9303049E-01
        2   -1    0    0  501    0  0.00000000000E+00  0.00000000000E+00  0.14772490251E+04  0.14772490251E+04  0.25500000920E-02 0. -1.
       -2   -1    0    0    0  501  0.00000000000E+00  0.00000000000E+00 -0.17093890144E+03  0.17093890146E+03  0.25500000920E-02 0.  1.
    10030    2    1    2    0    0  0.00000000000E+00  0.00000000000E+00  0.13063101237E+04  0.16481879266E+04  0.10050260206E+04 0.  0.
        5    1    3    3  502    0 -0.10516936880E+03 -0.46211658454E+03  0.37930428243E+03  0.60704708426E+03  0.46999998093E+01 0.  1.
       -5    1    3    3    0  502  0.10516936880E+03  0.46211658454E+03  0.92700584124E+03  0.10411408423E+04  0.46999998093E+01 0. -1.
</event>
<event>
 5   0  0.1548000E-03  0.1003210E+04  0.7818609E-02  0.9305031E-01
       -3   -1    0    0    0  501  0.00000000000E+00  0.00000000000E+00  0.63367522889E+03  0.63367523694E+03  0.10100000352E+00 0. -1.
        3   -1    0    0  501    0  0.00000000000E+00  0.00000000000E+00 -0.39706052042E+03  0.39706053326E+03  0.10100000352E+00 0.  1.
    10030    2    1    2    0    0  0.00000000000E+00  0.00000000000E+00  0.23661470848E+03  0.10307357702E+04  0.10032097028E+04 0.  0.
        1    1    3    3  502    0 -0.26374081996E+03 -0.21042623929E+03  0.49966405727E+03  0.60291176174E+03  0.50400001928E-02 0. -1.
       -1    1    3    3    0  502  0.26374081996E+03  0.21042623929E+03 -0.26304934879E+03  0.42782400847E+03  0.50400001928E-02 0.  1.
</event>
<event>
 5   0  0.2313036E-03  0.1002299E+04  0.7818609E-02  0.9306027E-01
       -1   -1    0    0    0  501  0.00000000000E+00  0.00000000000E+00  0.22915531958E+03  0.22915531964E+03  0.50400001928E-02 0. -1.
        1   -1    0    0  501    0  0.00000000000E+00  0.00000000000E+00 -0.10959850961E+04  0.10959850961E+04  0.50400001928E-02 0.  1.
    10030    2    1    2    0    0  0.00000000000E+00  0.00000000000E+00 -0.86682977652E+03  0.13251404158E+04  0.10022989873E+04 0.  0.
        3    1    3    3  502    0  0.28118121161E+03  0.93766526779E+02 -0.96767416891E+03  0.10120515514E+04  0.10100000352E+00 0.  1.
       -3    1    3    3    0  502 -0.28118121161E+03 -0.93766526779E+02  0.10084439239E+03  0.31308886436E+03  0.10100000352E+00 0. -1.
</event>
<event>
 5   0  0.2327595E-03  0.9973396E+03  0.7818609E-02  0.9311467E-01
       -1   -1    0    0    0  501  0.00000000000E+00  0.00000000000E+00  0.39083979639E+03  0.39083979642E+03  0.50400001928E-02 0. -1.
        1   -1    0    0  501    0  0.00000000000E+00  0.00000000000E+00 -0.63624940349E+03  0.63624940351E+03  0.50400001928E-02 0.  1.
    10030    2    1    2    0    0  0.00000000000E+00  0.00000000000E+00 -0.24540960711E+03  0.10270891999E+04  0.99733963591E+03 0.  0.
        5    1    3    3  502    0 -0.39215084813E+03  0.10704552232E+03 -0.42012479039E+03  0.58460923790E+03  0.46999998093E+01 0.  1.
       -5    1    3    3    0  502  0.39215084813E+03 -0.10704552232E+03  0.17471518329E+03  0.44247996204E+03  0.46999998093E+01 0. -1.
</event>
<event>
 5   0  0.4026829E-03  0.9890990E+03  0.7818609E-02  0.9320582E-01
       -2   -1    0    0    0  501  0.00000000000E+00  0.00000000000E+00  0.13352981097E+03  0.13352981099E+03  0.25500000920E-02 0.  1.
        2   -1    0    0  501    0  0.00000000000E+00  0.00000000000E+00 -0.18316450259E+04  0.18316450259E+04  0.25500000920E-02 0. -1.
    10030    2    1    2    0    0  0.00000000000E+00  0.00000000000E+00 -0.16981152149E+04  0.19651748369E+04  0.98909901242E+03 0.  0.
        1    1    3    3  502    0 -0.23019687151E+03  0.42902827465E+03 -0.67672511315E+03  0.83367424028E+03  0.50400001928E-02 0. -1.
       -1    1    3    3    0  502  0.23019687151E+03 -0.42902827465E+03 -0.10213901018E+04  0.11315005966E+04  0.50400001928E-02 0.  1.
</event>
<event>
 5   0  0.3826483E-03  0.9967421E+03  0.7818609E-02  0.9312125E-01
        2   -1    0    0  501    0  0.00000000000E+00  0.00000000000E+00  0.44622335373E+03  0.44622335374E+03  0.25500000920E-02 0. -1.
       -2   -1    0    0    0  501  0.00000000000E+00  0.00000000000E+00 -0.55661296209E+03  0.55661296210E+03  0.25500000920E-02 0.  1.
    10030    2    1    2    0    0  0.00000000000E+00  0.00000000000E+00 -0.11038960836E+03  0.10028363158E+04  0.99674209840E+03 0.  0.
        4    1    3    3  502    0  0.21195071964E+03  0.11263932652E+03  0.38423798662E+03  0.45304654142E+03  0.12699999809E+01 0. -1.
       -4    1    3    3    0  502 -0.21195071964E+03 -0.11263932652E+03 -0.49462759498E+03  0.54978977441E+03  0.12699999809E+01 0.  1.
</event>
<event>
 5   0  0.1548000E-03  0.1004567E+04  0.7818609E-02  0.9303550E-01
        4   -1    0    0  501    0  0.00000000000E+00  0.00000000000E+00  0.15170137796E+03  0.15170669391E+03  0.12699999809E+01 0.  1.
       -4   -1    0    0    0  501  0.00000000000E+00  0.00000000000E+00 -0.16630279129E+04  0.16630283978E+04  0.12699999809E+01 0. -1.
    10030    2    1    2    0    0  0.00000000000E+00  0.00000000000E+00 -0.15113265349E+04  0.18147350917E+04  0.10045673486E+04 0.  0.
        4    1    3    3  502    0 -0.19706834315E+03 -0.24552748262E+03 -0.48666166825E+02  0.31857445800E+03  0.12699999809E+01 0.  1.
       -4    1    3    3    0  502  0.19706834315E+03  0.24552748262E+03 -0.14626603681E+04  0.14961606337E+04  0.12699999809E+01 0. -1.
</event>
<event>
 5   0  0.2350769E-03  0.9893601E+03  0.7818609E-02  0.9320292E-01
       -1   -1    0    0    0  501  0.00000000000E+00  0.00000000000E+00  0.24848969430E+03  0.24848969435E+03  0.50400001928E-02 0. -1.
        1   -1    0    0  501    0  0.00000000000E+00  0.00000000000E+00 -0.98478263109E+03  0.98478263110E+03  0.50400001928E-02 0.  1.
    10030    2    1    2    0    0  0.00000000000E+00  0.00000000000E+00 -0.73629293678E+03  0.12332723255E+04  0.98936006588E+03 0.  0.
        2    1    3    3  502    0  0.91537678188E+02  0.41389381838E+03 -0.50289489871E+02  0.42686797985E+03  0.25500000920E-02 0. -1.
       -2    1    3    3    0  502 -0.91537678188E+02 -0.41389381838E+03 -0.68600344691E+03  0.80640434560E+03  0.25500000920E-02 0.  1.
</event>
<event>
 5   0  0.4140860E-03  0.1019634E+04  0.7818609E-02  0.9287269E-01
       -2   -1    0    0    0  501  0.00000000000E+00  0.00000000000E+00  0.26076826567E+03  0.26076826568E+03  0.25500000920E-02 0. -1.
        2   -1    0    0  501    0  0.00000000000E+00  0.00000000000E+00 -0.99672129805E+03  0.99672129806E+03  0.25500000920E-02 0.  1.
    10030    2    1    2    0    0  0.00000000000E+00  0.00000000000E+00 -0.73595303238E+03  0.12574895637E+04  0.10196338250E+04 0.  0.
        3    1    3    3  502    0  0.12499699503E+03 -0.25288638701E+03  0.15574833051E+03  0.32223178950E+03  0.10100000352E+00 0. -1.
       -3    1    3    3    0  502 -0.12499699503E+03  0.25288638701E+03 -0.89170136289E+03  0.93525777425E+03  0.10100000352E+00 0.  1.
</event>
<event>
 5   0  0.2378609E-03  0.1000651E+04  0.7818609E-02  0.9307831E-01
       -1   -1    0    0    0  501  0.00000000000E+00  0.00000000000E+00  0.28809037708E+03  0.28809037712E+03  0.50400001928E-02 0.  1.
        1   -1    0    0  501    0  0.00000000000E+00  0.00000000000E+00 -0.86891373378E+03  0.86891373380E+03  0.50400001928E-02 0. -1.
    10030    2    1    2    0    0  0.00000000000E+00  0.00000000000E+00 -0.58082335671E+03  0.11570041109E+04  0.10006511585E+04 0.  0.
        1    1    3    3  502    0 -0.66902248881E+02 -0.94068504394E+00  0.28289410775E+03  0.29069893708E+03  0.50400001928E-02 0.  1.
       -1    1    3    3    0  502  0.66902248881E+02  0.94068504394E+00 -0.86371746446E+03  0.86630517384E+03  0.50400001928E-02 0. -1.
</event>
<event>
 5   0  0.3873874E-03  0.1006647E+04  0.7818609E-02  0.9301285E-01
        2   -1    0    0  501    0  0.00000000000E+00  0.00000000000E+00  0.81966366928E+03  0.81966366929E+03  0.25500000920E-02 0.  1.
       -2   -1    0    0    0  501  0.00000000000E+00  0.00000000000E+00 -0.30907115335E+03  0.30907115336E+03  0.25500000920E-02 0. -1.
    10030    2    1    2    0    0  0.00000000000E+00  0.00000000000E+00  0.51059251593E+03  0.11287348226E+04  0.10066467019E+04 0.  0.
        5    1    3    3  502    0 -0.34654694995E+03  0.15307129616E+03 -0.11623016410E+03  0.39630436696E+03  0.46999998093E+01 0. -1.
       -5    1    3    3    0  502  0.34654694995E+03 -0.15307129616E+03  0.62682268003E+03  0.73243045569E+03  0.46999998093E+01 0.  1.
</event>
<event>
 5   0  0.2350769E-03  0.9967953E+03  0.7818609E-02  0.9312067E-01
       -1   -1    0    0    0  501  0.00000000000E+00  0.00000000000E+00  0.21128865343E+03  0.21128865349E+03  0.50400001928E-02 0.  1.
        1   -1    0    0  501    0  0.00000000000E+00  0.00000000000E+00 -0.11756439050E+04  0.11756439050E+04  0.50400001928E-02 0. -1.
    10030    2    1    2    0    0  0.00000000000E+00  0.00000000000E+00 -0.96435525155E+03  0.13869325585E+04  0.99679530024E+03 0.  0.
        2    1    3    3  502    0 -0.49258850459E+03  0.71345792844E+02 -0.44625490757E+03  0.66848866822E+03  0.25500000920E-02 0. -1.
       -2    1    3    3    0  502  0.49258850459E+03 -0.71345792844E+02 -0.51810034398E+03  0.71844389025E+03  0.25500000920E-02 0.  1.
</event>
<event>
 5   0  0.4026829E-03  0.9987900E+03  0.7818609E-02  0.9309873E-01
        2   -1    0    0  501    0  0.00000000000E+00  0.00000000000E+00  0.60723624640E+03  0.60723624640E+03  0.25500000920E-02 0.  1.
       -2   -1    0    0    0  501  0.00000000000E+00  0.00000000000E+00 -0.41070564942E+03  0.41070564943E+03  0.25500000920E-02 0. -1.
    10030    2    1    2    0    0  0.00000000000E+00  0.00000000000E+00  0.19653059698E+03  0.10179418958E+04  0.99878998180E+03 0.  0.
        1    1    3    3  502    0 -0.29620171322E+03  0.31839346636E+03  0.34850444749E+03  0.55728377357E+03  0.50400001928E-02 0.  1.
       -1    1    3    3    0  502  0.29620171322E+03 -0.31839346636E+03 -0.15197385051E+03  0.46065812226E+03  0.50400001928E-02 0. -1.
</event>
<event>
 5   0  0.3895011E-03  0.1036076E+04  0.7818609E-02  0.9269839E-01
       -2   -1    0    0    0  501  0.00000000000E+00  0.00000000000E+00  0.25728746621E+03  0.25728746622E+03  0.25500000920E-02 0.  1.
        2   -1    0    0  501    0  0.00000000000E+00  0.00000000000E+00 -0.10430480787E+04  0.10430480787E+04  0.25500000920E-02 0. -1.
    10030    2    1    2    0    0  0.00000000000E+00  0.00000000000E+00 -0.78576061248E+03  0.13003355449E+04  0.10360756677E+04 0.  0.
        2    1    3    3  502    0  0.51366419640E+02 -0.21778289678E+02 -0.10392663619E+04  0.10407628808E+04  0.25500000920E-02 0. -1.
       -2    1    3    3    0  502 -0.51366419640E+02  0.21778289678E+02  0.25350574943E+03  0.25957266414E+03  0.25500000920E-02 0.  1.
</event>
<event>
 5   0  0.1548000E-03  0.9980020E+03  0.7818609E-02  0.9310739E-01
        3   -1    0    0  501    0  0.00000000000E+00  0.00000000000E+00  0.55161007451E+03  0.55161008376E+03  0.10100000352E+00 0. -1.
       -3   -1    0    0    0  501  0.00000000000E+00  0.00000000000E+00 -0.45140946929E+03  0.45140948059E+03  0.10100000352E+00 0.  1.
    10030    2    1    2    0    0  0.00000000000E+00  0.00000000000E+00  0.10020060522E+03  0.10030195643E+04  0.99800204668E+03 0.  0.
        2    1    3    3  502    0 -0.21988488350E+03  0.20584700351E+03  0.44994426349E+03  0.54145377559E+03  0.25500000920E-02 0. -1.
       -2    1    3    3    0  502  0.21988488350E+03 -0.20584700351E+03 -0.34974365827E+03  0.46156578876E+03  0.25500000920E-02 0.  1.
</event>
<event>
 5   0  0.2405022E-03  0.1001581E+04  0.7818609E-02  0.9306813E-01
       -1   -1    0    0    0  501  0.00000000000E+00  0.00000000000E+00  0.29598123954E+03  0.29598123958E+03  0.50400001928E-02 0. -1.
        1   -1    0    0  501    0  0.00000000000E+00  0.00000000000E+00 -0.84732040579E+03  0.84732040580E+03  0.50400001928E-02 0.  1.
    10030    2    1    2    0    0  0.00000000000E+00  0.00000000000E+00 -0.55133916625E+03  0.11433016454E+04  0.10015806388E+04 0.  0.
        4    1    3    3  502    0  0.57363437480E+02  0.49696883496E+03 -0.24962081759E+03  0.55908921681E+03  0.12699999809E+01 0.  1.
       -4    1    3    3    0  502 -0.57363437480E+02 -0.49696883496E+03 -0.30171834865E+03  0.58421242857E+03  0.12699999809E+01 0. -1.
</event>
<event>
 5   0  0.1548000E-03  0.9863149E+03  0.7818609E-02  0.9323683E-01
        3   -1    0    0  501    0  0.00000000000E+00  0.00000000000E+00  0.12993238354E+04  0.12993238394E+04  0.10100000352E+00 0.  1.
       -3   -1    0    0    0  501  0.00000000000E+00  0.00000000000E+00 -0.18717756227E+03  0.18717758951E+03  0.10100000352E+00 0. -1.
    10030    2    1    2    0    0  0.00000000000E+00  0.00000000000E+00  0.11121462732E+04  0.14865014289E+04  0.98631494215E+03 0.  0.
        1    1    3    3  502    0 -0.13530082281E+02  0.44983104548E+03  0.25212169833E+03  0.51584530957E+03  0.50400001928E-02 0. -1.
       -1    1    3    3    0  502  0.13530082281E+02 -0.44983104548E+03  0.86002457483E+03  0.97065611930E+03  0.50400001928E-02 0.  1.
</event>
<event>
 5   0  0.3826483E-03  0.9957420E+03  0.7818609E-02  0.9313227E-01
        2   -1    0    0  501    0  0.00000000000E+00  0.00000000000E+00  0.12415135987E+04  0.12415135987E+04  0.25500000920E-02 0. -1.
       -2   -1    0    0    0  501  0.00000000000E+00  0.00000000000E+00 -0.19965591800E+03  0.19965591801E+03  0.25500000920E-02 0.  1.
    10030    2    1    2    0    0  0.00000000000E+00  0.00000000000E+00  0.10418576807E+04  0.14411695168E+04  0.99574200931E+03 0.  0.
        4    1    3    3  502    0  0.40560506717E+03 -0.97032702853E+02  0.12736327857E+03  0.43606631786E+03  0.12699999809E+01 0.  1.
       -4    1    3    3    0  502 -0.40560506717E+03  0.97032702853E+02  0.91449440216E+03  0.10051031989E+04  0.12699999809E+01 0. -1.
</event>
<event>
 5   0  0.3873874E-03  0.1004998E+04  0.7818609E-02  0.9303080E-01
       -2   -1    0    0    0  501  0.00000000000E+00  0.00000000000E+00  0.44610652715E+03  0.44610652716E+03  0.25500000920E-02 0.  1.
        2   -1    0    0  501    0  0.00000000000E+00  0.00000000000E+00 -0.56602027592E+03  0.56602027592E+03  0.25500000920E-02 0. -1.
    10030    2    1    2    0    0  0.00000000000E+00  0.00000000000E+00 -0.11991374876E+03  0.10121268031E+04  0.10049981882E+04 0.  0.
        5    1    3    3  502    0  0.52530373028E+02 -0.20840280653E+03 -0.51737242411E+03  0.56025662431E+03  0.46999998093E+01 0. -1.
       -5    1    3    3    0  502 -0.52530373028E+02  0.20840280653E+03  0.39745867534E+03  0.45187017877E+03  0.46999998093E+01 0.  1.
</event>
<event>
 5   0  0.2378609E-03  0.9905184E+03  0.7818609E-02  0.9319006E-01
        1   -1    0    0  501    0  0.00000000000E+00  0.00000000000E+00  0.42414109680E+03  0.42414109683E+03  0.50400001928E-02 0. -1.
       -1   -1    0    0    0  501  0.00000000000E+00  0.00000000000E+00 -0.57830206506E+03  0.57830206508E+03  0.50400001928E-02 0.  1.
    10030    2    1    2    0    0  0.00000000000E+00  0.00000000000E+00 -0.15416096827E+03  0.10024431619E+04  0.99051839394E+03 0.  0.
        1    1    3    3  502    0 -0.96215649527E+02 -0.47990405679E+03 -0.15359703299E+03  0.51298869725E+03  0.50400001928E-02 0.  1.
       -1    1    3    3    0  502  0.96215649527E+02  0.47990405679E+03 -0.56393527535E+00  0.48945446467E+03  0.50400001928E-02 0. -1.
</event>
<event>
 5   0  0.3826483E-03  0.1000898E+04  0.7818609E-02  0.9307560E-01
        2   -1    0    0  501    0  0.00000000000E+00  0.00000000000E+00  0.40565100573E+03  0.40565100574E+03  0.25500000920E-02 0.  1.
       -2   -1    0    0    0  501  0.00000000000E+00  0.00000000000E+00 -0.61740062980E+03  0.61740062981E+03  0.25500000920E-02 0. -1.
    10030    2    1    2    0    0  0.00000000000E+00  0.00000000000E+00 -0.21174962407E+03  0.10230516355E+04  0.10008979697E+04 0.  0.
        4    1    3    3  502    0 -0.36657348309E+03  0.22442771338E+03 -0.36787555046E+03  0.56575431997E+03  0.12699999809E+01 0. -1.
       -4    1    3    3    0  502  0.36657348309E+03 -0.22442771338E+03  0.15612592639E+03  0.45729731557E+03  0.12699999809E+01 0.  1.
</event>
<event>
 5   0  0.1548000E-03  0.9937618E+03  0.7818609E-02  0.9315413E-01
       -3   -1    0    0    0  501  0.00000000000E+00  0.00000000000E+00  0.34160471516E+03  0.34160473010E+03  0.10100000352E+00 0. -1.
        3   -1    0    0  501    0  0.00000000000E+00  0.00000000000E+00 -0.72273778566E+03  0.72273779271E+03  0.10100000352E+00 0.  1.
    10030    2    1    2    0    0  0.00000000000E+00  0.00000000000E+00 -0.38113307049E+03  0.10643425228E+04  0.99376183688E+03 0.  0.
        4    1    3    3  502    0 -0.24921354385E+03 -0.39643738503E+03 -0.36855973733E+03  0.59590929139E+03  0.12699999809E+01 0.  1.
       -4    1    3    3    0  502  0.24921354385E+03  0.39643738503E+03 -0.12573333159E+02  0.46843323141E+03  0.12699999809E+01 0. -1.
</event>
<event>
 5   0  0.2313036E-03  0.1026926E+04  0.7818609E-02  0.9279496E-01
        1   -1    0    0  501    0  0.00000000000E+00  0.00000000000E+00  0.11353085867E+04  0.11353085867E+04  0.50400001928E-02 0.  1.
       -1   -1    0    0    0  501  0.00000000000E+00  0.00000000000E+00 -0.23222263143E+03  0.23222263149E+03  0.50400001928E-02 0. -1.
    10030    2    1    2    0    0  0.00000000000E+00  0.00000000000E+00  0.90308595524E+03  0.13675312182E+04  0.10269261853E+04 0.  0.
        3    1    3    3  502    0 -0.58025767246E+02  0.72426654203E+02 -0.22096141837E+03  0.23965927587E+03  0.10100000352E+00 0. -1.
       -3    1    3    3    0  502  0.58025767246E+02 -0.72426654203E+02  0.11240473736E+04  0.11278719423E+04  0.10100000352E+00 0.  1.
</event>
<event>
 5   0  0.2350769E-03  0.9920638E+03  0.7818609E-02  0.9317292E-01
       -1   -1    0    0    0  501  0.00000000000E+00  0.00000000000E+00  0.17803557303E+03  0.17803557310E+03  0.50400001928E-02 0.  1.
        1   -1    0    0  501    0  0.00000000000E+00  0.00000000000E+00 -0.13820140684E+04  0.13820140684E+04  0.50400001928E-02 0. -1.
    10030    2    1    2    0    0  0.00000000000E+00  0.00000000000E+00 -0.12039784953E+04  0.15600496415E+04  0.99206384201E+03 0.  0.
        2    1    3    3  502    0 -0.51296026845E+02  0.39002370250E+03 -0.10771375490E+04  0.11467236242E+04  0.25500000920E-02 0. -1.
       -2    1    3    3    0  502  0.51296026845E+02 -0.39002370250E+03 -0.12684094638E+03  0.41332601728E+03  0.25500000920E-02 0.  1.
</event>
<event>
 5   0  0.2350769E-03  0.1007650E+04  0.7818609E-02  0.9300194E-01
       -1   -1    0    0    0  501  0.00000000000E+00  0.00000000000E+00  0.29141139716E+03  0.29141139720E+03  0.50400001928E-02 0. -1.
        1   -1    0    0  501    0  0.00000000000E+00  0.00000000000E+00 -0.87106980107E+03  0.87106980108E+03  0.50400001928E-02 0.  1.
    10030    2    1    2    0    0  0.00000000000E+00  0.00000000000E+00 -0.57965840391E+03  0.11624811983E+04  0.10076500738E+04 0.  0.
        2    1    3    3  502    0 -0.48361723856E+03  0.12623540407E+03 -0.36296275478E+03  0.61770783712E+03  0.25500000920E-02 0.  1.
       -2    1    3    3    0  502  0.48361723856E+03 -0.12623540407E+03 -0.21669564912E+03  0.54477336116E+03  0.25500000920E-02 0. -1.
</event>
<event>
 5   0  0.2378609E-03  0.9992870E+03  0.7818609E-02  0.9309327E-01
        1   -1    0    0  501    0  0.00000000000E+00  0.00000000000E+00  0.87972567961E+03  0.87972567962E+03  0.50400001928E-02 0. -1.
       -1   -1    0    0    0  501  0.00000000000E+00  0.00000000000E+00 -0.28377440324E+03  0.28377440329E+03  0.50400001928E-02 0.  1.
    10030    2    1    2    0    0  0.00000000000E+00  0.00000000000E+00  0.59595127636E+03  0.11635000829E+04  0.99928700538E+03 0.  0.
        1    1    3    3  502    0 -0.11413141296E+03 -0.38488568844E+03 -0.48362524283E+02  0.40435368970E+03  0.50400001928E-02 0.  1.
       -1    1    3    3    0  502  0.11413141296E+03  0.38488568844E+03  0.64431380065E+03  0.75914639321E+03  0.50400001928E-02 0. -1.
</event>
<event>
 5   0  0.2327595E-03  0.9978320E+03  0.7818609E-02  0.9310926E-01
       -1   -1    0    0    0  501  0.00000000000E+00  0.00000000000E+00  0.39634464760E+03  0.39634464763E+03  0.50400001928E-02 0.  1.
        1   -1    0    0  501    0  0.00000000000E+00  0.00000000000E+00 -0.62803209934E+03  0.62803209936E+03  0.50400001928E-02 0. -1.
    10030    2    1    2    0    0  0.00000000000E+00  0.00000000000E+00 -0.23168745174E+03  0.10243767470E+04  0.99783197207E+03 0.  0.
        5    1    3    3  502    0 -0.45679137954E+03  0.53168532345E+02  0.82717785557E+02  0.46727890954E+03  0.46999998093E+01 0.  1.
       -5    1    3    3    0  502  0.45679137954E+03 -0.53168532345E+02 -0.31440523730E+03  0.55709783745E+03  0.46999998093E+01 0. -1.
</event>
<event>
 5   0  0.2350769E-03  0.9955568E+03  0.7818609E-02  0.9313431E-01
       -1   -1    0    0    0  501  0.00000000000E+00  0.00000000000E+00  0.31077303479E+03  0.31077303483E+03  0.50400001928E-02 0.  1.
        1   -1    0    0  501    0  0.00000000000E+00  0.00000000000E+00 -0.79731285162E+03  0.79731285164E+03  0.50400001928E-02 0. -1.
    10030    2    1    2    0    0  0.00000000000E+00  0.00000000000E+00 -0.48653981683E+03  0.11080858865E+04  0.99555679820E+03 0.  0.
        2    1    3    3  502    0  0.37894131412E+03 -0.26199630902E+03 -0.33426608273E+02  0.46190466942E+03  0.25500000920E-02 0. -1.
       -2    1    3    3    0  502 -0.37894131412E+03  0.26199630902E+03 -0.45311320856E+03  0.64618121705E+03  0.25500000920E-02 0.  1.
</event>
<event>
 5   0  0.3826483E-03  0.1001800E+04  0.7818609E-02  0.9306573E-01
        2   -1    0    0  501    0  0.00000000000E+00  0.00000000000E+00  0.85367688834E+03  0.85367688834E+03  0.25500000920E-02 0.  1.
       -2   -1    0    0    0  501  0.00000000000E+00  0.00000000000E+00 -0.29390607886E+03  0.29390607887E+03  0.25500000920E-02 0. -1.
    10030    2    1    2    0    0  0.00000000000E+00  0.00000000000E+00  0.55977080947E+03  0.11475829672E+04  0.10018000337E+04 0.  0.
        4    1    3    3  502    0 -0.26130952463E+03  0.41094176787E+03  0.14559335616E+03  0.50828618169E+03  0.12699999809E+01 0. -1.
       -4    1    3    3    0  502  0.26130952463E+03 -0.41094176787E+03  0.41417745332E+03  0.63929678552E+03  0.12699999809E+01 0.  1.
</event>
<event>
 5   0  0.3826483E-03  0.1001124E+04  0.7818609E-02  0.9307313E-01
       -2   -1    0    0    0  501  0.00000000000E+00  0.00000000000E+00  0.56532664823E+03  0.56532664824E+03  0.25500000920E-02 0. -1.
        2   -1    0    0  501    0  0.00000000000E+00  0.00000000000E+00 -0.44321656057E+03  0.44321656058E+03  0.25500000920E-02 0.  1.
    10030    2    1    2    0    0  0.00000000000E+00  0.00000000000E+00  0.12211008766E+03  0.10085432088E+04  0.10011236340E+04 0.  0.
        4    1    3    3  502    0  0.32544005765E+03  0.28426623090E+03  0.31559738389E+03  0.53509049961E+03  0.12699999809E+01 0. -1.
       -4    1    3    3    0  502 -0.32544005765E+03 -0.28426623090E+03 -0.19348729623E+03  0.47345270920E+03  0.12699999809E+01 0.  1.
</event>
<event>
 5   0  0.3826483E-03  0.1005983E+04  0.7818609E-02  0.9302007E-01
        2   -1    0    0  501    0  0.00000000000E+00  0.00000000000E+00  0.90939711115E+03  0.90939711115E+03  0.25500000920E-02 0. -1.
       -2   -1    0    0    0  501  0.00000000000E+00  0.00000000000E+00 -0.27820699342E+03  0.27820699343E+03  0.25500000920E-02 0.  1.
    10030    2    1    2    0    0  0.00000000000E+00  0.00000000000E+00  0.63119011773E+03  0.11876041046E+04  0.10059833719E+04 0.  0.
        4    1    3    3  502    0 -0.21309412635E+03  0.29827537966E+03 -0.91000832675E+02  0.37770368445E+03  0.12699999809E+01 0.  1.
       -4    1    3    3    0  502  0.21309412635E+03 -0.29827537966E+03  0.72219095040E+03  0.80990042014E+03  0.12699999809E+01 0. -1.
</event>
<event>
 5   0  0.2405022E-03  0.1002191E+04  0.7818609E-02  0.9306145E-01
        1   -1    0    0  501    0  0.00000000000E+00  0.00000000000E+00  0.51220098982E+03  0.51220098984E+03  0.50400001928E-02 0. -1.
       -1   -1    0    0    0  501  0.00000000000E+00  0.00000000000E+00 -0.49023101306E+03  0.49023101308E+03  0.50400001928E-02 0.  1.
    10030    2    1    2    0    0  0.00000000000E+00  0.00000000000E+00  0.21969976760E+02  0.10024320029E+04  0.10021912196E+04 0.  0.
        4    1    3    3  502    0 -0.21651706817E+03 -0.33030956385E+03 -0.29749006114E+03  0.49445525395E+03  0.12699999809E+01 0.  1.
       -4    1    3    3    0  502  0.21651706817E+03  0.33030956385E+03  0.31946003790E+03  0.50797674897E+03  0.12699999809E+01 0. -1.
</event>
<event>
 5   0  0.2405022E-03  0.1001745E+04  0.7818609E-02  0.9306633E-01
        1   -1    0    0  501    0  0.00000000000E+00  0.00000000000E+00  0.31162228457E+03  0.31162228461E+03  0.50400001928E-02 0.  1.
       -1   -1    0    0    0  501  0.00000000000E+00  0.00000000000E+00 -0.80505608628E+03  0.80505608630E+03  0.50400001928E-02 0. -1.
    10030    2    1    2    0    0  0.00000000000E+00  0.00000000000E+00 -0.49343380171E+03  0.11166783709E+04  0.10017453106E+04 0.  0.
        4    1    3    3  502    0  0.14045415538E+03 -0.47763264528E+03 -0.18554365513E+03  0.53130817277E+03  0.12699999809E+01 0. -1.
       -4    1    3    3    0  502 -0.14045415538E+03  0.47763264528E+03 -0.30789014658E+03  0.58537019813E+03  0.12699999809E+01 0.  1.
</event>
<event>
 5   0  0.3873874E-03  0.9881962E+03  0.7818609E-02  0.9321587E-01
        2   -1    0    0  501    0  0.00000000000E+00  0.00000000000E+00  0.89103301460E+03  0.89103301461E+03  0.25500000920E-02 0.  1.
       -2   -1    0    0    0  501  0.00000000000E+00  0.00000000000E+00 -0.27398867644E+03  0.27398867645E+03  0.25500000920E-02 0. -1.
    10030    2    1    2    0    0  0.00000000000E+00  0.00000000000E+00  0.61704433816E+03  0.11650216911E+04  0.98819624841E+03 0.  0.
        5    1    3    3  502    0 -0.32883128108E+03 -0.15782902346E+03 -0.84385826482E+02  0.37441029603E+03  0.46999998093E+01 0. -1.
       -5    1    3    3    0  502  0.32883128108E+03  0.15782902346E+03  0.70143016465E+03  0.79061139502E+03  0.46999998093E+01 0.  1.
</event>
<event>
 5   0  0.2327595E-03  0.9941062E+03  0.7818609E-02  0.9315033E-01
        1   -1    0    0  501    0  0.00000000000E+00  0.00000000000E+00  0.10538995277E+04  0.10538995277E+04  0.50400001928E-02 0.  1.
       -1   -1    0    0    0  501  0.00000000000E+00  0.00000000000E+00 -0.23442631174E+03  0.23442631180E+03  0.50400001928E-02 0. -1.
    10030    2    1    2    0    0  0.00000000000E+00  0.00000000000E+00  0.81947321596E+03  0.12883258395E+04  0.99410619004E+03 0.  0.
        5    1    3    3  502    0  0.20331758056E+02 -0.62070909992E+02  0.10482846667E+04  0.10503280491E+04  0.46999998093E+01 0.  1.
       -5    1    3    3    0  502 -0.20331758056E+02  0.62070909992E+02 -0.22881145075E+03  0.23799779042E+03  0.46999998093E+01 0. -1.
</event>
<event>
 5   0  0.2327595E-03  0.9954831E+03  0.7818609E-02  0.9313513E-01
       -1   -1    0    0    0  501  0.00000000000E+00  0.00000000000E+00  0.59552251536E+03  0.59552251538E+03  0.50400001928E-02 0.  1.
        1   -1    0    0  501    0  0.00000000000E+00  0.00000000000E+00 -0.41601558958E+03  0.41601558961E+03  0.50400001928E-02 0. -1.
    10030    2    1    2    0    0  0.00000000000E+00  0.00000000000E+00  0.17950692578E+03  0.10115381050E+04  0.99548309952E+03 0.  0.
        5    1    3    3  502    0  0.34133727702E+03  0.17789823253E+03 -0.23087576300E+03  0.44887038860E+03  0.46999998093E+01 0. -1.
       -5    1    3    3    0  502 -0.34133727702E+03 -0.17789823253E+03  0.41038268878E+03  0.56266771639E+03  0.46999998093E+01 0.  1.
</event>
<event>
 5   0  0.3895011E-03  0.9964044E+03  0.7818609E-02  0.9312497E-01
        2   -1    0    0  501    0  0.00000000000E+00  0.00000000000E+00  0.33111165148E+03  0.33111165149E+03  0.25500000920E-02 0. -1.
       -2   -1    0    0    0  501  0.00000000000E+00  0.00000000000E+00 -0.74961253375E+03  0.74961253375E+03  0.25500000920E-02 0.  1.
    10030    2    1    2    0    0  0.00000000000E+00  0.00000000000E+00 -0.41850088226E+03  0.10807241852E+04  0.99640442397E+03 0.  0.
        2    1    3    3  502    0 -0.20815562439E+03 -0.36746490025E+03  0.77398736000E+02  0.42935973405E+03  0.25500000920E-02 0.  1.
       -2    1    3    3    0  502  0.20815562439E+03  0.36746490025E+03 -0.49589961826E+03  0.65136445120E+03  0.25500000920E-02 0. -1.
</event>
<event>
 5   0  0.2313036E-03  0.9989993E+03  0.7818609E-02  0.9309643E-01
       -1   -1    0    0    0  501  0.00000000000E+00  0.00000000000E+00  0.13685466024E+04  0.13685466024E+04  0.50400001928E-02 0. -1.
        1   -1    0    0  501    0  0.00000000000E+00  0.00000000000E+00 -0.18231010579E+03  0.18231010586E+03  0.50400001928E-02 0.  1.
    10030    2    1    2    0    0  0.00000000000E+00  0.00000000000E+00  0.11862364966E+04  0.15508567083E+04  0.99899925112E+03 0.  0.
        3    1    3    3  502    0  0.19405365844E+03 -0.33049068999E+03  0.10904203420E+04  0.11558103006E+04  0.10100000352E+00 0. -1.
       -3    1    3    3    0  502 -0.19405365844E+03  0.33049068999E+03  0.95816154594E+02  0.39504640766E+03  0.10100000352E+00 0.  1.
</event>
<event>
 5   0  0.4140860E-03  0.1003689E+04  0.7818609E-02  0.9304508E-01
       -2   -1    0    0    0  501  0.00000000000E+00  0.00000000000E+00  0.32740665337E+03  0.32740665337E+03  0.25500000920E-02 0. -1.
        2   -1    0    0  501    0  0.00000000000E+00  0.00000000000E+00 -0.76922007453E+03  0.76922007453E+03  0.25500000920E-02 0.  1.
    10030    2    1    2    0    0  0.00000000000E+00  0.00000000000E+00 -0.44181342116E+03  0.10966267279E+04  0.10036887372E+04 0.  0.
        3    1    3    3  502    0  0.17486866163E+02 -0.93429481525E+02 -0.75929506244E+03  0.76522144543E+03  0.10100000352E+00 0.  1.
       -3    1    3    3    0  502 -0.17486866163E+02  0.93429481525E+02  0.31748164127E+03  0.33140528248E+03  0.10100000352E+00 0. -1.
</event>
<event>
 5   0  0.1548000E-03  0.9959592E+03  0.7818609E-02  0.9312988E-01
        3   -1    0    0  501    0  0.00000000000E+00  0.00000000000E+00  0.38800380771E+03  0.38800382085E+03  0.10100000352E+00 0. -1.
       -3   -1    0    0    0  501  0.00000000000E+00  0.00000000000E+00 -0.63912687105E+03  0.63912687903E+03  0.10100000352E+00 0.  1.
    10030    2    1    2    0    0  0.00000000000E+00  0.00000000000E+00 -0.25112306335E+03  0.10271306999E+04  0.99595917673E+03 0.  0.
        1    1    3    3  502    0  0.25180238060E+03 -0.23119229360E+03  0.24788990528E+03  0.42226025229E+03  0.50400001928E-02 0. -1.
       -1    1    3    3    0  502 -0.25180238060E+03  0.23119229360E+03 -0.49901296862E+03  0.60487044760E+03  0.50400001928E-02 0.  1.
</event>
<event>
 5   0  0.3826483E-03  0.9702536E+03  0.7818609E-02  0.9341786E-01
        2   -1    0    0  501    0  0.00000000000E+00  0.00000000000E+00  0.65757056520E+03  0.65757056520E+03  0.25500000920E-02 0. -1.
       -2   -1    0    0    0  501  0.00000000000E+00  0.00000000000E+00 -0.35790533082E+03  0.35790533083E+03  0.25500000920E-02 0.  1.
    10030    2    1    2    0    0  0.00000000000E+00  0.00000000000E+00  0.29966523438E+03  0.10154758960E+04  0.97025359712E+03 0.  0.
        4    1    3    3  502    0 -0.17395113969E+03  0.39941579153E+03  0.37321537008E+03  0.57365782387E+03  0.12699999809E+01 0. -1.
       -4    1    3    3    0  502  0.17395113969E+03 -0.39941579153E+03 -0.73550135697E+02  0.44181807216E+03  0.12699999809E+01 0.  1.
</event>
<event>
 5   0  0.3826483E-03  0.9921734E+03  0.7818609E-02  0.9317171E-01
       -2   -1    0    0    0  501  0.00000000000E+00  0.00000000000E+00  0.18417556653E+03  0.18417556655E+03  0.25500000920E-02 0. -1.
        2   -1    0    0  501    0  0.00000000000E+00  0.00000000000E+00 -0.13362359973E+04  0.13362359973E+04  0.25500000920E-02 0.  1.
    10030    2    1    2    0    0  0.00000000000E+00  0.00000000000E+00 -0.11520604308E+04  0.15204115639E+04  0.99217341598E+03 0.  0.
        4    1    3    3  502    0 -0.21702926110E+03 -0.32312375039E+03 -0.10473219236E+03  0.40308944821E+03  0.12699999809E+01 0. -1.
       -4    1    3    3    0  502  0.21702926110E+03  0.32312375039E+03 -0.10473282385E+04  0.11173221157E+04  0.12699999809E+01 0.  1.
</event>
<event>
 5   0  0.2350769E-03  0.9321038E+03  0.7818609E-02  0.9386317E-01
       -1   -1    0    0    0  501  0.00000000000E+00  0.00000000000E+00  0.47629268300E+03  0.47629268303E+03  0.50400001928E-02 0. -1.
        1   -1    0    0  501    0  0.00000000000E+00  0.00000000000E+00 -0.45603133144E+03  0.45603133147E+03  0.50400001928E-02 0.  1.
    10030    2    1    2    0    0  0.00000000000E+00  0.00000000000E+00  0.20261351564E+02  0.93232401449E+03  0.93210382771E+03 0.  0.
        2    1    3    3  502    0 -0.39125208897E+03 -0.20638956771E+03 -0.13663344952E+03  0.46297251573E+03  0.25500000920E-02 0. -1.
       -2    1    3    3    0  502  0.39125208897E+03  0.20638956771E+03  0.15689480108E+03  0.46935149877E+03  0.25500000920E-02 0.  1.
</event>
<event>
 5   0  0.4026829E-03  0.9968832E+03  0.7818609E-02  0.9311970E-01
        2   -1    0    0  501    0  0.00000000000E+00  0.00000000000E+00  0.61493534420E+03  0.61493534421E+03  0.25500000920E-02 0.  1.
       -2   -1    0    0    0  501  0.00000000000E+00  0.00000000000E+00 -0.40401649789E+03  0.40401649789E+03  0.25500000920E-02 0. -1.
    10030    2    1    2    0    0  0.00000000000E+00  0.00000000000E+00  0.21091884632E+03  0.10189518421E+04  0.99688319115E+03 0.  0.
        1    1    3    3  502    0  0.48198616125E+01 -0.48977539428E+03  0.10996780288E+02  0.48992254195E+03  0.50400001928E-02 0. -1.
       -1    1    3    3    0  502 -0.48198616125E+01  0.48977539428E+03  0.19992206603E+03  0.52902930015E+03  0.50400001928E-02 0.  1.
</event>
<event>
 5   0  0.2378609E-03  0.9893796E+03  0.7818609E-02  0.9320270E-01
       -1   -1    0    0    0  501  0.00000000000E+00  0.00000000000E+00  0.24286589929E+03  0.24286589934E+03  0.50400001928E-02 0. -1.
        1   -1    0    0  501    0  0.00000000000E+00  0.00000000000E+00 -0.10076259503E+04  0.10076259503E+04  0.50400001928E-02 0.  1.
    10030    2    1    2    0    0  0.00000000000E+00  0.00000000000E+00 -0.76476005104E+03  0.12504918497E+04  0.98937956844E+03 0.  0.
        1    1    3    3  502    0  0.46494151918E+03  0.47566513080E+02 -0.17746669607E+03  0.49992761243E+03  0.50400001928E-02 0. -1.
       -1    1    3    3    0  502 -0.46494151918E+03 -0.47566513080E+02 -0.58729335496E+03  0.75056423725E+03  0.50400001928E-02 0.  1.
</event>
<event>
 5   0  0.2327595E-03  0.9978509E+03  0.7818609E-02  0.9310905E-01
        1   -1    0    0  501    0  0.00000000000E+00  0.00000000000E+00  0.40604028126E+03  0.40604028129E+03  0.50400001928E-02 0.  1.
       -1   -1    0    0    0  501  0.00000000000E+00  0.00000000000E+00 -0.61305884031E+03  0.61305884033E+03  0.50400001928E-02 0. -1.
    10030    2    1    2    0    0  0.00000000000E+00  0.00000000000E+00 -0.20701855905E+03  0.10190991216E+04  0.99785085855E+03 0.  0.
        5    1    3    3  502    0  0.37267584155E+03 -0.20663473458E+02  0.23458413772E+03  0.44086967426E+03  0.46999998093E+01 0.  1.
       -5    1    3    3    0  502 -0.37267584155E+03  0.20663473458E+02 -0.44160269677E+03  0.57822944737E+03  0.46999998093E+01 0. -1.
</event>
<event>
 5   0  0.4026829E-03  0.1002130E+04  0.7818609E-02  0.9306212E-01
        2   -1    0    0  501    0  0.00000000000E+00  0.00000000000E+00  0.10759442048E+04  0.10759442048E+04  0.25500000920E-02 0. -1.
       -2   -1    0    0    0  501  0.00000000000E+00  0.00000000000E+00 -0.23334479030E+03  0.23334479031E+03  0.25500000920E-02 0.  1.
    10030    2    1    2    0    0  0.00000000000E+00  0.00000000000E+00  0.84259941451E+03  0.13092889951E+04  0.10021296819E+04 0.  0.
        1    1    3    3  502    0 -0.91886574244E+02 -0.23600541916E+03  0.98616441819E+03  0.10181659787E+04  0.50400001928E-02 0. -1.
       -1    1    3    3    0  502  0.91886574244E+02  0.23600541916E+03 -0.14356500368E+03  0.29112301645E+03  0.50400001928E-02 0.  1.
</event>
<event>
 5   0  0.2327595E-03  0.1001476E+04  0.7818609E-02  0.9306928E-01
       -1   -1    0    0    0  501  0.00000000000E+00  0.00000000000E+00  0.17268129991E+03  0.17268129999E+03  0.50400001928E-02 0. -1.
        1   -1    0    0  501    0  0.00000000000E+00  0.00000000000E+00 -0.14520298338E+04  0.14520298338E+04  0.50400001928E-02 0.  1.
    10030    2    1    2    0    0  0.00000000000E+00  0.00000000000E+00 -0.12793485339E+04  0.16247111338E+04  0.10014757097E+04 0.  0.
        5    1    3    3  502    0 -0.41078941967E+03  0.10065618497E+03 -0.20485487302E+03  0.46996513049E+03  0.46999998093E+01 0. -1.
       -5    1    3    3    0  502  0.41078941967E+03 -0.10065618497E+03 -0.10744936609E+04  0.11547460033E+04  0.46999998093E+01 0.  1.
</event>
<event>
 5   0  0.2313036E-03  0.9879604E+03  0.7818609E-02  0.9321849E-01
       -1   -1    0    0    0  501  0.00000000000E+00  0.00000000000E+00  0.89491600939E+03  0.89491600941E+03  0.50400001928E-02 0.  1.
        1   -1    0    0  501    0  0.00000000000E+00  0.00000000000E+00 -0.27266963764E+03  0.27266963768E+03  0.50400001928E-02 0. -1.
    10030    2    1    2    0    0  0.00000000000E+00  0.00000000000E+00  0.62224637176E+03  0.11675856471E+04  0.98796037174E+03 0.  0.
        3    1    3    3  502    0 -0.16747045162E+03 -0.27814201730E+03  0.75111229815E+03  0.81827808756E+03  0.10100000352E+00 0.  1.
       -3    1    3    3    0  502  0.16747045162E+03  0.27814201730E+03 -0.12886592639E+03  0.34930755953E+03  0.10100000352E+00 0. -1.
</event>
<event>
 5   0  0.2405022E-03  0.1004637E+04  0.7818609E-02  0.9303473E-01
       -1   -1    0    0    0  501  0.00000000000E+00  0.00000000000E+00  0.47613566017E+03  0.47613566020E+03  0.50400001928E-02 0. -1.
        1   -1    0    0  501    0  0.00000000000E+00  0.00000000000E+00 -0.52994132358E+03  0.52994132361E+03  0.50400001928E-02 0.  1.
    10030    2    1    2    0    0  0.00000000000E+00  0.00000000000E+00 -0.53805663411E+02  0.10060769838E+04  0.10046371723E+04 0.  0.
        4    1    3    3  502    0 -0.43379291566E+03 -0.24664612076E+03 -0.84533083179E+02  0.50612059592E+03  0.12699999809E+01 0. -1.
       -4    1    3    3    0  502  0.43379291566E+03  0.24664612076E+03  0.30727419768E+02  0.49995638788E+03  0.12699999809E+01 0.  1.
</event>
<event>
 5   0  0.3873874E-03  0.9860660E+03  0.7818609E-02  0.9323961E-01
        2   -1    0    0  501    0  0.00000000000E+00  0.00000000000E+00  0.12596810071E+04  0.12596810071E+04  0.25500000920E-02 0. -1.
       -2   -1    0    0    0  501  0.00000000000E+00  0.00000000000E+00 -0.19297071019E+03  0.19297071021E+03  0.25500000920E-02 0.  1.
    10030    2    1    2    0    0  0.00000000000E+00  0.00000000000E+00  0.10667102969E+04  0.14526517173E+04  0.98606599894E+03 0.  0.
        5    1    3    3  502    0  0.41454426309E+03  0.25949879522E+03  0.44167561082E+03  0.65900379815E+03  0.46999998093E+01 0.  1.
       -5    1    3    3    0  502 -0.41454426309E+03 -0.25949879522E+03  0.62503468610E+03  0.79364791917E+03  0.46999998093E+01 0. -1.
</event>
<event>
 5   0  0.4026829E-03  0.1004676E+04  0.7818609E-02  0.9303431E-01
        2   -1    0    0  501    0  0.00000000000E+00  0.00000000000E+00  0.22770729405E+04  0.22770729405E+04  0.25500000920E-02 0. -1.
       -2   -1    0    0    0  501  0.00000000000E+00  0.00000000000E+00 -0.11081927342E+03  0.11081927345E+03  0.25500000920E-02 0.  1.
    10030    2    1    2    0    0  0.00000000000E+00  0.00000000000E+00  0.21662536671E+04  0.23878922139E+04  0.10046762042E+04 0.  0.
        1    1    3    3  502    0  0.30573073814E+03  0.39727366209E+03  0.10062601323E+04  0.11242139924E+04  0.50400001928E-02 0. -1.
       -1    1    3    3    0  502 -0.30573073814E+03 -0.39727366209E+03  0.11599935348E+04  0.12636782215E+04  0.50400001928E-02 0.  1.
</event>
<event>
 5   0  0.2350769E-03  0.1004493E+04  0.7818609E-02  0.9303630E-01
       -1   -1    0    0    0  501  0.00000000000E+00  0.00000000000E+00  0.48192092468E+03  0.48192092471E+03  0.50400001928E-02 0.  1.
        1   -1    0    0  501    0  0.00000000000E+00  0.00000000000E+00 -0.52342947218E+03  0.52342947220E+03  0.50400001928E-02 0. -1.
    10030    2    1    2    0    0  0.00000000000E+00  0.00000000000E+00 -0.41508547499E+02  0.10053503969E+04  0.10044931364E+04 0.  0.
        2    1    3    3  502    0 -0.12329927234E+03 -0.53719590480E+02 -0.50507128006E+03  0.52267150573E+03  0.25500000920E-02 0. -1.
       -2    1    3    3    0  502  0.12329927234E+03  0.53719590480E+02  0.46356273256E+03  0.48267889117E+03  0.25500000920E-02 0.  1.
</event>
<event>
 5   0  0.2327595E-03  0.1032428E+04  0.7818609E-02  0.9273676E-01
       -1   -1    0    0    0  501  0.00000000000E+00  0.00000000000E+00  0.11139794644E+04  0.11139794644E+04  0.50400001928E-02 0. -1.
        1   -1    0    0  501    0  0.00000000000E+00  0.00000000000E+00 -0.23921179478E+03  0.23921179484E+03  0.50400001928E-02 0.  1.
    10030    2    1    2    0    0  0.00000000000E+00  0.00000000000E+00  0.87476766961E+03  0.13531912592E+04  0.10324282582E+04 0.  0.
        5    1    3    3  502    0  0.48301890809E+03 -0.14885228184E+03  0.29997603712E+03  0.58776864516E+03  0.46999998093E+01 0.  1.
       -5    1    3    3    0  502 -0.48301890809E+03  0.14885228184E+03  0.57479163249E+03  0.76542261409E+03  0.46999998093E+01 0. -1.
</event>
<event>
 5   0  0.4140860E-03  0.1001812E+04  0.7818609E-02  0.9306560E-01
       -2   -1    0    0    0  501  0.00000000000E+00  0.00000000000E+00  0.42609087015E+03  0.42609087016E+03  0.25500000920E-02 0.  1.
        2   -1    0    0  501    0  0.00000000000E+00  0.00000000000E+00 -0.58885712870E+03  0.58885712870E+03  0.25500000920E-02 0. -1.
    10030    2    1    2    0    0  0.00000000000E+00  0.00000000000E+00 -0.16276625855E+03  0.10149479989E+04  0.10018116517E+04 0.  0.
        3    1    3    3  502    0  0.60125989757E+02  0.41714849062E+03  0.19286672681E+03  0.46349280726E+03  0.10100000352E+00 0.  1.
       -3    1    3    3    0  502 -0.60125989757E+02 -0.41714849062E+03 -0.35563298536E+03  0.55145519160E+03  0.10100000352E+00 0. -1.
</event>
<event>
 5   0  0.4026829E-03  0.9952253E+03  0.7818609E-02  0.9313797E-01
        2   -1    0    0  501    0  0.00000000000E+00  0.00000000000E+00  0.57366458523E+03  0.57366458524E+03  0.25500000920E-02 0.  1.
       -2   -1    0    0    0  501  0.00000000000E+00  0.00000000000E+00 -0.43164308185E+03  0.43164308186E+03  0.25500000920E-02 0. -1.
    10030    2    1    2    0    0  0.00000000000E+00  0.00000000000E+00  0.14202150338E+03  0.10053076671E+04  0.99522530017E+03 0.  0.
        1    1    3    3  502    0  0.15786036744E+01 -0.22553117225E+02  0.57314552689E+03  0.57359125699E+03  0.50400001928E-02 0.  1.
       -1    1    3    3    0  502 -0.15786036744E+01  0.22553117225E+02 -0.43112402351E+03  0.43171641011E+03  0.50400001928E-02 0. -1.
</event>
<event>
 5   0  0.1548000E-03  0.1002772E+04  0.7818609E-02  0.9305510E-01
       -3   -1    0    0    0  501  0.00000000000E+00  0.00000000000E+00  0.42176765515E+03  0.42176766724E+03  0.10100000352E+00 0. -1.
        3   -1    0    0  501    0  0.00000000000E+00  0.00000000000E+00 -0.59603422444E+03  0.59603423300E+03  0.10100000352E+00 0.  1.
    10030    2    1    2    0    0  0.00000000000E+00  0.00000000000E+00 -0.17426656929E+03  0.10178019002E+04  0.10027720932E+04 0.  0.
        3    1    3    3  502    0 -0.43758118629E+03 -0.23887813924E+03 -0.32967729531E+02  0.49962680211E+03  0.10100000352E+00 0.  1.
       -3    1    3    3    0  502  0.43758118629E+03  0.23887813924E+03 -0.14129883976E+03  0.51817509813E+03  0.10100000352E+00 0. -1.
</event>
<event>
 5   0  0.2327595E-03  0.9967594E+03  0.7818609E-02  0.9312106E-01
        1   -1    0    0  501    0  0.00000000000E+00  0.00000000000E+00  0.40858171395E+03  0.40858171398E+03  0.50400001928E-02 0. -1.
       -1   -1    0    0    0  501  0.00000000000E+00  0.00000000000E+00 -0.60791347575E+03  0.60791347577E+03  0.50400001928E-02 0.  1.
    10030    2    1    2    0    0  0.00000000000E+00  0.00000000000E+00 -0.19933176180E+03  0.10164951898E+04  0.99675940905E+03 0.  0.
        5    1    3    3  502    0 -0.26905231186E+03 -0.37063522001E+03 -0.30002640718E+03  0.54753771361E+03  0.46999998093E+01 0.  1.
       -5    1    3    3    0  502  0.26905231186E+03  0.37063522001E+03  0.10069464538E+03  0.46895747614E+03  0.46999998093E+01 0. -1.
</event>
<event>
 5   0  0.2350769E-03  0.1001046E+04  0.7818609E-02  0.9307398E-01
       -1   -1    0    0    0  501  0.00000000000E+00  0.00000000000E+00  0.16817837451E+03  0.16817837458E+03  0.50400001928E-02 0.  1.
        1   -1    0    0  501    0  0.00000000000E+00  0.00000000000E+00 -0.14896295106E+04  0.14896295106E+04  0.50400001928E-02 0. -1.
    10030    2    1    2    0    0  0.00000000000E+00  0.00000000000E+00 -0.13214511361E+04  0.16578078851E+04  0.10010463921E+04 0.  0.
        2    1    3    3  502    0  0.13564406752E+03  0.87275048571E+02  0.12395907809E+03  0.20342590839E+03  0.25500000920E-02 0.  1.
       -2    1    3    3    0  502 -0.13564406752E+03 -0.87275048571E+02 -0.14454102141E+04  0.14543819768E+04  0.25500000920E-02 0. -1.
</event>
<event>
 5   0  0.2327595E-03  0.9991732E+03  0.7818609E-02  0.9309452E-01
       -1   -1    0    0    0  501  0.00000000000E+00  0.00000000000E+00  0.24868470932E+03  0.24868470937E+03  0.50400001928E-02 0. -1.
        1   -1    0    0  501    0  0.00000000000E+00  0.00000000000E+00 -0.10036274265E+04  0.10036274265E+04  0.50400001928E-02 0.  1.
    10030    2    1    2    0    0  0.00000000000E+00  0.00000000000E+00 -0.75494271719E+03  0.12523121359E+04  0.99917324797E+03 0.  0.
        5    1    3    3  502    0 -0.29411517483E+03 -0.50394598099E+01  0.12860142090E+03  0.32107561053E+03  0.46999998093E+01 0. -1.
       -5    1    3    3    0  502  0.29411517483E+03  0.50394598099E+01 -0.88354413809E+03  0.93123652536E+03  0.46999998093E+01 0.  1.
</event>
<event>
 5   0  0.2350769E-03  0.9968353E+03  0.7818609E-02  0.9312023E-01
       -1   -1    0    0    0  501  0.00000000000E+00  0.00000000000E+00  0.15337467898E+03  0.15337467906E+03  0.50400001928E-02 0. -1.
        1   -1    0    0  501    0  0.00000000000E+00  0.00000000000E+00 -0.16196945607E+04  0.16196945607E+04  0.50400001928E-02 0.  1.
    10030    2    1    2    0    0  0.00000000000E+00  0.00000000000E+00 -0.14663198817E+04  0.17730692398E+04  0.99683525895E+03 0.  0.
        2    1    3    3  502    0 -0.20825646517E+03 -0.13259394657E+03  0.36973774080E+02  0.24963767730E+03  0.25500000920E-02 0. -1.
       -2    1    3    3    0  502  0.20825646517E+03  0.13259394657E+03 -0.15032936558E+04  0.15234315625E+04  0.25500000920E-02 0.  1.
</event>
<event>
 5   0  0.2327595E-03  0.9978513E+03  0.7818609E-02  0.9310905E-01
       -1   -1    0    0    0  501  0.00000000000E+00  0.00000000000E+00  0.22722512343E+03  0.22722512349E+03  0.50400001928E-02 0. -1.
        1   -1    0    0  501    0  0.00000000000E+00  0.00000000000E+00 -0.10955074237E+04  0.10955074237E+04  0.50400001928E-02 0.  1.
    10030    2    1    2    0    0  0.00000000000E+00  0.00000000000E+00 -0.86828230022E+03  0.13227325472E+04  0.99785131078E+03 0.  0.
        5    1    3    3  502    0 -0.14478645824E+03 -0.44828377002E+03 -0.65188878082E+03  0.80430251120E+03  0.46999998093E+01 0.  1.
       -5    1    3    3    0  502  0.14478645824E+03  0.44828377002E+03 -0.21639351939E+03  0.51843003596E+03  0.46999998093E+01 0. -1.
</event>
<event>
 5   0  0.1548000E-03  0.1002906E+04  0.7818609E-02  0.9305364E-01
        4   -1    0    0  501    0  0.00000000000E+00  0.00000000000E+00  0.43138307357E+03  0.43138494302E+03  0.12699999809E+01 0.  1.
       -4   -1    0    0    0  501  0.00000000000E+00  0.00000000000E+00 -0.58290032797E+03  0.58290171148E+03  0.12699999809E+01 0. -1.
    10030    2    1    2    0    0  0.00000000000E+00  0.00000000000E+00 -0.15151725440E+03  0.10142866545E+04  0.10029057479E+04 0.  0.
        1    1    3    3  502    0 -0.18996006571E+03 -0.12069187913E+03  0.37743768689E+03  0.43944347050E+03  0.50400001928E-02 0.  1.
       -1    1    3    3    0  502  0.18996006571E+03  0.12069187913E+03 -0.52895494129E+03  0.57484318400E+03  0.50400001928E-02 0. -1.
</event>
<event>
 5   0  0.4140860E-03  0.9972892E+03  0.7818609E-02  0.9311523E-01
       -2   -1    0    0    0  501  0.00000000000E+00  0.00000000000E+00  0.17577489558E+03  0.17577489560E+03  0.25500000920E-02 0.  1.
        2   -1    0    0  501    0  0.00000000000E+00  0.00000000000E+00 -0.14145729904E+04  0.14145729904E+04  0.25500000920E-02 0. -1.
    10030    2    1    2    0    0  0.00000000000E+00  0.00000000000E+00 -0.12387980948E+04  0.15903478860E+04  0.99728916509E+03 0.  0.
        3    1    3    3  502    0  0.23935954855E+03 -0.31694539112E+02 -0.13151377920E+04  0.13371181546E+04  0.10100000352E+00 0. -1.
       -3    1    3    3    0  502 -0.23935954855E+03  0.31694539112E+02  0.76339697171E+02  0.25322973139E+03  0.10100000352E+00 0.  1.
</event>
<event>
 5   0  0.3895011E-03  0.1010237E+04  0.7818609E-02  0.9297388E-01
        2   -1    0    0  501    0  0.00000000000E+00  0.00000000000E+00  0.12659890107E+04  0.12659890107E+04  0.25500000920E-02 0. -1.
       -2   -1    0    0    0  501  0.00000000000E+00  0.00000000000E+00 -0.20153790781E+03  0.20153790782E+03  0.25500000920E-02 0.  1.
    10030    2    1    2    0    0  0.00000000000E+00  0.00000000000E+00  0.10644511029E+04  0.14675269185E+04  0.10102371534E+04 0.  0.
        2    1    3    3  502    0 -0.15168052355E+03 -0.47830731872E+03  0.61642828396E+03  0.79483878971E+03  0.25500000920E-02 0. -1.
       -2    1    3    3    0  502  0.15168052355E+03  0.47830731872E+03  0.44802281894E+03  0.67268812882E+03  0.25500000920E-02 0.  1.
</event>
<event>
 5   0  0.4026829E-03  0.9823200E+03  0.7818609E-02  0.9328151E-01
        2   -1    0    0  501    0  0.00000000000E+00  0.00000000000E+00  0.17018223403E+04  0.17018223403E+04  0.25500000920E-02 0.  1.
       -2   -1    0    0    0  501  0.00000000000E+00  0.00000000000E+00 -0.14175282401E+03  0.14175282403E+03  0.25500000920E-02 0. -1.
    10030    2    1    2    0    0  0.00000000000E+00  0.00000000000E+00  0.15600695163E+04  0.18435751644E+04  0.98231995343E+03 0.  0.
        1    1    3    3  502    0 -0.21932737046E+03  0.98221470061E+01 -0.44536769682E+02  0.22401895876E+03  0.50400001928E-02 0. -1.
       -1    1    3    3    0  502  0.21932737046E+03 -0.98221470061E+01  0.16046062860E+04  0.16195562056E+04  0.50400001928E-02 0.  1.
</event>
<event>
 5   0  0.2350769E-03  0.9974343E+03  0.7818609E-02  0.9311363E-01
        1   -1    0    0  501    0  0.00000000000E+00  0.00000000000E+00  0.11103102353E+04  0.11103102353E+04  0.50400001928E-02 0. -1.
       -1   -1    0    0    0  501  0.00000000000E+00  0.00000000000E+00 -0.22400839443E+03  0.22400839448E+03  0.50400001928E-02 0.  1.
    10030    2    1    2    0    0  0.00000000000E+00  0.00000000000E+00  0.88630184083E+03  0.13343186298E+04  0.99743433500E+03 0.  0.
        2    1    3    3  502    0 -0.25216740343E+03 -0.17530407177E+03 -0.82499881544E+02  0.31800337639E+03  0.25500000920E-02 0.  1.
       -2    1    3    3    0  502  0.25216740343E+03  0.17530407177E+03  0.96880172238E+03  0.10163152534E+04  0.25500000920E-02 0. -1.
</event>
<event>
 5   0  0.3826483E-03  0.8977030E+03  0.7818609E-02  0.9428457E-01
       -2   -1    0    0    0  501  0.00000000000E+00  0.00000000000E+00  0.39447700543E+03  0.39447700544E+03  0.25500000920E-02 0. -1.
        2   -1    0    0  501    0  0.00000000000E+00  0.00000000000E+00 -0.51072100034E+03  0.51072100034E+03  0.25500000920E-02 0.  1.
    10030    2    1    2    0    0  0.00000000000E+00  0.00000000000E+00 -0.11624399491E+03  0.90519800578E+03  0.89770304852E+03 0.  0.
        4    1    3    3  502    0 -0.15663721766E+03  0.15103502409E+03 -0.45397995202E+03  0.50343441101E+03  0.12699999809E+01 0.  1.
       -4    1    3    3    0  502  0.15663721766E+03 -0.15103502409E+03  0.33773595711E+03  0.40176359477E+03  0.12699999809E+01 0. -1.
</event>
<event>
 5   0  0.2405022E-03  0.9924392E+03  0.7818609E-02  0.9316876E-01
       -1   -1    0    0    0  501  0.00000000000E+00  0.00000000000E+00  0.13225661879E+03  0.13225661889E+03  0.50400001928E-02 0. -1.
        1   -1    0    0  501    0  0.00000000000E+00  0.00000000000E+00 -0.18617887259E+04  0.18617887259E+04  0.50400001928E-02 0.  1.
    10030    2    1    2    0    0  0.00000000000E+00  0.00000000000E+00 -0.17295321071E+04  0.19940453448E+04  0.99243918080E+03 0.  0.
        4    1    3    3  502    0 -0.20605411233E+03 -0.22161340548E+03 -0.16549390714E+04  0.16823780020E+04  0.12699999809E+01 0.  1.
       -4    1    3    3    0  502  0.20605411233E+03  0.22161340548E+03 -0.74593035729E+02  0.31166734281E+03  0.12699999809E+01 0. -1.
</event>
<event>
 5   0  0.2350769E-03  0.9910807E+03  0.7818609E-02  0.9318382E-01
        1   -1    0    0  501    0  0.00000000000E+00  0.00000000000E+00  0.11851199259E+04  0.11851199259E+04  0.50400001928E-02 0. -1.
       -1   -1    0    0    0  501  0.00000000000E+00  0.00000000000E+00 -0.20720286935E+03  0.20720286941E+03  0.50400001928E-02 0.  1.
    10030    2    1    2    0    0  0.00000000000E+00  0.00000000000E+00  0.97791705654E+03  0.13923227953E+04  0.99108072167E+03 0.  0.
        2    1    3    3  502    0  0.19911241885E+03 -0.45348624431E+03  0.51181579831E+03  0.71221551550E+03  0.25500000920E-02 0.  1.
       -2    1    3    3    0  502 -0.19911241885E+03  0.45348624431E+03  0.46610125823E+03  0.68010727981E+03  0.25500000920E-02 0. -1.
</event>
<event>
 5   0  0.4140860E-03  0.9880937E+03  0.7818609E-02  0.9321701E-01
       -2   -1    0    0    0  501  0.00000000000E+00  0.00000000000E+00  0.37753034095E+03  0.37753034096E+03  0.25500000920E-02 0.  1.
        2   -1    0    0  501    0  0.00000000000E+00  0.00000000000E+00 -0.64652359970E+03  0.64652359970E+03  0.25500000920E-02 0. -1.
    10030    2    1    2    0    0  0.00000000000E+00  0.00000000000E+00 -0.26899325875E+03  0.10240539407E+04  0.98809366972E+03 0.  0.
        3    1    3    3  502    0  0.49392497732E+03  0.71976905242E+01 -0.12591425999E+03  0.50977259737E+03  0.10100000352E+00 0.  1.
       -3    1    3    3    0  502 -0.49392497732E+03 -0.71976905242E+01 -0.14307899876E+03  0.51428134329E+03  0.10100000352E+00 0. -1.
</event>
<event>
 5   0  0.2327595E-03  0.9965562E+03  0.7818609E-02  0.9312330E-01
       -1   -1    0    0    0  501  0.00000000000E+00  0.00000000000E+00  0.46931834328E+03  0.46931834331E+03  0.50400001928E-02 0. -1.
        1   -1    0    0  501    0  0.00000000000E+00  0.00000000000E+00 -0.52902485618E+03  0.52902485620E+03  0.50400001928E-02 0.  1.
    10030    2    1    2    0    0  0.00000000000E+00  0.00000000000E+00 -0.59706512898E+02  0.99834319951E+03  0.99655620831E+03 0.  0.
        5    1    3    3  502    0  0.36769377604E+03 -0.33373296638E+03  0.11239479779E+02  0.49671402405E+03  0.46999998093E+01 0. -1.
       -5    1    3    3    0  502 -0.36769377604E+03  0.33373296638E+03 -0.70945992676E+02  0.50162917545E+03  0.46999998093E+01 0.  1.
</event>
<event>
 5   0  0.4140860E-03  0.9991078E+03  0.7818609E-02  0.9309524E-01
       -2   -1    0    0    0  501  0.00000000000E+00  0.00000000000E+00  0.24400248898E+03  0.24400248899E+03  0.25500000920E-02 0. -1.
        2   -1    0    0  501    0  0.00000000000E+00  0.00000000000E+00 -0.10227523200E+04  0.10227523200E+04  0.25500000920E-02 0.  1.
    10030    2    1    2    0    0  0.00000000000E+00  0.00000000000E+00 -0.77874983102E+03  0.12667548090E+04  0.99910782542E+03 0.  0.
        3    1    3    3  502    0  0.41843856284E+03  0.23411392603E+03 -0.21162679510E+03  0.52410501986E+03  0.10100000352E+00 0. -1.
       -3    1    3    3    0  502 -0.41843856284E+03 -0.23411392603E+03 -0.56712303592E+03  0.74264978914E+03  0.10100000352E+00 0.  1.
</event>
<event>
 5   0  0.1548000E-03  0.1001663E+04  0.7818609E-02  0.9306723E-01
        3   -1    0    0  501    0  0.00000000000E+00  0.00000000000E+00  0.66600553434E+03  0.66600554200E+03  0.10100000352E+00 0. -1.
       -3   -1    0    0    0  501  0.00000000000E+00  0.00000000000E+00 -0.37662147502E+03  0.37662148856E+03  0.10100000352E+00 0.  1.
    10030    2    1    2    0    0  0.00000000000E+00  0.00000000000E+00  0.28938405932E+03  0.10426270306E+04  0.10016626134E+04 0.  0.
        5    1    3    3  502    0  0.17051505956E+03  0.46074554137E+03  0.24586838451E+03  0.54939529660E+03  0.46999998093E+01 0.  1.
       -5    1    3    3    0  502 -0.17051505956E+03 -0.46074554137E+03  0.43515674814E+02  0.49323173396E+03  0.46999998093E+01 0. -1.
</event>
<event>
 5   0  0.2405022E-03  0.1001250E+04  0.7818609E-02  0.9307175E-01
        1   -1    0    0  501    0  0.00000000000E+00  0.00000000000E+00  0.57890433395E+03  0.57890433397E+03  0.50400001928E-02 0.  1.
       -1   -1    0    0    0  501  0.00000000000E+00  0.00000000000E+00 -0.43293046231E+03  0.43293046234E+03  0.50400001928E-02 0. -1.
    10030    2    1    2    0    0  0.00000000000E+00  0.00000000000E+00  0.14597387164E+03  0.10118347963E+04  0.10012498608E+04 0.  0.
        4    1    3    3  502    0  0.17576552512E+03 -0.27381925248E+03  0.45747356027E+03  0.56138594042E+03  0.12699999809E+01 0.  1.
       -4    1    3    3    0  502 -0.17576552512E+03  0.27381925248E+03 -0.31149968864E+03  0.45044885589E+03  0.12699999809E+01 0. -1.
</event>
<event>
 5   0  0.2327595E-03  0.9998678E+03  0.7818609E-02  0.9308690E-01
       -1   -1    0    0    0  501  0.00000000000E+00  0.00000000000E+00  0.37506234115E+03  0.37506234119E+03  0.50400001928E-02 0. -1.
        1   -1    0    0  501    0  0.00000000000E+00  0.00000000000E+00 -0.66637959716E+03  0.66637959718E+03  0.50400001928E-02 0.  1.
    10030    2    1    2    0    0  0.00000000000E+00  0.00000000000E+00 -0.29131725601E+03  0.10414419384E+04  0.99986777493E+03 0.  0.
        5    1    3    3  502    0 -0.59351304308E+02  0.17316809761E+03 -0.63019140470E+03  0.65625685818E+03  0.46999998093E+01 0.  1.
       -5    1    3    3    0  502  0.59351304308E+02 -0.17316809761E+03  0.33887414869E+03  0.38518508019E+03  0.46999998093E+01 0. -1.
</event>
<event>
 5   0  0.3873874E-03  0.9931407E+03  0.7818609E-02  0.9316100E-01
       -2   -1    0    0    0  501  0.00000000000E+00  0.00000000000E+00  0.46005123584E+03  0.46005123585E+03  0.25500000920E-02 0. -1.
        2   -1    0    0  501    0  0.00000000000E+00  0.00000000000E+00 -0.53598836738E+03  0.53598836738E+03  0.25500000920E-02 0.  1.
    10030    2    1    2    0    0  0.00000000000E+00  0.00000000000E+00 -0.75937131536E+02  0.99603960323E+03  0.99314069661E+03 0.  0.
        5    1    3    3  502    0  0.15893115451E+03 -0.12388401670E+03  0.41717728129E+03  0.46331990621E+03  0.46999998093E+01 0. -1.
       -5    1    3    3    0  502 -0.15893115451E+03  0.12388401670E+03 -0.49311441283E+03  0.53271969703E+03  0.46999998093E+01 0.  1.
</event>
<event>
 5   0  0.2378609E-03  0.9977700E+03  0.7818609E-02  0.9310994E-01
       -1   -1    0    0    0  501  0.00000000000E+00  0.00000000000E+00  0.27730547056E+03  0.27730547061E+03  0.50400001928E-02 0.  1.
        1   -1    0    0  501    0  0.00000000000E+00  0.00000000000E+00 -0.89751657040E+03  0.89751657041E+03  0.50400001928E-02 0. -1.
    10030    2    1    2    0    0  0.00000000000E+00  0.00000000000E+00 -0.62021109984E+03  0.11748220410E+04  0.99777002345E+03 0.  0.
        1    1    3    3  502    0 -0.22440179673E+03  0.36398976338E+03 -0.75185733642E+01  0.42766954906E+03  0.50400001928E-02 0.  1.
       -1    1    3    3    0  502  0.22440179673E+03 -0.36398976338E+03 -0.61269252647E+03  0.74715249196E+03  0.50400001928E-02 0. -1.
</event>
<event>
 5   0  0.3873874E-03  0.1011632E+04  0.7818609E-02  0.9295879E-01
       -2   -1    0    0    0  501  0.00000000000E+00  0.00000000000E+00  0.35850287383E+03  0.35850287384E+03  0.25500000920E-02 0. -1.
        2   -1    0    0  501    0  0.00000000000E+00  0.00000000000E+00 -0.71366115822E+03  0.71366115823E+03  0.25500000920E-02 0.  1.
    10030    2    1    2    0    0  0.00000000000E+00  0.00000000000E+00 -0.35515828439E+03  0.10721640321E+04  0.10116315064E+04 0.  0.
        5    1    3    3  502    0  0.40629022815E+03  0.11596773950E+03  0.11709967334E+03  0.43846857309E+03  0.46999998093E+01 0. -1.
       -5    1    3    3    0  502 -0.40629022815E+03 -0.11596773950E+03 -0.47225795773E+03  0.63369545898E+03  0.46999998093E+01 0.  1.
</event>
<event>
 5   0  0.2350769E-03  0.1000310E+04  0.7818609E-02  0.9308205E-01
        1   -1    0    0  501    0  0.00000000000E+00  0.00000000000E+00  0.58024803684E+03  0.58024803686E+03  0.50400001928E-02 0. -1.
       -1   -1    0    0    0  501  0.00000000000E+00  0.00000000000E+00 -0.43111724818E+03  0.43111724821E+03  0.50400001928E-02 0.  1.
    10030    2    1    2    0    0  0.00000000000E+00  0.00000000000E+00  0.14913078866E+03  0.10113652851E+04  0.10003098259E+04 0.  0.
        2    1    3    3  502    0  0.23367218493E+03  0.67636708134E-01 -0.37253485059E+03  0.43975551105E+03  0.25500000920E-02 0.  1.
       -2    1    3    3    0  502 -0.23367218493E+03 -0.67636708134E-01  0.52166563925E+03  0.57160977403E+03  0.25500000920E-02 0. -1.
</event>
<event>
 5   0  0.2313036E-03  0.9989984E+03  0.7818609E-02  0.9309644E-01
        1   -1    0    0  501    0  0.00000000000E+00  0.00000000000E+00  0.22387807143E+04  0.22387807143E+04  0.50400001928E-02 0.  1.
       -1   -1    0    0    0  501  0.00000000000E+00  0.00000000000E+00 -0.11144434918E+03  0.11144434930E+03  0.50400001928E-02 0. -1.
    10030    2    1    2    0    0  0.00000000000E+00  0.00000000000E+00  0.21273363652E+04  0.23502250636E+04  0.99899841804E+03 0.  0.
        3    1    3    3  502    0  0.26526872337E+03 -0.16261618089E+03  0.19829464838E+04  0.20072090787E+04  0.10100000352E+00 0.  1.
       -3    1    3    3    0  502 -0.26526872337E+03  0.16261618089E+03  0.14438988139E+03  0.34301598496E+03  0.10100000352E+00 0. -1.
</event>
<event>
 5   0  0.1548000E-03  0.1003233E+04  0.7818609E-02  0.9305006E-01
       -3   -1    0    0    0  501  0.00000000000E+00  0.00000000000E+00  0.28216201244E+03  0.28216203052E+03  0.10100000352E+00 0.  1.
        3   -1    0    0  501    0  0.00000000000E+00  0.00000000000E+00 -0.89175429902E+03  0.89175430474E+03  0.10100000352E+00 0. -1.
    10030    2    1    2    0    0  0.00000000000E+00  0.00000000000E+00 -0.60959228658E+03  0.11739163353E+04  0.10032331764E+04 0.  0.
        5    1    3    3  502    0 -0.49062598314E+03  0.70612215226E+02 -0.39465422278E+03  0.63361974861E+03  0.46999998093E+01 0.  1.
       -5    1    3    3    0  502  0.49062598314E+03 -0.70612215226E+02 -0.21493806380E+03  0.54029658665E+03  0.46999998093E+01 0. -1.
</event>
<event>
 5   0  0.2327595E-03  0.9933070E+03  0.7818609E-02  0.9315916E-01
        1   -1    0    0  501    0  0.00000000000E+00  0.00000000000E+00  0.11035002682E+04  0.11035002682E+04  0.50400001928E-02 0. -1.
       -1   -1    0    0    0  501  0.00000000000E+00  0.00000000000E+00 -0.22352934679E+03  0.22352934685E+03  0.50400001928E-02 0.  1.
    10030    2    1    2    0    0  0.00000000000E+00  0.00000000000E+00  0.87997092138E+03  0.13270296150E+04  0.99330699015E+03 0.  0.
        5    1    3    3  502    0  0.34722343082E+03  0.13475810924E+03  0.87886523501E+03  0.95454180119E+03  0.46999998093E+01 0. -1.
       -5    1    3    3    0  502 -0.34722343082E+03 -0.13475810924E+03  0.11056863702E+01  0.37248781384E+03  0.46999998093E+01 0.  1.
</event>
<event>
 5   0  0.3895011E-03  0.1008071E+04  0.7818609E-02  0.9299736E-01
        2   -1    0    0  501    0  0.00000000000E+00  0.00000000000E+00  0.52209042057E+03  0.52209042058E+03  0.25500000920E-02 0. -1.
       -2   -1    0    0    0  501  0.00000000000E+00  0.00000000000E+00 -0.48660524668E+03  0.48660524668E+03  0.25500000920E-02 0.  1.
    10030    2    1    2    0    0  0.00000000000E+00  0.00000000000E+00  0.35485173897E+02  0.10086956673E+04  0.10080713028E+04 0.  0.
        2    1    3    3  502    0 -0.10791665504E+03  0.17168729968E+03 -0.44398595717E+03  0.48810456204E+03  0.25500000920E-02 0.  1.
       -2    1    3    3    0  502  0.10791665504E+03 -0.17168729968E+03  0.47947113107E+03  0.52059110523E+03  0.25500000920E-02 0. -1.
</event>
<event>
 5   0  0.4026829E-03  0.1003987E+04  0.7818609E-02  0.9304183E-01
       -2   -1    0    0    0  501  0.00000000000E+00  0.00000000000E+00  0.20832709011E+03  0.20832709012E+03  0.25500000920E-02 0.  1.
        2   -1    0    0  501    0  0.00000000000E+00  0.00000000000E+00 -0.12096231542E+04  0.12096231542E+04  0.25500000920E-02 0. -1.
    10030    2    1    2    0    0  0.00000000000E+00  0.00000000000E+00 -0.10012960641E+04  0.14179502443E+04  0.10039865972E+04 0.  0.
        1    1    3    3  502    0  0.50094740918E+03 -0.31776870558E+02 -0.50949005250E+03  0.71521898037E+03  0.50400001928E-02 0. -1.
       -1    1    3    3    0  502 -0.50094740918E+03  0.31776870558E+02 -0.49180601159E+03  0.70273126394E+03  0.50400001928E-02 0.  1.
</event>
<event>
 5   0  0.2378609E-03  0.9965279E+03  0.7818609E-02  0.9312361E-01
        1   -1    0    0  501    0  0.00000000000E+00  0.00000000000E+00  0.58953525532E+03  0.58953525534E+03  0.50400001928E-02 0.  1.
       -1   -1    0    0    0  501  0.00000000000E+00  0.00000000000E+00 -0.42112320411E+03  0.42112320414E+03  0.50400001928E-02 0. -1.
    10030    2    1    2    0    0  0.00000000000E+00  0.00000000000E+00  0.16841205121E+03  0.10106584595E+04  0.99652792370E+03 0.  0.
        1    1    3    3  502    0  0.34526973146E+03  0.22384212249E+03 -0.20075952693E+03  0.45784371890E+03  0.50400001928E-02 0.  1.
       -1    1    3    3    0  502 -0.34526973146E+03 -0.22384212249E+03  0.36917157814E+03  0.55281474057E+03  0.50400001928E-02 0. -1.
</event>
<event>
 5   0  0.2313036E-03  0.9991027E+03  0.7818609E-02  0.9309530E-01
       -1   -1    0    0    0  501  0.00000000000E+00  0.00000000000E+00  0.30197800232E+03  0.30197800237E+03  0.50400001928E-02 0. -1.
        1   -1    0    0  501    0  0.00000000000E+00  0.00000000000E+00 -0.82638976693E+03  0.82638976695E+03  0.50400001928E-02 0.  1.
    10030    2    1    2    0    0  0.00000000000E+00  0.00000000000E+00 -0.52441176461E+03  0.11283677693E+04  0.99910265937E+03 0.  0.
        3    1    3    3  502    0 -0.40267657183E+03  0.21663721132E+03 -0.35002512786E+02  0.45859054605E+03  0.10100000352E+00 0.  1.
       -3    1    3    3    0  502  0.40267657183E+03 -0.21663721132E+03 -0.48940925182E+03  0.66977722326E+03  0.10100000352E+00 0. -1.
</event>
<event>
 5   0  0.2313036E-03  0.9905564E+03  0.7818609E-02  0.9318963E-01
        1   -1    0    0  501    0  0.00000000000E+00  0.00000000000E+00  0.75589914508E+03  0.75589914510E+03  0.50400001928E-02 0.  1.
       -1   -1    0    0    0  501  0.00000000000E+00  0.00000000000E+00 -0.32451485458E+03  0.32451485462E+03  0.50400001928E-02 0. -1.
    10030    2    1    2    0    0  0.00000000000E+00  0.00000000000E+00  0.43138429050E+03  0.10804139997E+04  0.99055641167E+03 0.  0.
        3    1    3    3  502    0  0.20072131050E+03  0.37409276386E+03 -0.62527769121E+02  0.42912023090E+03  0.10100000352E+00 0. -1.
       -3    1    3    3    0  502 -0.20072131050E+03 -0.37409276386E+03  0.49391205963E+03  0.65129376882E+03  0.10100000352E+00 0.  1.
</event>
<event>
 5   0  0.2350769E-03  0.1022073E+04  0.7818609E-02  0.9284662E-01
       -1   -1    0    0    0  501  0.00000000000E+00  0.00000000000E+00  0.19364497626E+03  0.19364497632E+03  0.50400001928E-02 0. -1.
        1   -1    0    0  501    0  0.00000000000E+00  0.00000000000E+00 -0.13486441510E+04  0.13486441510E+04  0.50400001928E-02 0.  1.
    10030    2    1    2    0    0  0.00000000000E+00  0.00000000000E+00 -0.11549991747E+04  0.15422891273E+04  0.10220727267E+04 0.  0.
        2    1    3    3  502    0 -0.76550847733E+02 -0.40459723510E+03 -0.12080079763E+03  0.42912910372E+03  0.25500000920E-02 0.  1.
       -2    1    3    3    0  502  0.76550847733E+02  0.40459723510E+03 -0.10341983771E+04  0.11131600236E+04  0.25500000920E-02 0. -1.
</event>
<event>
 5   0  0.4026829E-03  0.1014368E+04  0.7818609E-02  0.9292925E-01
       -2   -1    0    0    0  501  0.00000000000E+00  0.00000000000E+00  0.27419419930E+03  0.27419419931E+03  0.25500000920E-02 0.  1.
        2   -1    0    0  501    0  0.00000000000E+00  0.00000000000E+00 -0.93815176924E+03  0.93815176924E+03  0.25500000920E-02 0. -1.
    10030    2    1    2    0    0  0.00000000000E+00  0.00000000000E+00 -0.66395756994E+03  0.12123459686E+04  0.10143683221E+04 0.  0.
        1    1    3    3  502    0 -0.74270273794E+02 -0.20691398513E+03 -0.87824792335E+03  0.90534462262E+03  0.50400001928E-02 0. -1.
       -1    1    3    3    0  502  0.74270273794E+02  0.20691398513E+03  0.21429035341E+03  0.30700134593E+03  0.50400001928E-02 0.  1.
</event>
<event>
 5   0  0.4140860E-03  0.9945766E+03  0.7818609E-02  0.9314513E-01
        2   -1    0    0  501    0  0.00000000000E+00  0.00000000000E+00  0.42007071815E+03  0.42007071816E+03  0.25500000920E-02 0. -1.
       -2   -1    0    0    0  501  0.00000000000E+00  0.00000000000E+00 -0.58870001435E+03  0.58870001436E+03  0.25500000920E-02 0.  1.
    10030    2    1    2    0    0  0.00000000000E+00  0.00000000000E+00 -0.16862929620E+03  0.10087707325E+04  0.99457656882E+03 0.  0.
        3    1    3    3  502    0 -0.26830073718E+03 -0.36959048481E+02 -0.50733322449E+03  0.57509848522E+03  0.10100000352E+00 0.  1.
       -3    1    3    3    0  502  0.26830073718E+03  0.36959048481E+02  0.33870392828E+03  0.43367224729E+03  0.10100000352E+00 0. -1.
</event>
<event>
 5   0  0.2313036E-03  0.1010188E+04  0.7818609E-02  0.9297441E-01
        1   -1    0    0  501    0  0.00000000000E+00  0.00000000000E+00  0.63747266620E+03  0.63747266622E+03  0.50400001928E-02 0.  1.
       -1   -1    0    0    0  501  0.00000000000E+00  0.00000000000E+00 -0.40020524593E+03  0.40020524597E+03  0.50400001928E-02 0. -1.
    10030    2    1    2    0    0  0.00000000000E+00  0.00000000000E+00  0.23726742027E+03  0.10376779122E+04  0.10101879136E+04 0.  0.
        3    1    3    3  502    0 -0.42199988025E+03 -0.15258579745E+03 -0.11952368019E+03  0.46438372586E+03  0.10100000352E+00 0. -1.
       -3    1    3    3    0  502  0.42199988025E+03  0.15258579745E+03  0.35679110045E+03  0.57329418633E+03  0.10100000352E+00 0.  1.
</event>
<event>
 5   0  0.3826483E-03  0.1003055E+04  0.7818609E-02  0.9305201E-01
        2   -1    0    0  501    0  0.00000000000E+00  0.00000000000E+00  0.37825919260E+03  0.37825919261E+03  0.25500000920E-02 0. -1.
       -2   -1    0    0    0  501  0.00000000000E+00  0.00000000000E+00 -0.66496641367E+03  0.66496641367E+03  0.25500000920E-02 0.  1.
    10030    2    1    2    0    0  0.00000000000E+00  0.00000000000E+00 -0.28670722107E+03  0.10432256063E+04  0.10030546520E+04 0.  0.
        4    1    3    3  502    0  0.75022477876E+02  0.17141696487E+03 -0.62730142961E+03  0.65461503537E+03  0.12699999809E+01 0.  1.
       -4    1    3    3    0  502 -0.75022477876E+02 -0.17141696487E+03  0.34059420854E+03  0.38861057091E+03  0.12699999809E+01 0. -1.
</event>
<event>
 5   0  0.2313036E-03  0.9994795E+03  0.7818609E-02  0.9309116E-01
       -1   -1    0    0    0  501  0.00000000000E+00  0.00000000000E+00  0.52748318695E+03  0.52748318697E+03  0.50400001928E-02 0.  1.
        1   -1    0    0  501    0  0.00000000000E+00  0.00000000000E+00 -0.47345550372E+03  0.47345550375E+03  0.50400001928E-02 0. -1.
    10030    2    1    2    0    0  0.00000000000E+00  0.00000000000E+00  0.54027683227E+02  0.10009386907E+04  0.99947950055E+03 0.  0.
        3    1    3    3  502    0 -0.44580737771E+03  0.20315366146E+03 -0.71741380912E+02  0.49513883318E+03  0.10100000352E+00 0. -1.
       -3    1    3    3    0  502  0.44580737771E+03 -0.20315366146E+03  0.12576906414E+03  0.50579985754E+03  0.10100000352E+00 0.  1.
</event>
<event>
 5   0  0.2313036E-03  0.1002136E+04  0.7818609E-02  0.9306205E-01
        1   -1    0    0  501    0  0.00000000000E+00  0.00000000000E+00  0.62820311693E+03  0.62820311695E+03  0.50400001928E-02 0. -1.
       -1   -1    0    0    0  501  0.00000000000E+00  0.00000000000E+00 -0.39966274359E+03  0.39966274363E+03  0.50400001928E-02 0.  1.
    10030    2    1    2    0    0  0.00000000000E+00  0.00000000000E+00  0.22854037334E+03  0.10278658606E+04  0.10021364803E+04 0.  0.
        3    1    3    3  502    0 -0.24729594135E+03 -0.62416915348E+02 -0.32810148560E+03  0.41557399941E+03  0.10100000352E+00 0.  1.
       -3    1    3    3    0  502  0.24729594135E+03  0.62416915348E+02  0.55664185894E+03  0.61229186117E+03  0.10100000352E+00 0. -1.
</event>
<event>
 5   0  0.4140860E-03  0.9981090E+03  0.7818609E-02  0.9310621E-01
        2   -1    0    0  501    0  0.00000000000E+00  0.00000000000E+00  0.39262281732E+03  0.39262281733E+03  0.25500000920E-02 0. -1.
       -2   -1    0    0    0  501  0.00000000000E+00  0.00000000000E+00 -0.63433759928E+03  0.63433759929E+03  0.25500000920E-02 0.  1.
    10030    2    1    2    0    0  0.00000000000E+00  0.00000000000E+00 -0.24171478196E+03  0.10269604166E+04  0.99810904288E+03 0.  0.
        3    1    3    3  502    0 -0.34056595084E+03  0.23533676829E+02  0.25369324234E+03  0.42532255081E+03  0.10100000352E+00 0. -1.
       -3    1    3    3    0  502  0.34056595084E+03 -0.23533676829E+02 -0.49540802431E+03  0.60163786580E+03  0.10100000352E+00 0.  1.
</event>
<event>
 5   0  0.2405022E-03  0.1000422E+04  0.7818609E-02  0.9308082E-01
       -1   -1    0    0    0  501  0.00000000000E+00  0.00000000000E+00  0.12138604787E+04  0.12138604787E+04  0.50400001928E-02 0.  1.
        1   -1    0    0  501    0  0.00000000000E+00  0.00000000000E+00 -0.20612837846E+03  0.20612837852E+03  0.50400001928E-02 0. -1.
    10030    2    1    2    0    0  0.00000000000E+00  0.00000000000E+00  0.10077321002E+04  0.14199888572E+04  0.10004220953E+04 0.  0.
        4    1    3    3  502    0  0.33946728021E+03 -0.25821056189E+03  0.87480978581E+03  0.97324431817E+03  0.12699999809E+01 0.  1.
       -4    1    3    3    0  502 -0.33946728021E+03  0.25821056189E+03  0.13292231443E+03  0.44674453906E+03  0.12699999809E+01 0. -1.
</event>
<event>
 5   0  0.2313036E-03  0.1017321E+04  0.7818609E-02  0.9289749E-01
       -1   -1    0    0    0  501  0.00000000000E+00  0.00000000000E+00  0.23242722643E+03  0.23242722648E+03  0.50400001928E-02 0.  1.
        1   -1    0    0  501    0  0.00000000000E+00  0.00000000000E+00 -0.11131894566E+04  0.11131894566E+04  0.50400001928E-02 0. -1.
    10030    2    1    2    0    0  0.00000000000E+00  0.00000000000E+00 -0.88076223014E+03  0.13456166831E+04  0.10173210662E+04 0.  0.
        3    1    3    3  502    0 -0.60408822937E+00  0.50633397267E+03 -0.50465252710E+03  0.71487666077E+03  0.10100000352E+00 0. -1.
       -3    1    3    3    0  502  0.60408822937E+00 -0.50633397267E+03 -0.37610970304E+03  0.63074002230E+03  0.10100000352E+00 0.  1.
</event>
<event>
 5   0  0.3895011E-03  0.1001227E+04  0.7818609E-02  0.9307200E-01
       -2   -1    0    0    0  501  0.00000000000E+00  0.00000000000E+00  0.41826410878E+03  0.41826410879E+03  0.25500000920E-02 0.  1.
        2   -1    0    0  501    0  0.00000000000E+00  0.00000000000E+00 -0.59917663018E+03  0.59917663018E+03  0.25500000920E-02 0. -1.
    10030    2    1    2    0    0  0.00000000000E+00  0.00000000000E+00 -0.18091252140E+03  0.10174407390E+04  0.10012274052E+04 0.  0.
        2    1    3    3  502    0 -0.11470356154E+03 -0.47235692544E+03  0.31216122390E+02  0.48708563759E+03  0.25500000920E-02 0.  1.
       -2    1    3    3    0  502  0.11470356154E+03  0.47235692544E+03 -0.21212864379E+03  0.53035510138E+03  0.25500000920E-02 0. -1.
</event>
<event>
 5   0  0.2405022E-03  0.9958986E+03  0.7818609E-02  0.9313055E-01
       -1   -1    0    0    0  501  0.00000000000E+00  0.00000000000E+00  0.29410359831E+03  0.29410359835E+03  0.50400001928E-02 0. -1.
        1   -1    0    0  501    0  0.00000000000E+00  0.00000000000E+00 -0.84308224364E+03  0.84308224366E+03  0.50400001928E-02 0.  1.
    10030    2    1    2    0    0  0.00000000000E+00  0.00000000000E+00 -0.54897864533E+03  0.11371858420E+04  0.99589863251E+03 0.  0.
        4    1    3    3  502    0  0.74634448185E+02 -0.40946066338E+03 -0.58662622990E+03  0.71927761137E+03  0.12699999809E+01 0.  1.
       -4    1    3    3    0  502 -0.74634448185E+02  0.40946066338E+03  0.37647584564E+02  0.41790823064E+03  0.12699999809E+01 0. -1.
</event>
<event>
 5   0  0.4026829E-03  0.1001727E+04  0.7818609E-02  0.9306652E-01
        2   -1    0    0  501    0  0.00000000000E+00  0.00000000000E+00  0.33708023421E+03  0.33708023422E+03  0.25500000920E-02 0. -1.
       -2   -1    0    0    0  501  0.00000000000E+00  0.00000000000E+00 -0.74422774039E+03  0.74422774039E+03  0.25500000920E-02 0.  1.
    10030    2    1    2    0    0  0.00000000000E+00  0.00000000000E+00 -0.40714750617E+03  0.10813079746E+04  0.10017274301E+04 0.  0.
        1    1    3    3  502    0 -0.46035056233E+03 -0.19603639604E+03 -0.17915942234E+03  0.53146120032E+03  0.50400001928E-02 0.  1.
       -1    1    3    3    0  502  0.46035056233E+03  0.19603639604E+03 -0.22798808384E+03  0.54984677430E+03  0.50400001928E-02 0. -1.
</event>
<event>
 5   0  0.1548000E-03  0.8974740E+03  0.7818609E-02  0.9428745E-01
       -4   -1    0    0    0  501  0.00000000000E+00  0.00000000000E+00  0.26481874407E+03  0.26482178935E+03  0.12699999809E+01 0.  1.
        4   -1    0    0  501    0  0.00000000000E+00  0.00000000000E+00 -0.76037975202E+03  0.76038081261E+03  0.12699999809E+01 0. -1.
    10030    2    1    2    0    0  0.00000000000E+00  0.00000000000E+00 -0.49556100794E+03  0.10252026020E+04  0.89747404556E+03 0.  0.
        3    1    3    3  502    0  0.23286269495E+03 -0.38965943458E+02  0.18813326867E+03  0.30188990780E+03  0.10100000352E+00 0.  1.
       -3    1    3    3    0  502 -0.23286269495E+03  0.38965943458E+02 -0.68369427661E+03  0.72331269415E+03  0.10100000352E+00 0. -1.
</event>
<event>
 5   0  0.2405022E-03  0.1002254E+04  0.7818609E-02  0.9306076E-01
       -1   -1    0    0    0  501  0.00000000000E+00  0.00000000000E+00  0.21575901648E+03  0.21575901654E+03  0.50400001928E-02 0. -1.
        1   -1    0    0  501    0  0.00000000000E+00  0.00000000000E+00 -0.11639294372E+04  0.11639294372E+04  0.50400001928E-02 0.  1.
    10030    2    1    2    0    0  0.00000000000E+00  0.00000000000E+00 -0.94817042069E+03  0.13796884537E+04  0.10022540011E+04 0.  0.
        4    1    3    3  502    0 -0.10881365896E+03  0.87768406238E+02  0.18837000599E+03  0.23458170766E+03  0.12699999809E+01 0. -1.
       -4    1    3    3    0  502  0.10881365896E+03 -0.87768406238E+02 -0.11365404267E+04  0.11451067461E+04  0.12699999809E+01 0.  1.
</event>
<event>
 5   0  0.4140860E-03  0.9991268E+03  0.7818609E-02  0.9309503E-01
       -2   -1    0    0    0  501  0.00000000000E+00  0.00000000000E+00  0.21705285047E+03  0.21705285048E+03  0.25500000920E-02 0. -1.
        2   -1    0    0  501    0  0.00000000000E+00  0.00000000000E+00 -0.11497825982E+04  0.11497825982E+04  0.25500000920E-02 0.  1.
    10030    2    1    2    0    0  0.00000000000E+00  0.00000000000E+00 -0.93272974775E+03  0.13668354487E+04  0.99912679951E+03 0.  0.
        3    1    3    3  502    0 -0.45172150486E+03  0.21202840255E+03 -0.49859987422E+03  0.70541491778E+03  0.10100000352E+00 0. -1.
       -3    1    3    3    0  502  0.45172150486E+03 -0.21202840255E+03 -0.43412987353E+03  0.66142053093E+03  0.10100000352E+00 0.  1.
</event>
<event>
 5   0  0.2313036E-03  0.9915509E+03  0.7818609E-02  0.9317860E-01
        1   -1    0    0  501    0  0.00000000000E+00  0.00000000000E+00  0.15335279234E+04  0.15335279234E+04  0.50400001928E-02 0.  1.
       -1   -1    0    0    0  501  0.00000000000E+00  0.00000000000E+00 -0.16027962721E+03  0.16027962729E+03  0.50400001928E-02 0. -1.
    10030    2    1    2    0    0  0.00000000000E+00  0.00000000000E+00  0.13732482962E+04  0.16938075507E+04  0.99155087402E+03 0.  0.
        3    1    3    3  502    0  0.35645998315E+03  0.73420056761E+02  0.12617181602E+04  0.13131591489E+04  0.10100000352E+00 0.  1.
       -3    1    3    3    0  502 -0.35645998315E+03 -0.73420056761E+02  0.11153013592E+03  0.38064840174E+03  0.10100000352E+00 0. -1.
</event>
<event>
 5   0  0.3895011E-03  0.9990379E+03  0.7818609E-02  0.9309601E-01
        2   -1    0    0  501    0  0.00000000000E+00  0.00000000000E+00  0.64490583210E+03  0.64490583211E+03  0.25500000920E-02 0. -1.
       -2   -1    0    0    0  501  0.00000000000E+00  0.00000000000E+00 -0.38690795853E+03  0.38690795854E+03  0.25500000920E-02 0.  1.
    10030    2    1    2    0    0  0.00000000000E+00  0.00000000000E+00  0.25799787357E+03  0.10318137906E+04  0.99903793512E+03 0.  0.
        2    1    3    3  502    0 -0.26529932997E+03  0.20842971748E+03  0.50944868273E+03  0.61103571251E+03  0.25500000920E-02 0. -1.
       -2    1    3    3    0  502  0.26529932997E+03 -0.20842971748E+03 -0.25145080916E+03  0.42077807814E+03  0.25500000920E-02 0.  1.
</event>
<event>
 5   0  0.4140860E-03  0.1005003E+04  0.7818609E-02  0.9303075E-01
        2   -1    0    0  501    0  0.00000000000E+00  0.00000000000E+00  0.10878019511E+04  0.10878019511E+04  0.25500000920E-02 0. -1.
       -2   -1    0    0    0  501  0.00000000000E+00  0.00000000000E+00 -0.23212644485E+03  0.23212644486E+03  0.25500000920E-02 0.  1.
    10030    2    1    2    0    0  0.00000000000E+00  0.00000000000E+00  0.85567550620E+03  0.13199283959E+04  0.10050026858E+04 0.  0.
        3    1    3    3  502    0 -0.66855876594E+02 -0.82075979714E+02  0.10729912918E+04  0.10782005830E+04  0.10100000352E+00 0. -1.
       -3    1    3    3    0  502  0.66855876594E+02  0.82075979714E+02 -0.21731578559E+03  0.24172781294E+03  0.10100000352E+00 0.  1.
</event>
<event>
 5   0  0.3895011E-03  0.9472858E+03  0.7818609E-02  0.9368329E-01
       -2   -1    0    0    0  501  0.00000000000E+00  0.00000000000E+00  0.59435578218E+03  0.59435578218E+03  0.25500000920E-02 0.  1.
        2   -1    0    0  501    0  0.00000000000E+00  0.00000000000E+00 -0.37744664993E+03  0.37744664994E+03  0.25500000920E-02 0. -1.
    10030    2    1    2    0    0  0.00000000000E+00  0.00000000000E+00  0.21690913224E+03  0.97180243212E+03  0.94728580451E+03 0.  0.
        2    1    3    3  502    0  0.44586923755E+03  0.84232542186E+02 -0.30865579938E+02  0.45480455383E+03  0.25500000920E-02 0. -1.
       -2    1    3    3    0  502 -0.44586923755E+03 -0.84232542186E+02  0.24777471218E+03  0.51699787829E+03  0.25500000920E-02 0.  1.
</event>
<event>
 5   0  0.3895011E-03  0.9992192E+03  0.7818609E-02  0.9309402E-01
       -2   -1    0    0    0  501  0.00000000000E+00  0.00000000000E+00  0.16677302278E+03  0.16677302280E+03  0.25500000920E-02 0.  1.
        2   -1    0    0  501    0  0.00000000000E+00  0.00000000000E+00 -0.14967033509E+04  0.14967033509E+04  0.25500000920E-02 0. -1.
    10030    2    1    2    0    0  0.00000000000E+00  0.00000000000E+00 -0.13299303282E+04  0.16634763737E+04  0.99921917929E+03 0.  0.
        2    1    3    3  502    0 -0.47114617740E+02  0.20539921813E+03  0.89163997293E+02  0.22882055072E+03  0.25500000920E-02 0.  1.
       -2    1    3    3    0  502  0.47114617740E+02 -0.20539921813E+03 -0.14190943255E+04  0.14346558230E+04  0.25500000920E-02 0. -1.
</event>
<event>
 5   0  0.2327595E-03  0.1001088E+04  0.7818609E-02  0.9307353E-01
       -1   -1    0    0    0  501  0.00000000000E+00  0.00000000000E+00  0.20499693473E+03  0.20499693479E+03  0.50400001928E-02 0. -1.
        1   -1    0    0  501    0  0.00000000000E+00  0.00000000000E+00 -0.12221846672E+04  0.12221846672E+04  0.50400001928E-02 0.  1.
    10030    2    1    2    0    0  0.00000000000E+00  0.00000000000E+00 -0.10171877325E+04  0.14271816020E+04  0.10010876295E+04 0.  0.
        5    1    3    3  502    0  0.74154864730E+02 -0.40635568866E+03 -0.91156640680E+03  0.10007993274E+04  0.46999998093E+01 0. -1.
       -5    1    3    3    0  502 -0.74154864730E+02  0.40635568866E+03 -0.10562132566E+03  0.42638227461E+03  0.46999998093E+01 0.  1.
</event>
<event>
 5   0  0.2405022E-03  0.9857787E+03  0.7818609E-02  0.9324281E-01
       -1   -1    0    0    0  501  0.00000000000E+00  0.00000000000E+00  0.15286092902E+04  0.15286092902E+04  0.50400001928E-02 0.  1.
        1   -1    0    0  501    0  0.00000000000E+00  0.00000000000E+00 -0.15892870333E+03  0.15892870341E+03  0.50400001928E-02 0. -1.
    10030    2    1    2    0    0  0.00000000000E+00  0.00000000000E+00  0.13696805868E+04  0.16875379936E+04  0.98577866170E+03 0.  0.
        4    1    3    3  502    0 -0.34160919348E+03 -0.14654161387E+01  0.76605276082E+02  0.35009851433E+03  0.12699999809E+01 0. -1.
       -4    1    3    3    0  502  0.34160919348E+03  0.14654161387E+01  0.12930753107E+04  0.13374394792E+04  0.12699999809E+01 0.  1.
</event>
<event>
 5   0  0.3895011E-03  0.9989705E+03  0.7818609E-02  0.9309675E-01
        2   -1    0    0  501    0  0.00000000000E+00  0.00000000000E+00  0.98101428776E+03  0.98101428777E+03  0.25500000920E-02 0. -1.
       -2   -1    0    0    0  501  0.00000000000E+00  0.00000000000E+00 -0.25431381925E+03  0.25431381926E+03  0.25500000920E-02 0.  1.
    10030    2    1    2    0    0  0.00000000000E+00  0.00000000000E+00  0.72670046852E+03  0.12353281070E+04  0.99897045055E+03 0.  0.
        2    1    3    3  502    0 -0.26542485370E+03 -0.93953571494E+02 -0.14682513949E+03  0.31754566309E+03  0.25500000920E-02 0.  1.
       -2    1    3    3    0  502  0.26542485370E+03  0.93953571494E+02  0.87352560800E+03  0.91778244394E+03  0.25500000920E-02 0. -1.
</event>
<event>
 5   0  0.3895011E-03  0.9954982E+03  0.7818609E-02  0.9313496E-01
        2   -1    0    0  501    0  0.00000000000E+00  0.00000000000E+00  0.69709608525E+03  0.69709608525E+03  0.25500000920E-02 0.  1.
       -2   -1    0    0    0  501  0.00000000000E+00  0.00000000000E+00 -0.35540894016E+03  0.35540894017E+03  0.25500000920E-02 0. -1.
    10030    2    1    2    0    0  0.00000000000E+00  0.00000000000E+00  0.34168714508E+03  0.10525050254E+04  0.99549822874E+03 0.  0.
        2    1    3    3  502    0  0.43876121164E+03  0.61743183506E+02 -0.68926133115E+02  0.44841323953E+03  0.25500000920E-02 0. -1.
       -2    1    3    3    0  502 -0.43876121164E+03 -0.61743183506E+02  0.41061327820E+03  0.60409178590E+03  0.25500000920E-02 0.  1.
</event>
<event>
 5   0  0.1548000E-03  0.9894776E+03  0.7818609E-02  0.9320161E-01
       -3   -1    0    0    0  501  0.00000000000E+00  0.00000000000E+00  0.26291404909E+03  0.26291406849E+03  0.10100000352E+00 0.  1.
        3   -1    0    0  501    0  0.00000000000E+00  0.00000000000E+00 -0.93097528583E+03  0.93097529131E+03  0.10100000352E+00 0. -1.
    10030    2    1    2    0    0  0.00000000000E+00  0.00000000000E+00 -0.66806123674E+03  0.11938893598E+04  0.98947763360E+03 0.  0.
        4    1    3    3  502    0 -0.40134272696E+03 -0.28497385137E+03 -0.39410359470E+03  0.63055954256E+03  0.12699999809E+01 0.  1.
       -4    1    3    3    0  502  0.40134272696E+03  0.28497385137E+03 -0.27395764204E+03  0.56332981723E+03  0.12699999809E+01 0. -1.
</event>
<event>
 5   0  0.4140860E-03  0.1002703E+04  0.7818609E-02  0.9305585E-01
       -2   -1    0    0    0  501  0.00000000000E+00  0.00000000000E+00  0.37763341561E+03  0.37763341562E+03  0.25500000920E-02 0.  1.
        2   -1    0    0  501    0  0.00000000000E+00  0.00000000000E+00 -0.66560106244E+03  0.66560106244E+03  0.25500000920E-02 0. -1.
    10030    2    1    2    0    0  0.00000000000E+00  0.00000000000E+00 -0.28796764682E+03  0.10432344781E+04  0.10027027529E+04 0.  0.
        3    1    3    3  502    0 -0.71865953070E+02 -0.38728871366E+03 -0.46667572935E+03  0.61069100984E+03  0.10100000352E+00 0. -1.
       -3    1    3    3    0  502  0.71865953070E+02  0.38728871366E+03  0.17870808253E+03  0.43254346822E+03  0.10100000352E+00 0.  1.
</event>
<event>
 5   0  0.1548000E-03  0.9988687E+03  0.7818609E-02  0.9309786E-01
        4   -1    0    0  501    0  0.00000000000E+00  0.00000000000E+00  0.21309495066E+03  0.21309873509E+03  0.12699999809E+01 0. -1.
       -4   -1    0    0    0  501  0.00000000000E+00  0.00000000000E+00 -0.11705184396E+04  0.11705191286E+04  0.12699999809E+01 0.  1.
    10030    2    1    2    0    0  0.00000000000E+00  0.00000000000E+00 -0.95742348893E+03  0.13836178636E+04  0.99886868779E+03 0.  0.
        4    1    3    3  502    0 -0.34186675028E+03  0.35309541469E+03 -0.35572008125E+03  0.60670226300E+03  0.12699999809E+01 0. -1.
       -4    1    3    3    0  502  0.34186675028E+03 -0.35309541469E+03 -0.60170340768E+03  0.77691560065E+03  0.12699999809E+01 0.  1.
</event>
<event>
 5   0  0.2378609E-03  0.9995034E+03  0.7818609E-02  0.9309090E-01
        1   -1    0    0  501    0  0.00000000000E+00  0.00000000000E+00  0.13617648158E+04  0.13617648158E+04  0.50400001928E-02 0.  1.
       -1   -1    0    0    0  501  0.00000000000E+00  0.00000000000E+00 -0.18340301757E+03  0.18340301763E+03  0.50400001928E-02 0. -1.
    10030    2    1    2    0    0  0.00000000000E+00  0.00000000000E+00  0.11783617982E+04  0.15451678334E+04  0.99950342969E+03 0.  0.
        1    1    3    3  502    0 -0.99134177114E+02 -0.14457278367E+03 -0.13431510033E+03  0.22083799730E+03  0.50400001928E-02 0. -1.
       -1    1    3    3    0  502  0.99134177114E+02  0.14457278367E+03  0.13126768986E+04  0.13243298361E+04  0.50400001928E-02 0.  1.
</event>
<event>
 5   0  0.3895011E-03  0.9930370E+03  0.7818609E-02  0.9316215E-01
       -2   -1    0    0    0  501  0.00000000000E+00  0.00000000000E+00  0.97850671855E+02  0.97850671888E+02  0.25500000920E-02 0.  1.
        2   -1    0    0  501    0  0.00000000000E+00  0.00000000000E+00 -0.25194574610E+04  0.25194574610E+04  0.25500000920E-02 0. -1.
    10030    2    1    2    0    0  0.00000000000E+00  0.00000000000E+00 -0.24216067892E+04  0.26173081329E+04  0.99303696873E+03 0.  0.
        2    1    3    3  502    0  0.25877876824E+03  0.24715523232E+03 -0.30359071435E+03  0.46927548583E+03  0.25500000920E-02 0.  1.
       -2    1    3    3    0  502 -0.25877876824E+03 -0.24715523232E+03 -0.21180160748E+04  0.21480326471E+04  0.25500000920E-02 0. -1.
</event>
<event>
 5   0  0.3873874E-03  0.1008625E+04  0.7818609E-02  0.9299136E-01
        2   -1    0    0  501    0  0.00000000000E+00  0.00000000000E+00  0.19394005720E+04  0.19394005720E+04  0.25500000920E-02 0. -1.
       -2   -1    0    0    0  501  0.00000000000E+00  0.00000000000E+00 -0.13113894237E+03  0.13113894239E+03  0.25500000920E-02 0.  1.
    10030    2    1    2    0    0  0.00000000000E+00  0.00000000000E+00  0.18082616296E+04  0.20705395144E+04  0.10086246871E+04 0.  0.
        5    1    3    3  502    0 -0.97376918314E+02  0.44271515737E+03  0.45050607101E+03  0.63910623906E+03  0.46999998093E+01 0.  1.
       -5    1    3    3    0  502  0.97376918314E+02 -0.44271515737E+03  0.13577555586E+04  0.14314332753E+04  0.46999998093E+01 0. -1.
</event>
<event>
 5   0  0.1548000E-03  0.1000202E+04  0.7818609E-02  0.9308324E-01
        4   -1    0    0  501    0  0.00000000000E+00  0.00000000000E+00  0.16233167690E+04  0.16233172658E+04  0.12699999809E+01 0.  1.
       -4   -1    0    0    0  501  0.00000000000E+00  0.00000000000E+00 -0.15406467377E+03  0.15406990817E+03  0.12699999809E+01 0. -1.
    10030    2    1    2    0    0  0.00000000000E+00  0.00000000000E+00  0.14692520952E+04  0.17773871740E+04  0.10002017031E+04 0.  0.
        4    1    3    3  502    0  0.26535902587E+03  0.10105738636E+03  0.14661734236E+04  0.14934169307E+04  0.12699999809E+01 0.  1.
       -4    1    3    3    0  502 -0.26535902587E+03 -0.10105738636E+03  0.30786716406E+01  0.28397024328E+03  0.12699999809E+01 0. -1.
</event>
<event>
 5   0  0.2327595E-03  0.9937014E+03  0.7818609E-02  0.9315480E-01
       -1   -1    0    0    0  501  0.00000000000E+00  0.00000000000E+00  0.20042281421E+03  0.20042281427E+03  0.50400001928E-02 0. -1.
        1   -1    0    0  501    0  0.00000000000E+00  0.00000000000E+00 -0.12316992155E+04  0.12316992155E+04  0.50400001928E-02 0.  1.
    10030    2    1    2    0    0  0.00000000000E+00  0.00000000000E+00 -0.10312764013E+04  0.14321220298E+04  0.99370141004E+03 0.  0.
        5    1    3    3  502    0  0.13341638164E+03 -0.38550786287E+03 -0.10693095544E+03  0.42174940718E+03  0.46999998093E+01 0. -1.
       -5    1    3    3    0  502 -0.13341638164E+03  0.38550786287E+03 -0.92434544584E+03  0.10103726226E+04  0.46999998093E+01 0.  1.
</event>
<event>
 5   0  0.3826483E-03  0.1004765E+04  0.7818609E-02  0.9303334E-01
       -2   -1    0    0    0  501  0.00000000000E+00  0.00000000000E+00  0.57633248872E+03  0.57633248873E+03  0.25500000920E-02 0.  1.
        2   -1    0    0  501    0  0.00000000000E+00  0.00000000000E+00 -0.43792099513E+03  0.43792099514E+03  0.25500000920E-02 0. -1.
    10030    2    1    2    0    0  0.00000000000E+00  0.00000000000E+00  0.13841149359E+03  0.10142534839E+04  0.10047648421E+04 0.  0.
        4    1    3    3  502    0  0.22831940175E+03  0.44468684829E+03  0.11978221625E+03  0.51402872925E+03  0.12699999809E+01 0.  1.
       -4    1    3    3    0  502 -0.22831940175E+03 -0.44468684829E+03  0.18629277336E+02  0.50022475462E+03  0.12699999809E+01 0. -1.
</event>
<event>
 5   0  0.2313036E-03  0.1012322E+04  0.7818609E-02  0.9295133E-01
        1   -1    0    0  501    0  0.00000000000E+00  0.00000000000E+00  0.62602467635E+03  0.62602467637E+03  0.50400001928E-02 0.  1.
       -1   -1    0    0    0  501  0.00000000000E+00  0.00000000000E+00 -0.40924723399E+03  0.40924723402E+03  0.50400001928E-02 0. -1.
    10030    2    1    2    0    0  0.00000000000E+00  0.00000000000E+00  0.21677744235E+03  0.10352719104E+04  0.10123218208E+04 0.  0.
        3    1    3    3  502    0  0.33255539954E+03 -0.36848367112E+03  0.70176093881E+01  0.49640967626E+03  0.10100000352E+00 0. -1.
       -3    1    3    3    0  502 -0.33255539954E+03  0.36848367112E+03  0.20975983297E+03  0.53886223413E+03  0.10100000352E+00 0.  1.
</event>
<event>
 5   0  0.2350769E-03  0.9632106E+03  0.7818609E-02  0.9349841E-01
        1   -1    0    0  501    0  0.00000000000E+00  0.00000000000E+00  0.14266748373E+04  0.14266748373E+04  0.50400001928E-02 0.  1.
       -1   -1    0    0    0  501  0.00000000000E+00  0.00000000000E+00 -0.16257641073E+03  0.16257641081E+03  0.50400001928E-02 0. -1.
    10030    2    1    2    0    0  0.00000000000E+00  0.00000000000E+00  0.12640984265E+04  0.15892512481E+04  0.96321061953E+03 0.  0.
        2    1    3    3  502    0 -0.95505909709E+02  0.79322608145E+02 -0.13571975903E+03  0.18393832649E+03  0.25500000920E-02 0. -1.
       -2    1    3    3    0  502  0.95505909709E+02 -0.79322608145E+02  0.13998181856E+04  0.14053129216E+04  0.25500000920E-02 0.  1.
</event>
<event>
 5   0  0.3895011E-03  0.1010429E+04  0.7818609E-02  0.9297180E-01
        2   -1    0    0  501    0  0.00000000000E+00  0.00000000000E+00  0.11554920540E+04  0.11554920540E+04  0.25500000920E-02 0. -1.
       -2   -1    0    0    0  501  0.00000000000E+00  0.00000000000E+00 -0.22089450520E+03  0.22089450522E+03  0.25500000920E-02 0.  1.
    10030    2    1    2    0    0  0.00000000000E+00  0.00000000000E+00  0.93459754878E+03  0.13763865592E+04  0.10104293059E+04 0.  0.
        2    1    3    3  502    0 -0.10590572062E+03 -0.15090909756E+03  0.11080336373E+04  0.11232667176E+04  0.25500000920E-02 0. -1.
       -2    1    3    3    0  502  0.10590572062E+03  0.15090909756E+03 -0.17343608856E+03  0.25311984160E+03  0.25500000920E-02 0.  1.
</event>
<event>
 5   0  0.3873874E-03  0.1007017E+04  0.7818609E-02  0.9300882E-01
        2   -1    0    0  501    0  0.00000000000E+00  0.00000000000E+00  0.91646270986E+03  0.91646270986E+03  0.25500000920E-02 0. -1.
       -2   -1    0    0    0  501  0.00000000000E+00  0.00000000000E+00 -0.27662986765E+03  0.27662986766E+03  0.25500000920E-02 0.  1.
    10030    2    1    2    0    0  0.00000000000E+00  0.00000000000E+00  0.63983284221E+03  0.11930925775E+04  0.10070172951E+04 0.  0.
        5    1    3    3  502    0  0.26762406408E+03  0.90840108908E+02 -0.17376009912E+03  0.33179696669E+03  0.46999998093E+01 0.  1.
       -5    1    3    3    0  502 -0.26762406408E+03 -0.90840108908E+02  0.81359294133E+03  0.86129561083E+03  0.46999998093E+01 0. -1.
</event>
<event>
 5   0  0.2405022E-03  0.9974084E+03  0.7818609E-02  0.9311392E-01
        1   -1    0    0  501    0  0.00000000000E+00  0.00000000000E+00  0.14031259764E+04  0.14031259764E+04  0.50400001928E-02 0. -1.
       -1   -1    0    0    0  501  0.00000000000E+00  0.00000000000E+00 -0.17725128680E+03  0.17725128687E+03  0.50400001928E-02 0.  1.
    10030    2    1    2    0    0  0.00000000000E+00  0.00000000000E+00  0.12258746896E+04  0.15803772633E+04  0.99740841166E+03 0.  0.
        4    1    3    3  502    0  0.10819527633E+03  0.10331888629E+03 -0.14085607729E+03  0.20548249924E+03  0.12699999809E+01 0.  1.
       -4    1    3    3    0  502 -0.10819527633E+03 -0.10331888629E+03  0.13667307669E+04  0.13748947640E+04  0.12699999809E+01 0. -1.
</event>
<event>
 5   0  0.3873874E-03  0.1001421E+04  0.7818609E-02  0.9306988E-01
        2   -1    0    0  501    0  0.00000000000E+00  0.00000000000E+00  0.46196449073E+03  0.46196449074E+03  0.25500000920E-02 0.  1.
       -2   -1    0    0    0  501  0.00000000000E+00  0.00000000000E+00 -0.54270591433E+03  0.54270591434E+03  0.25500000920E-02 0. -1.
    10030    2    1    2    0    0  0.00000000000E+00  0.00000000000E+00 -0.80741423603E+02  0.10046704051E+04  0.10014207135E+04 0.  0.
        5    1    3    3  502    0 -0.46533562496E+03  0.15266420576E+03  0.64107366624E+02  0.49393870878E+03  0.46999998093E+01 0. -1.
       -5    1    3    3    0  502  0.46533562496E+03 -0.15266420576E+03 -0.14484879023E+03  0.51073169630E+03  0.46999998093E+01 0.  1.
</event>
<event>
 5   0  0.2313036E-03  0.1006531E+04  0.7818609E-02  0.9301410E-01
       -1   -1    0    0    0  501  0.00000000000E+00  0.00000000000E+00  0.18942720746E+03  0.18942720752E+03  0.50400001928E-02 0.  1.
        1   -1    0    0  501    0  0.00000000000E+00  0.00000000000E+00 -0.13370638028E+04  0.13370638028E+04  0.50400001928E-02 0. -1.
    10030    2    1    2    0    0  0.00000000000E+00  0.00000000000E+00 -0.11476365954E+04  0.15264910103E+04  0.10065311966E+04 0.  0.
        3    1    3    3  502    0  0.11884547055E+03 -0.42065404940E+03 -0.95206034328E+03  0.10476129928E+04  0.10100000352E+00 0. -1.
       -3    1    3    3    0  502 -0.11884547055E+03  0.42065404940E+03 -0.19557625208E+03  0.47887801759E+03  0.10100000352E+00 0.  1.
</event>
<event>
 5   0  0.3895011E-03  0.9999080E+03  0.7818609E-02  0.9308646E-01
        2   -1    0    0  501    0  0.00000000000E+00  0.00000000000E+00  0.10074673352E+04  0.10074673352E+04  0.25500000920E-02 0.  1.
       -2   -1    0    0    0  501  0.00000000000E+00  0.00000000000E+00 -0.24810135370E+03  0.24810135371E+03  0.25500000920E-02 0. -1.
    10030    2    1    2    0    0  0.00000000000E+00  0.00000000000E+00  0.75936598147E+03  0.12555686889E+04  0.99990801511E+03 0.  0.
        2    1    3    3  502    0 -0.44721194300E+03 -0.21513556192E+03  0.45577556407E+03  0.67380501391E+03  0.25500000920E-02 0.  1.
       -2    1    3    3    0  502  0.44721194300E+03  0.21513556192E+03  0.30359041740E+03  0.58176367497E+03  0.25500000920E-02 0. -1.
</event>
<event>
 5   0  0.4140860E-03  0.1000920E+04  0.7818609E-02  0.9307536E-01
       -2   -1    0    0    0  501  0.00000000000E+00  0.00000000000E+00  0.15420163263E+03  0.15420163265E+03  0.25500000920E-02 0. -1.
        2   -1    0    0  501    0  0.00000000000E+00  0.00000000000E+00 -0.16242391645E+04  0.16242391645E+04  0.25500000920E-02 0.  1.
    10030    2    1    2    0    0  0.00000000000E+00  0.00000000000E+00 -0.14700375319E+04  0.17784407971E+04  0.10009202385E+04 0.  0.
        3    1    3    3  502    0 -0.48479643269E+03  0.10920794196E+03 -0.62980598380E+03  0.80225279256E+03  0.10100000352E+00 0. -1.
       -3    1    3    3    0  502  0.48479643269E+03 -0.10920794196E+03 -0.84023154806E+03  0.97618800458E+03  0.10100000352E+00 0.  1.
</event>
<event>
 5   0  0.4026829E-03  0.1001502E+04  0.7818609E-02  0.9306899E-01
       -2   -1    0    0    0  501  0.00000000000E+00  0.00000000000E+00  0.25963920084E+03  0.25963920085E+03  0.25500000920E-02 0. -1.
        2   -1    0    0  501    0  0.00000000000E+00  0.00000000000E+00 -0.96576865976E+03  0.96576865976E+03  0.25500000920E-02 0.  1.
    10030    2    1    2    0    0  0.00000000000E+00  0.00000000000E+00 -0.70612945892E+03  0.12254078606E+04  0.10015016785E+04 0.  0.
        1    1    3    3  502    0 -0.10482995956E+03  0.42113517585E+03 -0.65873027645E+03  0.78884075319E+03  0.50400001928E-02 0.  1.
       -1    1    3    3    0  502  0.10482995956E+03 -0.42113517585E+03 -0.47399182472E+02  0.43656710742E+03  0.50400001928E-02 0. -1.
</event>
<event>
 5   0  0.2378609E-03  0.1125442E+04  0.7818609E-02  0.9180743E-01
       -1   -1    0    0    0  501  0.00000000000E+00  0.00000000000E+00  0.23851786065E+03  0.23851786071E+03  0.50400001928E-02 0.  1.
        1   -1    0    0  501    0  0.00000000000E+00  0.00000000000E+00 -0.13275938689E+04  0.13275938689E+04  0.50400001928E-02 0. -1.
    10030    2    1    2    0    0  0.00000000000E+00  0.00000000000E+00 -0.10890760082E+04  0.15661117296E+04  0.11254418678E+04 0.  0.
        1    1    3    3  502    0  0.16204011151E+03 -0.15118025173E+03 -0.12643116987E+04  0.12835873705E+04  0.50400001928E-02 0. -1.
       -1    1    3    3    0  502 -0.16204011151E+03  0.15118025173E+03  0.17523569046E+03  0.28252435910E+03  0.50400001928E-02 0.  1.
</event>
<event>
 5   0  0.4140860E-03  0.1000980E+04  0.7818609E-02  0.9307471E-01
        2   -1    0    0  501    0  0.00000000000E+00  0.00000000000E+00  0.36150255345E+03  0.36150255346E+03  0.25500000920E-02 0.  1.
       -2   -1    0    0    0  501  0.00000000000E+00  0.00000000000E+00 -0.69291351896E+03  0.69291351896E+03  0.25500000920E-02 0. -1.
    10030    2    1    2    0    0  0.00000000000E+00  0.00000000000E+00 -0.33141096551E+03  0.10544160724E+04  0.10009795331E+04 0.  0.
        3    1    3    3  502    0 -0.11896751043E+03  0.29258061866E+03 -0.57467546873E+03  0.65575040336E+03  0.10100000352E+00 0. -1.
       -3    1    3    3    0  502  0.11896751043E+03 -0.29258061866E+03  0.24326450322E+03  0.39866566905E+03  0.10100000352E+00 0.  1.
</event>
<event>
 5   0  0.2405022E-03  0.9813616E+03  0.7818609E-02  0.9329227E-01
        1   -1    0    0  501    0  0.00000000000E+00  0.00000000000E+00  0.58113913264E+03  0.58113913266E+03  0.50400001928E-02 0.  1.
       -1   -1    0    0    0  501  0.00000000000E+00  0.00000000000E+00 -0.41430296132E+03  0.41430296135E+03  0.50400001928E-02 0. -1.
    10030    2    1    2    0    0  0.00000000000E+00  0.00000000000E+00  0.16683617132E+03  0.99544209401E+03  0.98136163286E+03 0.  0.
        4    1    3    3  502    0 -0.35799322270E+03  0.22358837223E+03 -0.17040236757E+03  0.45518071957E+03  0.12699999809E+01 0.  1.
       -4    1    3    3    0  502  0.35799322270E+03 -0.22358837223E+03  0.33723853889E+03  0.54026137444E+03  0.12699999809E+01 0. -1.
</event>
<event>
 5   0  0.3873874E-03  0.9974615E+03  0.7818609E-02  0.9311333E-01
       -2   -1    0    0    0  501  0.00000000000E+00  0.00000000000E+00  0.16506035143E+03  0.16506035145E+03  0.25500000920E-02 0. -1.
        2   -1    0    0  501    0  0.00000000000E+00  0.00000000000E+00 -0.15069176347E+04  0.15069176347E+04  0.25500000920E-02 0.  1.
    10030    2    1    2    0    0  0.00000000000E+00  0.00000000000E+00 -0.13418572833E+04  0.16719779861E+04  0.99746148673E+03 0.  0.
        5    1    3    3  502    0 -0.94881245539E+02 -0.21150384736E+03  0.69226394951E+02  0.24197254381E+03  0.46999998093E+01 0. -1.
       -5    1    3    3    0  502  0.94881245539E+02  0.21150384736E+03 -0.14110836782E+04  0.14300054423E+04  0.46999998093E+01 0.  1.
</event>
<event>
 5   0  0.2405022E-03  0.9997303E+03  0.7818609E-02  0.9308841E-01
       -1   -1    0    0    0  501  0.00000000000E+00  0.00000000000E+00  0.75669310153E+03  0.75669310155E+03  0.50400001928E-02 0. -1.
        1   -1    0    0  501    0  0.00000000000E+00  0.00000000000E+00 -0.33020677450E+03  0.33020677454E+03  0.50400001928E-02 0.  1.
    10030    2    1    2    0    0  0.00000000000E+00  0.00000000000E+00  0.42648632703E+03  0.10868998761E+04  0.99973034039E+03 0.  0.
        4    1    3    3  502    0  0.31528266810E+02  0.40962566877E+03 -0.96323207081E+02  0.42197984933E+03  0.12699999809E+01 0.  1.
       -4    1    3    3    0  502 -0.31528266810E+02 -0.40962566877E+03  0.52280953411E+03  0.66492002676E+03  0.12699999809E+01 0. -1.
</event>
<event>
 5   0  0.2313036E-03  0.9930936E+03  0.7818609E-02  0.9316152E-01
       -1   -1    0    0    0  501  0.00000000000E+00  0.00000000000E+00  0.25740568400E+03  0.25740568405E+03  0.50400001928E-02 0. -1.
        1   -1    0    0  501    0  0.00000000000E+00  0.00000000000E+00 -0.95786052743E+03  0.95786052744E+03  0.50400001928E-02 0.  1.
    10030    2    1    2    0    0  0.00000000000E+00  0.00000000000E+00 -0.70045484343E+03  0.12152662115E+04  0.99309363964E+03 0.  0.
        3    1    3    3  502    0  0.13243640171E+03  0.47816496257E+03 -0.37400668816E+03  0.62133899355E+03  0.10100000352E+00 0.  1.
       -3    1    3    3    0  502 -0.13243640171E+03 -0.47816496257E+03 -0.32644815527E+03  0.59392721794E+03  0.10100000352E+00 0. -1.
</event>
<event>
 5   0  0.4026829E-03  0.9959406E+03  0.7818609E-02  0.9313008E-01
        2   -1    0    0  501    0  0.00000000000E+00  0.00000000000E+00  0.91497246109E+03  0.91497246110E+03  0.25500000920E-02 0.  1.
       -2   -1    0    0    0  501  0.00000000000E+00  0.00000000000E+00 -0.27101844050E+03  0.27101844051E+03  0.25500000920E-02 0. -1.
    10030    2    1    2    0    0  0.00000000000E+00  0.00000000000E+00  0.64395402059E+03  0.11859909016E+04  0.99594057958E+03 0.  0.
        1    1    3    3  502    0  0.28221868606E+03  0.36815105032E+03  0.10633630904E+03  0.47590964821E+03  0.50400001928E-02 0. -1.
       -1    1    3    3    0  502 -0.28221868606E+03 -0.36815105032E+03  0.53761771156E+03  0.71008125339E+03  0.50400001928E-02 0.  1.
</event>
<event>
 5   0  0.3826483E-03  0.1000764E+04  0.7818609E-02  0.9307707E-01
        2   -1    0    0  501    0  0.00000000000E+00  0.00000000000E+00  0.50289838774E+03  0.50289838775E+03  0.25500000920E-02 0. -1.
       -2   -1    0    0    0  501  0.00000000000E+00  0.00000000000E+00 -0.49787869131E+03  0.49787869132E+03  0.25500000920E-02 0.  1.
    10030    2    1    2    0    0  0.00000000000E+00  0.00000000000E+00  0.50196964298E+01  0.10007770791E+04  0.10007644901E+04 0.  0.
        4    1    3    3  502    0 -0.24968032490E+03  0.43121450715E+03 -0.43257117287E+02  0.50015898164E+03  0.12699999809E+01 0.  1.
       -4    1    3    3    0  502  0.24968032490E+03 -0.43121450715E+03  0.48276813717E+02  0.50061809742E+03  0.12699999809E+01 0. -1.
</event>
<event>
 5   0  0.4140860E-03  0.9906277E+03  0.7818609E-02  0.9318884E-01
       -2   -1    0    0    0  501  0.00000000000E+00  0.00000000000E+00  0.38381593133E+03  0.38381593134E+03  0.25500000920E-02 0.  1.
        2   -1    0    0  501    0  0.00000000000E+00  0.00000000000E+00 -0.63920177438E+03  0.63920177438E+03  0.25500000920E-02 0. -1.
    10030    2    1    2    0    0  0.00000000000E+00  0.00000000000E+00 -0.25538584305E+03  0.10230177057E+04  0.99062772897E+03 0.  0.
        3    1    3    3  502    0  0.20624738976E+03  0.43257897934E+03 -0.25697915096E+03  0.54378382964E+03  0.10100000352E+00 0. -1.
       -3    1    3    3    0  502 -0.20624738976E+03 -0.43257897934E+03  0.15933079134E+01  0.47923387608E+03  0.10100000352E+00 0.  1.
</event>
<event>
 5   0  0.2350769E-03  0.1001232E+04  0.7818609E-02  0.9307194E-01
        1   -1    0    0  501    0  0.00000000000E+00  0.00000000000E+00  0.50756327355E+03  0.50756327358E+03  0.50400001928E-02 0. -1.
       -1   -1    0    0    0  501  0.00000000000E+00  0.00000000000E+00 -0.49376410575E+03  0.49376410578E+03  0.50400001928E-02 0.  1.
    10030    2    1    2    0    0  0.00000000000E+00  0.00000000000E+00  0.13799167802E+02  0.10013273794E+04  0.10012322925E+04 0.  0.
        2    1    3    3  502    0 -0.47269305086E+03 -0.18450522665E+02  0.17073633650E+03  0.50292150354E+03  0.25500000920E-02 0. -1.
       -2    1    3    3    0  502  0.47269305086E+03  0.18450522665E+02 -0.15693716870E+03  0.49840587581E+03  0.25500000920E-02 0.  1.
</event>
<event>
 5   0  0.2350769E-03  0.1003360E+04  0.7818609E-02  0.9304867E-01
        1   -1    0    0  501    0  0.00000000000E+00  0.00000000000E+00  0.48602309185E+03  0.48602309188E+03  0.50400001928E-02 0. -1.
       -1   -1    0    0    0  501  0.00000000000E+00  0.00000000000E+00 -0.51784121980E+03  0.51784121983E+03  0.50400001928E-02 0.  1.
    10030    2    1    2    0    0  0.00000000000E+00  0.00000000000E+00 -0.31818127950E+02  0.10038643117E+04  0.10033599369E+04 0.  0.
        2    1    3    3  502    0 -0.19253118874E+03  0.10715154301E+03 -0.46683849803E+03  0.51622465561E+03  0.25500000920E-02 0.  1.
       -2    1    3    3    0  502  0.19253118874E+03 -0.10715154301E+03  0.43502037008E+03  0.48763965610E+03  0.25500000920E-02 0. -1.
</event>
<event>
 5   0  0.3873874E-03  0.9959248E+03  0.7818609E-02  0.9313026E-01
       -2   -1    0    0    0  501  0.00000000000E+00  0.00000000000E+00  0.17977256720E+03  0.17977256721E+03  0.25500000920E-02 0.  1.
        2   -1    0    0  501    0  0.00000000000E+00  0.00000000000E+00 -0.13793348641E+04  0.13793348641E+04  0.25500000920E-02 0. -1.
    10030    2    1    2    0    0  0.00000000000E+00  0.00000000000E+00 -0.11995622969E+04  0.15591074313E+04  0.99592483564E+03 0.  0.
        5    1    3    3  502    0 -0.40011837534E+03  0.12157694846E+03 -0.17661053719E+03  0.45397030798E+03  0.46999998093E+01 0.  1.
       -5    1    3    3    0  502  0.40011837534E+03 -0.12157694846E+03 -0.10229517597E+04  0.11051371233E+04  0.46999998093E+01 0. -1.
</event>
<event>
 5   0  0.2378609E-03  0.1005368E+04  0.7818609E-02  0.9302677E-01
       -1   -1    0    0    0  501  0.00000000000E+00  0.00000000000E+00  0.12849174479E+04  0.12849174479E+04  0.50400001928E-02 0. -1.
        1   -1    0    0  501    0  0.00000000000E+00  0.00000000000E+00 -0.19665948234E+03  0.19665948240E+03  0.50400001928E-02 0.  1.
    10030    2    1    2    0    0  0.00000000000E+00  0.00000000000E+00  0.10882579656E+04  0.14815769303E+04  0.10053679927E+04 0.  0.
        1    1    3    3  502    0 -0.78033165945E+02  0.14586733194E+03  0.12436545591E+04  0.12546087501E+04  0.50400001928E-02 0. -1.
       -1    1    3    3    0  502  0.78033165945E+02 -0.14586733194E+03 -0.15539659353E+03  0.22696818019E+03  0.50400001928E-02 0.  1.
</event>
<event>
 5   0  0.4140860E-03  0.9924210E+03  0.7818609E-02  0.9316897E-01
       -2   -1    0    0    0  501  0.00000000000E+00  0.00000000000E+00  0.23238847272E+03  0.23238847274E+03  0.25500000920E-02 0. -1.
        2   -1    0    0  501    0  0.00000000000E+00  0.00000000000E+00 -0.10595398265E+04  0.10595398265E+04  0.25500000920E-02 0.  1.
    10030    2    1    2    0    0  0.00000000000E+00  0.00000000000E+00 -0.82715135380E+03  0.12919282993E+04  0.99242096327E+03 0.  0.
        3    1    3    3  502    0 -0.17600977459E+03  0.22175772686E+03  0.11692585056E+03  0.30631290359E+03  0.10100000352E+00 0. -1.
       -3    1    3    3    0  502  0.17600977459E+03 -0.22175772686E+03 -0.94407720436E+03  0.98561539567E+03  0.10100000352E+00 0.  1.
</event>
<event>
 5   0  0.1548000E-03  0.9892971E+03  0.7818609E-02  0.9320362E-01
        4   -1    0    0  501    0  0.00000000000E+00  0.00000000000E+00  0.63691835851E+03  0.63691962469E+03  0.12699999809E+01 0.  1.
       -4   -1    0    0    0  501  0.00000000000E+00  0.00000000000E+00 -0.38415514661E+03  0.38415724589E+03  0.12699999809E+01 0. -1.
    10030    2    1    2    0    0  0.00000000000E+00  0.00000000000E+00  0.25276321190E+03  0.10210768706E+04  0.98929709104E+03 0.  0.
        3    1    3    3  502    0 -0.40589251236E+03  0.17160666422E+03  0.35827567209E+03  0.56794281949E+03  0.10100000352E+00 0.  1.
       -3    1    3    3    0  502  0.40589251236E+03 -0.17160666422E+03 -0.10551246019E+03  0.45313405109E+03  0.10100000352E+00 0. -1.
</event>
<event>
 5   0  0.2405022E-03  0.9908751E+03  0.7818609E-02  0.9318610E-01
       -1   -1    0    0    0  501  0.00000000000E+00  0.00000000000E+00  0.60941263990E+03  0.60941263992E+03  0.50400001928E-02 0.  1.
        1   -1    0    0  501    0  0.00000000000E+00  0.00000000000E+00 -0.40277858017E+03  0.40277858020E+03  0.50400001928E-02 0. -1.
    10030    2    1    2    0    0  0.00000000000E+00  0.00000000000E+00  0.20663405973E+03  0.10121912201E+04  0.99087508368E+03 0.  0.
        4    1    3    3  502    0 -0.15234522570E+03 -0.43637627818E+03 -0.78911801559E+02  0.46889445430E+03  0.12699999809E+01 0. -1.
       -4    1    3    3    0  502  0.15234522570E+03  0.43637627818E+03  0.28554586129E+03  0.54329676582E+03  0.12699999809E+01 0.  1.
</event>
<event>
 5   0  0.2327595E-03  0.9986827E+03  0.7818609E-02  0.9309991E-01
       -1   -1    0    0    0  501  0.00000000000E+00  0.00000000000E+00  0.96311137149E+03  0.96311137151E+03  0.50400001928E-02 0.  1.
        1   -1    0    0  501    0  0.00000000000E+00  0.00000000000E+00 -0.25889194359E+03  0.25889194364E+03  0.50400001928E-02 0. -1.
    10030    2    1    2    0    0  0.00000000000E+00  0.00000000000E+00  0.70421942791E+03  0.12220033151E+04  0.99868268213E+03 0.  0.
        5    1    3    3  502    0 -0.10932487680E+03  0.39977007773E+03  0.69286324239E+03  0.80737203716E+03  0.46999998093E+01 0.  1.
       -5    1    3    3    0  502  0.10932487680E+03 -0.39977007773E+03  0.11356185513E+02  0.41463127798E+03  0.46999998093E+01 0. -1.
</event>
<event>
 5   0  0.3826483E-03  0.9960753E+03  0.7818609E-02  0.9312860E-01
       -2   -1    0    0    0  501  0.00000000000E+00  0.00000000000E+00  0.16023446022E+03  0.16023446024E+03  0.25500000920E-02 0. -1.
        2   -1    0    0  501    0  0.00000000000E+00  0.00000000000E+00 -0.15479910185E+04  0.15479910185E+04  0.25500000920E-02 0.  1.
    10030    2    1    2    0    0  0.00000000000E+00  0.00000000000E+00 -0.13877565583E+04  0.17082254787E+04  0.99607530897E+03 0.  0.
        4    1    3    3  502    0 -0.44283072123E+03 -0.98662591041E+02 -0.34155374618E+03  0.56788548931E+03  0.12699999809E+01 0. -1.
       -4    1    3    3    0  502  0.44283072123E+03  0.98662591041E+02 -0.10462028121E+04  0.11403399894E+04  0.12699999809E+01 0.  1.
</event>
<event>
 5   0  0.2327595E-03  0.1002802E+04  0.7818609E-02  0.9305477E-01
        1   -1    0    0  501    0  0.00000000000E+00  0.00000000000E+00  0.81121622197E+03  0.81121622198E+03  0.50400001928E-02 0. -1.
       -1   -1    0    0    0  501  0.00000000000E+00  0.00000000000E+00 -0.30990855016E+03  0.30990855020E+03  0.50400001928E-02 0.  1.
    10030    2    1    2    0    0  0.00000000000E+00  0.00000000000E+00  0.50130767181E+03  0.11211247722E+04  0.10028017616E+04 0.  0.
        5    1    3    3  502    0  0.49448754540E+03  0.59704168919E+02  0.31486041348E+03  0.58927216998E+03  0.46999998093E+01 0. -1.
       -5    1    3    3    0  502 -0.49448754540E+03 -0.59704168919E+02  0.18644725833E+03  0.53185260221E+03  0.46999998093E+01 0.  1.
</event>
<event>
 5   0  0.3895011E-03  0.1003978E+04  0.7818609E-02  0.9304193E-01
       -2   -1    0    0    0  501  0.00000000000E+00  0.00000000000E+00  0.22855525529E+03  0.22855525530E+03  0.25500000920E-02 0.  1.
        2   -1    0    0  501    0  0.00000000000E+00  0.00000000000E+00 -0.11025464426E+04  0.11025464426E+04  0.25500000920E-02 0. -1.
    10030    2    1    2    0    0  0.00000000000E+00  0.00000000000E+00 -0.87399118731E+03  0.13311016979E+04  0.10039776565E+04 0.  0.
        2    1    3    3  502    0 -0.39264544187E+03 -0.26835361685E+03 -0.64999091340E+03  0.80540194575E+03  0.25500000920E-02 0. -1.
       -2    1    3    3    0  502  0.39264544187E+03  0.26835361685E+03 -0.22400027391E+03  0.52569975216E+03  0.25500000920E-02 0.  1.
</event>
<event>
 5   0  0.2350769E-03  0.9580937E+03  0.7818609E-02  0.9355740E-01
        1   -1    0    0  501    0  0.00000000000E+00  0.00000000000E+00  0.34791224251E+03  0.34791224254E+03  0.50400001928E-02 0. -1.
       -1   -1    0    0    0  501  0.00000000000E+00  0.00000000000E+00 -0.65960850475E+03  0.65960850477E+03  0.50400001928E-02 0.  1.
    10030    2    1    2    0    0  0.00000000000E+00  0.00000000000E+00 -0.31169626224E+03  0.10075207473E+04  0.95809367828E+03 0.  0.
        2    1    3    3  502    0  0.15205788714E+03  0.17390585531E+03  0.28546985485E+03  0.36723001728E+03  0.25500000920E-02 0. -1.
       -2    1    3    3    0  502 -0.15205788714E+03 -0.17390585531E+03 -0.59716611710E+03  0.64029073003E+03  0.25500000920E-02 0.  1.
</event>
<event>
 5   0  0.2378609E-03  0.1001789E+04  0.7818609E-02  0.9306585E-01
        1   -1    0    0  501    0  0.00000000000E+00  0.00000000000E+00  0.58880343209E+03  0.58880343211E+03  0.50400001928E-02 0. -1.
       -1   -1    0    0    0  501  0.00000000000E+00  0.00000000000E+00 -0.42611055403E+03  0.42611055406E+03  0.50400001928E-02 0.  1.
    10030    2    1    2    0    0  0.00000000000E+00  0.00000000000E+00  0.16269287805E+03  0.10149139862E+04  0.10017891129E+04 0.  0.
        1    1    3    3  502    0 -0.14072618145E+03 -0.33602957414E+03 -0.26692421505E+03  0.45162846394E+03  0.50400001928E-02 0.  1.
       -1    1    3    3    0  502  0.14072618145E+03  0.33602957414E+03  0.42961709310E+03  0.56328552223E+03  0.50400001928E-02 0. -1.
</event>
<event>
 5   0  0.3895011E-03  0.1001858E+04  0.7818609E-02  0.9306509E-01
        2   -1    0    0  501    0  0.00000000000E+00  0.00000000000E+00  0.17731429710E+04  0.17731429710E+04  0.25500000920E-02 0.  1.
       -2   -1    0    0    0  501  0.00000000000E+00  0.00000000000E+00 -0.14151695178E+03  0.14151695180E+03  0.25500000920E-02 0. -1.
    10030    2    1    2    0    0  0.00000000000E+00  0.00000000000E+00  0.16316260192E+04  0.19146599228E+04  0.10018578509E+04 0.  0.
        2    1    3    3  502    0 -0.20726591574E+03 -0.22284349888E+03  0.55413828279E+02  0.30933651125E+03  0.25500000920E-02 0. -1.
       -2    1    3    3    0  502  0.20726591574E+03  0.22284349888E+03  0.15762121909E+04  0.16053234116E+04  0.25500000920E-02 0.  1.
</event>
<event>
 5   0  0.3826483E-03  0.1005695E+04  0.7818609E-02  0.9302321E-01
        2   -1    0    0  501    0  0.00000000000E+00  0.00000000000E+00  0.12583381519E+04  0.12583381519E+04  0.25500000920E-02 0.  1.
       -2   -1    0    0    0  501  0.00000000000E+00  0.00000000000E+00 -0.20094403492E+03  0.20094403493E+03  0.25500000920E-02 0. -1.
    10030    2    1    2    0    0  0.00000000000E+00  0.00000000000E+00  0.10573941170E+04  0.14592821868E+04  0.10056948753E+04 0.  0.
        4    1    3    3  502    0  0.35285251355E+03 -0.36520432391E+02  0.10458286309E+04  0.11043540086E+04  0.12699999809E+01 0.  1.
       -4    1    3    3    0  502 -0.35285251355E+03  0.36520432391E+02  0.11565486085E+02  0.35492817819E+03  0.12699999809E+01 0. -1.
</event>
<event>
 5   0  0.2350769E-03  0.9579490E+03  0.7818609E-02  0.9355907E-01
        1   -1    0    0  501    0  0.00000000000E+00  0.00000000000E+00  0.12363120202E+04  0.12363120202E+04  0.50400001928E-02 0. -1.
       -1   -1    0    0    0  501  0.00000000000E+00  0.00000000000E+00 -0.18556526224E+03  0.18556526230E+03  0.50400001928E-02 0.  1.
    10030    2    1    2    0    0  0.00000000000E+00  0.00000000000E+00  0.10507467580E+04  0.14218772825E+04  0.95794898464E+03 0.  0.
        2    1    3    3  502    0  0.32340510448E+03  0.17614939697E+03  0.70789089259E+02  0.37500742235E+03  0.25500000920E-02 0.  1.
       -2    1    3    3    0  502 -0.32340510448E+03 -0.17614939697E+03  0.97995766874E+03  0.10468698602E+04  0.25500000920E-02 0. -1.
</event>
<event>
 5   0  0.2378609E-03  0.1029847E+04  0.7818609E-02  0.9276401E-01
        1   -1    0    0  501    0  0.00000000000E+00  0.00000000000E+00  0.79601431674E+03  0.79601431676E+03  0.50400001928E-02 0.  1.
       -1   -1    0    0    0  501  0.00000000000E+00  0.00000000000E+00 -0.33309253906E+03  0.33309253910E+03  0.50400001928E-02 0. -1.
    10030    2    1    2    0    0  0.00000000000E+00  0.00000000000E+00  0.46292177768E+03  0.11291068559E+04  0.10298474254E+04 0.  0.
        1    1    3    3  502    0  0.47888968812E+03  0.69193343189E+02  0.38350029064E+02  0.48538003346E+03  0.50400001928E-02 0.  1.
       -1    1    3    3    0  502 -0.47888968812E+03 -0.69193343189E+02  0.42457174862E+03  0.64372682240E+03  0.50400001928E-02 0. -1.
</event>
<event>
 5   0  0.2405022E-03  0.9900463E+03  0.7818609E-02  0.9319530E-01
        1   -1    0    0  501    0  0.00000000000E+00  0.00000000000E+00  0.11798786398E+04  0.11798786398E+04  0.50400001928E-02 0.  1.
       -1   -1    0    0    0  501  0.00000000000E+00  0.00000000000E+00 -0.20768908213E+03  0.20768908219E+03  0.50400001928E-02 0. -1.
    10030    2    1    2    0    0  0.00000000000E+00  0.00000000000E+00  0.97218955764E+03  0.13875677220E+04  0.99004628531E+03 0.  0.
        4    1    3    3  502    0 -0.19128572452E+03 -0.90877564611E+02  0.11131818400E+04  0.11331479965E+04  0.12699999809E+01 0.  1.
       -4    1    3    3    0  502  0.19128572452E+03  0.90877564611E+02 -0.14099228232E+03  0.25441972551E+03  0.12699999809E+01 0. -1.
</event>
<event>
 5   0  0.3826483E-03  0.1001338E+04  0.7818609E-02  0.9307078E-01
       -2   -1    0    0    0  501  0.00000000000E+00  0.00000000000E+00  0.37041324133E+03  0.37041324134E+03  0.25500000920E-02 0. -1.
        2   -1    0    0  501    0  0.00000000000E+00  0.00000000000E+00 -0.67672957843E+03  0.67672957844E+03  0.25500000920E-02 0.  1.
    10030    2    1    2    0    0  0.00000000000E+00  0.00000000000E+00 -0.30631633710E+03  0.10471428198E+04  0.10013382978E+04 0.  0.
        4    1    3    3  502    0 -0.13643979002E+03  0.24582754103E+03 -0.58637995677E+03  0.65029997911E+03  0.12699999809E+01 0.  1.
       -4    1    3    3    0  502  0.13643979002E+03 -0.24582754103E+03  0.28006361967E+03  0.39684284067E+03  0.12699999809E+01 0. -1.
</event>
<event>
 5   0  0.2313036E-03  0.9974304E+03  0.7818609E-02  0.9311368E-01
        1   -1    0    0  501    0  0.00000000000E+00  0.00000000000E+00  0.21655526438E+04  0.21655526438E+04  0.50400001928E-02 0.  1.
       -1   -1    0    0    0  501  0.00000000000E+00  0.00000000000E+00 -0.11485144239E+03  0.11485144250E+03  0.50400001928E-02 0. -1.
    10030    2    1    2    0    0  0.00000000000E+00  0.00000000000E+00  0.20507012014E+04  0.22804040863E+04  0.99743038821E+03 0.  0.
        3    1    3    3  502    0  0.29536743357E+03  0.65607913356E+02  0.11896133437E+03  0.32511248574E+03  0.10100000352E+00 0. -1.
       -3    1    3    3    0  502 -0.29536743357E+03 -0.65607913356E+02  0.19317398670E+04  0.19552916005E+04  0.10100000352E+00 0.  1.
</event>
<event>
 5   0  0.2378609E-03  0.9970003E+03  0.7818609E-02  0.9311841E-01
       -1   -1    0    0    0  501  0.00000000000E+00  0.00000000000E+00  0.46149893070E+03  0.46149893073E+03  0.50400001928E-02 0. -1.
        1   -1    0    0  501    0  0.00000000000E+00  0.00000000000E+00 -0.53846799334E+03  0.53846799337E+03  0.50400001928E-02 0.  1.
    10030    2    1    2    0    0  0.00000000000E+00  0.00000000000E+00 -0.76969062641E+02  0.99996692410E+03  0.99700030726E+03 0.  0.
        1    1    3    3  502    0  0.46277472509E+03 -0.29125799764E+02  0.14507272085E+03  0.48585476509E+03  0.50400001928E-02 0. -1.
       -1    1    3    3    0  502 -0.46277472509E+03  0.29125799764E+02 -0.22204178350E+03  0.51411215901E+03  0.50400001928E-02 0.  1.
</event>
<event>
 5   0  0.2378609E-03  0.1000755E+04  0.7818609E-02  0.9307718E-01
        1   -1    0    0  501    0  0.00000000000E+00  0.00000000000E+00  0.63309695835E+03  0.63309695837E+03  0.50400001928E-02 0.  1.
       -1   -1    0    0    0  501  0.00000000000E+00  0.00000000000E+00 -0.39548042073E+03  0.39548042076E+03  0.50400001928E-02 0. -1.
    10030    2    1    2    0    0  0.00000000000E+00  0.00000000000E+00  0.23761653762E+03  0.10285773791E+04  0.10007546182E+04 0.  0.
        1    1    3    3  502    0  0.35931139074E+03  0.24305288948E+03 -0.13752077435E+03  0.45507290186E+03  0.50400001928E-02 0. -1.
       -1    1    3    3    0  502 -0.35931139074E+03 -0.24305288948E+03  0.37513731198E+03  0.57350447728E+03  0.50400001928E-02 0.  1.
</event>
<event>
 5   0  0.3826483E-03  0.9985405E+03  0.7818609E-02  0.9310147E-01
        2   -1    0    0  501    0  0.00000000000E+00  0.00000000000E+00  0.45498307345E+03  0.45498307346E+03  0.25500000920E-02 0. -1.
       -2   -1    0    0    0  501  0.00000000000E+00  0.00000000000E+00 -0.54786821957E+03  0.54786821958E+03  0.25500000920E-02 0.  1.
    10030    2    1    2    0    0  0.00000000000E+00  0.00000000000E+00 -0.92885146121E+02  0.10028512930E+04  0.99854046767E+03 0.  0.
        4    1    3    3  502    0 -0.49599625763E+02  0.24464369472E+03 -0.48069621389E+03  0.54164667745E+03  0.12699999809E+01 0.  1.
       -4    1    3    3    0  502  0.49599625763E+02 -0.24464369472E+03  0.38781106777E+03  0.46120461558E+03  0.12699999809E+01 0. -1.
</event>
<event>
 5   0  0.4140860E-03  0.9919612E+03  0.7818609E-02  0.9317406E-01
       -2   -1    0    0    0  501  0.00000000000E+00  0.00000000000E+00  0.50708730575E+03  0.50708730575E+03  0.25500000920E-02 0.  1.
        2   -1    0    0  501    0  0.00000000000E+00  0.00000000000E+00 -0.48511711533E+03  0.48511711534E+03  0.25500000920E-02 0. -1.
    10030    2    1    2    0    0  0.00000000000E+00  0.00000000000E+00  0.21970190415E+02  0.99220442109E+03  0.99196115043E+03 0.  0.
        3    1    3    3  502    0  0.10756253278E+03 -0.46618413999E+03 -0.11981153299E+03  0.49320600613E+03  0.10100000352E+00 0. -1.
       -3    1    3    3    0  502 -0.10756253278E+03  0.46618413999E+03  0.14178172341E+03  0.49899841496E+03  0.10100000352E+00 0.  1.
</event>
<event>
 5   0  0.3873874E-03  0.9828319E+03  0.7818609E-02  0.9327577E-01
       -2   -1    0    0    0  501  0.00000000000E+00  0.00000000000E+00  0.30928431211E+03  0.30928431213E+03  0.25500000920E-02 0. -1.
        2   -1    0    0  501    0  0.00000000000E+00  0.00000000000E+00 -0.78080144470E+03  0.78080144470E+03  0.25500000920E-02 0.  1.
    10030    2    1    2    0    0  0.00000000000E+00  0.00000000000E+00 -0.47151713258E+03  0.10900857568E+04  0.98283190369E+03 0.  0.
        5    1    3    3  502    0 -0.37047230224E+03 -0.10542586440E+03 -0.57418458314E+03  0.69142921917E+03  0.46999998093E+01 0.  1.
       -5    1    3    3    0  502  0.37047230224E+03  0.10542586440E+03  0.10266745056E+03  0.39865653765E+03  0.46999998093E+01 0. -1.
</event>
<event>
 5   0  0.4140860E-03  0.9948784E+03  0.7818609E-02  0.9314180E-01
       -2   -1    0    0    0  501  0.00000000000E+00  0.00000000000E+00  0.25399556574E+03  0.25399556575E+03  0.25500000920E-02 0. -1.
        2   -1    0    0  501    0  0.00000000000E+00  0.00000000000E+00 -0.97421298239E+03  0.97421298239E+03  0.25500000920E-02 0.  1.
    10030    2    1    2    0    0  0.00000000000E+00  0.00000000000E+00 -0.72021741665E+03  0.12282085481E+04  0.99487844005E+03 0.  0.
        3    1    3    3  502    0  0.43319659742E+03 -0.17017202809E+03 -0.14335104365E+03  0.48699829884E+03  0.10100000352E+00 0. -1.
       -3    1    3    3    0  502 -0.43319659742E+03  0.17017202809E+03 -0.57686637300E+03  0.74121024930E+03  0.10100000352E+00 0.  1.
</event>
<event>
 5   0  0.2327595E-03  0.1001342E+04  0.7818609E-02  0.9307074E-01
       -1   -1    0    0    0  501  0.00000000000E+00  0.00000000000E+00  0.52737958942E+03  0.52737958944E+03  0.50400001928E-02 0. -1.
        1   -1    0    0  501    0  0.00000000000E+00  0.00000000000E+00 -0.47531505051E+03  0.47531505054E+03  0.50400001928E-02 0.  1.
    10030    2    1    2    0    0  0.00000000000E+00  0.00000000000E+00  0.52064538904E+02  0.10026946400E+04  0.10013420119E+04 0.  0.
        5    1    3    3  502    0  0.38269251626E+03 -0.29992932097E+03 -0.93452871829E+02  0.49514309935E+03  0.46999998093E+01 0.  1.
       -5    1    3    3    0  502 -0.38269251626E+03  0.29992932097E+03  0.14551741073E+03  0.50755154064E+03  0.46999998093E+01 0. -1.
</event>
<event>
 5   0  0.3873874E-03  0.1008276E+04  0.7818609E-02  0.9299514E-01
        2   -1    0    0  501    0  0.00000000000E+00  0.00000000000E+00  0.55478950540E+03  0.55478950540E+03  0.25500000920E-02 0. -1.
       -2   -1    0    0    0  501  0.00000000000E+00  0.00000000000E+00 -0.45811118582E+03  0.45811118583E+03  0.25500000920E-02 0.  1.
    10030    2    1    2    0    0  0.00000000000E+00  0.00000000000E+00  0.96678319576E+02  0.10129006912E+04  0.10082763078E+04 0.  0.
        5    1    3    3  502    0  0.41288644430E+03 -0.92190897388E+02  0.32374760595E+03  0.53273725212E+03  0.46999998093E+01 0.  1.
       -5    1    3    3    0  502 -0.41288644430E+03  0.92190897388E+02 -0.22706928637E+03  0.48016343911E+03  0.46999998093E+01 0. -1.
</event>
<event>
 5   0  0.3895011E-03  0.9971830E+03  0.7818609E-02  0.9311640E-01
        2   -1    0    0  501    0  0.00000000000E+00  0.00000000000E+00  0.60614612388E+03  0.60614612389E+03  0.25500000920E-02 0.  1.
       -2   -1    0    0    0  501  0.00000000000E+00  0.00000000000E+00 -0.41012140549E+03  0.41012140550E+03  0.25500000920E-02 0. -1.
    10030    2    1    2    0    0  0.00000000000E+00  0.00000000000E+00  0.19602471839E+03  0.10162675294E+04  0.99718303288E+03 0.  0.
        2    1    3    3  502    0  0.11600464019E+03 -0.41639214095E+02 -0.39435132619E+03  0.41316324760E+03  0.25500000920E-02 0. -1.
       -2    1    3    3    0  502 -0.11600464019E+03  0.41639214095E+02  0.59037604457E+03  0.60310428179E+03  0.25500000920E-02 0.  1.
</event>
<event>
 5   0  0.3873874E-03  0.9987578E+03  0.7818609E-02  0.9309908E-01
        2   -1    0    0  501    0  0.00000000000E+00  0.00000000000E+00  0.12991143133E+04  0.12991143133E+04  0.25500000920E-02 0. -1.
       -2   -1    0    0    0  501  0.00000000000E+00  0.00000000000E+00 -0.19196100954E+03  0.19196100956E+03  0.25500000920E-02 0.  1.
    10030    2    1    2    0    0  0.00000000000E+00  0.00000000000E+00  0.11071533038E+04  0.14910753229E+04  0.99875781871E+03 0.  0.
        5    1    3    3  502    0 -0.42121968232E+03  0.10803825036E+03  0.18709683206E+03  0.47341905209E+03  0.46999998093E+01 0.  1.
       -5    1    3    3    0  502  0.42121968232E+03 -0.10803825036E+03  0.92005647174E+03  0.10176562708E+04  0.46999998093E+01 0. -1.
</event>
<event>
 5   0  0.2378609E-03  0.9995107E+03  0.7818609E-02  0.9309082E-01
        1   -1    0    0  501    0  0.00000000000E+00  0.00000000000E+00  0.52436814458E+03  0.52436814461E+03  0.50400001928E-02 0.  1.
       -1   -1    0    0    0  501  0.00000000000E+00  0.00000000000E+00 -0.47629780027E+03  0.47629780029E+03  0.50400001928E-02 0. -1.
    10030    2    1    2    0    0  0.00000000000E+00  0.00000000000E+00  0.48070344317E+02  0.10006659449E+04  0.99951066792E+03 0.  0.
        1    1    3    3  502    0  0.33370771857E+03 -0.17537858650E+03  0.35249501778E+03  0.51611164260E+03  0.50400001928E-02 0.  1.
       -1    1    3    3    0  502 -0.33370771857E+03  0.17537858650E+03 -0.30442467347E+03  0.48455430230E+03  0.50400001928E-02 0. -1.
</event>
<event>
 5   0  0.3895011E-03  0.9994338E+03  0.7818609E-02  0.9309166E-01
       -2   -1    0    0    0  501  0.00000000000E+00  0.00000000000E+00  0.47452818849E+03  0.47452818850E+03  0.25500000920E-02 0. -1.
        2   -1    0    0  501    0  0.00000000000E+00  0.00000000000E+00 -0.52624263494E+03  0.52624263495E+03  0.25500000920E-02 0.  1.
    10030    2    1    2    0    0  0.00000000000E+00  0.00000000000E+00 -0.51714446448E+02  0.10007708234E+04  0.99943376824E+03 0.  0.
        2    1    3    3  502    0 -0.19032974405E+03 -0.42519788908E+03 -0.20692587007E+03  0.50974206424E+03  0.25500000920E-02 0.  1.
       -2    1    3    3    0  502  0.19032974405E+03  0.42519788908E+03  0.15521142362E+03  0.49102875921E+03  0.25500000920E-02 0. -1.
</event>
<event>
 5   0  0.2327595E-03  0.9997950E+03  0.7818609E-02  0.9308770E-01
        1   -1    0    0  501    0  0.00000000000E+00  0.00000000000E+00  0.20404507329E+03  0.20404507335E+03  0.50400001928E-02 0. -1.
       -1   -1    0    0    0  501  0.00000000000E+00  0.00000000000E+00 -0.12247172439E+04  0.12247172440E+04  0.50400001928E-02 0.  1.
    10030    2    1    2    0    0  0.00000000000E+00  0.00000000000E+00 -0.10206721707E+04  0.14287623173E+04  0.99979501869E+03 0.  0.
        5    1    3    3  502    0  0.15565316357E+03 -0.32138789249E+03 -0.10458064826E+02  0.35728076619E+03  0.46999998093E+01 0. -1.
       -5    1    3    3    0  502 -0.15565316357E+03  0.32138789249E+03 -0.10102141058E+04  0.10714815511E+04  0.46999998093E+01 0.  1.
</event>
<event>
 5   0  0.2313036E-03  0.1001652E+04  0.7818609E-02  0.9306735E-01
        1   -1    0    0  501    0  0.00000000000E+00  0.00000000000E+00  0.22267498782E+03  0.22267498788E+03  0.50400001928E-02 0.  1.
       -1   -1    0    0    0  501  0.00000000000E+00  0.00000000000E+00 -0.11264248431E+04  0.11264248431E+04  0.50400001928E-02 0. -1.
    10030    2    1    2    0    0  0.00000000000E+00  0.00000000000E+00 -0.90374985530E+03  0.13490998310E+04  0.10016519121E+04 0.  0.
        3    1    3    3  502    0 -0.73790836077E+02 -0.49533326885E+03 -0.44494233580E+03  0.66990583451E+03  0.10100000352E+00 0. -1.
       -3    1    3    3    0  502  0.73790836077E+02  0.49533326885E+03 -0.45880751949E+03  0.67919399649E+03  0.10100000352E+00 0.  1.
</event>
<event>
 5   0  0.3826483E-03  0.9797465E+03  0.7818609E-02  0.9331042E-01
       -2   -1    0    0    0  501  0.00000000000E+00  0.00000000000E+00  0.28881093160E+03  0.28881093161E+03  0.25500000920E-02 0. -1.
        2   -1    0    0  501    0  0.00000000000E+00  0.00000000000E+00 -0.83090961816E+03  0.83090961816E+03  0.25500000920E-02 0.  1.
    10030    2    1    2    0    0  0.00000000000E+00  0.00000000000E+00 -0.54209868656E+03  0.11197205498E+04  0.97974645884E+03 0.  0.
        4    1    3    3  502    0  0.12525018969E+03  0.10842946064E+03 -0.79792201032E+03  0.81493908080E+03  0.12699999809E+01 0.  1.
       -4    1    3    3    0  502 -0.12525018969E+03 -0.10842946064E+03  0.25582332376E+03  0.30478146898E+03  0.12699999809E+01 0. -1.
</event>
<event>
 5   0  0.2313036E-03  0.1001697E+04  0.7818609E-02  0.9306686E-01
       -1   -1    0    0    0  501  0.00000000000E+00  0.00000000000E+00  0.20147528585E+03  0.20147528592E+03  0.50400001928E-02 0. -1.
        1   -1    0    0  501    0  0.00000000000E+00  0.00000000000E+00 -0.12450619335E+04  0.12450619335E+04  0.50400001928E-02 0.  1.
    10030    2    1    2    0    0  0.00000000000E+00  0.00000000000E+00 -0.10435866476E+04  0.14465372194E+04  0.10016969781E+04 0.  0.
        3    1    3    3  502    0 -0.31473907188E+03  0.29978534980E+03 -0.88112798566E+03  0.98250622219E+03  0.10100000352E+00 0.  1.
       -3    1    3    3    0  502  0.31473907188E+03 -0.29978534980E+03 -0.16245866196E+03  0.46403099721E+03  0.10100000352E+00 0. -1.
</event>
<event>
 5   0  0.2405022E-03  0.1005501E+04  0.7818609E-02  0.9302532E-01
        1   -1    0    0  501    0  0.00000000000E+00  0.00000000000E+00  0.12178604816E+04  0.12178604816E+04  0.50400001928E-02 0.  1.
       -1   -1    0    0    0  501  0.00000000000E+00  0.00000000000E+00 -0.20754265026E+03  0.20754265032E+03  0.50400001928E-02 0. -1.
    10030    2    1    2    0    0  0.00000000000E+00  0.00000000000E+00  0.10103178314E+04  0.14254031320E+04  0.10055008544E+04 0.  0.
        4    1    3    3  502    0 -0.38832909977E+02  0.42823334348E+03  0.13586098638E+03  0.45094524267E+03  0.12699999809E+01 0. -1.
       -4    1    3    3    0  502  0.38832909977E+02 -0.42823334348E+03  0.87445684498E+03  0.97445788929E+03  0.12699999809E+01 0.  1.
</event>
<event>
 5   0  0.2313036E-03  0.1000679E+04  0.7818609E-02  0.9307800E-01
       -1   -1    0    0    0  501  0.00000000000E+00  0.00000000000E+00  0.19534989778E+03  0.19534989784E+03  0.50400001928E-02 0. -1.
        1   -1    0    0  501    0  0.00000000000E+00  0.00000000000E+00 -0.12814945988E+04  0.12814945988E+04  0.50400001928E-02 0.  1.
    10030    2    1    2    0    0  0.00000000000E+00  0.00000000000E+00 -0.10861447010E+04  0.14768444966E+04  0.10006794470E+04 0.  0.
        3    1    3    3  502    0  0.40094892384E+02  0.42008071161E+03 -0.93980876306E+03  0.10302018860E+04  0.10100000352E+00 0.  1.
       -3    1    3    3    0  502 -0.40094892384E+02 -0.42008071161E+03 -0.14633593793E+03  0.44664261059E+03  0.10100000352E+00 0. -1.
</event>
<event>
 5   0  0.3873874E-03  0.1001247E+04  0.7818609E-02  0.9307178E-01
       -2   -1    0    0    0  501  0.00000000000E+00  0.00000000000E+00  0.25176731624E+03  0.25176731625E+03  0.25500000920E-02 0. -1.
        2   -1    0    0  501    0  0.00000000000E+00  0.00000000000E+00 -0.99545891451E+03  0.99545891451E+03  0.25500000920E-02 0.  1.
    10030    2    1    2    0    0  0.00000000000E+00  0.00000000000E+00 -0.74369159827E+03  0.12472262308E+04  0.10012472609E+04 0.  0.
        5    1    3    3  502    0  0.43386059953E+03 -0.82548346220E+02 -0.66544603686E+03  0.79868001556E+03  0.46999998093E+01 0.  1.
       -5    1    3    3    0  502 -0.43386059953E+03  0.82548346220E+02 -0.78245561409E+02  0.44854621520E+03  0.46999998093E+01 0. -1.
</event>
<event>
 5   0  0.2405022E-03  0.9979975E+03  0.7818609E-02  0.9310744E-01
       -1   -1    0    0    0  501  0.00000000000E+00  0.00000000000E+00  0.17245543413E+03  0.17245543420E+03  0.50400001928E-02 0.  1.
        1   -1    0    0  501    0  0.00000000000E+00  0.00000000000E+00 -0.14438499804E+04  0.14438499804E+04  0.50400001928E-02 0. -1.
    10030    2    1    2    0    0  0.00000000000E+00  0.00000000000E+00 -0.12713945463E+04  0.16163054146E+04  0.99799754559E+03 0.  0.
        4    1    3    3  502    0  0.22620809455E+03 -0.18168914368E+03  0.21801745641E+02  0.29096043715E+03  0.12699999809E+01 0.  1.
       -4    1    3    3    0  502 -0.22620809455E+03  0.18168914368E+03 -0.12931962919E+04  0.13253449774E+04  0.12699999809E+01 0. -1.
</event>
<event>
 5   0  0.2327595E-03  0.1002477E+04  0.7818609E-02  0.9305833E-01
        1   -1    0    0  501    0  0.00000000000E+00  0.00000000000E+00  0.53669808465E+03  0.53669808467E+03  0.50400001928E-02 0.  1.
       -1   -1    0    0    0  501  0.00000000000E+00  0.00000000000E+00 -0.46812141803E+03  0.46812141806E+03  0.50400001928E-02 0. -1.
    10030    2    1    2    0    0  0.00000000000E+00  0.00000000000E+00  0.68576666613E+02  0.10048195027E+04  0.10024766700E+04 0.  0.
        5    1    3    3  502    0  0.19474504756E+03  0.35992699120E+03  0.32435141878E+03  0.52220590327E+03  0.46999998093E+01 0.  1.
       -5    1    3    3    0  502 -0.19474504756E+03 -0.35992699120E+03 -0.25577475217E+03  0.48261359946E+03  0.46999998093E+01 0. -1.
</event>
<event>
 5   0  0.3873874E-03  0.9742109E+03  0.7818609E-02  0.9337291E-01
        2   -1    0    0  501    0  0.00000000000E+00  0.00000000000E+00  0.10273080405E+04  0.10273080405E+04  0.25500000920E-02 0. -1.
       -2   -1    0    0    0  501  0.00000000000E+00  0.00000000000E+00 -0.23096452402E+03  0.23096452403E+03  0.25500000920E-02 0.  1.
    10030    2    1    2    0    0  0.00000000000E+00  0.00000000000E+00  0.79634351652E+03  0.12582725646E+04  0.97421088603E+03 0.  0.
        5    1    3    3  502    0  0.46995227568E+03  0.12530567855E+03  0.36417180043E+03  0.60761817346E+03  0.46999998093E+01 0. -1.
       -5    1    3    3    0  502 -0.46995227568E+03 -0.12530567855E+03  0.43217171609E+03  0.65065439112E+03  0.46999998093E+01 0.  1.
</event>
<event>
 5   0  0.2327595E-03  0.1017433E+04  0.7818609E-02  0.9289628E-01
        1   -1    0    0  501    0  0.00000000000E+00  0.00000000000E+00  0.81462243098E+03  0.81462243099E+03  0.50400001928E-02 0. -1.
       -1   -1    0    0    0  501  0.00000000000E+00  0.00000000000E+00 -0.31768425983E+03  0.31768425987E+03  0.50400001928E-02 0.  1.
    10030    2    1    2    0    0  0.00000000000E+00  0.00000000000E+00  0.49693817115E+03  0.11323066909E+04  0.10174334849E+04 0.  0.
        5    1    3    3  502    0  0.44580532875E+03 -0.18393247653E+03  0.42859846304E+03  0.64520716021E+03  0.46999998093E+01 0. -1.
       -5    1    3    3    0  502 -0.44580532875E+03  0.18393247653E+03  0.68339708110E+02  0.48709953066E+03  0.46999998093E+01 0.  1.
</event>
<event>
 5   0  0.3826483E-03  0.9555010E+03  0.7818609E-02  0.9358744E-01
        2   -1    0    0  501    0  0.00000000000E+00  0.00000000000E+00  0.58683467574E+03  0.58683467575E+03  0.25500000920E-02 0.  1.
       -2   -1    0    0    0  501  0.00000000000E+00  0.00000000000E+00 -0.38894352266E+03  0.38894352267E+03  0.25500000920E-02 0. -1.
    10030    2    1    2    0    0  0.00000000000E+00  0.00000000000E+00  0.19789115308E+03  0.97577819842E+03  0.95550101206E+03 0.  0.
        4    1    3    3  502    0 -0.30331658583E+03  0.25000205481E+02  0.47502414183E+03  0.56415911739E+03  0.12699999809E+01 0.  1.
       -4    1    3    3    0  502  0.30331658583E+03 -0.25000205481E+02 -0.27713298875E+03  0.41161908103E+03  0.12699999809E+01 0. -1.
</event>
<event>
 5   0  0.2350769E-03  0.1000060E+04  0.7818609E-02  0.9308479E-01
        1   -1    0    0  501    0  0.00000000000E+00  0.00000000000E+00  0.42111133831E+03  0.42111133834E+03  0.50400001928E-02 0. -1.
       -1   -1    0    0    0  501  0.00000000000E+00  0.00000000000E+00 -0.59373830050E+03  0.59373830052E+03  0.50400001928E-02 0.  1.
    10030    2    1    2    0    0  0.00000000000E+00  0.00000000000E+00 -0.17262696219E+03  0.10148496389E+04  0.10000598589E+04 0.  0.
        2    1    3    3  502    0 -0.35499332848E+03 -0.18178785255E+03 -0.39237428910E+03  0.55948607610E+03  0.25500000920E-02 0.  1.
       -2    1    3    3    0  502  0.35499332848E+03  0.18178785255E+03  0.21974732691E+03  0.45536356276E+03  0.25500000920E-02 0. -1.
</event>
<event>
 5   0  0.2350769E-03  0.9973056E+03  0.7818609E-02  0.9311505E-01
       -1   -1    0    0    0  501  0.00000000000E+00  0.00000000000E+00  0.79712812530E+03  0.79712812532E+03  0.50400001928E-02 0. -1.
        1   -1    0    0  501    0  0.00000000000E+00  0.00000000000E+00 -0.31193807918E+03  0.31193807922E+03  0.50400001928E-02 0.  1.
    10030    2    1    2    0    0  0.00000000000E+00  0.00000000000E+00  0.48519004613E+03  0.11090662045E+04  0.99730560270E+03 0.  0.
        2    1    3    3  502    0 -0.26853646067E+03 -0.39046801075E+03  0.41515301268E+03  0.63002311233E+03  0.25500000920E-02 0. -1.
       -2    1    3    3    0  502  0.26853646067E+03  0.39046801075E+03  0.70037033444E+02  0.47904309220E+03  0.25500000920E-02 0.  1.
</event>
<event>
 5   0  0.2378609E-03  0.1000462E+04  0.7818609E-02  0.9308038E-01
       -1   -1    0    0    0  501  0.00000000000E+00  0.00000000000E+00  0.27717741282E+03  0.27717741286E+03  0.50400001928E-02 0. -1.
        1   -1    0    0  501    0  0.00000000000E+00  0.00000000000E+00 -0.90278337373E+03  0.90278337375E+03  0.50400001928E-02 0.  1.
    10030    2    1    2    0    0  0.00000000000E+00  0.00000000000E+00 -0.62560596092E+03  0.11799607866E+04  0.10004622130E+04 0.  0.
        1    1    3    3  502    0  0.20487992384E+03  0.79627174480E+02  0.21716674066E+03  0.30899460090E+03  0.50400001928E-02 0. -1.
       -1    1    3    3    0  502 -0.20487992384E+03 -0.79627174480E+02 -0.84277270157E+03  0.87096618571E+03  0.50400001928E-02 0.  1.
</event>
<event>
 5   0  0.4140860E-03  0.1004489E+04  0.7818609E-02  0.9303635E-01
        2   -1    0    0  501    0  0.00000000000E+00  0.00000000000E+00  0.29291253205E+03  0.29291253206E+03  0.25500000920E-02 0. -1.
       -2   -1    0    0    0  501  0.00000000000E+00  0.00000000000E+00 -0.86117731584E+03  0.86117731584E+03  0.25500000920E-02 0.  1.
    10030    2    1    2    0    0  0.00000000000E+00  0.00000000000E+00 -0.56826478379E+03  0.11540898479E+04  0.10044891799E+04 0.  0.
        3    1    3    3  502    0 -0.33962992947E+03 -0.17004944273E+03 -0.66168258653E+03  0.76294767677E+03  0.10100000352E+00 0.  1.
       -3    1    3    3    0  502  0.33962992947E+03  0.17004944273E+03  0.93417802740E+02  0.39114217113E+03  0.10100000352E+00 0. -1.
</event>
<event>
 5   0  0.2350769E-03  0.9985837E+03  0.7818609E-02  0.9310100E-01
       -1   -1    0    0    0  501  0.00000000000E+00  0.00000000000E+00  0.36297381514E+03  0.36297381518E+03  0.50400001928E-02 0. -1.
        1   -1    0    0  501    0  0.00000000000E+00  0.00000000000E+00 -0.68680527752E+03  0.68680527754E+03  0.50400001928E-02 0.  1.
    10030    2    1    2    0    0  0.00000000000E+00  0.00000000000E+00 -0.32383146238E+03  0.10497790927E+04  0.99858366073E+03 0.  0.
        2    1    3    3  502    0 -0.26291778135E+03  0.39446788912E+03 -0.32667213004E+03  0.57571291096E+03  0.25500000920E-02 0. -1.
       -2    1    3    3    0  502  0.26291778135E+03 -0.39446788912E+03  0.28406676601E+01  0.47406618176E+03  0.25500000920E-02 0.  1.
</event>
<event>
 5   0  0.1548000E-03  0.1005761E+04  0.7818609E-02  0.9302249E-01
       -3   -1    0    0    0  501  0.00000000000E+00  0.00000000000E+00  0.24942717371E+03  0.24942719416E+03  0.10100000352E+00 0.  1.
        3   -1    0    0  501    0  0.00000000000E+00  0.00000000000E+00 -0.10138778200E+04  0.10138778250E+04  0.10100000352E+00 0. -1.
    10030    2    1    2    0    0  0.00000000000E+00  0.00000000000E+00 -0.76445064625E+03  0.12633050192E+04  0.10057607971E+04 0.  0.
        3    1    3    3  502    0  0.19001925366E+03  0.16644261936E+03 -0.92840341241E+03  0.96215558444E+03  0.10100000352E+00 0. -1.
       -3    1    3    3    0  502 -0.19001925366E+03 -0.16644261936E+03  0.16395276616E+03  0.30114943472E+03  0.10100000352E+00 0.  1.
</event>
<event>
 5   0  0.2350769E-03  0.1003815E+04  0.7818609E-02  0.9304370E-01
        1   -1    0    0  501    0  0.00000000000E+00  0.00000000000E+00  0.76765436560E+03  0.76765436561E+03  0.50400001928E-02 0.  1.
       -1   -1    0    0    0  501  0.00000000000E+00  0.00000000000E+00 -0.32815699148E+03  0.32815699152E+03  0.50400001928E-02 0. -1.
    10030    2    1    2    0    0  0.00000000000E+00  0.00000000000E+00  0.43949737412E+03  0.10958113571E+04  0.10038150171E+04 0.  0.
        2    1    3    3  502    0 -0.31636703167E+02  0.20781132623E+03 -0.27778924718E+03  0.34835799712E+03  0.25500000920E-02 0. -1.
       -2    1    3    3    0  502  0.31636703167E+02 -0.20781132623E+03  0.71728662130E+03  0.74745336002E+03  0.25500000920E-02 0.  1.
</event>
<event>
 5   0  0.3873874E-03  0.9959303E+03  0.7818609E-02  0.9313020E-01
       -2   -1    0    0    0  501  0.00000000000E+00  0.00000000000E+00  0.19589615433E+03  0.19589615435E+03  0.25500000920E-02 0. -1.
        2   -1    0    0  501    0  0.00000000000E+00  0.00000000000E+00 -0.12658201394E+04  0.12658201394E+04  0.25500000920E-02 0.  1.
    10030    2    1    2    0    0  0.00000000000E+00  0.00000000000E+00 -0.10699239851E+04  0.14617162938E+04  0.99593031364E+03 0.  0.
        5    1    3    3  502    0  0.25824825381E+01  0.15332345502E+03 -0.12302695790E+04  0.12397984022E+04  0.46999998093E+01 0.  1.
       -5    1    3    3    0  502 -0.25824825381E+01 -0.15332345502E+03  0.16034559397E+03  0.22191789153E+03  0.46999998093E+01 0. -1.
</event>
<event>
 5   0  0.3826483E-03  0.9955313E+03  0.7818609E-02  0.9313460E-01
        2   -1    0    0  501    0  0.00000000000E+00  0.00000000000E+00  0.18039855116E+04  0.18039855116E+04  0.25500000920E-02 0.  1.
       -2   -1    0    0    0  501  0.00000000000E+00  0.00000000000E+00 -0.13734625016E+03  0.13734625018E+03  0.25500000920E-02 0. -1.
    10030    2    1    2    0    0  0.00000000000E+00  0.00000000000E+00  0.16666392614E+04  0.19413317618E+04  0.99553130615E+03 0.  0.
        4    1    3    3  502    0  0.23982516410E+03  0.18082130993E+03  0.59280160824E+02  0.30615062604E+03  0.12699999809E+01 0. -1.
       -4    1    3    3    0  502 -0.23982516410E+03 -0.18082130993E+03  0.16073591006E+04  0.16351811357E+04  0.12699999809E+01 0.  1.
</event>
<event>
 5   0  0.2350769E-03  0.9241651E+03  0.7818609E-02  0.9395868E-01
        1   -1    0    0  501    0  0.00000000000E+00  0.00000000000E+00  0.53076181023E+03  0.53076181025E+03  0.50400001928E-02 0.  1.
       -1   -1    0    0    0  501  0.00000000000E+00  0.00000000000E+00 -0.40229021150E+03  0.40229021153E+03  0.50400001928E-02 0. -1.
    10030    2    1    2    0    0  0.00000000000E+00  0.00000000000E+00  0.12847159872E+03  0.93305202178E+03  0.92416509546E+03 0.  0.
        2    1    3    3  502    0  0.25405316827E+03 -0.65373343210E+02  0.44829303915E+03  0.51940671470E+03  0.25500000920E-02 0.  1.
       -2    1    3    3    0  502 -0.25405316827E+03  0.65373343210E+02 -0.31982144043E+03  0.41364530709E+03  0.25500000920E-02 0. -1.
</event>
<event>
 5   0  0.2378609E-03  0.9916412E+03  0.7818609E-02  0.9317760E-01
        1   -1    0    0  501    0  0.00000000000E+00  0.00000000000E+00  0.31355201618E+03  0.31355201622E+03  0.50400001928E-02 0.  1.
       -1   -1    0    0    0  501  0.00000000000E+00  0.00000000000E+00 -0.78404242578E+03  0.78404242579E+03  0.50400001928E-02 0. -1.
    10030    2    1    2    0    0  0.00000000000E+00  0.00000000000E+00 -0.47049040960E+03  0.10975944420E+04  0.99164123231E+03 0.  0.
        1    1    3    3  502    0  0.37658677086E+03  0.15365143974E+03 -0.54911317972E+03  0.68333860207E+03  0.50400001928E-02 0. -1.
       -1    1    3    3    0  502 -0.37658677086E+03 -0.15365143974E+03  0.78622770122E+02  0.41425583994E+03  0.50400001928E-02 0.  1.
</event>
<event>
 5   0  0.2313036E-03  0.9814577E+03  0.7818609E-02  0.9329119E-01
        1   -1    0    0  501    0  0.00000000000E+00  0.00000000000E+00  0.14451461347E+04  0.14451461348E+04  0.50400001928E-02 0.  1.
       -1   -1    0    0    0  501  0.00000000000E+00  0.00000000000E+00 -0.16663698640E+03  0.16663698648E+03  0.50400001928E-02 0. -1.
    10030    2    1    2    0    0  0.00000000000E+00  0.00000000000E+00  0.12785091483E+04  0.16117831212E+04  0.98145768502E+03 0.  0.
        3    1    3    3  502    0 -0.22417401445E+03 -0.56081553654E+01 -0.77575078848E+02  0.23728325524E+03  0.10100000352E+00 0. -1.
       -3    1    3    3    0  502  0.22417401445E+03  0.56081553654E+01  0.13560842272E+04  0.13744998660E+04  0.10100000352E+00 0.  1.
</event>
<event>
 5   0  0.3895011E-03  0.9979539E+03  0.7818609E-02  0.9310792E-01
        2   -1    0    0  501    0  0.00000000000E+00  0.00000000000E+00  0.33360061468E+03  0.33360061469E+03  0.25500000920E-02 0.  1.
       -2   -1    0    0    0  501  0.00000000000E+00  0.00000000000E+00 -0.74633554288E+03  0.74633554289E+03  0.25500000920E-02 0. -1.
    10030    2    1    2    0    0  0.00000000000E+00  0.00000000000E+00 -0.41273492820E+03  0.10799361576E+04  0.99795389848E+03 0.  0.
        2    1    3    3  502    0  0.15619837320E+03 -0.16022869160E+03 -0.68899539452E+03  0.72442102336E+03  0.25500000920E-02 0. -1.
       -2    1    3    3    0  502 -0.15619837320E+03  0.16022869160E+03  0.27626046633E+03  0.35551513422E+03  0.25500000920E-02 0.  1.
</event>
<event>
 5   0  0.2378609E-03  0.1047254E+04  0.7818609E-02  0.9258183E-01
        1   -1    0    0  501    0  0.00000000000E+00  0.00000000000E+00  0.80414560567E+03  0.80414560568E+03  0.50400001928E-02 0. -1.
       -1   -1    0    0    0  501  0.00000000000E+00  0.00000000000E+00 -0.34096487124E+03  0.34096487128E+03  0.50400001928E-02 0.  1.
    10030    2    1    2    0    0  0.00000000000E+00  0.00000000000E+00  0.46318073443E+03  0.11451104770E+04  0.10472543204E+04 0.  0.
        1    1    3    3  502    0 -0.73941162178E+02 -0.50829226905E+03  0.12031121127E+03  0.52754441881E+03  0.50400001928E-02 0.  1.
       -1    1    3    3    0  502  0.73941162178E+02  0.50829226905E+03  0.34286952316E+03  0.61756605815E+03  0.50400001928E-02 0. -1.
</event>
<event>
 5   0  0.3873874E-03  0.9891951E+03  0.7818609E-02  0.9320475E-01
       -2   -1    0    0    0  501  0.00000000000E+00  0.00000000000E+00  0.23591157407E+03  0.23591157408E+03  0.25500000920E-02 0.  1.
        2   -1    0    0  501    0  0.00000000000E+00  0.00000000000E+00 -0.10369424298E+04  0.10369424298E+04  0.25500000920E-02 0. -1.
    10030    2    1    2    0    0  0.00000000000E+00  0.00000000000E+00 -0.80103085574E+03  0.12728540039E+04  0.98919506841E+03 0.  0.
        5    1    3    3  502    0 -0.12908571915E+03 -0.35975151754E+03 -0.80440220163E+03  0.89060051047E+03  0.46999998093E+01 0.  1.
       -5    1    3    3    0  502  0.12908571915E+03  0.35975151754E+03  0.33713458908E+01  0.38225349342E+03  0.46999998093E+01 0. -1.
</event>
<event>
 5   0  0.2313036E-03  0.9980934E+03  0.7818609E-02  0.9310638E-01
        1   -1    0    0  501    0  0.00000000000E+00  0.00000000000E+00  0.14516984576E+04  0.14516984576E+04  0.50400001928E-02 0. -1.
       -1   -1    0    0    0  501  0.00000000000E+00  0.00000000000E+00 -0.17155601102E+03  0.17155601109E+03  0.50400001928E-02 0.  1.
    10030    2    1    2    0    0  0.00000000000E+00  0.00000000000E+00  0.12801424466E+04  0.16232544687E+04  0.99809337570E+03 0.  0.
        3    1    3    3  502    0  0.17508543021E+03  0.33236439161E+03  0.10577800569E+03  0.39026912941E+03  0.10100000352E+00 0.  1.
       -3    1    3    3    0  502 -0.17508543021E+03 -0.33236439161E+03  0.11743644409E+04  0.12329853393E+04  0.10100000352E+00 0. -1.
</event>
<event>
 5   0  0.3895011E-03  0.9883252E+03  0.7818609E-02  0.9321443E-01
       -2   -1    0    0    0  501  0.00000000000E+00  0.00000000000E+00  0.16307929513E+03  0.16307929515E+03  0.25500000920E-02 0.  1.
        2   -1    0    0  501    0  0.00000000000E+00  0.00000000000E+00 -0.14974106421E+04  0.14974106421E+04  0.25500000920E-02 0. -1.
    10030    2    1    2    0    0  0.00000000000E+00  0.00000000000E+00 -0.13343313470E+04  0.16604899373E+04  0.98832519357E+03 0.  0.
        2    1    3    3  502    0  0.47942265987E+03 -0.76448298530E+02 -0.82212055849E+03  0.95476313390E+03  0.25500000920E-02 0. -1.
       -2    1    3    3    0  502 -0.47942265987E+03  0.76448298530E+02 -0.51221078848E+03  0.70572680337E+03  0.25500000920E-02 0.  1.
</event>
<event>
 5   0  0.1548000E-03  0.9977081E+03  0.7818609E-02  0.9311062E-01
       -3   -1    0    0    0  501  0.00000000000E+00  0.00000000000E+00  0.55230927484E+03  0.55230928408E+03  0.10100000352E+00 0. -1.
        3   -1    0    0  501    0  0.00000000000E+00  0.00000000000E+00 -0.45057249052E+03  0.45057250184E+03  0.10100000352E+00 0.  1.
    10030    2    1    2    0    0  0.00000000000E+00  0.00000000000E+00  0.10173678432E+03  0.10028817859E+04  0.99770812528E+03 0.  0.
        2    1    3    3  502    0  0.89103162382E+02  0.48795320583E+03 -0.24886061605E+01  0.49602812198E+03  0.25500000920E-02 0.  1.
       -2    1    3    3    0  502 -0.89103162382E+02 -0.48795320583E+03  0.10422539048E+03  0.50685366394E+03  0.25500000920E-02 0. -1.
</event>
<event>
 5   0  0.3873874E-03  0.1002692E+04  0.7818609E-02  0.9305597E-01
       -2   -1    0    0    0  501  0.00000000000E+00  0.00000000000E+00  0.28424884687E+03  0.28424884689E+03  0.25500000920E-02 0.  1.
        2   -1    0    0  501    0  0.00000000000E+00  0.00000000000E+00 -0.88425239801E+03  0.88425239802E+03  0.25500000920E-02 0. -1.
    10030    2    1    2    0    0  0.00000000000E+00  0.00000000000E+00 -0.60000355114E+03  0.11685012449E+04  0.10026918260E+04 0.  0.
        5    1    3    3  502    0 -0.23934667550E+02 -0.32647164235E+03  0.14248235283E+03  0.35704329210E+03  0.46999998093E+01 0.  1.
       -5    1    3    3    0  502  0.23934667550E+02  0.32647164235E+03 -0.74248590398E+03  0.81145795280E+03  0.46999998093E+01 0. -1.
</event>
<event>
 5   0  0.2378609E-03  0.9913256E+03  0.7818609E-02  0.9318110E-01
       -1   -1    0    0    0  501  0.00000000000E+00  0.00000000000E+00  0.37997279444E+03  0.37997279447E+03  0.50400001928E-02 0.  1.
        1   -1    0    0  501    0  0.00000000000E+00  0.00000000000E+00 -0.64657690205E+03  0.64657690207E+03  0.50400001928E-02 0. -1.
    10030    2    1    2    0    0  0.00000000000E+00  0.00000000000E+00 -0.26660410761E+03  0.10265496965E+04  0.99132564240E+03 0.  0.
        1    1    3    3  502    0  0.20178593709E+03  0.39533094492E+03  0.95167232236E+02  0.45393933794E+03  0.50400001928E-02 0.  1.
       -1    1    3    3    0  502 -0.20178593709E+03 -0.39533094492E+03 -0.36177133985E+03  0.57261035860E+03  0.50400001928E-02 0. -1.
</event>
<event>
 5   0  0.2350769E-03  0.9982009E+03  0.7818609E-02  0.9310520E-01
       -1   -1    0    0    0  501  0.00000000000E+00  0.00000000000E+00  0.44131575154E+03  0.44131575156E+03  0.50400001928E-02 0.  1.
        1   -1    0    0  501    0  0.00000000000E+00  0.00000000000E+00 -0.56445132369E+03  0.56445132371E+03  0.50400001928E-02 0. -1.
    10030    2    1    2    0    0  0.00000000000E+00  0.00000000000E+00 -0.12313557216E+03  0.10057670753E+04  0.99820090191E+03 0.  0.
        2    1    3    3  502    0  0.39886543447E+03 -0.29299535399E+03 -0.12656525833E+03  0.51084114644E+03  0.25500000920E-02 0.  1.
       -2    1    3    3    0  502 -0.39886543447E+03  0.29299535399E+03  0.34296861772E+01  0.49492592883E+03  0.25500000920E-02 0. -1.
</event>
<event>
 5   0  0.4140860E-03  0.9940032E+03  0.7818609E-02  0.9315147E-01
       -2   -1    0    0    0  501  0.00000000000E+00  0.00000000000E+00  0.10224247882E+03  0.10224247885E+03  0.25500000920E-02 0.  1.
        2   -1    0    0  501    0  0.00000000000E+00  0.00000000000E+00 -0.24159289812E+04  0.24159289812E+04  0.25500000920E-02 0. -1.
    10030    2    1    2    0    0  0.00000000000E+00  0.00000000000E+00 -0.23136865023E+04  0.25181714600E+04  0.99400315437E+03 0.  0.
        3    1    3    3  502    0 -0.17404715847E+03  0.65470047591E+02 -0.23244788219E+04  0.23319049175E+04  0.10100000352E+00 0. -1.
       -3    1    3    3    0  502  0.17404715847E+03 -0.65470047591E+02  0.10792319565E+02  0.18626654253E+03  0.10100000352E+00 0.  1.
</event>
<event>
 5   0  0.2313036E-03  0.9965574E+03  0.7818609E-02  0.9312329E-01
       -1   -1    0    0    0  501  0.00000000000E+00  0.00000000000E+00  0.34487834709E+03  0.34487834712E+03  0.50400001928E-02 0. -1.
        1   -1    0    0  501    0  0.00000000000E+00  0.00000000000E+00 -0.71991079723E+03  0.71991079724E+03  0.50400001928E-02 0.  1.
    10030    2    1    2    0    0  0.00000000000E+00  0.00000000000E+00 -0.37503245014E+03  0.10647891444E+04  0.99655736579E+03 0.  0.
        3    1    3    3  502    0  0.11294011066E+03 -0.23717039164E+03 -0.63991647814E+03  0.69173576781E+03  0.10100000352E+00 0.  1.
       -3    1    3    3    0  502 -0.11294011066E+03  0.23717039164E+03  0.26488402801E+03  0.37305337656E+03  0.10100000352E+00 0. -1.
</event>
<event>
 5   0  0.4026829E-03  0.1004724E+04  0.7818609E-02  0.9303378E-01
        2   -1    0    0  501    0  0.00000000000E+00  0.00000000000E+00  0.10289316650E+04  0.10289316650E+04  0.25500000920E-02 0. -1.
       -2   -1    0    0    0  501  0.00000000000E+00  0.00000000000E+00 -0.24527165348E+03  0.24527165349E+03  0.25500000920E-02 0.  1.
    10030    2    1    2    0    0  0.00000000000E+00  0.00000000000E+00  0.78366001151E+03  0.12742033185E+04  0.10047243817E+04 0.  0.
        1    1    3    3  502    0 -0.12756343226E+03  0.36096826601E+03  0.80433478536E+03  0.89080018258E+03  0.50400001928E-02 0. -1.
       -1    1    3    3    0  502  0.12756343226E+03 -0.36096826601E+03 -0.20674773858E+02  0.38340313590E+03  0.50400001928E-02 0.  1.
</event>
<event>
 5   0  0.2378609E-03  0.1003791E+04  0.7818609E-02  0.9304397E-01
        1   -1    0    0  501    0  0.00000000000E+00  0.00000000000E+00  0.60578498559E+03  0.60578498561E+03  0.50400001928E-02 0.  1.
       -1   -1    0    0    0  501  0.00000000000E+00  0.00000000000E+00 -0.41582245728E+03  0.41582245731E+03  0.50400001928E-02 0. -1.
    10030    2    1    2    0    0  0.00000000000E+00  0.00000000000E+00  0.18996252832E+03  0.10216074429E+04  0.10037908175E+04 0.  0.
        1    1    3    3  502    0 -0.49799281678E+03 -0.37516187582E+02  0.44147854063E+02  0.50135151634E+03  0.50400001928E-02 0. -1.
       -1    1    3    3    0  502  0.49799281678E+03  0.37516187582E+02  0.14581467425E+03  0.52025592658E+03  0.50400001928E-02 0.  1.
</event>
<event>
 5   0  0.3895011E-03  0.9850227E+03  0.7818609E-02  0.9325126E-01
       -2   -1    0    0    0  501  0.00000000000E+00  0.00000000000E+00  0.14159493055E+03  0.14159493057E+03  0.25500000920E-02 0.  1.
        2   -1    0    0  501    0  0.00000000000E+00  0.00000000000E+00 -0.17131081318E+04  0.17131081318E+04  0.25500000920E-02 0. -1.
    10030    2    1    2    0    0  0.00000000000E+00  0.00000000000E+00 -0.15715132013E+04  0.18547030624E+04  0.98502269409E+03 0.  0.
        2    1    3    3  502    0  0.89155142395E+01  0.31786091204E+03 -0.77593515977E+02  0.32731605449E+03  0.25500000920E-02 0.  1.
       -2    1    3    3    0  502 -0.89155142395E+01 -0.31786091204E+03 -0.14939196853E+04  0.15273870079E+04  0.25500000920E-02 0. -1.
</event>
<event>
 5   0  0.2313036E-03  0.9974749E+03  0.7818609E-02  0.9311319E-01
        1   -1    0    0  501    0  0.00000000000E+00  0.00000000000E+00  0.63344826368E+03  0.63344826370E+03  0.50400001928E-02 0. -1.
       -1   -1    0    0    0  501  0.00000000000E+00  0.00000000000E+00 -0.39267459962E+03  0.39267459965E+03  0.50400001928E-02 0.  1.
    10030    2    1    2    0    0  0.00000000000E+00  0.00000000000E+00  0.24077366406E+03  0.10261228634E+04  0.99747489862E+03 0.  0.
        3    1    3    3  502    0  0.38768399815E+03 -0.12608453536E+03  0.41594100410E+03  0.58241147101E+03  0.10100000352E+00 0. -1.
       -3    1    3    3    0  502 -0.38768399815E+03  0.12608453536E+03 -0.17516734004E+03  0.44371139234E+03  0.10100000352E+00 0.  1.
</event>
<event>
 5   0  0.3826483E-03  0.9918879E+03  0.7818609E-02  0.9317487E-01
        2   -1    0    0  501    0  0.00000000000E+00  0.00000000000E+00  0.11552716581E+04  0.11552716581E+04  0.25500000920E-02 0.  1.
       -2   -1    0    0    0  501  0.00000000000E+00  0.00000000000E+00 -0.21290267032E+03  0.21290267033E+03  0.25500000920E-02 0. -1.
    10030    2    1    2    0    0  0.00000000000E+00  0.00000000000E+00  0.94236898777E+03  0.13681743284E+04  0.99188793916E+03 0.  0.
        4    1    3    3  502    0  0.36383940921E+03  0.36583542827E+02  0.90639848920E+01  0.36578851817E+03  0.12699999809E+01 0. -1.
       -4    1    3    3    0  502 -0.36383940921E+03 -0.36583542827E+02  0.93330500288E+03  0.10023858103E+04  0.12699999809E+01 0.  1.
</event>
<event>
 5   0  0.4026829E-03  0.1002018E+04  0.7818609E-02  0.9306334E-01
       -2   -1    0    0    0  501  0.00000000000E+00  0.00000000000E+00  0.66804975659E+03  0.66804975659E+03  0.25500000920E-02 0. -1.
        2   -1    0    0  501    0  0.00000000000E+00  0.00000000000E+00 -0.37573575053E+03  0.37573575053E+03  0.25500000920E-02 0.  1.
    10030    2    1    2    0    0  0.00000000000E+00  0.00000000000E+00  0.29231400606E+03  0.10437855071E+04  0.10020183166E+04 0.  0.
        1    1    3    3  502    0  0.47211403610E+03 -0.16506081213E+03  0.17694295644E+03  0.53051441511E+03  0.50400001928E-02 0.  1.
       -1    1    3    3    0  502 -0.47211403610E+03  0.16506081213E+03  0.11537104963E+03  0.51327109202E+03  0.50400001928E-02 0. -1.
</event>
<event>
 5   0  0.2313036E-03  0.1001167E+04  0.7818609E-02  0.9307266E-01
       -1   -1    0    0    0  501  0.00000000000E+00  0.00000000000E+00  0.15953212891E+03  0.15953212899E+03  0.50400001928E-02 0. -1.
        1   -1    0    0  501    0  0.00000000000E+00  0.00000000000E+00 -0.15707409228E+04  0.15707409228E+04  0.50400001928E-02 0.  1.
    10030    2    1    2    0    0  0.00000000000E+00  0.00000000000E+00 -0.14112087939E+04  0.17302730518E+04  0.10011666064E+04 0.  0.
        3    1    3    3  502    0 -0.12349229525E+03 -0.45421712448E+03 -0.41119093322E+03  0.62501322940E+03  0.10100000352E+00 0. -1.
       -3    1    3    3    0  502  0.12349229525E+03  0.45421712448E+03 -0.10000178607E+04  0.11052598224E+04  0.10100000352E+00 0.  1.
</event>
<event>
 5   0  0.2327595E-03  0.9964315E+03  0.7818609E-02  0.9312467E-01
        1   -1    0    0  501    0  0.00000000000E+00  0.00000000000E+00  0.11884178785E+04  0.11884178785E+04  0.50400001928E-02 0.  1.
       -1   -1    0    0    0  501  0.00000000000E+00  0.00000000000E+00 -0.20886504744E+03  0.20886504750E+03  0.50400001928E-02 0. -1.
    10030    2    1    2    0    0  0.00000000000E+00  0.00000000000E+00  0.97955283101E+03  0.13972829260E+04  0.99643154630E+03 0.  0.
        5    1    3    3  502    0 -0.18305573198E+03  0.20558381953E+03  0.10720595061E+04  0.11068458712E+04  0.46999998093E+01 0.  1.
       -5    1    3    3    0  502  0.18305573198E+03 -0.20558381953E+03 -0.92506675107E+02  0.29043705480E+03  0.46999998093E+01 0. -1.
</event>
<event>
 5   0  0.2313036E-03  0.1002556E+04  0.7818609E-02  0.9305746E-01
       -1   -1    0    0    0  501  0.00000000000E+00  0.00000000000E+00  0.20328975084E+03  0.20328975090E+03  0.50400001928E-02 0. -1.
        1   -1    0    0  501    0  0.00000000000E+00  0.00000000000E+00 -0.12360668531E+04  0.12360668531E+04  0.50400001928E-02 0.  1.
    10030    2    1    2    0    0  0.00000000000E+00  0.00000000000E+00 -0.10327771022E+04  0.14393566040E+04  0.10025561782E+04 0.  0.
        3    1    3    3  502    0 -0.57636220473E+02  0.47073789763E+03 -0.28327789411E+03  0.55241513164E+03  0.10100000352E+00 0.  1.
       -3    1    3    3    0  502  0.57636220473E+02 -0.47073789763E+03 -0.74949920811E+03  0.88694147233E+03  0.10100000352E+00 0. -1.
</event>
<event>
 5   0  0.2327595E-03  0.1000128E+04  0.7818609E-02  0.9308405E-01
        1   -1    0    0  501    0  0.00000000000E+00  0.00000000000E+00  0.38395158510E+03  0.38395158513E+03  0.50400001928E-02 0.  1.
       -1   -1    0    0    0  501  0.00000000000E+00  0.00000000000E+00 -0.65128996228E+03  0.65128996230E+03  0.50400001928E-02 0. -1.
    10030    2    1    2    0    0  0.00000000000E+00  0.00000000000E+00 -0.26733837718E+03  0.10352415474E+04  0.10001276187E+04 0.  0.
        5    1    3    3  502    0 -0.23962618575E+02 -0.59672246026E+02 -0.64696945343E+03  0.65017424411E+03  0.46999998093E+01 0. -1.
       -5    1    3    3    0  502  0.23962618575E+02  0.59672246026E+02  0.37963107625E+03  0.38506730332E+03  0.46999998093E+01 0.  1.
</event>
<event>
 5   0  0.3895011E-03  0.9963773E+03  0.7818609E-02  0.9312527E-01
        2   -1    0    0  501    0  0.00000000000E+00  0.00000000000E+00  0.16763039710E+04  0.16763039710E+04  0.25500000920E-02 0.  1.
       -2   -1    0    0    0  501  0.00000000000E+00  0.00000000000E+00 -0.14805902772E+03  0.14805902774E+03  0.25500000920E-02 0. -1.
    10030    2    1    2    0    0  0.00000000000E+00  0.00000000000E+00  0.15282449433E+04  0.18243629987E+04  0.99637731032E+03 0.  0.
        2    1    3    3  502    0  0.94376312372E+02 -0.48583959193E+03  0.86842400057E+03  0.99955352143E+03  0.25500000920E-02 0. -1.
       -2    1    3    3    0  502 -0.94376312372E+02  0.48583959193E+03  0.65982094268E+03  0.82480947729E+03  0.25500000920E-02 0.  1.
</event>
<event>
 5   0  0.2313036E-03  0.1001642E+04  0.7818609E-02  0.9306746E-01
       -1   -1    0    0    0  501  0.00000000000E+00  0.00000000000E+00  0.27410286005E+03  0.27410286009E+03  0.50400001928E-02 0. -1.
        1   -1    0    0  501    0  0.00000000000E+00  0.00000000000E+00 -0.91506418123E+03  0.91506418124E+03  0.50400001928E-02 0.  1.
    10030    2    1    2    0    0  0.00000000000E+00  0.00000000000E+00 -0.64096132118E+03  0.11891670413E+04  0.10016420703E+04 0.  0.
        3    1    3    3  502    0  0.42189204058E+03  0.19041357550E+03 -0.54752022630E+03  0.71695790117E+03  0.10100000352E+00 0. -1.
       -3    1    3    3    0  502 -0.42189204058E+03 -0.19041357550E+03 -0.93441094877E+02  0.47220914016E+03  0.10100000352E+00 0.  1.
</event>
<event>
 5   0  0.4026829E-03  0.9954239E+03  0.7818609E-02  0.9313578E-01
        2   -1    0    0  501    0  0.00000000000E+00  0.00000000000E+00  0.99329987494E+03  0.99329987495E+03  0.25500000920E-02 0.  1.
       -2   -1    0    0    0  501  0.00000000000E+00  0.00000000000E+00 -0.24938812102E+03  0.24938812103E+03  0.25500000920E-02 0. -1.
    10030    2    1    2    0    0  0.00000000000E+00  0.00000000000E+00  0.74391175393E+03  0.12426879960E+04  0.99542390855E+03 0.  0.
        1    1    3    3  502    0  0.44666692643E+03  0.21466606509E+03  0.42949519268E+03  0.65578882518E+03  0.50400001928E-02 0.  1.
       -1    1    3    3    0  502 -0.44666692643E+03 -0.21466606509E+03  0.31441656124E+03  0.58689917080E+03  0.50400001928E-02 0. -1.
</event>
<event>
 5   0  0.3826483E-03  0.9364854E+03  0.7818609E-02  0.9381088E-01
        2   -1    0    0  501    0  0.00000000000E+00  0.00000000000E+00  0.38922580842E+03  0.38922580843E+03  0.25500000920E-02 0.  1.
       -2   -1    0    0    0  501  0.00000000000E+00  0.00000000000E+00 -0.56330084402E+03  0.56330084402E+03  0.25500000920E-02 0. -1.
    10030    2    1    2    0    0  0.00000000000E+00  0.00000000000E+00 -0.17407503560E+03  0.95252665245E+03  0.93648540064E+03 0.  0.
        4    1    3    3  502    0 -0.28680085891E+03  0.24504501443E+03  0.19510873723E+03  0.42470086416E+03  0.12699999809E+01 0.  1.
       -4    1    3    3    0  502  0.28680085891E+03 -0.24504501443E+03 -0.36918377283E+03  0.52782578830E+03  0.12699999809E+01 0. -1.
</event>
<event>
 5   0  0.2313036E-03  0.1000384E+04  0.7818609E-02  0.9308123E-01
       -1   -1    0    0    0  501  0.00000000000E+00  0.00000000000E+00  0.18086466824E+03  0.18086466831E+03  0.50400001928E-02 0. -1.
        1   -1    0    0  501    0  0.00000000000E+00  0.00000000000E+00 -0.13833118606E+04  0.13833118606E+04  0.50400001928E-02 0.  1.
    10030    2    1    2    0    0  0.00000000000E+00  0.00000000000E+00 -0.12024471924E+04  0.15641765289E+04  0.10003844077E+04 0.  0.
        3    1    3    3  502    0  0.42555278673E+03 -0.26250944387E+03 -0.62253921830E+03  0.79847446480E+03  0.10100000352E+00 0.  1.
       -3    1    3    3    0  502 -0.42555278673E+03  0.26250944387E+03 -0.57990797407E+03  0.76570206412E+03  0.10100000352E+00 0. -1.
</event>
<event>
 5   0  0.4140860E-03  0.9984941E+03  0.7818609E-02  0.9310198E-01
       -2   -1    0    0    0  501  0.00000000000E+00  0.00000000000E+00  0.14897483067E+03  0.14897483069E+03  0.25500000920E-02 0. -1.
        2   -1    0    0  501    0  0.00000000000E+00  0.00000000000E+00 -0.16730855037E+04  0.16730855037E+04  0.25500000920E-02 0.  1.
    10030    2    1    2    0    0  0.00000000000E+00  0.00000000000E+00 -0.15241106730E+04  0.18220603344E+04  0.99849412544E+03 0.  0.
        3    1    3    3  502    0 -0.16942738191E+03 -0.14818383244E+03 -0.15752393960E+04  0.15912395328E+04  0.10100000352E+00 0.  1.
       -3    1    3    3    0  502  0.16942738191E+03  0.14818383244E+03  0.51128722938E+02  0.23082080160E+03  0.10100000352E+00 0. -1.
</event>
<event>
 5   0  0.4026829E-03  0.9896108E+03  0.7818609E-02  0.9320013E-01
       -2   -1    0    0    0  501  0.00000000000E+00  0.00000000000E+00  0.32130127334E+03  0.32130127335E+03  0.25500000920E-02 0.  1.
        2   -1    0    0  501    0  0.00000000000E+00  0.00000000000E+00 -0.76200259393E+03  0.76200259393E+03  0.25500000920E-02 0. -1.
    10030    2    1    2    0    0  0.00000000000E+00  0.00000000000E+00 -0.44070132059E+03  0.10833038673E+04  0.98961084013E+03 0.  0.
        1    1    3    3  502    0 -0.92865712963E+02  0.44335555427E+03 -0.23911798040E+01  0.45298333955E+03  0.50400001928E-02 0.  1.
       -1    1    3    3    0  502  0.92865712963E+02 -0.44335555427E+03 -0.43831014079E+03  0.63032052773E+03  0.50400001928E-02 0. -1.
</event>
<event>
 5   0  0.2350769E-03  0.1016859E+04  0.7818609E-02  0.9290245E-01
       -1   -1    0    0    0  501  0.00000000000E+00  0.00000000000E+00  0.12085446059E+03  0.12085446070E+03  0.50400001928E-02 0.  1.
        1   -1    0    0  501    0  0.00000000000E+00  0.00000000000E+00 -0.21389399953E+04  0.21389399953E+04  0.50400001928E-02 0. -1.
    10030    2    1    2    0    0  0.00000000000E+00  0.00000000000E+00 -0.20180855347E+04  0.22597944560E+04  0.10168587699E+04 0.  0.
        2    1    3    3  502    0  0.49337831639E+02  0.19457352823E+03  0.29066331887E+02  0.20282487810E+03  0.25500000920E-02 0.  1.
       -2    1    3    3    0  502 -0.49337831639E+02 -0.19457352823E+03 -0.20471518666E+04  0.20569695779E+04  0.25500000920E-02 0. -1.
</event>
<event>
 5   0  0.2327595E-03  0.1002384E+04  0.7818609E-02  0.9305934E-01
        1   -1    0    0  501    0  0.00000000000E+00  0.00000000000E+00  0.12446611539E+04  0.12446611539E+04  0.50400001928E-02 0. -1.
       -1   -1    0    0    0  501  0.00000000000E+00  0.00000000000E+00 -0.20181671444E+03  0.20181671450E+03  0.50400001928E-02 0.  1.
    10030    2    1    2    0    0  0.00000000000E+00  0.00000000000E+00  0.10428444395E+04  0.14464778684E+04  0.10023840077E+04 0.  0.
        5    1    3    3  502    0  0.29079872081E+03 -0.32317137131E+03  0.88122132269E+03  0.98263764472E+03  0.46999998093E+01 0. -1.
       -5    1    3    3    0  502 -0.29079872081E+03  0.32317137131E+03  0.16162311680E+03  0.46384022372E+03  0.46999998093E+01 0.  1.
</event>
<event>
 5   0  0.2378609E-03  0.1001966E+04  0.7818609E-02  0.9306391E-01
        1   -1    0    0  501    0  0.00000000000E+00  0.00000000000E+00  0.33143557123E+03  0.33143557127E+03  0.50400001928E-02 0.  1.
       -1   -1    0    0    0  501  0.00000000000E+00  0.00000000000E+00 -0.75726278152E+03  0.75726278154E+03  0.50400001928E-02 0. -1.
    10030    2    1    2    0    0  0.00000000000E+00  0.00000000000E+00 -0.42582721029E+03  0.10886983528E+04  0.10019657132E+04 0.  0.
        1    1    3    3  502    0 -0.14465780713E+03 -0.10520868262E+03 -0.72138430188E+03  0.74322947943E+03  0.50400001928E-02 0. -1.
       -1    1    3    3    0  502  0.14465780713E+03  0.10520868262E+03  0.29555709159E+03  0.34546887338E+03  0.50400001928E-02 0.  1.
</event>
<event>
 5   0  0.3873874E-03  0.9973257E+03  0.7818609E-02  0.9311483E-01
       -2   -1    0    0    0  501  0.00000000000E+00  0.00000000000E+00  0.29210406089E+03  0.29210406090E+03  0.25500000920E-02 0. -1.
        2   -1    0    0  501    0  0.00000000000E+00  0.00000000000E+00 -0.85128778450E+03  0.85128778450E+03  0.25500000920E-02 0.  1.
    10030    2    1    2    0    0  0.00000000000E+00  0.00000000000E+00 -0.55918372361E+03  0.11433918454E+04  0.99732566165E+03 0.  0.
        5    1    3    3  502    0 -0.41476249689E+03  0.24208281581E+03 -0.43345022427E+03  0.64694142351E+03  0.46999998093E+01 0.  1.
       -5    1    3    3    0  502  0.41476249689E+03 -0.24208281581E+03 -0.12573349934E+03  0.49645042189E+03  0.46999998093E+01 0. -1.
</event>
<event>
 5   0  0.4140860E-03  0.9910916E+03  0.7818609E-02  0.9318370E-01
        2   -1    0    0  501    0  0.00000000000E+00  0.00000000000E+00  0.21961587760E+04  0.21961587760E+04  0.25500000920E-02 0.  1.
       -2   -1    0    0    0  501  0.00000000000E+00  0.00000000000E+00 -0.11181597036E+03  0.11181597039E+03  0.25500000920E-02 0. -1.
    10030    2    1    2    0    0  0.00000000000E+00  0.00000000000E+00  0.20843428056E+04  0.23079747464E+04  0.99109156921E+03 0.  0.
        3    1    3    3  502    0  0.11761791726E+03  0.13712864382E+03 -0.32394413333E+02  0.18354195061E+03  0.10100000352E+00 0. -1.
       -3    1    3    3    0  502 -0.11761791726E+03 -0.13712864382E+03  0.21167372190E+04  0.21244327958E+04  0.10100000352E+00 0.  1.
</event>
<event>
 5   0  0.3826483E-03  0.9970982E+03  0.7818609E-02  0.9311733E-01
       -2   -1    0    0    0  501  0.00000000000E+00  0.00000000000E+00  0.26506773116E+03  0.26506773117E+03  0.25500000920E-02 0.  1.
        2   -1    0    0  501    0  0.00000000000E+00  0.00000000000E+00 -0.93768944027E+03  0.93768944027E+03  0.25500000920E-02 0. -1.
    10030    2    1    2    0    0  0.00000000000E+00  0.00000000000E+00 -0.67262170911E+03  0.12027571714E+04  0.99709821477E+03 0.  0.
        4    1    3    3  502    0  0.42198582054E+03  0.91284426096E+02 -0.63701688353E+03  0.76954337239E+03  0.12699999809E+01 0. -1.
       -4    1    3    3    0  502 -0.42198582054E+03 -0.91284426096E+02 -0.35604825573E+02  0.43321379905E+03  0.12699999809E+01 0.  1.
</event>
<event>
 5   0  0.4140860E-03  0.9920961E+03  0.7818609E-02  0.9317256E-01
       -2   -1    0    0    0  501  0.00000000000E+00  0.00000000000E+00  0.15681760983E+03  0.15681760985E+03  0.25500000920E-02 0. -1.
        2   -1    0    0  501    0  0.00000000000E+00  0.00000000000E+00 -0.15691075031E+04  0.15691075031E+04  0.25500000920E-02 0.  1.
    10030    2    1    2    0    0  0.00000000000E+00  0.00000000000E+00 -0.14122898932E+04  0.17259251129E+04  0.99209614093E+03 0.  0.
        3    1    3    3  502    0 -0.42301938042E+03  0.89783511105E+02 -0.28337449617E+03  0.51701797876E+03  0.10100000352E+00 0. -1.
       -3    1    3    3    0  502  0.42301938042E+03 -0.89783511105E+02 -0.11289153971E+04  0.12089071342E+04  0.10100000352E+00 0.  1.
</event>
<event>
 5   0  0.2327595E-03  0.9942100E+03  0.7818609E-02  0.9314918E-01
        1   -1    0    0  501    0  0.00000000000E+00  0.00000000000E+00  0.42770488372E+03  0.42770488375E+03  0.50400001928E-02 0.  1.
       -1   -1    0    0    0  501  0.00000000000E+00  0.00000000000E+00 -0.57776610746E+03  0.57776610748E+03  0.50400001928E-02 0. -1.
    10030    2    1    2    0    0  0.00000000000E+00  0.00000000000E+00 -0.15006122375E+03  0.10054709912E+04  0.99421000967E+03 0.  0.
        5    1    3    3  502    0  0.28385956921E+03  0.40794918456E+03 -0.84757429714E+02  0.50418717170E+03  0.46999998093E+01 0.  1.
       -5    1    3    3    0  502 -0.28385956921E+03 -0.40794918456E+03 -0.65303794032E+02  0.50128381953E+03  0.46999998093E+01 0. -1.
</event>
<event>
 5   0  0.2405022E-03  0.9952214E+03  0.7818609E-02  0.9313801E-01
       -1   -1    0    0    0  501  0.00000000000E+00  0.00000000000E+00  0.61865106204E+03  0.61865106206E+03  0.50400001928E-02 0. -1.
        1   -1    0    0  501    0  0.00000000000E+00  0.00000000000E+00 -0.40025210990E+03  0.40025210993E+03  0.50400001928E-02 0.  1.
    10030    2    1    2    0    0  0.00000000000E+00  0.00000000000E+00  0.21839895214E+03  0.10189031720E+04  0.99522136813E+03 0.  0.
        4    1    3    3  502    0  0.29010239163E+03 -0.53942332311E+01 -0.30468027185E+03  0.42073765738E+03  0.12699999809E+01 0.  1.
       -4    1    3    3    0  502 -0.29010239163E+03  0.53942332311E+01  0.52307922400E+03  0.59816551460E+03  0.12699999809E+01 0. -1.
</event>
<event>
 5   0  0.2327595E-03  0.9972147E+03  0.7818609E-02  0.9311605E-01
        1   -1    0    0  501    0  0.00000000000E+00  0.00000000000E+00  0.97957879816E+03  0.97957879818E+03  0.50400001928E-02 0.  1.
       -1   -1    0    0    0  501  0.00000000000E+00  0.00000000000E+00 -0.25379201875E+03  0.25379201880E+03  0.50400001928E-02 0. -1.
    10030    2    1    2    0    0  0.00000000000E+00  0.00000000000E+00  0.72578677941E+03  0.12333708170E+04  0.99721468250E+03 0.  0.
        5    1    3    3  502    0  0.20146587382E+03  0.40761914070E+03  0.10988874435E+03  0.46780283060E+03  0.46999998093E+01 0. -1.
       -5    1    3    3    0  502 -0.20146587382E+03 -0.40761914070E+03  0.61589803506E+03  0.76556798638E+03  0.46999998093E+01 0.  1.
</event>
<event>
 5   0  0.2405022E-03  0.1008995E+04  0.7818609E-02  0.9298734E-01
        1   -1    0    0  501    0  0.00000000000E+00  0.00000000000E+00  0.12158274038E+04  0.12158274038E+04  0.50400001928E-02 0.  1.
       -1   -1    0    0    0  501  0.00000000000E+00  0.00000000000E+00 -0.20933696919E+03  0.20933696925E+03  0.50400001928E-02 0. -1.
    10030    2    1    2    0    0  0.00000000000E+00  0.00000000000E+00  0.10064904346E+04  0.14251643731E+04  0.10089947945E+04 0.  0.
        4    1    3    3  502    0  0.38953875147E+03 -0.10953701790E+03  0.92880879933E+03  0.10131269396E+04  0.12699999809E+01 0.  1.
       -4    1    3    3    0  502 -0.38953875147E+03  0.10953701790E+03  0.77681635287E+02  0.41203743343E+03  0.12699999809E+01 0. -1.
</event>
<event>
 5   0  0.4140860E-03  0.9982770E+03  0.7818609E-02  0.9310437E-01
        2   -1    0    0  501    0  0.00000000000E+00  0.00000000000E+00  0.70855220587E+03  0.70855220587E+03  0.25500000920E-02 0.  1.
       -2   -1    0    0    0  501  0.00000000000E+00  0.00000000000E+00 -0.35161735558E+03  0.35161735559E+03  0.25500000920E-02 0. -1.
    10030    2    1    2    0    0  0.00000000000E+00  0.00000000000E+00  0.35693485029E+03  0.10601695615E+04  0.99827702152E+03 0.  0.
        3    1    3    3  502    0  0.39445660016E+03  0.23011736153E+03  0.39242599193E+03  0.60211973795E+03  0.10100000352E+00 0.  1.
       -3    1    3    3    0  502 -0.39445660016E+03 -0.23011736153E+03 -0.35491141639E+02  0.45804982351E+03  0.10100000352E+00 0. -1.
</event>
<event>
 5   0  0.2313036E-03  0.1018896E+04  0.7818609E-02  0.9288060E-01
       -1   -1    0    0    0  501  0.00000000000E+00  0.00000000000E+00  0.38435652789E+03  0.38435652792E+03  0.50400001928E-02 0.  1.
        1   -1    0    0  501    0  0.00000000000E+00  0.00000000000E+00 -0.67525091477E+03  0.67525091479E+03  0.50400001928E-02 0. -1.
    10030    2    1    2    0    0  0.00000000000E+00  0.00000000000E+00 -0.29089438688E+03  0.10596074427E+04  0.10188956710E+04 0.  0.
        3    1    3    3  502    0 -0.91985416887E+02 -0.49725210117E+03 -0.81204140406E+02  0.51216705444E+03  0.10100000352E+00 0. -1.
       -3    1    3    3    0  502  0.91985416887E+02  0.49725210117E+03 -0.20969024647E+03  0.54744038826E+03  0.10100000352E+00 0.  1.
</event>
<event>
 5   0  0.3873874E-03  0.9897297E+03  0.7818609E-02  0.9319881E-01
       -2   -1    0    0    0  501  0.00000000000E+00  0.00000000000E+00  0.22831094746E+03  0.22831094747E+03  0.25500000920E-02 0.  1.
        2   -1    0    0  501    0  0.00000000000E+00  0.00000000000E+00 -0.10726214093E+04  0.10726214093E+04  0.25500000920E-02 0. -1.
    10030    2    1    2    0    0  0.00000000000E+00  0.00000000000E+00 -0.84431046179E+03  0.13009323567E+04  0.98972968071E+03 0.  0.
        5    1    3    3  502    0 -0.16273155569E+03  0.62589672894E+02 -0.10308807267E+04  0.10455315342E+04  0.46999998093E+01 0. -1.
       -5    1    3    3    0  502  0.16273155569E+03 -0.62589672894E+02  0.18657026493E+03  0.25540082248E+03  0.46999998093E+01 0.  1.
</event>
<event>
 5   0  0.4140860E-03  0.9917063E+03  0.7818609E-02  0.9317688E-01
        2   -1    0    0  501    0  0.00000000000E+00  0.00000000000E+00  0.66557748152E+03  0.66557748153E+03  0.25500000920E-02 0.  1.
       -2   -1    0    0    0  501  0.00000000000E+00  0.00000000000E+00 -0.36940902712E+03  0.36940902713E+03  0.25500000920E-02 0. -1.
    10030    2    1    2    0    0  0.00000000000E+00  0.00000000000E+00  0.29616845440E+03  0.10349865087E+04  0.99170626685E+03 0.  0.
        3    1    3    3  502    0 -0.18782601035E+03 -0.34362878287E+03 -0.16934597543E+03  0.42665843502E+03  0.10100000352E+00 0. -1.
       -3    1    3    3    0  502  0.18782601035E+03  0.34362878287E+03  0.46551442984E+03  0.60832807363E+03  0.10100000352E+00 0.  1.
</event>
<event>
 5   0  0.2313036E-03  0.1004814E+04  0.7818609E-02  0.9303280E-01
       -1   -1    0    0    0  501  0.00000000000E+00  0.00000000000E+00  0.19154172735E+03  0.19154172742E+03  0.50400001928E-02 0.  1.
        1   -1    0    0  501    0  0.00000000000E+00  0.00000000000E+00 -0.13177959207E+04  0.13177959207E+04  0.50400001928E-02 0. -1.
    10030    2    1    2    0    0  0.00000000000E+00  0.00000000000E+00 -0.11262541933E+04  0.15093376481E+04  0.10048142256E+04 0.  0.
        3    1    3    3  502    0  0.47924066953E+03  0.17865973277E+02 -0.78805255913E+03  0.92250618344E+03  0.10100000352E+00 0.  1.
       -3    1    3    3    0  502 -0.47924066953E+03 -0.17865973277E+02 -0.33820163418E+03  0.58683146464E+03  0.10100000352E+00 0. -1.
</event>
<event>
 5   0  0.3826483E-03  0.1010186E+04  0.7818609E-02  0.9297443E-01
        2   -1    0    0  501    0  0.00000000000E+00  0.00000000000E+00  0.13048442072E+04  0.13048442072E+04  0.25500000920E-02 0. -1.
       -2   -1    0    0    0  501  0.00000000000E+00  0.00000000000E+00 -0.19551666748E+03  0.19551666749E+03  0.25500000920E-02 0.  1.
    10030    2    1    2    0    0  0.00000000000E+00  0.00000000000E+00  0.11093275397E+04  0.15003608747E+04  0.10101857077E+04 0.  0.
        4    1    3    3  502    0  0.34758329042E+03  0.35626840698E+03  0.42710781449E+03  0.65586890435E+03  0.12699999809E+01 0. -1.
       -4    1    3    3    0  502 -0.34758329042E+03 -0.35626840698E+03  0.68221972525E+03  0.84449197037E+03  0.12699999809E+01 0.  1.
</event>
<event>
 5   0  0.3873874E-03  0.1016893E+04  0.7818609E-02  0.9290208E-01
        2   -1    0    0  501    0  0.00000000000E+00  0.00000000000E+00  0.14780475168E+04  0.14780475168E+04  0.25500000920E-02 0. -1.
       -2   -1    0    0    0  501  0.00000000000E+00  0.00000000000E+00 -0.17490507397E+03  0.17490507399E+03  0.25500000920E-02 0.  1.
    10030    2    1    2    0    0  0.00000000000E+00  0.00000000000E+00  0.13031424428E+04  0.16529525908E+04  0.10168933283E+04 0.  0.
        5    1    3    3  502    0  0.33245618570E+03  0.29388163611E+03  0.10550157001E+04  0.11445408463E+04  0.46999998093E+01 0. -1.
       -5    1    3    3    0  502 -0.33245618570E+03 -0.29388163611E+03  0.24812674273E+03  0.50841174446E+03  0.46999998093E+01 0.  1.
</event>
<event>
 5   0  0.2350769E-03  0.9949380E+03  0.7818609E-02  0.9314114E-01
       -1   -1    0    0    0  501  0.00000000000E+00  0.00000000000E+00  0.97715121280E+03  0.97715121282E+03  0.50400001928E-02 0. -1.
        1   -1    0    0  501    0  0.00000000000E+00  0.00000000000E+00 -0.25326215317E+03  0.25326215322E+03  0.50400001928E-02 0.  1.
    10030    2    1    2    0    0  0.00000000000E+00  0.00000000000E+00  0.72388905964E+03  0.12304133660E+04  0.99493802855E+03 0.  0.
        2    1    3    3  502    0 -0.27765086859E+03  0.77791724590E+01  0.87232503861E+03  0.91547883282E+03  0.25500000920E-02 0. -1.
       -2    1    3    3    0  502  0.27765086859E+03 -0.77791724590E+01 -0.14843597897E+03  0.31493453322E+03  0.25500000920E-02 0.  1.
</event>
<event>
 5   0  0.2405022E-03  0.9868654E+03  0.7818609E-02  0.9323069E-01
        1   -1    0    0  501    0  0.00000000000E+00  0.00000000000E+00  0.45501800198E+03  0.45501800201E+03  0.50400001928E-02 0. -1.
       -1   -1    0    0    0  501  0.00000000000E+00  0.00000000000E+00 -0.53509056779E+03  0.53509056782E+03  0.50400001928E-02 0.  1.
    10030    2    1    2    0    0  0.00000000000E+00  0.00000000000E+00 -0.80072565814E+02  0.99010856982E+03  0.98686542357E+03 0.  0.
        4    1    3    3  502    0 -0.92780873698E+02 -0.38123351010E+02  0.44467930463E+03  0.45585411842E+03  0.12699999809E+01 0. -1.
       -4    1    3    3    0  502  0.92780873698E+02  0.38123351010E+02 -0.52475187044E+03  0.53425445140E+03  0.12699999809E+01 0.  1.
</event>
<event>
 5   0  0.2313036E-03  0.9692120E+03  0.7818609E-02  0.9342972E-01
       -1   -1    0    0    0  501  0.00000000000E+00  0.00000000000E+00  0.34050476422E+03  0.34050476426E+03  0.50400001928E-02 0.  1.
        1   -1    0    0  501    0  0.00000000000E+00  0.00000000000E+00 -0.68969070787E+03  0.68969070789E+03  0.50400001928E-02 0. -1.
    10030    2    1    2    0    0  0.00000000000E+00  0.00000000000E+00 -0.34918594365E+03  0.10301954721E+04  0.96921199311E+03 0.  0.
        3    1    3    3  502    0 -0.24415158779E+03 -0.10258160939E+03  0.25678782759E+03  0.36888071650E+03  0.10100000352E+00 0.  1.
       -3    1    3    3    0  502  0.24415158779E+03  0.10258160939E+03 -0.60597377124E+03  0.66131475564E+03  0.10100000352E+00 0. -1.
</event>
<event>
 5   0  0.2327595E-03  0.1004758E+04  0.7818609E-02  0.9303341E-01
        1   -1    0    0  501    0  0.00000000000E+00  0.00000000000E+00  0.10578035699E+04  0.10578035699E+04  0.50400001928E-02 0.  1.
       -1   -1    0    0    0  501  0.00000000000E+00  0.00000000000E+00 -0.23859334083E+03  0.23859334088E+03  0.50400001928E-02 0. -1.
    10030    2    1    2    0    0  0.00000000000E+00  0.00000000000E+00  0.81921022906E+03  0.12963969108E+04  0.10047584540E+04 0.  0.
        5    1    3    3  502    0  0.86077439584E+01  0.41999984196E+03  0.54165959557E+02  0.42359178660E+03  0.46999998093E+01 0. -1.
       -5    1    3    3    0  502 -0.86077439584E+01 -0.41999984196E+03  0.76504426950E+03  0.87280512418E+03  0.46999998093E+01 0.  1.
</event>
<event>
 5   0  0.4026829E-03  0.9795511E+03  0.7818609E-02  0.9331262E-01
       -2   -1    0    0    0  501  0.00000000000E+00  0.00000000000E+00  0.49100200985E+03  0.49100200986E+03  0.25500000920E-02 0. -1.
        2   -1    0    0  501    0  0.00000000000E+00  0.00000000000E+00 -0.48855215146E+03  0.48855215147E+03  0.25500000920E-02 0.  1.
    10030    2    1    2    0    0  0.00000000000E+00  0.00000000000E+00  0.24498583922E+01  0.97955416133E+03  0.97955109778E+03 0.  0.
        1    1    3    3  502    0  0.16495200238E+03 -0.42502737161E+03  0.18017424845E+03  0.49022463171E+03  0.50400001928E-02 0. -1.
       -1    1    3    3    0  502 -0.16495200238E+03  0.42502737161E+03 -0.17772439006E+03  0.48932952962E+03  0.50400001928E-02 0.  1.
</event>
<event>
 5   0  0.2378609E-03  0.9981676E+03  0.7818609E-02  0.9310557E-01
        1   -1    0    0  501    0  0.00000000000E+00  0.00000000000E+00  0.44828497796E+03  0.44828497799E+03  0.50400001928E-02 0. -1.
       -1   -1    0    0    0  501  0.00000000000E+00  0.00000000000E+00 -0.55563906437E+03  0.55563906439E+03  0.50400001928E-02 0.  1.
    10030    2    1    2    0    0  0.00000000000E+00  0.00000000000E+00 -0.10735408641E+03  0.10039240424E+04  0.99816761268E+03 0.  0.
        1    1    3    3  502    0 -0.49598131308E+03 -0.39038115717E+02 -0.93442484822E+02  0.50621431766E+03  0.50400001928E-02 0.  1.
       -1    1    3    3    0  502  0.49598131308E+03  0.39038115717E+02 -0.13911601589E+02  0.49770972473E+03  0.50400001928E-02 0. -1.
</event>
<event>
 5   0  0.4026829E-03  0.9973586E+03  0.7818609E-02  0.9311447E-01
        2   -1    0    0  501    0  0.00000000000E+00  0.00000000000E+00  0.10112441229E+04  0.10112441229E+04  0.25500000920E-02 0.  1.
       -2   -1    0    0    0  501  0.00000000000E+00  0.00000000000E+00 -0.24591592837E+03  0.24591592838E+03  0.25500000920E-02 0. -1.
    10030    2    1    2    0    0  0.00000000000E+00  0.00000000000E+00  0.76532819454E+03  0.12571600513E+04  0.99735858607E+03 0.  0.
        1    1    3    3  502    0 -0.25455228005E+03  0.14292874166E+03  0.89227542766E+03  0.93881890017E+03  0.50400001928E-02 0.  1.
       -1    1    3    3    0  502  0.25455228005E+03 -0.14292874166E+03 -0.12694723313E+03  0.31834115112E+03  0.50400001928E-02 0. -1.
</event>
<event>
 5   0  0.2313036E-03  0.9983367E+03  0.7818609E-02  0.9310371E-01
        1   -1    0    0  501    0  0.00000000000E+00  0.00000000000E+00  0.26685087729E+03  0.26685087733E+03  0.50400001928E-02 0. -1.
       -1   -1    0    0    0  501  0.00000000000E+00  0.00000000000E+00 -0.93373881296E+03  0.93373881297E+03  0.50400001928E-02 0.  1.
    10030    2    1    2    0    0  0.00000000000E+00  0.00000000000E+00 -0.66688793567E+03  0.12005896903E+04  0.99833665951E+03 0.  0.
        3    1    3    3  502    0 -0.87500879288E+02  0.25864871831E+03  0.16907960014E+03  0.32115959388E+03  0.10100000352E+00 0. -1.
       -3    1    3    3    0  502  0.87500879288E+02 -0.25864871831E+03 -0.83596753582E+03  0.87943009642E+03  0.10100000352E+00 0.  1.
</event>
<event>
 5   0  0.2350769E-03  0.9964314E+03  0.7818609E-02  0.9312467E-01
        1   -1    0    0  501    0  0.00000000000E+00  0.00000000000E+00  0.37087686332E+03  0.37087686335E+03  0.50400001928E-02 0.  1.
       -1   -1    0    0    0  501  0.00000000000E+00  0.00000000000E+00 -0.66927569669E+03  0.66927569671E+03  0.50400001928E-02 0. -1.
    10030    2    1    2    0    0  0.00000000000E+00  0.00000000000E+00 -0.29839883338E+03  0.10401525601E+04  0.99643137468E+03 0.  0.
        2    1    3    3  502    0  0.25527012224E+03 -0.35689293987E+01  0.29740865226E+03  0.39195341434E+03  0.25500000920E-02 0.  1.
       -2    1    3    3    0  502 -0.25527012224E+03  0.35689293987E+01 -0.59580748564E+03  0.64819914572E+03  0.25500000920E-02 0. -1.
</event>
<event>
 5   0  0.2327595E-03  0.1104954E+04  0.7818609E-02  0.9200377E-01
        1   -1    0    0  501    0  0.00000000000E+00  0.00000000000E+00  0.64740410151E+03  0.64740410153E+03  0.50400001928E-02 0.  1.
       -1   -1    0    0    0  501  0.00000000000E+00  0.00000000000E+00 -0.47146870982E+03  0.47146870985E+03  0.50400001928E-02 0. -1.
    10030    2    1    2    0    0  0.00000000000E+00  0.00000000000E+00  0.17593539169E+03  0.11188728114E+04  0.11049538932E+04 0.  0.
        5    1    3    3  502    0 -0.35846047271E+03 -0.25147148577E+03  0.42907438354E+03  0.61307318915E+03  0.46999998093E+01 0.  1.
       -5    1    3    3    0  502  0.35846047271E+03  0.25147148577E+03 -0.25313899185E+03  0.50579962223E+03  0.46999998093E+01 0. -1.
</event>
<event>
 5   0  0.3873874E-03  0.1007549E+04  0.7818609E-02  0.9300303E-01
        2   -1    0    0  501    0  0.00000000000E+00  0.00000000000E+00  0.17063095488E+04  0.17063095488E+04  0.25500000920E-02 0.  1.
       -2   -1    0    0    0  501  0.00000000000E+00  0.00000000000E+00 -0.14873559739E+03  0.14873559741E+03  0.25500000920E-02 0. -1.
    10030    2    1    2    0    0  0.00000000000E+00  0.00000000000E+00  0.15575739514E+04  0.18550451462E+04  0.10075494431E+04 0.  0.
        5    1    3    3  502    0  0.35541450708E+03  0.71836348865E+02  0.13494665966E+03  0.38692715570E+03  0.46999998093E+01 0. -1.
       -5    1    3    3    0  502 -0.35541450708E+03 -0.71836348865E+02  0.14226272917E+04  0.14681179905E+04  0.46999998093E+01 0.  1.
</event>
<event>
 5   0  0.3873874E-03  0.9989032E+03  0.7818609E-02  0.9309749E-01
        2   -1    0    0  501    0  0.00000000000E+00  0.00000000000E+00  0.75695169442E+03  0.75695169442E+03  0.25500000920E-02 0.  1.
       -2   -1    0    0    0  501  0.00000000000E+00  0.00000000000E+00 -0.32954798927E+03  0.32954798928E+03  0.25500000920E-02 0. -1.
    10030    2    1    2    0    0  0.00000000000E+00  0.00000000000E+00  0.42740370515E+03  0.10864996837E+04  0.99890321629E+03 0.  0.
        5    1    3    3  502    0  0.10936906756E+03  0.55371136039E+01  0.74370800235E+03  0.75174193399E+03  0.46999998093E+01 0.  1.
       -5    1    3    3    0  502 -0.10936906756E+03 -0.55371136039E+01 -0.31630429720E+03  0.33475774971E+03  0.46999998093E+01 0. -1.
</event>
<event>
 5   0  0.3873874E-03  0.9911746E+03  0.7818609E-02  0.9318278E-01
        2   -1    0    0  501    0  0.00000000000E+00  0.00000000000E+00  0.54093849546E+03  0.54093849546E+03  0.25500000920E-02 0. -1.
       -2   -1    0    0    0  501  0.00000000000E+00  0.00000000000E+00 -0.45403827324E+03  0.45403827325E+03  0.25500000920E-02 0.  1.
    10030    2    1    2    0    0  0.00000000000E+00  0.00000000000E+00  0.86900222218E+02  0.99497676871E+03  0.99117461713E+03 0.  0.
        5    1    3    3  502    0 -0.38090876240E+03 -0.49268098320E+02  0.35780606393E+03  0.52494390193E+03  0.46999998093E+01 0. -1.
       -5    1    3    3    0  502  0.38090876240E+03  0.49268098320E+02 -0.27090584171E+03  0.47003286678E+03  0.46999998093E+01 0.  1.
</event>
<event>
 5   0  0.2405022E-03  0.1003888E+04  0.7818609E-02  0.9304291E-01
        1   -1    0    0  501    0  0.00000000000E+00  0.00000000000E+00  0.42099957986E+03  0.42099957989E+03  0.50400001928E-02 0.  1.
       -1   -1    0    0    0  501  0.00000000000E+00  0.00000000000E+00 -0.59845114753E+03  0.59845114755E+03  0.50400001928E-02 0. -1.
    10030    2    1    2    0    0  0.00000000000E+00  0.00000000000E+00 -0.17745156767E+03  0.10194507274E+04  0.10038878059E+04 0.  0.
        4    1    3    3  502    0  0.88170395795E+02 -0.36865419223E+03  0.24541337968E+03  0.45156314284E+03  0.12699999809E+01 0.  1.
       -4    1    3    3    0  502 -0.88170395795E+02  0.36865419223E+03 -0.42286494735E+03  0.56788758460E+03  0.12699999809E+01 0. -1.
</event>
<event>
 5   0  0.3895011E-03  0.1007586E+04  0.7818609E-02  0.9300264E-01
        2   -1    0    0  501    0  0.00000000000E+00  0.00000000000E+00  0.71531614774E+03  0.71531614774E+03  0.25500000920E-02 0.  1.
       -2   -1    0    0    0  501  0.00000000000E+00  0.00000000000E+00 -0.35481814806E+03  0.35481814807E+03  0.25500000920E-02 0. -1.
    10030    2    1    2    0    0  0.00000000000E+00  0.00000000000E+00  0.36049799968E+03  0.10701342958E+04  0.10075855315E+04 0.  0.
        2    1    3    3  502    0  0.16874389358E+03 -0.12485003434E+03 -0.30616077139E+03  0.37120944309E+03  0.25500000920E-02 0. -1.
       -2    1    3    3    0  502 -0.16874389358E+03  0.12485003434E+03  0.66665877107E+03  0.69892485272E+03  0.25500000920E-02 0.  1.
</event>
<event>
 5   0  0.4140860E-03  0.9623323E+03  0.7818609E-02  0.9350851E-01
       -2   -1    0    0    0  501  0.00000000000E+00  0.00000000000E+00  0.20604451222E+03  0.20604451223E+03  0.25500000920E-02 0.  1.
        2   -1    0    0  501    0  0.00000000000E+00  0.00000000000E+00 -0.11236449332E+04  0.11236449332E+04  0.25500000920E-02 0. -1.
    10030    2    1    2    0    0  0.00000000000E+00  0.00000000000E+00 -0.91760042094E+03  0.13296894454E+04  0.96233231717E+03 0.  0.
        3    1    3    3  502    0 -0.15784654433E+03  0.45111590438E+03 -0.38187123079E+03  0.61175709056E+03  0.10100000352E+00 0.  1.
       -3    1    3    3    0  502  0.15784654433E+03 -0.45111590438E+03 -0.53572919015E+03  0.71793235484E+03  0.10100000352E+00 0. -1.
</event>
<event>
 5   0  0.2378609E-03  0.9964139E+03  0.7818609E-02  0.9312487E-01
        1   -1    0    0  501    0  0.00000000000E+00  0.00000000000E+00  0.81502487551E+03  0.81502487553E+03  0.50400001928E-02 0.  1.
       -1   -1    0    0    0  501  0.00000000000E+00  0.00000000000E+00 -0.30454305803E+03  0.30454305807E+03  0.50400001928E-02 0. -1.
    10030    2    1    2    0    0  0.00000000000E+00  0.00000000000E+00  0.51048181748E+03  0.11195679336E+04  0.99641390595E+03 0.  0.
        1    1    3    3  502    0 -0.46489278751E+03 -0.71027722023E+02  0.70478580271E+02  0.47553913769E+03  0.50400001928E-02 0. -1.
       -1    1    3    3    0  502  0.46489278751E+03  0.71027722023E+02  0.44000323721E+03  0.64402879591E+03  0.50400001928E-02 0.  1.
</event>
<event>
 5   0  0.4140860E-03  0.9907533E+03  0.7818609E-02  0.9318745E-01
       -2   -1    0    0    0  501  0.00000000000E+00  0.00000000000E+00  0.59228531929E+03  0.59228531930E+03  0.25500000920E-02 0. -1.
        2   -1    0    0  501    0  0.00000000000E+00  0.00000000000E+00 -0.41432398915E+03  0.41432398916E+03  0.25500000920E-02 0.  1.
    10030    2    1    2    0    0  0.00000000000E+00  0.00000000000E+00  0.17796133014E+03  0.10066093085E+04  0.99075328152E+03 0.  0.
        3    1    3    3  502    0  0.27268621789E+03 -0.32045779281E+03  0.35459729617E+03  0.55026377588E+03  0.10100000352E+00 0. -1.
       -3    1    3    3    0  502 -0.27268621789E+03  0.32045779281E+03 -0.17663596602E+03  0.45634553257E+03  0.10100000352E+00 0.  1.
</event>
<event>
 5   0  0.2405022E-03  0.1030895E+04  0.7818609E-02  0.9275294E-01
        1   -1    0    0  501    0  0.00000000000E+00  0.00000000000E+00  0.60087445150E+03  0.60087445152E+03  0.50400001928E-02 0.  1.
       -1   -1    0    0    0  501  0.00000000000E+00  0.00000000000E+00 -0.44216553278E+03  0.44216553281E+03  0.50400001928E-02 0. -1.
    10030    2    1    2    0    0  0.00000000000E+00  0.00000000000E+00  0.15870891872E+03  0.10430399843E+04  0.10308947027E+04 0.  0.
        4    1    3    3  502    0  0.10481998300E+03  0.21528002745E+03 -0.38247869902E+03  0.45124747884E+03  0.12699999809E+01 0. -1.
       -4    1    3    3    0  502 -0.10481998300E+03 -0.21528002745E+03  0.54118761774E+03  0.59179250549E+03  0.12699999809E+01 0.  1.
</event>
<event>
 5   0  0.3873874E-03  0.1002946E+04  0.7818609E-02  0.9305320E-01
       -2   -1    0    0    0  501  0.00000000000E+00  0.00000000000E+00  0.56605137736E+03  0.56605137737E+03  0.25500000920E-02 0.  1.
        2   -1    0    0  501    0  0.00000000000E+00  0.00000000000E+00 -0.44426204109E+03  0.44426204109E+03  0.25500000920E-02 0. -1.
    10030    2    1    2    0    0  0.00000000000E+00  0.00000000000E+00  0.12178933628E+03  0.10103134185E+04  0.10029459413E+04 0.  0.
        5    1    3    3  502    0  0.25008405485E+03  0.56862040688E+02 -0.37317405919E+03  0.45283141964E+03  0.46999998093E+01 0. -1.
       -5    1    3    3    0  502 -0.25008405485E+03 -0.56862040688E+02  0.49496339547E+03  0.55748199882E+03  0.46999998093E+01 0.  1.
</event>
<event>
 5   0  0.2313036E-03  0.9971589E+03  0.7818609E-02  0.9311666E-01
        1   -1    0    0  501    0  0.00000000000E+00  0.00000000000E+00  0.61968722694E+03  0.61968722696E+03  0.50400001928E-02 0.  1.
       -1   -1    0    0    0  501  0.00000000000E+00  0.00000000000E+00 -0.40114019370E+03  0.40114019373E+03  0.50400001928E-02 0. -1.
    10030    2    1    2    0    0  0.00000000000E+00  0.00000000000E+00  0.21854703324E+03  0.10208274207E+04  0.99715887254E+03 0.  0.
        3    1    3    3  502    0 -0.15374918639E+03 -0.41619104537E+03 -0.12356205187E+03  0.46056637896E+03  0.10100000352E+00 0. -1.
       -3    1    3    3    0  502  0.15374918639E+03  0.41619104537E+03  0.34210908511E+03  0.56026104173E+03  0.10100000352E+00 0.  1.
</event>
<event>
 5   0  0.3895011E-03  0.1003707E+04  0.7818609E-02  0.9304489E-01
       -2   -1    0    0    0  501  0.00000000000E+00  0.00000000000E+00  0.14420302856E+03  0.14420302858E+03  0.25500000920E-02 0. -1.
        2   -1    0    0  501    0  0.00000000000E+00  0.00000000000E+00 -0.17465428295E+04  0.17465428295E+04  0.25500000920E-02 0.  1.
    10030    2    1    2    0    0  0.00000000000E+00  0.00000000000E+00 -0.16023398009E+04  0.18907458581E+04  0.10037066614E+04 0.  0.
        2    1    3    3  502    0  0.10404284422E+03 -0.22226928994E+03 -0.16257941050E+04  0.16442125843E+04  0.25500000920E-02 0.  1.
       -2    1    3    3    0  502 -0.10404284422E+03  0.22226928994E+03  0.23454304036E+02  0.24653327375E+03  0.25500000920E-02 0. -1.
</event>
<event>
 5   0  0.2327595E-03  0.1006976E+04  0.7818609E-02  0.9300926E-01
        1   -1    0    0  501    0  0.00000000000E+00  0.00000000000E+00  0.55205947003E+03  0.55205947006E+03  0.50400001928E-02 0. -1.
       -1   -1    0    0    0  501  0.00000000000E+00  0.00000000000E+00 -0.45919016348E+03  0.45919016351E+03  0.50400001928E-02 0.  1.
    10030    2    1    2    0    0  0.00000000000E+00  0.00000000000E+00  0.92869306553E+02  0.10112496336E+04  0.10069762228E+04 0.  0.
        5    1    3    3  502    0 -0.45522040626E+02 -0.70709684061E+02 -0.45206500483E+03  0.45984451088E+03  0.46999998093E+01 0.  1.
       -5    1    3    3    0  502  0.45522040626E+02  0.70709684061E+02  0.54493431138E+03  0.55140512268E+03  0.46999998093E+01 0. -1.
</event>
<event>
 5   0  0.2350769E-03  0.1003387E+04  0.7818609E-02  0.9304838E-01
       -1   -1    0    0    0  501  0.00000000000E+00  0.00000000000E+00  0.29357705380E+03  0.29357705384E+03  0.50400001928E-02 0.  1.
        1   -1    0    0  501    0  0.00000000000E+00  0.00000000000E+00 -0.85734372601E+03  0.85734372603E+03  0.50400001928E-02 0. -1.
    10030    2    1    2    0    0  0.00000000000E+00  0.00000000000E+00 -0.56376667221E+03  0.11509207799E+04  0.10033871540E+04 0.  0.
        2    1    3    3  502    0  0.47373914324E+03  0.15821906656E+03 -0.33610302238E+03  0.60201934398E+03  0.25500000920E-02 0.  1.
       -2    1    3    3    0  502 -0.47373914324E+03 -0.15821906656E+03 -0.22766364983E+03  0.54890143589E+03  0.25500000920E-02 0. -1.
</event>
<event>
 5   0  0.2327595E-03  0.1008768E+04  0.7818609E-02  0.9298980E-01
        1   -1    0    0  501    0  0.00000000000E+00  0.00000000000E+00  0.10887704464E+04  0.10887704464E+04  0.50400001928E-02 0. -1.
       -1   -1    0    0    0  501  0.00000000000E+00  0.00000000000E+00 -0.23366103490E+03  0.23366103495E+03  0.50400001928E-02 0.  1.
    10030    2    1    2    0    0  0.00000000000E+00  0.00000000000E+00  0.85510941152E+03  0.13224314814E+04  0.10087680196E+04 0.  0.
        5    1    3    3  502    0 -0.31422047223E+03 -0.23321591783E+03  0.84470671252E+03  0.93095418237E+03  0.46999998093E+01 0. -1.
       -5    1    3    3    0  502  0.31422047223E+03  0.23321591783E+03  0.10402699004E+02  0.39147729901E+03  0.46999998093E+01 0.  1.
</event>
<event>
 5   0  0.3873874E-03  0.9970650E+03  0.7818609E-02  0.9311770E-01
        2   -1    0    0  501    0  0.00000000000E+00  0.00000000000E+00  0.96243674772E+03  0.96243674772E+03  0.25500000920E-02 0. -1.
       -2   -1    0    0    0  501  0.00000000000E+00  0.00000000000E+00 -0.25823477902E+03  0.25823477903E+03  0.25500000920E-02 0.  1.
    10030    2    1    2    0    0  0.00000000000E+00  0.00000000000E+00  0.70420196870E+03  0.12206715268E+04  0.99706497457E+03 0.  0.
        5    1    3    3  502    0  0.39962689976E+03  0.27848978016E+03  0.48197888441E+03  0.68526195843E+03  0.46999998093E+01 0. -1.
       -5    1    3    3    0  502 -0.39962689976E+03 -0.27848978016E+03  0.22222308429E+03  0.53540956832E+03  0.46999998093E+01 0.  1.
</event>
<event>
 5   0  0.2327595E-03  0.9949056E+03  0.7818609E-02  0.9314150E-01
       -1   -1    0    0    0  501  0.00000000000E+00  0.00000000000E+00  0.61369238967E+03  0.61369238969E+03  0.50400001928E-02 0. -1.
        1   -1    0    0  501    0  0.00000000000E+00  0.00000000000E+00 -0.40323019286E+03  0.40323019289E+03  0.50400001928E-02 0.  1.
    10030    2    1    2    0    0  0.00000000000E+00  0.00000000000E+00  0.21046219680E+03  0.10169225826E+04  0.99490562501E+03 0.  0.
        5    1    3    3  502    0  0.69805769997E+02 -0.40752776257E+03  0.38791138703E+03  0.56696477578E+03  0.46999998093E+01 0. -1.
       -5    1    3    3    0  502 -0.69805769997E+02  0.40752776257E+03 -0.17744919023E+03  0.44995780680E+03  0.46999998093E+01 0.  1.
</event>
<event>
 5   0  0.4026829E-03  0.9816631E+03  0.7818609E-02  0.9328888E-01
        2   -1    0    0  501    0  0.00000000000E+00  0.00000000000E+00  0.11520756476E+04  0.11520756476E+04  0.25500000920E-02 0.  1.
       -2   -1    0    0    0  501  0.00000000000E+00  0.00000000000E+00 -0.20911440763E+03  0.20911440764E+03  0.25500000920E-02 0. -1.
    10030    2    1    2    0    0  0.00000000000E+00  0.00000000000E+00  0.94296123999E+03  0.13611900553E+04  0.98166311249E+03 0.  0.
        1    1    3    3  502    0  0.30745153470E+03 -0.36266467568E+03  0.30242995288E+03  0.56348557178E+03  0.50400001928E-02 0.  1.
       -1    1    3    3    0  502 -0.30745153470E+03  0.36266467568E+03  0.64053128711E+03  0.79770448348E+03  0.50400001928E-02 0. -1.
</event>
<event>
 5   0  0.3873874E-03  0.9418291E+03  0.7818609E-02  0.9374752E-01
        2   -1    0    0  501    0  0.00000000000E+00  0.00000000000E+00  0.56904808187E+03  0.56904808188E+03  0.25500000920E-02 0. -1.
       -2   -1    0    0    0  501  0.00000000000E+00  0.00000000000E+00 -0.38970434395E+03  0.38970434396E+03  0.25500000920E-02 0.  1.
    10030    2    1    2    0    0  0.00000000000E+00  0.00000000000E+00  0.17934373793E+03  0.95875242584E+03  0.94182909157E+03 0.  0.
        5    1    3    3  502    0 -0.28829418590E+03 -0.30596470623E+03  0.30564076021E+03  0.51977524315E+03  0.46999998093E+01 0. -1.
       -5    1    3    3    0  502  0.28829418590E+03  0.30596470623E+03 -0.12629702229E+03  0.43897718269E+03  0.46999998093E+01 0.  1.
</event>
<event>
 5   0  0.3873874E-03  0.1010861E+04  0.7818609E-02  0.9296712E-01
        2   -1    0    0  501    0  0.00000000000E+00  0.00000000000E+00  0.59070956097E+03  0.59070956097E+03  0.25500000920E-02 0.  1.
       -2   -1    0    0    0  501  0.00000000000E+00  0.00000000000E+00 -0.43246295899E+03  0.43246295900E+03  0.25500000920E-02 0. -1.
    10030    2    1    2    0    0  0.00000000000E+00  0.00000000000E+00  0.15824660197E+03  0.10231725200E+04  0.10108610283E+04 0.  0.
        5    1    3    3  502    0 -0.19462026506E+03  0.46204320836E+03  0.14494721491E+02  0.50159063081E+03  0.46999998093E+01 0. -1.
       -5    1    3    3    0  502  0.19462026506E+03 -0.46204320836E+03  0.14375188048E+03  0.52158188917E+03  0.46999998093E+01 0.  1.
</event>
<event>
 5   0  0.2327595E-03  0.9941266E+03  0.7818609E-02  0.9315010E-01
       -1   -1    0    0    0  501  0.00000000000E+00  0.00000000000E+00  0.13468461434E+03  0.13468461443E+03  0.50400001928E-02 0.  1.
        1   -1    0    0  501    0  0.00000000000E+00  0.00000000000E+00 -0.18344479746E+04  0.18344479746E+04  0.50400001928E-02 0. -1.
    10030    2    1    2    0    0  0.00000000000E+00  0.00000000000E+00 -0.16997633602E+04  0.19691325890E+04  0.99412658768E+03 0.  0.
        5    1    3    3  502    0  0.49553817837E+03  0.18536628636E+02 -0.78276510333E+03  0.92663098902E+03  0.46999998093E+01 0.  1.
       -5    1    3    3    0  502 -0.49553817837E+03 -0.18536628636E+02 -0.91699825692E+03  0.10425016000E+04  0.46999998093E+01 0. -1.
</event>
<event>
 5   0  0.2327595E-03  0.9908939E+03  0.7818609E-02  0.9318589E-01
        1   -1    0    0  501    0  0.00000000000E+00  0.00000000000E+00  0.20272886347E+04  0.20272886347E+04  0.50400001928E-02 0. -1.
       -1   -1    0    0    0  501  0.00000000000E+00  0.00000000000E+00 -0.12108176791E+03  0.12108176802E+03  0.50400001928E-02 0.  1.
    10030    2    1    2    0    0  0.00000000000E+00  0.00000000000E+00  0.19062068668E+04  0.21483704027E+04  0.99089392384E+03 0.  0.
        5    1    3    3  502    0  0.15662103303E+03 -0.32213854674E+03  0.16951628889E+04  0.17325999831E+04  0.46999998093E+01 0. -1.
       -5    1    3    3    0  502 -0.15662103303E+03  0.32213854674E+03  0.21104397787E+03  0.41577041968E+03  0.46999998093E+01 0.  1.
</event>
<event>
 5   0  0.3873874E-03  0.9926785E+03  0.7818609E-02  0.9316611E-01
        2   -1    0    0  501    0  0.00000000000E+00  0.00000000000E+00  0.32558479834E+03  0.32558479835E+03  0.25500000920E-02 0.  1.
       -2   -1    0    0    0  501  0.00000000000E+00  0.00000000000E+00 -0.75664670165E+03  0.75664670165E+03  0.25500000920E-02 0. -1.
    10030    2    1    2    0    0  0.00000000000E+00  0.00000000000E+00 -0.43106190331E+03  0.10822315000E+04  0.99267852556E+03 0.  0.
        5    1    3    3  502    0  0.88741738098E+02  0.36497739411E+03 -0.56921572565E+03  0.68199136843E+03  0.46999998093E+01 0. -1.
       -5    1    3    3    0  502 -0.88741738098E+02 -0.36497739411E+03  0.13815382234E+03  0.40024013157E+03  0.46999998093E+01 0.  1.
</event>
<event>
 5   0  0.2350769E-03  0.9982293E+03  0.7818609E-02  0.9310489E-01
        1   -1    0    0  501    0  0.00000000000E+00  0.00000000000E+00  0.16758902929E+03  0.16758902937E+03  0.50400001928E-02 0.  1.
       -1   -1    0    0    0  501  0.00000000000E+00  0.00000000000E+00 -0.14864660934E+04  0.14864660935E+04  0.50400001928E-02 0. -1.
    10030    2    1    2    0    0  0.00000000000E+00  0.00000000000E+00 -0.13188770642E+04  0.16540551228E+04  0.99822925172E+03 0.  0.
        2    1    3    3  502    0 -0.62743365446E+02 -0.45974773712E+03 -0.35475656194E+03  0.58408640623E+03  0.25500000920E-02 0.  1.
       -2    1    3    3    0  502  0.62743365446E+02  0.45974773712E+03 -0.96412050221E+03  0.10699687166E+04  0.25500000920E-02 0. -1.
</event>
<event>
 5   0  0.4026829E-03  0.9301237E+03  0.7818609E-02  0.9388690E-01
        2   -1    0    0  501    0  0.00000000000E+00  0.00000000000E+00  0.89819593730E+03  0.89819593730E+03  0.25500000920E-02 0. -1.
       -2   -1    0    0    0  501  0.00000000000E+00  0.00000000000E+00 -0.24079657604E+03  0.24079657605E+03  0.25500000920E-02 0.  1.
    10030    2    1    2    0    0  0.00000000000E+00  0.00000000000E+00  0.65739936126E+03  0.11389925134E+04  0.93012366129E+03 0.  0.
        1    1    3    3  502    0 -0.40889107904E+03 -0.21900872769E+03  0.36978671687E+03  0.59321071578E+03  0.50400001928E-02 0. -1.
       -1    1    3    3    0  502  0.40889107904E+03  0.21900872769E+03  0.28761264440E+03  0.54578179757E+03  0.50400001928E-02 0.  1.
</event>
<event>
 5   0  0.2327595E-03  0.1001031E+04  0.7818609E-02  0.9307415E-01
        1   -1    0    0  501    0  0.00000000000E+00  0.00000000000E+00  0.12930645668E+04  0.12930645668E+04  0.50400001928E-02 0. -1.
       -1   -1    0    0    0  501  0.00000000000E+00  0.00000000000E+00 -0.19373787933E+03  0.19373787940E+03  0.50400001928E-02 0.  1.
    10030    2    1    2    0    0  0.00000000000E+00  0.00000000000E+00  0.10993266875E+04  0.14868024462E+04  0.10010306430E+04 0.  0.
        5    1    3    3  502    0  0.16831952140E+03 -0.26926884819E+03 -0.24920526699E+02  0.31855972209E+03  0.46999998093E+01 0.  1.
       -5    1    3    3    0  502 -0.16831952140E+03  0.26926884819E+03  0.11242472142E+04  0.11682427241E+04  0.46999998093E+01 0. -1.
</event>
<event>
 5   0  0.2378609E-03  0.9943358E+03  0.7818609E-02  0.9314779E-01
        1   -1    0    0  501    0  0.00000000000E+00  0.00000000000E+00  0.10285747815E+04  0.10285747815E+04  0.50400001928E-02 0. -1.
       -1   -1    0    0    0  501  0.00000000000E+00  0.00000000000E+00 -0.24030913623E+03  0.24030913628E+03  0.50400001928E-02 0.  1.
    10030    2    1    2    0    0  0.00000000000E+00  0.00000000000E+00  0.78826564530E+03  0.12688839178E+04  0.99433579304E+03 0.  0.
        1    1    3    3  502    0  0.13348090304E+03  0.14012821758E+03  0.97853482316E+03  0.99748858089E+03  0.50400001928E-02 0. -1.
       -1    1    3    3    0  502 -0.13348090304E+03 -0.14012821758E+03 -0.19026917786E+03  0.27139533693E+03  0.50400001928E-02 0.  1.
</event>
<event>
 5   0  0.2378609E-03  0.1007998E+04  0.7818609E-02  0.9299816E-01
       -1   -1    0    0    0  501  0.00000000000E+00  0.00000000000E+00  0.39151055503E+03  0.39151055506E+03  0.50400001928E-02 0.  1.
        1   -1    0    0  501    0  0.00000000000E+00  0.00000000000E+00 -0.64880693842E+03  0.64880693844E+03  0.50400001928E-02 0. -1.
    10030    2    1    2    0    0  0.00000000000E+00  0.00000000000E+00 -0.25729638339E+03  0.10403174935E+04  0.10079975488E+04 0.  0.
        1    1    3    3  502    0  0.29083667518E+03  0.30307253370E+03 -0.41610304610E+03  0.59125347974E+03  0.50400001928E-02 0. -1.
       -1    1    3    3    0  502 -0.29083667518E+03 -0.30307253370E+03  0.15880666271E+03  0.44906401376E+03  0.50400001928E-02 0.  1.
</event>
<event>
 5   0  0.2405022E-03  0.1001590E+04  0.7818609E-02  0.9306803E-01
        1   -1    0    0  501    0  0.00000000000E+00  0.00000000000E+00  0.89036407314E+03  0.89036407315E+03  0.50400001928E-02 0.  1.
       -1   -1    0    0    0  501  0.00000000000E+00  0.00000000000E+00 -0.28167752340E+03  0.28167752344E+03  0.50400001928E-02 0. -1.
    10030    2    1    2    0    0  0.00000000000E+00  0.00000000000E+00  0.60868654974E+03  0.11720415966E+04  0.10015898304E+04 0.  0.
        4    1    3    3  502    0  0.29413951593E+03  0.26412582708E+03 -0.55405955938E+02  0.39918910333E+03  0.12699999809E+01 0. -1.
       -4    1    3    3    0  502 -0.29413951593E+03 -0.26412582708E+03  0.66409250568E+03  0.77285249327E+03  0.12699999809E+01 0.  1.
</event>
<event>
 5   0  0.3826483E-03  0.9972102E+03  0.7818609E-02  0.9311610E-01
       -2   -1    0    0    0  501  0.00000000000E+00  0.00000000000E+00  0.44893588020E+03  0.44893588021E+03  0.25500000920E-02 0.  1.
        2   -1    0    0  501    0  0.00000000000E+00  0.00000000000E+00 -0.55376960936E+03  0.55376960936E+03  0.25500000920E-02 0. -1.
    10030    2    1    2    0    0  0.00000000000E+00  0.00000000000E+00 -0.10483372916E+03  0.10027054896E+04  0.99721020254E+03 0.  0.
        4    1    3    3  502    0  0.11318905026E+03 -0.23561097851E+03 -0.47935193090E+03  0.54598917649E+03  0.12699999809E+01 0. -1.
       -4    1    3    3    0  502 -0.11318905026E+03  0.23561097851E+03  0.37451820174E+03  0.45671631308E+03  0.12699999809E+01 0.  1.
</event>
<event>
 5   0  0.4026829E-03  0.1000822E+04  0.7818609E-02  0.9307644E-01
        2   -1    0    0  501    0  0.00000000000E+00  0.00000000000E+00  0.11465708932E+04  0.11465708932E+04  0.25500000920E-02 0. -1.
       -2   -1    0    0    0  501  0.00000000000E+00  0.00000000000E+00 -0.21839999871E+03  0.21839999873E+03  0.25500000920E-02 0.  1.
    10030    2    1    2    0    0  0.00000000000E+00  0.00000000000E+00  0.92817089446E+03  0.13649708919E+04  0.10008218255E+04 0.  0.
        1    1    3    3  502    0 -0.34573124673E+02  0.49749730692E+03  0.52052001036E+03  0.72086056388E+03  0.50400001928E-02 0. -1.
       -1    1    3    3    0  502  0.34573124673E+02 -0.49749730692E+03  0.40765088409E+03  0.64411032802E+03  0.50400001928E-02 0.  1.
</event>
<event>
 5   0  0.2405022E-03  0.9995281E+03  0.7818609E-02  0.9309063E-01
        1   -1    0    0  501    0  0.00000000000E+00  0.00000000000E+00  0.14633816875E+04  0.14633816875E+04  0.50400001928E-02 0. -1.
       -1   -1    0    0    0  501  0.00000000000E+00  0.00000000000E+00 -0.17067596591E+03  0.17067596599E+03  0.50400001928E-02 0.  1.
    10030    2    1    2    0    0  0.00000000000E+00  0.00000000000E+00  0.12927057216E+04  0.16340576535E+04  0.99952805481E+03 0.  0.
        4    1    3    3  502    0  0.27716327889E+03  0.35341823260E+03  0.28803596556E+03  0.53356373627E+03  0.12699999809E+01 0.  1.
       -4    1    3    3    0  502 -0.27716327889E+03 -0.35341823260E+03  0.10046697561E+04  0.11004939173E+04  0.12699999809E+01 0. -1.
</event>
<event>
 5   0  0.3873874E-03  0.9856805E+03  0.7818609E-02  0.9324391E-01
        2   -1    0    0  501    0  0.00000000000E+00  0.00000000000E+00  0.29525923076E+03  0.29525923077E+03  0.25500000920E-02 0. -1.
       -2   -1    0    0    0  501  0.00000000000E+00  0.00000000000E+00 -0.82263817508E+03  0.82263817509E+03  0.25500000920E-02 0.  1.
    10030    2    1    2    0    0  0.00000000000E+00  0.00000000000E+00 -0.52737894433E+03  0.11178974059E+04  0.98568050559E+03 0.  0.
        5    1    3    3  502    0  0.26646356227E+03 -0.14346632916E+03 -0.70481510127E+03  0.76705399718E+03  0.46999998093E+01 0.  1.
       -5    1    3    3    0  502 -0.26646356227E+03  0.14346632916E+03  0.17743615694E+03  0.35084340867E+03  0.46999998093E+01 0. -1.
</event>
<event>
 5   0  0.4140860E-03  0.1001097E+04  0.7818609E-02  0.9307343E-01
       -2   -1    0    0    0  501  0.00000000000E+00  0.00000000000E+00  0.20918705701E+03  0.20918705702E+03  0.25500000920E-02 0.  1.
        2   -1    0    0  501    0  0.00000000000E+00  0.00000000000E+00 -0.11977252171E+04  0.11977252171E+04  0.25500000920E-02 0. -1.
    10030    2    1    2    0    0  0.00000000000E+00  0.00000000000E+00 -0.98853816009E+03  0.14069122741E+04  0.10010966253E+04 0.  0.
        3    1    3    3  502    0  0.24246164775E+03 -0.11499144965E+03 -0.10880910417E+04  0.11206930040E+04  0.10100000352E+00 0. -1.
       -3    1    3    3    0  502 -0.24246164775E+03  0.11499144965E+03  0.99552881599E+02  0.28621927007E+03  0.10100000352E+00 0.  1.
</event>
<event>
 5   0  0.3826483E-03  0.1003578E+04  0.7818609E-02  0.9304629E-01
       -2   -1    0    0    0  501  0.00000000000E+00  0.00000000000E+00  0.27252097700E+03  0.27252097701E+03  0.25500000920E-02 0.  1.
        2   -1    0    0  501    0  0.00000000000E+00  0.00000000000E+00 -0.92393655682E+03  0.92393655683E+03  0.25500000920E-02 0. -1.
    10030    2    1    2    0    0  0.00000000000E+00  0.00000000000E+00 -0.65141557982E+03  0.11964575338E+04  0.10035777860E+04 0.  0.
        4    1    3    3  502    0  0.38399700769E+02 -0.48419489300E+03 -0.17551406115E+03  0.51645525458E+03  0.12699999809E+01 0.  1.
       -4    1    3    3    0  502 -0.38399700769E+02  0.48419489300E+03 -0.47590151868E+03  0.68000227926E+03  0.12699999809E+01 0. -1.
</event>
<event>
 5   0  0.3895011E-03  0.1003070E+04  0.7818609E-02  0.9305184E-01
        2   -1    0    0  501    0  0.00000000000E+00  0.00000000000E+00  0.91063189609E+03  0.91063189610E+03  0.25500000920E-02 0. -1.
       -2   -1    0    0    0  501  0.00000000000E+00  0.00000000000E+00 -0.27622302466E+03  0.27622302468E+03  0.25500000920E-02 0.  1.
    10030    2    1    2    0    0  0.00000000000E+00  0.00000000000E+00  0.63440887143E+03  0.11868549208E+04  0.10030702801E+04 0.  0.
        2    1    3    3  502    0 -0.49068822409E+01  0.49915259573E+03  0.37468644878E+03  0.62415328744E+03  0.25500000920E-02 0.  1.
       -2    1    3    3    0  502  0.49068822409E+01 -0.49915259573E+03  0.25972242265E+03  0.56270163333E+03  0.25500000920E-02 0. -1.
</event>
<event>
 5   0  0.3895011E-03  0.1006197E+04  0.7818609E-02  0.9301774E-01
        2   -1    0    0  501    0  0.00000000000E+00  0.00000000000E+00  0.80983057816E+03  0.80983057817E+03  0.25500000920E-02 0. -1.
       -2   -1    0    0    0  501  0.00000000000E+00  0.00000000000E+00 -0.31254444750E+03  0.31254444751E+03  0.25500000920E-02 0.  1.
    10030    2    1    2    0    0  0.00000000000E+00  0.00000000000E+00  0.49728613066E+03  0.11223750257E+04  0.10061969005E+04 0.  0.
        2    1    3    3  502    0 -0.45123997324E+03 -0.16575936398E+03  0.41414693565E+03  0.63451663849E+03  0.25500000920E-02 0. -1.
       -2    1    3    3    0  502  0.45123997324E+03  0.16575936398E+03  0.83139195010E+02  0.48785838719E+03  0.25500000920E-02 0.  1.
</event>
<event>
 5   0  0.3895011E-03  0.1009872E+04  0.7818609E-02  0.9297783E-01
       -2   -1    0    0    0  501  0.00000000000E+00  0.00000000000E+00  0.48299543641E+03  0.48299543642E+03  0.25500000920E-02 0.  1.
        2   -1    0    0  501    0  0.00000000000E+00  0.00000000000E+00 -0.52787316532E+03  0.52787316532E+03  0.25500000920E-02 0. -1.
    10030    2    1    2    0    0  0.00000000000E+00  0.00000000000E+00 -0.44877728906E+02  0.10108686017E+04  0.10098719322E+04 0.  0.
        2    1    3    3  502    0  0.16725019299E+03  0.22411566491E+03 -0.44328199648E+03  0.52411772220E+03  0.25500000920E-02 0. -1.
       -2    1    3    3    0  502 -0.16725019299E+03 -0.22411566491E+03  0.39840426757E+03  0.48675087955E+03  0.25500000920E-02 0.  1.
</event>
<event>
 5   0  0.4140860E-03  0.9981087E+03  0.7818609E-02  0.9310622E-01
        2   -1    0    0  501    0  0.00000000000E+00  0.00000000000E+00  0.18389853733E+04  0.18389853733E+04  0.25500000920E-02 0.  1.
       -2   -1    0    0    0  501  0.00000000000E+00  0.00000000000E+00 -0.13543079820E+03  0.13543079823E+03  0.25500000920E-02 0. -1.
    10030    2    1    2    0    0  0.00000000000E+00  0.00000000000E+00  0.17035545751E+04  0.19744161715E+04  0.99810872556E+03 0.  0.
        3    1    3    3  502    0  0.31886133980E+03  0.33775048477E+03  0.12127967207E+04  0.12987008278E+04  0.10100000352E+00 0. -1.
       -3    1    3    3    0  502 -0.31886133980E+03 -0.33775048477E+03  0.49075785432E+03  0.67571534374E+03  0.10100000352E+00 0.  1.
</event>
<event>
 5   0  0.3826483E-03  0.9968945E+03  0.7818609E-02  0.9311957E-01
        2   -1    0    0  501    0  0.00000000000E+00  0.00000000000E+00  0.12191521814E+04  0.12191521814E+04  0.25500000920E-02 0.  1.
       -2   -1    0    0    0  501  0.00000000000E+00  0.00000000000E+00 -0.20378886978E+03  0.20378886979E+03  0.25500000920E-02 0. -1.
    10030    2    1    2    0    0  0.00000000000E+00  0.00000000000E+00  0.10153633117E+04  0.14229410512E+04  0.99689446815E+03 0.  0.
        4    1    3    3  502    0  0.46676051789E+03  0.13649365154E+03  0.66373046349E+03  0.82282175411E+03  0.12699999809E+01 0.  1.
       -4    1    3    3    0  502 -0.46676051789E+03 -0.13649365154E+03  0.35163284817E+03  0.60011929713E+03  0.12699999809E+01 0. -1.
</event>
<event>
 5   0  0.4026829E-03  0.9996947E+03  0.7818609E-02  0.9308880E-01
       -2   -1    0    0    0  501  0.00000000000E+00  0.00000000000E+00  0.22038359437E+03  0.22038359438E+03  0.25500000920E-02 0.  1.
        2   -1    0    0  501    0  0.00000000000E+00  0.00000000000E+00 -0.11336932053E+04  0.11336932053E+04  0.25500000920E-02 0. -1.
    10030    2    1    2    0    0  0.00000000000E+00  0.00000000000E+00 -0.91330961091E+03  0.13540767997E+04  0.99969472041E+03 0.  0.
        1    1    3    3  502    0 -0.22318734858E+03  0.33346318667E+02  0.14745821420E+03  0.26957094520E+03  0.50400001928E-02 0.  1.
       -1    1    3    3    0  502  0.22318734858E+03 -0.33346318667E+02 -0.10607678251E+04  0.10845058545E+04  0.50400001928E-02 0. -1.
</event>
<event>
 5   0  0.2378609E-03  0.1000434E+04  0.7818609E-02  0.9308069E-01
       -1   -1    0    0    0  501  0.00000000000E+00  0.00000000000E+00  0.92171510442E+03  0.92171510444E+03  0.50400001928E-02 0.  1.
        1   -1    0    0  501    0  0.00000000000E+00  0.00000000000E+00 -0.27146903843E+03  0.27146903847E+03  0.50400001928E-02 0. -1.
    10030    2    1    2    0    0  0.00000000000E+00  0.00000000000E+00  0.65024606600E+03  0.11931841429E+04  0.10004341320E+04 0.  0.
        1    1    3    3  502    0 -0.10538696152E+03  0.18584271626E+03  0.86456325769E+03  0.89056922999E+03  0.50400001928E-02 0.  1.
       -1    1    3    3    0  502  0.10538696152E+03 -0.18584271626E+03 -0.21431719169E+03  0.30261491292E+03  0.50400001928E-02 0. -1.
</event>
<event>
 5   0  0.2313036E-03  0.1013064E+04  0.7818609E-02  0.9294331E-01
       -1   -1    0    0    0  501  0.00000000000E+00  0.00000000000E+00  0.12445064674E+03  0.12445064684E+03  0.50400001928E-02 0. -1.
        1   -1    0    0  501    0  0.00000000000E+00  0.00000000000E+00 -0.20616582827E+04  0.20616582827E+04  0.50400001928E-02 0.  1.
    10030    2    1    2    0    0  0.00000000000E+00  0.00000000000E+00 -0.19372076359E+04  0.21861089295E+04  0.10130640784E+04 0.  0.
        3    1    3    3  502    0 -0.22827108123E+03  0.45210102127E+03 -0.98687318743E+03  0.11092437596E+04  0.10100000352E+00 0.  1.
       -3    1    3    3    0  502  0.22827108123E+03 -0.45210102127E+03 -0.95033444848E+03  0.10768651699E+04  0.10100000352E+00 0. -1.
</event>
<event>
 5   0  0.2378609E-03  0.9979226E+03  0.7818609E-02  0.9310826E-01
       -1   -1    0    0    0  501  0.00000000000E+00  0.00000000000E+00  0.22162668513E+03  0.22162668519E+03  0.50400001928E-02 0. -1.
        1   -1    0    0  501    0  0.00000000000E+00  0.00000000000E+00 -0.11233411147E+04  0.11233411147E+04  0.50400001928E-02 0.  1.
    10030    2    1    2    0    0  0.00000000000E+00  0.00000000000E+00 -0.90171442952E+03  0.13449677999E+04  0.99792257728E+03 0.  0.
        1    1    3    3  502    0  0.37434121029E+03  0.25895574489E+03 -0.72631978874E+03  0.85716384378E+03  0.50400001928E-02 0.  1.
       -1    1    3    3    0  502 -0.37434121029E+03 -0.25895574489E+03 -0.17539464078E+03  0.48780395608E+03  0.50400001928E-02 0. -1.
</event>
<event>
 5   0  0.3826483E-03  0.1014754E+04  0.7818609E-02  0.9292510E-01
        2   -1    0    0  501    0  0.00000000000E+00  0.00000000000E+00  0.72187095143E+03  0.72187095144E+03  0.25500000920E-02 0. -1.
       -2   -1    0    0    0  501  0.00000000000E+00  0.00000000000E+00 -0.35661675996E+03  0.35661675997E+03  0.25500000920E-02 0.  1.
    10030    2    1    2    0    0  0.00000000000E+00  0.00000000000E+00  0.36525419147E+03  0.10784877114E+04  0.10147537235E+04 0.  0.
        4    1    3    3  502    0  0.24807995593E+03 -0.11626552581E+03  0.63649477598E+03  0.69295638374E+03  0.12699999809E+01 0. -1.
       -4    1    3    3    0  502 -0.24807995593E+03  0.11626552581E+03 -0.27124058450E+03  0.38553132766E+03  0.12699999809E+01 0.  1.
</event>
<event>
 5   0  0.3895011E-03  0.9987486E+03  0.7818609E-02  0.9309918E-01
        2   -1    0    0  501    0  0.00000000000E+00  0.00000000000E+00  0.72343707321E+03  0.72343707322E+03  0.25500000920E-02 0. -1.
       -2   -1    0    0    0  501  0.00000000000E+00  0.00000000000E+00 -0.34470819746E+03  0.34470819746E+03  0.25500000920E-02 0.  1.
    10030    2    1    2    0    0  0.00000000000E+00  0.00000000000E+00  0.37872887576E+03  0.10681452707E+04  0.99874859597E+03 0.  0.
        2    1    3    3  502    0 -0.67201449463E+02 -0.31961513562E+03  0.59337569001E+03  0.67732162170E+03  0.25500000920E-02 0. -1.
       -2    1    3    3    0  502  0.67201449463E+02  0.31961513562E+03 -0.21464681425E+03  0.39082364898E+03  0.25500000920E-02 0.  1.
</event>
<event>
 5   0  0.3895011E-03  0.9966874E+03  0.7818609E-02  0.9312186E-01
       -2   -1    0    0    0  501  0.00000000000E+00  0.00000000000E+00  0.12491280198E+04  0.12491280198E+04  0.25500000920E-02 0.  1.
        2   -1    0    0  501    0  0.00000000000E+00  0.00000000000E+00 -0.19881583064E+03  0.19881583066E+03  0.25500000920E-02 0. -1.
    10030    2    1    2    0    0  0.00000000000E+00  0.00000000000E+00  0.10503121891E+04  0.14479438504E+04  0.99668736291E+03 0.  0.
        2    1    3    3  502    0  0.40841075741E+03  0.25200722547E+03  0.72027720153E+03  0.86550923479E+03  0.25500000920E-02 0. -1.
       -2    1    3    3    0  502 -0.40841075741E+03 -0.25200722547E+03  0.33003498762E+03  0.58243461566E+03  0.25500000920E-02 0.  1.
</event>
<event>
 5   0  0.4026829E-03  0.1101945E+04  0.7818609E-02  0.9203299E-01
        2   -1    0    0  501    0  0.00000000000E+00  0.00000000000E+00  0.88394894116E+03  0.88394894116E+03  0.25500000920E-02 0. -1.
       -2   -1    0    0    0  501  0.00000000000E+00  0.00000000000E+00 -0.34342537832E+03  0.34342537833E+03  0.25500000920E-02 0.  1.
    10030    2    1    2    0    0  0.00000000000E+00  0.00000000000E+00  0.54052356284E+03  0.12273743195E+04  0.11019446439E+04 0.  0.
        1    1    3    3  502    0  0.23018696764E+03  0.22213465605E+03 -0.22939882876E+03  0.39364154780E+03  0.50400001928E-02 0.  1.
       -1    1    3    3    0  502 -0.23018696764E+03 -0.22213465605E+03  0.76992239160E+03  0.83373277170E+03  0.50400001928E-02 0. -1.
</event>
<event>
 5   0  0.3873874E-03  0.1056664E+04  0.7818609E-02  0.9248491E-01
       -2   -1    0    0    0  501  0.00000000000E+00  0.00000000000E+00  0.43327439488E+03  0.43327439489E+03  0.25500000920E-02 0. -1.
        2   -1    0    0  501    0  0.00000000000E+00  0.00000000000E+00 -0.64424485621E+03  0.64424485622E+03  0.25500000920E-02 0.  1.
    10030    2    1    2    0    0  0.00000000000E+00  0.00000000000E+00 -0.21097046133E+03  0.10775192511E+04  0.10566641855E+04 0.  0.
        5    1    3    3  502    0  0.90874382439E+02 -0.47961833925E+03  0.10054399746E+03  0.49842059564E+03  0.46999998093E+01 0.  1.
       -5    1    3    3    0  502 -0.90874382439E+02  0.47961833925E+03 -0.31151445879E+03  0.57909865547E+03  0.46999998093E+01 0. -1.
</event>
<event>
 5   0  0.2350769E-03  0.9892462E+03  0.7818609E-02  0.9320419E-01
        1   -1    0    0  501    0  0.00000000000E+00  0.00000000000E+00  0.33605878122E+03  0.33605878126E+03  0.50400001928E-02 0.  1.
       -1   -1    0    0    0  501  0.00000000000E+00  0.00000000000E+00 -0.72800368927E+03  0.72800368929E+03  0.50400001928E-02 0. -1.
    10030    2    1    2    0    0  0.00000000000E+00  0.00000000000E+00 -0.39194490805E+03  0.10640624705E+04  0.98924624350E+03 0.  0.
        2    1    3    3  502    0  0.39939378134E+03  0.25306050442E+03 -0.35220563838E+03  0.58957936123E+03  0.25500000920E-02 0. -1.
       -2    1    3    3    0  502 -0.39939378134E+03 -0.25306050442E+03 -0.39739269665E+02  0.47448310932E+03  0.25500000920E-02 0.  1.
</event>
<event>
 5   0  0.2313036E-03  0.9978857E+03  0.7818609E-02  0.9310867E-01
       -1   -1    0    0    0  501  0.00000000000E+00  0.00000000000E+00  0.15367953147E+03  0.15367953155E+03  0.50400001928E-02 0.  1.
        1   -1    0    0  501    0  0.00000000000E+00  0.00000000000E+00 -0.16198901977E+04  0.16198901977E+04  0.50400001928E-02 0. -1.
    10030    2    1    2    0    0  0.00000000000E+00  0.00000000000E+00 -0.14662106662E+04  0.17735697293E+04  0.99788569825E+03 0.  0.
        3    1    3    3  502    0  0.49189853161E+03  0.68342830606E+02 -0.64770019368E+03  0.81618040836E+03  0.10100000352E+00 0.  1.
       -3    1    3    3    0  502 -0.49189853161E+03 -0.68342830606E+02 -0.81851047257E+03  0.95738932091E+03  0.10100000352E+00 0. -1.
</event>
<event>
 5   0  0.2378609E-03  0.9914397E+03  0.7818609E-02  0.9317984E-01
       -1   -1    0    0    0  501  0.00000000000E+00  0.00000000000E+00  0.43076971977E+03  0.43076971980E+03  0.50400001928E-02 0.  1.
        1   -1    0    0  501    0  0.00000000000E+00  0.00000000000E+00 -0.57046293173E+03  0.57046293176E+03  0.50400001928E-02 0. -1.
    10030    2    1    2    0    0  0.00000000000E+00  0.00000000000E+00 -0.13969321197E+03  0.10012326516E+04  0.99143967495E+03 0.  0.
        1    1    3    3  502    0 -0.49386808859E+03  0.17116649782E+02 -0.10947048154E+03  0.50614469767E+03  0.50400001928E-02 0. -1.
       -1    1    3    3    0  502  0.49386808859E+03 -0.17116649782E+02 -0.30222730425E+02  0.49508795389E+03  0.50400001928E-02 0.  1.
</event>
<event>
 5   0  0.2350769E-03  0.9928913E+03  0.7818609E-02  0.9316376E-01
        1   -1    0    0  501    0  0.00000000000E+00  0.00000000000E+00  0.85013011782E+03  0.85013011784E+03  0.50400001928E-02 0. -1.
       -1   -1    0    0    0  501  0.00000000000E+00  0.00000000000E+00 -0.28990656412E+03  0.28990656417E+03  0.50400001928E-02 0.  1.
    10030    2    1    2    0    0  0.00000000000E+00  0.00000000000E+00  0.56022355370E+03  0.11400366820E+04  0.99289133655E+03 0.  0.
        2    1    3    3  502    0 -0.43913154122E+03 -0.93021909814E+02  0.52359685151E+03  0.68966894168E+03  0.25500000920E-02 0. -1.
       -2    1    3    3    0  502  0.43913154122E+03  0.93021909814E+02  0.36626702191E+02  0.45036774032E+03  0.25500000920E-02 0.  1.
</event>
<event>
 5   0  0.4140860E-03  0.9828383E+03  0.7818609E-02  0.9327570E-01
       -2   -1    0    0    0  501  0.00000000000E+00  0.00000000000E+00  0.47987126512E+03  0.47987126513E+03  0.25500000920E-02 0.  1.
        2   -1    0    0  501    0  0.00000000000E+00  0.00000000000E+00 -0.50324495724E+03  0.50324495725E+03  0.25500000920E-02 0. -1.
    10030    2    1    2    0    0  0.00000000000E+00  0.00000000000E+00 -0.23373692122E+02  0.98311622237E+03  0.98283832710E+03 0.  0.
        3    1    3    3  502    0 -0.29959949069E+03  0.12750090328E+03  0.35648848049E+03  0.48280470387E+03  0.10100000352E+00 0.  1.
       -3    1    3    3    0  502  0.29959949069E+03 -0.12750090328E+03 -0.37986217261E+03  0.50031151850E+03  0.10100000352E+00 0. -1.
</event>
<event>
 5   0  0.2350769E-03  0.1004073E+04  0.7818609E-02  0.9304089E-01
       -1   -1    0    0    0  501  0.00000000000E+00  0.00000000000E+00  0.21134548618E+03  0.21134548624E+03  0.50400001928E-02 0. -1.
        1   -1    0    0  501    0  0.00000000000E+00  0.00000000000E+00 -0.11925522396E+04  0.11925522397E+04  0.50400001928E-02 0.  1.
    10030    2    1    2    0    0  0.00000000000E+00  0.00000000000E+00 -0.98120675346E+03  0.14038977259E+04  0.10040727721E+04 0.  0.
        2    1    3    3  502    0 -0.30833844983E+03 -0.18241583155E+03  0.11436970897E+01  0.35825890539E+03  0.25500000920E-02 0. -1.
       -2    1    3    3    0  502  0.30833844983E+03  0.18241583155E+03 -0.98235045055E+03  0.10456388205E+04  0.25500000920E-02 0.  1.
</event>
<event>
 5   0  0.3873874E-03  0.9895054E+03  0.7818609E-02  0.9320131E-01
       -2   -1    0    0    0  501  0.00000000000E+00  0.00000000000E+00  0.10611994424E+03  0.10611994427E+03  0.25500000920E-02 0.  1.
        2   -1    0    0  501    0  0.00000000000E+00  0.00000000000E+00 -0.23066373585E+04  0.23066373585E+04  0.25500000920E-02 0. -1.
    10030    2    1    2    0    0  0.00000000000E+00  0.00000000000E+00 -0.22005174143E+04  0.24127573028E+04  0.98950538736E+03 0.  0.
        5    1    3    3  502    0 -0.17468976547E+03  0.10793743004E+03 -0.21977616525E+04  0.22073389804E+04  0.46999998093E+01 0. -1.
       -5    1    3    3    0  502  0.17468976547E+03 -0.10793743004E+03 -0.27557617586E+01  0.20541832242E+03  0.46999998093E+01 0.  1.
</event>
<event>
 5   0  0.3826483E-03  0.1004462E+04  0.7818609E-02  0.9303664E-01
       -2   -1    0    0    0  501  0.00000000000E+00  0.00000000000E+00  0.73630128827E+03  0.73630128828E+03  0.25500000920E-02 0. -1.
        2   -1    0    0  501    0  0.00000000000E+00  0.00000000000E+00 -0.34257182983E+03  0.34257182984E+03  0.25500000920E-02 0.  1.
    10030    2    1    2    0    0  0.00000000000E+00  0.00000000000E+00  0.39372945845E+03  0.10788731181E+04  0.10044622036E+04 0.  0.
        4    1    3    3  502    0  0.34982570733E+03  0.31467586421E+03  0.38547379491E+03  0.60826851348E+03  0.12699999809E+01 0. -1.
       -4    1    3    3    0  502 -0.34982570733E+03 -0.31467586421E+03  0.82556635374E+01  0.47060460464E+03  0.12699999809E+01 0.  1.
</event>
<event>
 5   0  0.2327595E-03  0.1008489E+04  0.7818609E-02  0.9299283E-01
        1   -1    0    0  501    0  0.00000000000E+00  0.00000000000E+00  0.38716894970E+03  0.38716894973E+03  0.50400001928E-02 0. -1.
       -1   -1    0    0    0  501  0.00000000000E+00  0.00000000000E+00 -0.65672245595E+03  0.65672245597E+03  0.50400001928E-02 0.  1.
    10030    2    1    2    0    0  0.00000000000E+00  0.00000000000E+00 -0.26955350625E+03  0.10438914057E+04  0.10084890551E+04 0.  0.
        5    1    3    3  502    0  0.66428906233E+02  0.31020959935E+03  0.27089655194E+03  0.41719279352E+03  0.46999998093E+01 0. -1.
       -5    1    3    3    0  502 -0.66428906233E+02 -0.31020959935E+03 -0.54045005819E+03  0.62669861218E+03  0.46999998093E+01 0.  1.
</event>
<event>
 5   0  0.2313036E-03  0.9962084E+03  0.7818609E-02  0.9312713E-01
       -1   -1    0    0    0  501  0.00000000000E+00  0.00000000000E+00  0.53460897636E+03  0.53460897638E+03  0.50400001928E-02 0.  1.
        1   -1    0    0  501    0  0.00000000000E+00  0.00000000000E+00 -0.46409203764E+03  0.46409203767E+03  0.50400001928E-02 0. -1.
    10030    2    1    2    0    0  0.00000000000E+00  0.00000000000E+00  0.70516938714E+02  0.99870101405E+03  0.99620835011E+03 0.  0.
        3    1    3    3  502    0  0.24631615938E+03 -0.36818599356E+03  0.26358960315E+03  0.51547266205E+03  0.10100000352E+00 0.  1.
       -3    1    3    3    0  502 -0.24631615938E+03  0.36818599356E+03 -0.19307266444E+03  0.48322835201E+03  0.10100000352E+00 0. -1.
</event>
<event>
 5   0  0.2405022E-03  0.1007555E+04  0.7818609E-02  0.9300297E-01
       -1   -1    0    0    0  501  0.00000000000E+00  0.00000000000E+00  0.28016734552E+03  0.28016734556E+03  0.50400001928E-02 0. -1.
        1   -1    0    0  501    0  0.00000000000E+00  0.00000000000E+00 -0.90585852784E+03  0.90585852785E+03  0.50400001928E-02 0.  1.
    10030    2    1    2    0    0  0.00000000000E+00  0.00000000000E+00 -0.62569118232E+03  0.11860258734E+04  0.10075554162E+04 0.  0.
        4    1    3    3  502    0 -0.35123595028E+03  0.16233047312E+03 -0.69259158091E+03  0.79334896869E+03  0.12699999809E+01 0.  1.
       -4    1    3    3    0  502  0.35123595028E+03 -0.16233047312E+03  0.66900398589E+02  0.39267690472E+03  0.12699999809E+01 0. -1.
</event>
<event>
 5   0  0.2327595E-03  0.1007866E+04  0.7818609E-02  0.9299959E-01
       -1   -1    0    0    0  501  0.00000000000E+00  0.00000000000E+00  0.56083621386E+03  0.56083621389E+03  0.50400001928E-02 0.  1.
        1   -1    0    0  501    0  0.00000000000E+00  0.00000000000E+00 -0.45280324320E+03  0.45280324322E+03  0.50400001928E-02 0. -1.
    10030    2    1    2    0    0  0.00000000000E+00  0.00000000000E+00  0.10803297067E+03  0.10136394571E+04  0.10078659763E+04 0.  0.
        5    1    3    3  502    0 -0.27520471424E+03 -0.34081311043E+03 -0.19647886044E+03  0.48012211319E+03  0.46999998093E+01 0. -1.
       -5    1    3    3    0  502  0.27520471424E+03  0.34081311043E+03  0.30451183110E+03  0.53351734392E+03  0.46999998093E+01 0.  1.
</event>
<event>
 5   0  0.3895011E-03  0.9862588E+03  0.7818609E-02  0.9323746E-01
       -2   -1    0    0    0  501  0.00000000000E+00  0.00000000000E+00  0.44876987700E+03  0.44876987700E+03  0.25500000920E-02 0. -1.
        2   -1    0    0  501    0  0.00000000000E+00  0.00000000000E+00 -0.54187371574E+03  0.54187371575E+03  0.25500000920E-02 0.  1.
    10030    2    1    2    0    0  0.00000000000E+00  0.00000000000E+00 -0.93103838743E+02  0.99064359275E+03  0.98625879112E+03 0.  0.
        2    1    3    3  502    0  0.48377568932E+03  0.91468200985E+02 -0.18657037420E+02  0.49270014656E+03  0.25500000920E-02 0.  1.
       -2    1    3    3    0  502 -0.48377568932E+03 -0.91468200985E+02 -0.74446801322E+02  0.49794344619E+03  0.25500000920E-02 0. -1.
</event>
<event>
 5   0  0.2350769E-03  0.9943919E+03  0.7818609E-02  0.9314717E-01
       -1   -1    0    0    0  501  0.00000000000E+00  0.00000000000E+00  0.81372829854E+03  0.81372829855E+03  0.50400001928E-02 0.  1.
        1   -1    0    0  501    0  0.00000000000E+00  0.00000000000E+00 -0.30379156869E+03  0.30379156873E+03  0.50400001928E-02 0. -1.
    10030    2    1    2    0    0  0.00000000000E+00  0.00000000000E+00  0.50993672985E+03  0.11175198673E+04  0.99439186708E+03 0.  0.
        2    1    3    3  502    0 -0.18246049296E+03 -0.38971535469E+03  0.53487439648E+03  0.68648416529E+03  0.25500000920E-02 0.  1.
       -2    1    3    3    0  502  0.18246049296E+03  0.38971535469E+03 -0.24937666629E+02  0.43103570200E+03  0.25500000920E-02 0. -1.
</event>
<event>
 5   0  0.3873874E-03  0.9977367E+03  0.7818609E-02  0.9311031E-01
       -2   -1    0    0    0  501  0.00000000000E+00  0.00000000000E+00  0.94726941249E+03  0.94726941249E+03  0.25500000920E-02 0. -1.
        2   -1    0    0  501    0  0.00000000000E+00  0.00000000000E+00 -0.26272316481E+03  0.26272316482E+03  0.25500000920E-02 0.  1.
    10030    2    1    2    0    0  0.00000000000E+00  0.00000000000E+00  0.68454624768E+03  0.12099925773E+04  0.99773667465E+03 0.  0.
        5    1    3    3  502    0  0.40701789269E+02 -0.47977660478E+03  0.18412685776E+03  0.51552596045E+03  0.46999998093E+01 0.  1.
       -5    1    3    3    0  502 -0.40701789269E+02  0.47977660478E+03  0.50041938991E+03  0.69446661687E+03  0.46999998093E+01 0. -1.
</event>
<event>
 5   0  0.2378609E-03  0.9986318E+03  0.7818609E-02  0.9310047E-01
        1   -1    0    0  501    0  0.00000000000E+00  0.00000000000E+00  0.13413019246E+04  0.13413019246E+04  0.50400001928E-02 0. -1.
       -1   -1    0    0    0  501  0.00000000000E+00  0.00000000000E+00 -0.18587640906E+03  0.18587640913E+03  0.50400001928E-02 0.  1.
    10030    2    1    2    0    0  0.00000000000E+00  0.00000000000E+00  0.11554255156E+04  0.15271783338E+04  0.99863183462E+03 0.  0.
        1    1    3    3  502    0  0.32761348051E+03 -0.37400793652E+03  0.50756846207E+03  0.71051972028E+03  0.50400001928E-02 0. -1.
       -1    1    3    3    0  502 -0.32761348051E+03  0.37400793652E+03  0.64785705350E+03  0.81665861349E+03  0.50400001928E-02 0.  1.
</event>
<event>
 5   0  0.4140860E-03  0.9974433E+03  0.7818609E-02  0.9311353E-01
       -2   -1    0    0    0  501  0.00000000000E+00  0.00000000000E+00  0.20523620432E+03  0.20523620434E+03  0.25500000920E-02 0. -1.
        2   -1    0    0  501    0  0.00000000000E+00  0.00000000000E+00 -0.12118878768E+04  0.12118878768E+04  0.25500000920E-02 0.  1.
    10030    2    1    2    0    0  0.00000000000E+00  0.00000000000E+00 -0.10066516725E+04  0.14171240811E+04  0.99744326738E+03 0.  0.
        3    1    3    3  502    0  0.42278260539E+03  0.87281264856E+02 -0.85811724998E+03  0.96058751581E+03  0.10100000352E+00 0.  1.
       -3    1    3    3    0  502 -0.42278260539E+03 -0.87281264856E+02 -0.14853442251E+03  0.45653656534E+03  0.10100000352E+00 0. -1.
</event>
<event>
 5   0  0.3873874E-03  0.1007278E+04  0.7818609E-02  0.9300599E-01
       -2   -1    0    0    0  501  0.00000000000E+00  0.00000000000E+00  0.15382254552E+03  0.15382254554E+03  0.25500000920E-02 0.  1.
        2   -1    0    0  501    0  0.00000000000E+00  0.00000000000E+00 -0.16489914220E+04  0.16489914220E+04  0.25500000920E-02 0. -1.
    10030    2    1    2    0    0  0.00000000000E+00  0.00000000000E+00 -0.14951688765E+04  0.18028139676E+04  0.10072776342E+04 0.  0.
        5    1    3    3  502    0  0.25461066868E+02  0.38467626882E+03 -0.13275584223E+04  0.13824100522E+04  0.46999998093E+01 0. -1.
       -5    1    3    3    0  502 -0.25461066868E+02 -0.38467626882E+03 -0.16761045418E+03  0.42040391538E+03  0.46999998093E+01 0.  1.
</event>
<event>
 5   0  0.3873874E-03  0.9950475E+03  0.7818609E-02  0.9313993E-01
        2   -1    0    0  501    0  0.00000000000E+00  0.00000000000E+00  0.65209233950E+03  0.65209233950E+03  0.25500000920E-02 0. -1.
       -2   -1    0    0    0  501  0.00000000000E+00  0.00000000000E+00 -0.37959332771E+03  0.37959332771E+03  0.25500000920E-02 0.  1.
    10030    2    1    2    0    0  0.00000000000E+00  0.00000000000E+00  0.27249901179E+03  0.10316856672E+04  0.99504753882E+03 0.  0.
        5    1    3    3  502    0 -0.34244994801E+02  0.27715049259E+03  0.56314099110E+03  0.62859763050E+03  0.46999998093E+01 0. -1.
       -5    1    3    3    0  502  0.34244994801E+02 -0.27715049259E+03 -0.29064197931E+03  0.40308803672E+03  0.46999998093E+01 0.  1.
</event>
<event>
 5   0  0.4140860E-03  0.1004281E+04  0.7818609E-02  0.9303862E-01
       -2   -1    0    0    0  501  0.00000000000E+00  0.00000000000E+00  0.52844293381E+03  0.52844293381E+03  0.25500000920E-02 0. -1.
        2   -1    0    0  501    0  0.00000000000E+00  0.00000000000E+00 -0.47714703988E+03  0.47714703989E+03  0.25500000920E-02 0.  1.
    10030    2    1    2    0    0  0.00000000000E+00  0.00000000000E+00  0.51295893923E+02  0.10055899737E+04  0.10042808006E+04 0.  0.
        3    1    3    3  502    0 -0.40302997617E+03  0.96763076008E+02  0.30947595366E+03  0.51727326498E+03  0.10100000352E+00 0. -1.
       -3    1    3    3    0  502  0.40302997617E+03 -0.96763076008E+02 -0.25818005974E+03  0.48831670872E+03  0.10100000352E+00 0.  1.
</event>
<event>
 5   0  0.2378609E-03  0.1000949E+04  0.7818609E-02  0.9307505E-01
        1   -1    0    0  501    0  0.00000000000E+00  0.00000000000E+00  0.12284747004E+04  0.12284747004E+04  0.50400001928E-02 0. -1.
       -1   -1    0    0    0  501  0.00000000000E+00  0.00000000000E+00 -0.20389075858E+03  0.20389075864E+03  0.50400001928E-02 0.  1.
    10030    2    1    2    0    0  0.00000000000E+00  0.00000000000E+00  0.10245839418E+04  0.14323654590E+04  0.10009488271E+04 0.  0.
        1    1    3    3  502    0  0.11602541341E+03  0.35691536031E+03  0.98609203917E+03  0.10550961950E+04  0.50400001928E-02 0. -1.
       -1    1    3    3    0  502 -0.11602541341E+03 -0.35691536031E+03  0.38491902639E+02  0.37726926402E+03  0.50400001928E-02 0.  1.
</event>
<event>
 5   0  0.2350769E-03  0.1004676E+04  0.7818609E-02  0.9303432E-01
       -1   -1    0    0    0  501  0.00000000000E+00  0.00000000000E+00  0.59651372553E+03  0.59651372555E+03  0.50400001928E-02 0. -1.
        1   -1    0    0  501    0  0.00000000000E+00  0.00000000000E+00 -0.42303003049E+03  0.42303003052E+03  0.50400001928E-02 0.  1.
    10030    2    1    2    0    0  0.00000000000E+00  0.00000000000E+00  0.17348369504E+03  0.10195437561E+04  0.10046755089E+04 0.  0.
        2    1    3    3  502    0 -0.10799959490E+03  0.22521843718E+03 -0.35554754003E+03  0.43451272729E+03  0.25500000920E-02 0.  1.
       -2    1    3    3    0  502  0.10799959490E+03 -0.22521843718E+03  0.52903123508E+03  0.58503102878E+03  0.25500000920E-02 0. -1.
</event>
<event>
 5   0  0.2327595E-03  0.1001606E+04  0.7818609E-02  0.9306785E-01
        1   -1    0    0  501    0  0.00000000000E+00  0.00000000000E+00  0.74423116555E+03  0.74423116557E+03  0.50400001928E-02 0.  1.
       -1   -1    0    0    0  501  0.00000000000E+00  0.00000000000E+00 -0.33699703118E+03  0.33699703122E+03  0.50400001928E-02 0. -1.
    10030    2    1    2    0    0  0.00000000000E+00  0.00000000000E+00  0.40723413437E+03  0.10812281968E+04  0.10016060969E+04 0.  0.
        5    1    3    3  502    0 -0.21296627754E+03  0.45315922671E+03  0.19435080309E+03  0.53712404971E+03  0.46999998093E+01 0. -1.
       -5    1    3    3    0  502  0.21296627754E+03 -0.45315922671E+03  0.21288333129E+03  0.54410414707E+03  0.46999998093E+01 0.  1.
</event>
<event>
 5   0  0.3895011E-03  0.1002640E+04  0.7818609E-02  0.9305654E-01
       -2   -1    0    0    0  501  0.00000000000E+00  0.00000000000E+00  0.28627258628E+03  0.28627258629E+03  0.25500000920E-02 0. -1.
        2   -1    0    0  501    0  0.00000000000E+00  0.00000000000E+00 -0.87791099779E+03  0.87791099780E+03  0.25500000920E-02 0.  1.
    10030    2    1    2    0    0  0.00000000000E+00  0.00000000000E+00 -0.59163841151E+03  0.11641835841E+04  0.10026402184E+04 0.  0.
        2    1    3    3  502    0  0.41814712931E+02  0.25001496845E+03  0.20637726977E+03  0.32687540769E+03  0.25500000920E-02 0. -1.
       -2    1    3    3    0  502 -0.41814712931E+02 -0.25001496845E+03 -0.79801568129E+03  0.83730817639E+03  0.25500000920E-02 0.  1.
</event>
<event>
 5   0  0.2313036E-03  0.9984998E+03  0.7818609E-02  0.9310192E-01
       -1   -1    0    0    0  501  0.00000000000E+00  0.00000000000E+00  0.38755843634E+03  0.38755843637E+03  0.50400001928E-02 0.  1.
        1   -1    0    0  501    0  0.00000000000E+00  0.00000000000E+00 -0.64312999533E+03  0.64312999535E+03  0.50400001928E-02 0. -1.
    10030    2    1    2    0    0  0.00000000000E+00  0.00000000000E+00 -0.25557155900E+03  0.10306884317E+04  0.99849978544E+03 0.  0.
        3    1    3    3  502    0  0.27427422576E+03 -0.38066001551E+02 -0.55659928953E+03  0.62167366898E+03  0.10100000352E+00 0. -1.
       -3    1    3    3    0  502 -0.27427422576E+03  0.38066001551E+02  0.30102773053E+03  0.40901476275E+03  0.10100000352E+00 0.  1.
</event>
<event>
 5   0  0.2405022E-03  0.1001785E+04  0.7818609E-02  0.9306589E-01
       -1   -1    0    0    0  501  0.00000000000E+00  0.00000000000E+00  0.31789169386E+03  0.31789169390E+03  0.50400001928E-02 0.  1.
        1   -1    0    0  501    0  0.00000000000E+00  0.00000000000E+00 -0.78924103557E+03  0.78924103558E+03  0.50400001928E-02 0. -1.
    10030    2    1    2    0    0  0.00000000000E+00  0.00000000000E+00 -0.47134934171E+03  0.11071327295E+04  0.10017847467E+04 0.  0.
        4    1    3    3  502    0  0.28456450505E+03  0.31077561767E+03  0.63603706595E+02  0.42615195232E+03  0.12699999809E+01 0.  1.
       -4    1    3    3    0  502 -0.28456450505E+03 -0.31077561767E+03 -0.53495304830E+03  0.68098077716E+03  0.12699999809E+01 0. -1.
</event>
<event>
 5   0  0.3826483E-03  0.9995034E+03  0.7818609E-02  0.9309090E-01
       -2   -1    0    0    0  501  0.00000000000E+00  0.00000000000E+00  0.47350011455E+03  0.47350011455E+03  0.25500000920E-02 0. -1.
        2   -1    0    0  501    0  0.00000000000E+00  0.00000000000E+00 -0.52745867587E+03  0.52745867588E+03  0.25500000920E-02 0.  1.
    10030    2    1    2    0    0  0.00000000000E+00  0.00000000000E+00 -0.53958561324E+02  0.10009587904E+04  0.99950336357E+03 0.  0.
        4    1    3    3  502    0  0.11183562039E+03  0.33497544678E+03 -0.38109617852E+03  0.51956873089E+03  0.12699999809E+01 0.  1.
       -4    1    3    3    0  502 -0.11183562039E+03 -0.33497544678E+03  0.32713761720E+03  0.48139005954E+03  0.12699999809E+01 0. -1.
</event>
<event>
 5   0  0.1548000E-03  0.9983214E+03  0.7818609E-02  0.9310388E-01
       -3   -1    0    0    0  501  0.00000000000E+00  0.00000000000E+00  0.25277223716E+03  0.25277225733E+03  0.10100000352E+00 0.  1.
        3   -1    0    0  501    0  0.00000000000E+00  0.00000000000E+00 -0.98571500097E+03  0.98571500614E+03  0.10100000352E+00 0. -1.
    10030    2    1    2    0    0  0.00000000000E+00  0.00000000000E+00 -0.73294276382E+03  0.12384872635E+04  0.99832139453E+03 0.  0.
        3    1    3    3  502    0 -0.33561923481E+03  0.71282737265E+02  0.83292693230E+02  0.35307107267E+03  0.10100000352E+00 0. -1.
       -3    1    3    3    0  502  0.33561923481E+03 -0.71282737265E+02 -0.81623545704E+03  0.88541619081E+03  0.10100000352E+00 0.  1.
</event>
<event>
 5   0  0.2405022E-03  0.9985093E+03  0.7818609E-02  0.9310181E-01
        1   -1    0    0  501    0  0.00000000000E+00  0.00000000000E+00  0.14890067273E+04  0.14890067273E+04  0.50400001928E-02 0.  1.
       -1   -1    0    0    0  501  0.00000000000E+00  0.00000000000E+00 -0.16739696808E+03  0.16739696815E+03  0.50400001928E-02 0. -1.
    10030    2    1    2    0    0  0.00000000000E+00  0.00000000000E+00  0.13216097592E+04  0.16564036954E+04  0.99850931225E+03 0.  0.
        4    1    3    3  502    0 -0.18115689934E+03 -0.18662389962E+03  0.13677418886E+04  0.13922520565E+04  0.12699999809E+01 0.  1.
       -4    1    3    3    0  502  0.18115689934E+03  0.18662389962E+03 -0.46132129410E+02  0.26415163893E+03  0.12699999809E+01 0. -1.
</event>
<event>
 5   0  0.2405022E-03  0.9959221E+03  0.7818609E-02  0.9313029E-01
       -1   -1    0    0    0  501  0.00000000000E+00  0.00000000000E+00  0.33226589698E+03  0.33226589702E+03  0.50400001928E-02 0.  1.
        1   -1    0    0  501    0  0.00000000000E+00  0.00000000000E+00 -0.74628549070E+03  0.74628549071E+03  0.50400001928E-02 0. -1.
    10030    2    1    2    0    0  0.00000000000E+00  0.00000000000E+00 -0.41401959372E+03  0.10785513877E+04  0.99592212145E+03 0.  0.
        4    1    3    3  502    0  0.13555484885E+03  0.22157356249E+03  0.25308404447E+03  0.36266114640E+03  0.12699999809E+01 0.  1.
       -4    1    3    3    0  502 -0.13555484885E+03 -0.22157356249E+03 -0.66710363819E+03  0.71589024133E+03  0.12699999809E+01 0. -1.
</event>
<event>
 5   0  0.2378609E-03  0.1001542E+04  0.7818609E-02  0.9306856E-01
        1   -1    0    0  501    0  0.00000000000E+00  0.00000000000E+00  0.10875958213E+04  0.10875958213E+04  0.50400001928E-02 0.  1.
       -1   -1    0    0    0  501  0.00000000000E+00  0.00000000000E+00 -0.23057404497E+03  0.23057404503E+03  0.50400001928E-02 0. -1.
    10030    2    1    2    0    0  0.00000000000E+00  0.00000000000E+00  0.85702177631E+03  0.13181698663E+04  0.10015415475E+04 0.  0.
        1    1    3    3  502    0  0.85856112564E+02 -0.15297730621E+03 -0.18881119724E+03  0.25772659255E+03  0.50400001928E-02 0. -1.
       -1    1    3    3    0  502 -0.85856112564E+02  0.15297730621E+03  0.10458329735E+04  0.10604432738E+04  0.50400001928E-02 0.  1.
</event>
<event>
 5   0  0.4026829E-03  0.9815002E+03  0.7818609E-02  0.9329071E-01
       -2   -1    0    0    0  501  0.00000000000E+00  0.00000000000E+00  0.71846424078E+03  0.71846424078E+03  0.25500000920E-02 0.  1.
        2   -1    0    0  501    0  0.00000000000E+00  0.00000000000E+00 -0.33520898910E+03  0.33520898911E+03  0.25500000920E-02 0. -1.
    10030    2    1    2    0    0  0.00000000000E+00  0.00000000000E+00  0.38325525168E+03  0.10536732299E+04  0.98150022285E+03 0.  0.
        1    1    3    3  502    0  0.78431422455E+02 -0.27879340614E+03  0.61693983863E+03  0.68153651101E+03  0.50400001928E-02 0.  1.
       -1    1    3    3    0  502 -0.78431422455E+02  0.27879340614E+03 -0.23368458695E+03  0.37213671888E+03  0.50400001928E-02 0. -1.
</event>
<event>
 5   0  0.2313036E-03  0.9979739E+03  0.7818609E-02  0.9310770E-01
        1   -1    0    0  501    0  0.00000000000E+00  0.00000000000E+00  0.66206315957E+03  0.66206315959E+03  0.50400001928E-02 0.  1.
       -1   -1    0    0    0  501  0.00000000000E+00  0.00000000000E+00 -0.37607887082E+03  0.37607887086E+03  0.50400001928E-02 0. -1.
    10030    2    1    2    0    0  0.00000000000E+00  0.00000000000E+00  0.28598428875E+03  0.10381420304E+04  0.99797387840E+03 0.  0.
        3    1    3    3  502    0 -0.36267257279E+03  0.30740521600E+03 -0.14627462092E+02  0.47565043333E+03  0.10100000352E+00 0. -1.
       -3    1    3    3    0  502  0.36267257279E+03 -0.30740521600E+03  0.30061175085E+03  0.56249159712E+03  0.10100000352E+00 0.  1.
</event>
<event>
 5   0  0.3895011E-03  0.1027119E+04  0.7818609E-02  0.9279291E-01
       -2   -1    0    0    0  501  0.00000000000E+00  0.00000000000E+00  0.53690808783E+03  0.53690808784E+03  0.25500000920E-02 0. -1.
        2   -1    0    0  501    0  0.00000000000E+00  0.00000000000E+00 -0.49122608716E+03  0.49122608717E+03  0.25500000920E-02 0.  1.
    10030    2    1    2    0    0  0.00000000000E+00  0.00000000000E+00  0.45682000673E+02  0.10281341750E+04  0.10271188036E+04 0.  0.
        2    1    3    3  502    0 -0.46243865885E+03  0.21280445426E+03 -0.45108431708E+02  0.51104796210E+03  0.25500000920E-02 0. -1.
       -2    1    3    3    0  502  0.46243865885E+03 -0.21280445426E+03  0.90790432381E+02  0.51708621290E+03  0.25500000920E-02 0.  1.
</event>
<event>
 5   0  0.4140860E-03  0.9986427E+03  0.7818609E-02  0.9310035E-01
        2   -1    0    0  501    0  0.00000000000E+00  0.00000000000E+00  0.10732251956E+04  0.10732251956E+04  0.25500000920E-02 0.  1.
       -2   -1    0    0    0  501  0.00000000000E+00  0.00000000000E+00 -0.23231081865E+03  0.23231081866E+03  0.25500000920E-02 0. -1.
    10030    2    1    2    0    0  0.00000000000E+00  0.00000000000E+00  0.84091437697E+03  0.13055360143E+04  0.99864272650E+03 0.  0.
        3    1    3    3  502    0 -0.13455868081E+03 -0.19716806348E+03 -0.15288528725E+03  0.28346993685E+03  0.10100000352E+00 0. -1.
       -3    1    3    3    0  502  0.13455868081E+03  0.19716806348E+03  0.99379966422E+03  0.10220660774E+04  0.10100000352E+00 0.  1.
</event>
<event>
 5   0  0.1548000E-03  0.1013789E+04  0.7818609E-02  0.9293550E-01
       -3   -1    0    0    0  501  0.00000000000E+00  0.00000000000E+00  0.32609744571E+03  0.32609746135E+03  0.10100000352E+00 0. -1.
        3   -1    0    0  501    0  0.00000000000E+00  0.00000000000E+00 -0.78792973523E+03  0.78792974170E+03  0.10100000352E+00 0.  1.
    10030    2    1    2    0    0  0.00000000000E+00  0.00000000000E+00 -0.46183228952E+03  0.11140272030E+04  0.10137887085E+04 0.  0.
        4    1    3    3  502    0 -0.18616097664E+03  0.34401752722E+03  0.12335190226E+03  0.41014786717E+03  0.12699999809E+01 0. -1.
       -4    1    3    3    0  502  0.18616097664E+03 -0.34401752722E+03 -0.58518419179E+03  0.70387933587E+03  0.12699999809E+01 0.  1.
</event>
<event>
 5   0  0.2327595E-03  0.1005514E+04  0.7818609E-02  0.9302518E-01
        1   -1    0    0  501    0  0.00000000000E+00  0.00000000000E+00  0.44487374760E+03  0.44487374763E+03  0.50400001928E-02 0. -1.
       -1   -1    0    0    0  501  0.00000000000E+00  0.00000000000E+00 -0.56817125952E+03  0.56817125954E+03  0.50400001928E-02 0.  1.
    10030    2    1    2    0    0  0.00000000000E+00  0.00000000000E+00 -0.12329751191E+03  0.10130450072E+04  0.10055137543E+04 0.  0.
        5    1    3    3  502    0  0.20544255497E+03  0.24394241452E+03 -0.45318253308E+03  0.55417600388E+03  0.46999998093E+01 0.  1.
       -5    1    3    3    0  502 -0.20544255497E+03 -0.24394241452E+03  0.32988502116E+03  0.45886900329E+03  0.46999998093E+01 0. -1.
</event>
<event>
 5   0  0.3826483E-03  0.1010467E+04  0.7818609E-02  0.9297139E-01
       -2   -1    0    0    0  501  0.00000000000E+00  0.00000000000E+00  0.20978965549E+03  0.20978965551E+03  0.25500000920E-02 0. -1.
        2   -1    0    0  501    0  0.00000000000E+00  0.00000000000E+00 -0.12167460662E+04  0.12167460662E+04  0.25500000920E-02 0.  1.
    10030    2    1    2    0    0  0.00000000000E+00  0.00000000000E+00 -0.10069564107E+04  0.14265357217E+04  0.10104667002E+04 0.  0.
        4    1    3    3  502    0 -0.37933093779E+03  0.21410609197E+03 -0.14209610901E+03  0.45817714487E+03  0.12699999809E+01 0. -1.
       -4    1    3    3    0  502  0.37933093779E+03 -0.21410609197E+03 -0.86486030168E+03  0.96835857682E+03  0.12699999809E+01 0.  1.
</event>
<event>
 5   0  0.3826483E-03  0.9958383E+03  0.7818609E-02  0.9313121E-01
        2   -1    0    0  501    0  0.00000000000E+00  0.00000000000E+00  0.34739538148E+03  0.34739538149E+03  0.25500000920E-02 0. -1.
       -2   -1    0    0    0  501  0.00000000000E+00  0.00000000000E+00 -0.71366374380E+03  0.71366374380E+03  0.25500000920E-02 0.  1.
    10030    2    1    2    0    0  0.00000000000E+00  0.00000000000E+00 -0.36626836232E+03  0.10610591253E+04  0.99583831726E+03 0.  0.
        4    1    3    3  502    0 -0.29362413278E+03  0.29207936536E+03  0.11136708517E+03  0.42887029225E+03  0.12699999809E+01 0. -1.
       -4    1    3    3    0  502  0.29362413278E+03 -0.29207936536E+03 -0.47763544748E+03  0.63218883303E+03  0.12699999809E+01 0.  1.
</event>
<event>
 5   0  0.3895011E-03  0.9854446E+03  0.7818609E-02  0.9324655E-01
        2   -1    0    0  501    0  0.00000000000E+00  0.00000000000E+00  0.58109217043E+03  0.58109217044E+03  0.25500000920E-02 0. -1.
       -2   -1    0    0    0  501  0.00000000000E+00  0.00000000000E+00 -0.41779130346E+03  0.41779130347E+03  0.25500000920E-02 0.  1.
    10030    2    1    2    0    0  0.00000000000E+00  0.00000000000E+00  0.16330086697E+03  0.99888347391E+03  0.98544458053E+03 0.  0.
        2    1    3    3  502    0 -0.32355593808E+03 -0.26422418708E+03  0.34650360220E+03  0.54274083360E+03  0.25500000920E-02 0. -1.
       -2    1    3    3    0  502  0.32355593808E+03  0.26422418708E+03 -0.18320273523E+03  0.45614264031E+03  0.25500000920E-02 0.  1.
</event>
<event>
 5   0  0.2327595E-03  0.9952475E+03  0.7818609E-02  0.9313773E-01
        1   -1    0    0  501    0  0.00000000000E+00  0.00000000000E+00  0.12594291750E+04  0.12594291751E+04  0.50400001928E-02 0. -1.
       -1   -1    0    0    0  501  0.00000000000E+00  0.00000000000E+00 -0.19662034924E+03  0.19662034930E+03  0.50400001928E-02 0.  1.
    10030    2    1    2    0    0  0.00000000000E+00  0.00000000000E+00  0.10628088258E+04  0.14560495244E+04  0.99524751552E+03 0.  0.
        5    1    3    3  502    0  0.54673571318E+02 -0.37830013112E+03  0.65289165300E+02  0.38779498928E+03  0.46999998093E+01 0.  1.
       -5    1    3    3    0  502 -0.54673571318E+02  0.37830013112E+03  0.99751966051E+03  0.10682545351E+04  0.46999998093E+01 0. -1.
</event>
<event>
 5   0  0.4140860E-03  0.9966892E+03  0.7818609E-02  0.9312183E-01
        2   -1    0    0  501    0  0.00000000000E+00  0.00000000000E+00  0.75290381966E+03  0.75290381966E+03  0.25500000920E-02 0. -1.
       -2   -1    0    0    0  501  0.00000000000E+00  0.00000000000E+00 -0.32985268257E+03  0.32985268258E+03  0.25500000920E-02 0.  1.
    10030    2    1    2    0    0  0.00000000000E+00  0.00000000000E+00  0.42305113708E+03  0.10827565022E+04  0.99668920861E+03 0.  0.
        3    1    3    3  502    0  0.23394953699E+03 -0.99138004775E+02  0.67724887441E+03  0.72334416285E+03  0.10100000352E+00 0. -1.
       -3    1    3    3    0  502 -0.23394953699E+03  0.99138004775E+02 -0.25419773732E+03  0.35941233939E+03  0.10100000352E+00 0.  1.
</event>
<event>
 5   0  0.2327595E-03  0.9948166E+03  0.7818609E-02  0.9314248E-01
        1   -1    0    0  501    0  0.00000000000E+00  0.00000000000E+00  0.53086977619E+03  0.53086977622E+03  0.50400001928E-02 0.  1.
       -1   -1    0    0    0  501  0.00000000000E+00  0.00000000000E+00 -0.46605596536E+03  0.46605596539E+03  0.50400001928E-02 0. -1.
    10030    2    1    2    0    0  0.00000000000E+00  0.00000000000E+00  0.64813810834E+02  0.99692574160E+03  0.99481661837E+03 0.  0.
        5    1    3    3  502    0  0.37694592906E+03  0.32308785434E+03  0.20285966351E+01  0.49648786516E+03  0.46999998093E+01 0. -1.
       -5    1    3    3    0  502 -0.37694592906E+03 -0.32308785434E+03  0.62785214199E+02  0.50043787644E+03  0.46999998093E+01 0.  1.
</event>
<event>
 5   0  0.2313036E-03  0.9777305E+03  0.7818609E-02  0.9333313E-01
       -1   -1    0    0    0  501  0.00000000000E+00  0.00000000000E+00  0.52780290342E+03  0.52780290344E+03  0.50400001928E-02 0.  1.
        1   -1    0    0  501    0  0.00000000000E+00  0.00000000000E+00 -0.45280014940E+03  0.45280014942E+03  0.50400001928E-02 0. -1.
    10030    2    1    2    0    0  0.00000000000E+00  0.00000000000E+00  0.75002754020E+02  0.98060305286E+03  0.97773050181E+03 0.  0.
        3    1    3    3  502    0 -0.86847428654E+02 -0.47083035966E+03  0.13661235504E+03  0.49788216396E+03  0.10100000352E+00 0. -1.
       -3    1    3    3    0  502  0.86847428654E+02  0.47083035966E+03 -0.61609601016E+02  0.48272088890E+03  0.10100000352E+00 0.  1.
</event>
<event>
 5   0  0.1548000E-03  0.1000636E+04  0.7818609E-02  0.9307848E-01
        3   -1    0    0  501    0  0.00000000000E+00  0.00000000000E+00  0.18126167844E+03  0.18126170658E+03  0.10100000352E+00 0.  1.
       -3   -1    0    0    0  501  0.00000000000E+00  0.00000000000E+00 -0.13809750010E+04  0.13809750047E+04  0.10100000352E+00 0. -1.
    10030    2    1    2    0    0  0.00000000000E+00  0.00000000000E+00 -0.11997133226E+04  0.15622367113E+04  0.10006355409E+04 0.  0.
        2    1    3    3  502    0 -0.49972434826E+03  0.18449939730E+02 -0.62469207737E+03  0.80019061232E+03  0.25500000920E-02 0. -1.
       -2    1    3    3    0  502  0.49972434826E+03 -0.18449939730E+02 -0.57502124523E+03  0.76204609900E+03  0.25500000920E-02 0.  1.
</event>
<event>
 5   0  0.3826483E-03  0.1027666E+04  0.7818609E-02  0.9278711E-01
        2   -1    0    0  501    0  0.00000000000E+00  0.00000000000E+00  0.28287026230E+04  0.28287026230E+04  0.25500000920E-02 0.  1.
       -2   -1    0    0    0  501  0.00000000000E+00  0.00000000000E+00 -0.93337603740E+02  0.93337603775E+02  0.25500000920E-02 0. -1.
    10030    2    1    2    0    0  0.00000000000E+00  0.00000000000E+00  0.27353650193E+04  0.29220402268E+04  0.10276659469E+04 0.  0.
        4    1    3    3  502    0  0.43608574411E+03 -0.22792151164E+03  0.94686561801E+03  0.10670872050E+04  0.12699999809E+01 0. -1.
       -4    1    3    3    0  502 -0.43608574411E+03  0.22792151164E+03  0.17884994013E+04  0.18549530218E+04  0.12699999809E+01 0.  1.
</event>
<event>
 5   0  0.2405022E-03  0.1005986E+04  0.7818609E-02  0.9302004E-01
       -1   -1    0    0    0  501  0.00000000000E+00  0.00000000000E+00  0.88181416286E+03  0.88181416287E+03  0.50400001928E-02 0.  1.
        1   -1    0    0  501    0  0.00000000000E+00  0.00000000000E+00 -0.28691046308E+03  0.28691046312E+03  0.50400001928E-02 0. -1.
    10030    2    1    2    0    0  0.00000000000E+00  0.00000000000E+00  0.59490369978E+03  0.11687246260E+04  0.10059855065E+04 0.  0.
        4    1    3    3  502    0 -0.36210301968E+03  0.76197673060E+02 -0.98361641604E+02  0.38288550205E+03  0.12699999809E+01 0. -1.
       -4    1    3    3    0  502  0.36210301968E+03 -0.76197673060E+02  0.69326534139E+03  0.78583912394E+03  0.12699999809E+01 0.  1.
</event>
<event>
 5   0  0.2313036E-03  0.9941863E+03  0.7818609E-02  0.9314944E-01
       -1   -1    0    0    0  501  0.00000000000E+00  0.00000000000E+00  0.20112861830E+03  0.20112861836E+03  0.50400001928E-02 0.  1.
        1   -1    0    0  501    0  0.00000000000E+00  0.00000000000E+00 -0.12285751212E+04  0.12285751212E+04  0.50400001928E-02 0. -1.
    10030    2    1    2    0    0  0.00000000000E+00  0.00000000000E+00 -0.10274465029E+04  0.14297037396E+04  0.99418633395E+03 0.  0.
        3    1    3    3  502    0  0.34188719766E+03 -0.35318419698E+03 -0.40730967551E+03  0.63837850440E+03  0.10100000352E+00 0.  1.
       -3    1    3    3    0  502 -0.34188719766E+03  0.35318419698E+03 -0.62013682740E+03  0.79132523517E+03  0.10100000352E+00 0. -1.
</event>
<event>
 5   0  0.3895011E-03  0.9989177E+03  0.7818609E-02  0.9309733E-01
       -2   -1    0    0    0  501  0.00000000000E+00  0.00000000000E+00  0.15902470157E+03  0.15902470159E+03  0.25500000920E-02 0. -1.
        2   -1    0    0  501    0  0.00000000000E+00  0.00000000000E+00 -0.15686816293E+04  0.15686816293E+04  0.25500000920E-02 0.  1.
    10030    2    1    2    0    0  0.00000000000E+00  0.00000000000E+00 -0.14096569277E+04  0.17277063309E+04  0.99891767023E+03 0.  0.
        2    1    3    3  502    0  0.39161988654E+03  0.36689956798E+02 -0.12372095220E+04  0.12982294442E+04  0.25500000920E-02 0. -1.
       -2    1    3    3    0  502 -0.39161988654E+03 -0.36689956798E+02 -0.17244740577E+03  0.42947688672E+03  0.25500000920E-02 0.  1.
</event>
<event>
 5   0  0.2313036E-03  0.1000670E+04  0.7818609E-02  0.9307811E-01
        1   -1    0    0  501    0  0.00000000000E+00  0.00000000000E+00  0.35707612498E+03  0.35707612502E+03  0.50400001928E-02 0.  1.
       -1   -1    0    0    0  501  0.00000000000E+00  0.00000000000E+00 -0.70106883629E+03  0.70106883630E+03  0.50400001928E-02 0. -1.
    10030    2    1    2    0    0  0.00000000000E+00  0.00000000000E+00 -0.34399271131E+03  0.10581449613E+04  0.10006696626E+04 0.  0.
        3    1    3    3  502    0 -0.13038091369E+02  0.49862812178E+03 -0.21342491149E+03  0.54254050420E+03  0.10100000352E+00 0.  1.
       -3    1    3    3    0  502  0.13038091369E+02 -0.49862812178E+03 -0.13056779981E+03  0.51560445712E+03  0.10100000352E+00 0. -1.
</event>
<event>
 5   0  0.3826483E-03  0.1016993E+04  0.7818609E-02  0.9290101E-01
        2   -1    0    0  501    0  0.00000000000E+00  0.00000000000E+00  0.14579756260E+04  0.14579756260E+04  0.25500000920E-02 0.  1.
       -2   -1    0    0    0  501  0.00000000000E+00  0.00000000000E+00 -0.17734776854E+03  0.17734776856E+03  0.25500000920E-02 0. -1.
    10030    2    1    2    0    0  0.00000000000E+00  0.00000000000E+00  0.12806278574E+04  0.16353233945E+04  0.10169930656E+04 0.  0.
        4    1    3    3  502    0  0.73543218091E+02 -0.48624275493E+02 -0.16496139311E+03  0.18704758542E+03  0.12699999809E+01 0. -1.
       -4    1    3    3    0  502 -0.73543218091E+02  0.48624275493E+02  0.14455892505E+04  0.14482758091E+04  0.12699999809E+01 0.  1.
</event>
<event>
 5   0  0.4026829E-03  0.1003598E+04  0.7818609E-02  0.9304607E-01
       -2   -1    0    0    0  501  0.00000000000E+00  0.00000000000E+00  0.35413873411E+03  0.35413873412E+03  0.25500000920E-02 0. -1.
        2   -1    0    0  501    0  0.00000000000E+00  0.00000000000E+00 -0.71102729841E+03  0.71102729842E+03  0.25500000920E-02 0.  1.
    10030    2    1    2    0    0  0.00000000000E+00  0.00000000000E+00 -0.35688856431E+03  0.10651660325E+04  0.10035981415E+04 0.  0.
        1    1    3    3  502    0 -0.16503842803E+03 -0.35121642008E+03 -0.51609891635E+03  0.64571568662E+03  0.50400001928E-02 0. -1.
       -1    1    3    3    0  502  0.16503842803E+03  0.35121642008E+03  0.15921035205E+03  0.41945034591E+03  0.50400001928E-02 0.  1.
</event>
<event>
 5   0  0.4026829E-03  0.9966975E+03  0.7818609E-02  0.9312174E-01
       -2   -1    0    0    0  501  0.00000000000E+00  0.00000000000E+00  0.93086964703E+02  0.93086964738E+02  0.25500000920E-02 0. -1.
        2   -1    0    0  501    0  0.00000000000E+00  0.00000000000E+00 -0.26679510652E+04  0.26679510652E+04  0.25500000920E-02 0.  1.
    10030    2    1    2    0    0  0.00000000000E+00  0.00000000000E+00 -0.25748641005E+04  0.27610380299E+04  0.99669748005E+03 0.  0.
        1    1    3    3  502    0 -0.29876972953E+03 -0.21402209212E+02 -0.18411133146E+03  0.35159406742E+03  0.50400001928E-02 0. -1.
       -1    1    3    3    0  502  0.29876972953E+03  0.21402209212E+02 -0.23907527690E+04  0.24094439625E+04  0.50400001928E-02 0.  1.
</event>
<event>
 5   0  0.4140860E-03  0.9985108E+03  0.7818609E-02  0.9310180E-01
        2   -1    0    0  501    0  0.00000000000E+00  0.00000000000E+00  0.89059634749E+03  0.89059634749E+03  0.25500000920E-02 0. -1.
       -2   -1    0    0    0  501  0.00000000000E+00  0.00000000000E+00 -0.27987531229E+03  0.27987531230E+03  0.25500000920E-02 0.  1.
    10030    2    1    2    0    0  0.00000000000E+00  0.00000000000E+00  0.61072103520E+03  0.11704716598E+04  0.99851075285E+03 0.  0.
        3    1    3    3  502    0  0.48570142572E+03 -0.11326667731E+03  0.33210931507E+03  0.59919264222E+03  0.10100000352E+00 0. -1.
       -3    1    3    3    0  502 -0.48570142572E+03  0.11326667731E+03  0.27861172012E+03  0.57127901758E+03  0.10100000352E+00 0.  1.
</event>
<event>
 5   0  0.3873874E-03  0.9978068E+03  0.7818609E-02  0.9310954E-01
       -2   -1    0    0    0  501  0.00000000000E+00  0.00000000000E+00  0.44022316897E+03  0.44022316898E+03  0.25500000920E-02 0.  1.
        2   -1    0    0  501    0  0.00000000000E+00  0.00000000000E+00 -0.56540552520E+03  0.56540552520E+03  0.25500000920E-02 0. -1.
    10030    2    1    2    0    0  0.00000000000E+00  0.00000000000E+00 -0.12518235623E+03  0.10056286942E+04  0.99780681911E+03 0.  0.
        5    1    3    3  502    0  0.16308425962E+03  0.27680141921E+03  0.32206419916E+03  0.45493179686E+03  0.46999998093E+01 0.  1.
       -5    1    3    3    0  502 -0.16308425962E+03 -0.27680141921E+03 -0.44724655539E+03  0.55069689732E+03  0.46999998093E+01 0. -1.
</event>
<event>
 5   0  0.2313036E-03  0.9894286E+03  0.7818609E-02  0.9320216E-01
       -1   -1    0    0    0  501  0.00000000000E+00  0.00000000000E+00  0.37127941544E+03  0.37127941548E+03  0.50400001928E-02 0.  1.
        1   -1    0    0  501    0  0.00000000000E+00  0.00000000000E+00 -0.65918613118E+03  0.65918613120E+03  0.50400001928E-02 0. -1.
    10030    2    1    2    0    0  0.00000000000E+00  0.00000000000E+00 -0.28790671573E+03  0.10304655467E+04  0.98942860577E+03 0.  0.
        3    1    3    3  502    0  0.35068282862E+03 -0.19973727068E+03 -0.44194785638E+03  0.59849088677E+03  0.10100000352E+00 0. -1.
       -3    1    3    3    0  502 -0.35068282862E+03  0.19973727068E+03  0.15404114065E+03  0.43197465990E+03  0.10100000352E+00 0.  1.
</event>
<event>
 5   0  0.2405022E-03  0.9934255E+03  0.7818609E-02  0.9315785E-01
        1   -1    0    0  501    0  0.00000000000E+00  0.00000000000E+00  0.28790318035E+03  0.28790318039E+03  0.50400001928E-02 0. -1.
       -1   -1    0    0    0  501  0.00000000000E+00  0.00000000000E+00 -0.85696718982E+03  0.85696718983E+03  0.50400001928E-02 0.  1.
    10030    2    1    2    0    0  0.00000000000E+00  0.00000000000E+00 -0.56906400947E+03  0.11448703702E+04  0.99342554716E+03 0.  0.
        4    1    3    3  502    0  0.45131378211E+03 -0.64974245237E+02 -0.57478917744E+02  0.45957722023E+03  0.12699999809E+01 0.  1.
       -4    1    3    3    0  502 -0.45131378211E+03  0.64974245237E+02 -0.51158509172E+03  0.68529315000E+03  0.12699999809E+01 0. -1.
</event>
<event>
 5   0  0.3826483E-03  0.9961340E+03  0.7818609E-02  0.9312795E-01
        2   -1    0    0  501    0  0.00000000000E+00  0.00000000000E+00  0.30460888412E+04  0.30460888412E+04  0.25500000920E-02 0.  1.
       -2   -1    0    0    0  501  0.00000000000E+00  0.00000000000E+00 -0.81439103445E+02  0.81439103485E+02  0.25500000920E-02 0. -1.
    10030    2    1    2    0    0  0.00000000000E+00  0.00000000000E+00  0.29646497378E+04  0.31275279447E+04  0.99613401569E+03 0.  0.
        4    1    3    3  502    0  0.12631074403E+03 -0.24347943933E+03  0.17706759614E+03  0.32648305919E+03  0.12699999809E+01 0. -1.
       -4    1    3    3    0  502 -0.12631074403E+03  0.24347943933E+03  0.27875821416E+04  0.28010448855E+04  0.12699999809E+01 0.  1.
</event>
<event>
 5   0  0.2313036E-03  0.1001910E+04  0.7818609E-02  0.9306453E-01
       -1   -1    0    0    0  501  0.00000000000E+00  0.00000000000E+00  0.49070871556E+03  0.49070871559E+03  0.50400001928E-02 0.  1.
        1   -1    0    0  501    0  0.00000000000E+00  0.00000000000E+00 -0.51141511523E+03  0.51141511525E+03  0.50400001928E-02 0. -1.
    10030    2    1    2    0    0  0.00000000000E+00  0.00000000000E+00 -0.20706399668E+02  0.10021238308E+04  0.10019098848E+04 0.  0.
        3    1    3    3  502    0 -0.53656441708E+02 -0.22501615912E+03  0.43408902525E+03  0.49187862084E+03  0.10100000352E+00 0.  1.
       -3    1    3    3    0  502  0.53656441708E+02  0.22501615912E+03 -0.45479542491E+03  0.51024521000E+03  0.10100000352E+00 0. -1.
</event>
<event>
 5   0  0.2350769E-03  0.9949483E+03  0.7818609E-02  0.9314103E-01
        1   -1    0    0  501    0  0.00000000000E+00  0.00000000000E+00  0.23888103648E+03  0.23888103653E+03  0.50400001928E-02 0.  1.
       -1   -1    0    0    0  501  0.00000000000E+00  0.00000000000E+00 -0.10359991108E+04  0.10359991108E+04  0.50400001928E-02 0. -1.
    10030    2    1    2    0    0  0.00000000000E+00  0.00000000000E+00 -0.79711807435E+03  0.12748801474E+04  0.99494832314E+03 0.  0.
        2    1    3    3  502    0 -0.12267149385E+03 -0.33786456111E+03 -0.83923980344E+03  0.91297546776E+03  0.25500000920E-02 0. -1.
       -2    1    3    3    0  502  0.12267149385E+03  0.33786456111E+03  0.42121729088E+02  0.36190467961E+03  0.25500000920E-02 0.  1.
</event>
<event>
 5   0  0.2313036E-03  0.1001615E+04  0.7818609E-02  0.9306775E-01
        1   -1    0    0  501    0  0.00000000000E+00  0.00000000000E+00  0.72070599846E+03  0.72070599848E+03  0.50400001928E-02 0.  1.
       -1   -1    0    0    0  501  0.00000000000E+00  0.00000000000E+00 -0.34800353496E+03  0.34800353500E+03  0.50400001928E-02 0. -1.
    10030    2    1    2    0    0  0.00000000000E+00  0.00000000000E+00  0.37270246351E+03  0.10687095335E+04  0.10016151659E+04 0.  0.
        3    1    3    3  502    0  0.30223072905E+03  0.25616990029E+03  0.51320759303E+03  0.64834286850E+03  0.10100000352E+00 0.  1.
       -3    1    3    3    0  502 -0.30223072905E+03 -0.25616990029E+03 -0.14050512952E+03  0.42036666497E+03  0.10100000352E+00 0. -1.
</event>
<event>
 5   0  0.2313036E-03  0.9964929E+03  0.7818609E-02  0.9312400E-01
       -1   -1    0    0    0  501  0.00000000000E+00  0.00000000000E+00  0.31549168571E+03  0.31549168575E+03  0.50400001928E-02 0.  1.
        1   -1    0    0  501    0  0.00000000000E+00  0.00000000000E+00 -0.78686552715E+03  0.78686552717E+03  0.50400001928E-02 0. -1.
    10030    2    1    2    0    0  0.00000000000E+00  0.00000000000E+00 -0.47137384144E+03  0.11023572129E+04  0.99649291341E+03 0.  0.
        3    1    3    3  502    0 -0.12796940071E+03 -0.47777168292E+03 -0.30213090880E+03  0.57959041121E+03  0.10100000352E+00 0.  1.
       -3    1    3    3    0  502  0.12796940071E+03  0.47777168292E+03 -0.16924293264E+03  0.52276680171E+03  0.10100000352E+00 0. -1.
</event>
<event>
 5   0  0.2327595E-03  0.1009617E+04  0.7818609E-02  0.9298059E-01
        1   -1    0    0  501    0  0.00000000000E+00  0.00000000000E+00  0.34322267712E+03  0.34322267716E+03  0.50400001928E-02 0. -1.
       -1   -1    0    0    0  501  0.00000000000E+00  0.00000000000E+00 -0.74246771036E+03  0.74246771037E+03  0.50400001928E-02 0.  1.
    10030    2    1    2    0    0  0.00000000000E+00  0.00000000000E+00 -0.39924503324E+03  0.10856903875E+04  0.10096172646E+04 0.  0.
        5    1    3    3  502    0 -0.46688511971E+03  0.48736217231E+02 -0.39922275390E+03  0.61624494408E+03  0.46999998093E+01 0.  1.
       -5    1    3    3    0  502  0.46688511971E+03 -0.48736217231E+02 -0.22279338179E-01  0.46944544345E+03  0.46999998093E+01 0. -1.
</event>
<event>
 5   0  0.2350769E-03  0.9980318E+03  0.7818609E-02  0.9310706E-01
       -1   -1    0    0    0  501  0.00000000000E+00  0.00000000000E+00  0.28843710904E+03  0.28843710909E+03  0.50400001928E-02 0. -1.
        1   -1    0    0  501    0  0.00000000000E+00  0.00000000000E+00 -0.86333163598E+03  0.86333163599E+03  0.50400001928E-02 0.  1.
    10030    2    1    2    0    0  0.00000000000E+00  0.00000000000E+00 -0.57489452694E+03  0.11517687451E+04  0.99803182566E+03 0.  0.
        2    1    3    3  502    0  0.12965676990E+03  0.19975834893E+03  0.21862610389E+03  0.32328261514E+03  0.25500000920E-02 0. -1.
       -2    1    3    3    0  502 -0.12965676990E+03 -0.19975834893E+03 -0.79352063082E+03  0.82848612993E+03  0.25500000920E-02 0.  1.
</event>
<event>
 5   0  0.1548000E-03  0.1047335E+04  0.7818609E-02  0.9258100E-01
       -3   -1    0    0    0  501  0.00000000000E+00  0.00000000000E+00  0.19583206672E+03  0.19583209277E+03  0.10100000352E+00 0. -1.
        3   -1    0    0  501    0  0.00000000000E+00  0.00000000000E+00 -0.14003197930E+04  0.14003197966E+04  0.10100000352E+00 0.  1.
    10030    2    1    2    0    0  0.00000000000E+00  0.00000000000E+00 -0.12044877262E+04  0.15961518894E+04  0.10473347943E+04 0.  0.
        1    1    3    3  502    0  0.46758890386E+03  0.51641703250E+02 -0.25165032034E+03  0.53351113604E+03  0.50400001928E-02 0. -1.
       -1    1    3    3    0  502 -0.46758890386E+03 -0.51641703250E+02 -0.95283740590E+03  0.10626407533E+04  0.50400001928E-02 0.  1.
</event>
<event>
 5   0  0.1548000E-03  0.9977360E+03  0.7818609E-02  0.9311031E-01
        4   -1    0    0  501    0  0.00000000000E+00  0.00000000000E+00  0.42663677079E+03  0.42663866104E+03  0.12699999809E+01 0.  1.
       -4   -1    0    0    0  501  0.00000000000E+00  0.00000000000E+00 -0.58332433129E+03  0.58332571380E+03  0.12699999809E+01 0. -1.
    10030    2    1    2    0    0  0.00000000000E+00  0.00000000000E+00 -0.15668756050E+03  0.10099643748E+04  0.99773596048E+03 0.  0.
        1    1    3    3  502    0  0.34563329457E+03 -0.32906742494E+03  0.68769874646E+02  0.48215872921E+03  0.50400001928E-02 0.  1.
       -1    1    3    3    0  502 -0.34563329457E+03  0.32906742494E+03 -0.22545743515E+03  0.52780564563E+03  0.50400001928E-02 0. -1.
</event>
<event>
 5   0  0.3873874E-03  0.1006398E+04  0.7818609E-02  0.9301555E-01
       -2   -1    0    0    0  501  0.00000000000E+00  0.00000000000E+00  0.13282737644E+03  0.13282737646E+03  0.25500000920E-02 0. -1.
        2   -1    0    0  501    0  0.00000000000E+00  0.00000000000E+00 -0.19063025246E+04  0.19063025246E+04  0.25500000920E-02 0.  1.
    10030    2    1    2    0    0  0.00000000000E+00  0.00000000000E+00 -0.17734751482E+04  0.20391299011E+04  0.10063978598E+04 0.  0.
        5    1    3    3  502    0 -0.95349296402E+00  0.18653829796E+03  0.60134246849E+02  0.19605015531E+03  0.46999998093E+01 0. -1.
       -5    1    3    3    0  502  0.95349296402E+00 -0.18653829796E+03 -0.18336093950E+04  0.18430797458E+04  0.46999998093E+01 0.  1.
</event>
<event>
 5   0  0.2313036E-03  0.1001523E+04  0.7818609E-02  0.9306876E-01
       -1   -1    0    0    0  501  0.00000000000E+00  0.00000000000E+00  0.89481129630E+03  0.89481129632E+03  0.50400001928E-02 0. -1.
        1   -1    0    0  501    0  0.00000000000E+00  0.00000000000E+00 -0.28024027583E+03  0.28024027587E+03  0.50400001928E-02 0.  1.
    10030    2    1    2    0    0  0.00000000000E+00  0.00000000000E+00  0.61457102048E+03  0.11750515722E+04  0.10015231690E+04 0.  0.
        3    1    3    3  502    0 -0.29130694707E+03 -0.40589715371E+03  0.34707141814E+03  0.60833446088E+03  0.10100000352E+00 0. -1.
       -3    1    3    3    0  502  0.29130694707E+03  0.40589715371E+03  0.26749960233E+03  0.56671711131E+03  0.10100000352E+00 0.  1.
</event>
<event>
 5   0  0.3873874E-03  0.9947629E+03  0.7818609E-02  0.9314307E-01
       -2   -1    0    0    0  501  0.00000000000E+00  0.00000000000E+00  0.18158222603E+03  0.18158222605E+03  0.25500000920E-02 0. -1.
        2   -1    0    0  501    0  0.00000000000E+00  0.00000000000E+00 -0.13624038227E+04  0.13624038227E+04  0.25500000920E-02 0.  1.
    10030    2    1    2    0    0  0.00000000000E+00  0.00000000000E+00 -0.11808215966E+04  0.15439860487E+04  0.99476292430E+03 0.  0.
        5    1    3    3  502    0  0.70324239328E+02  0.34764365863E+03 -0.49248697259E+02  0.35811888557E+03  0.46999998093E+01 0. -1.
       -5    1    3    3    0  502 -0.70324239328E+02 -0.34764365863E+03 -0.11315728994E+04  0.11858671632E+04  0.46999998093E+01 0.  1.
</event>
<event>
 5   0  0.2313036E-03  0.1005047E+04  0.7818609E-02  0.9303027E-01
       -1   -1    0    0    0  501  0.00000000000E+00  0.00000000000E+00  0.78442656892E+03  0.78442656894E+03  0.50400001928E-02 0. -1.
        1   -1    0    0  501    0  0.00000000000E+00  0.00000000000E+00 -0.32192899177E+03  0.32192899181E+03  0.50400001928E-02 0.  1.
    10030    2    1    2    0    0  0.00000000000E+00  0.00000000000E+00  0.46249757715E+03  0.11063555607E+04  0.10050465750E+04 0.  0.
        3    1    3    3  502    0 -0.22441248596E+03 -0.16680459025E+03  0.69088387183E+03  0.74532225899E+03  0.10100000352E+00 0. -1.
       -3    1    3    3    0  502  0.22441248596E+03  0.16680459025E+03 -0.22838629468E+03  0.36103330176E+03  0.10100000352E+00 0.  1.
</event>
<event>
 5   0  0.3826483E-03  0.1002200E+04  0.7818609E-02  0.9306135E-01
       -2   -1    0    0    0  501  0.00000000000E+00  0.00000000000E+00  0.17510448929E+03  0.17510448931E+03  0.25500000920E-02 0.  1.
        2   -1    0    0  501    0  0.00000000000E+00  0.00000000000E+00 -0.14340075561E+04  0.14340075561E+04  0.25500000920E-02 0. -1.
    10030    2    1    2    0    0  0.00000000000E+00  0.00000000000E+00 -0.12589030668E+04  0.16091120454E+04  0.10021999018E+04 0.  0.
        4    1    3    3  502    0  0.24583038704E+03  0.95880510731E+02  0.54521551313E+02  0.26944361931E+03  0.12699999809E+01 0.  1.
       -4    1    3    3    0  502 -0.24583038704E+03 -0.95880510731E+02 -0.13134246181E+04  0.13396684261E+04  0.12699999809E+01 0. -1.
</event>
<event>
 5   0  0.2405022E-03  0.9905760E+03  0.7818609E-02  0.9318942E-01
       -1   -1    0    0    0  501  0.00000000000E+00  0.00000000000E+00  0.17262468795E+03  0.17262468802E+03  0.50400001928E-02 0.  1.
        1   -1    0    0  501    0  0.00000000000E+00  0.00000000000E+00 -0.14210610898E+04  0.14210610898E+04  0.50400001928E-02 0. -1.
    10030    2    1    2    0    0  0.00000000000E+00  0.00000000000E+00 -0.12484364019E+04  0.15936857779E+04  0.99057604909E+03 0.  0.
        4    1    3    3  502    0  0.54578883446E+02 -0.36301202650E+03 -0.11591497739E+04  0.12158891385E+04  0.12699999809E+01 0. -1.
       -4    1    3    3    0  502 -0.54578883446E+02  0.36301202650E+03 -0.89286628027E+02  0.37779663940E+03  0.12699999809E+01 0.  1.
</event>
<event>
 5   0  0.3826483E-03  0.1024937E+04  0.7818609E-02  0.9281610E-01
        2   -1    0    0  501    0  0.00000000000E+00  0.00000000000E+00  0.27663978011E+03  0.27663978012E+03  0.25500000920E-02 0.  1.
       -2   -1    0    0    0  501  0.00000000000E+00  0.00000000000E+00 -0.94933464716E+03  0.94933464717E+03  0.25500000920E-02 0. -1.
    10030    2    1    2    0    0  0.00000000000E+00  0.00000000000E+00 -0.67269486705E+03  0.12259744273E+04  0.10249365406E+04 0.  0.
        4    1    3    3  502    0  0.42928406083E+03 -0.25388279852E+03 -0.19542107545E+03  0.53566061074E+03  0.12699999809E+01 0.  1.
       -4    1    3    3    0  502 -0.42928406083E+03  0.25388279852E+03 -0.47727379160E+03  0.69031381655E+03  0.12699999809E+01 0. -1.
</event>
<event>
 5   0  0.3895011E-03  0.1001099E+04  0.7818609E-02  0.9307341E-01
        2   -1    0    0  501    0  0.00000000000E+00  0.00000000000E+00  0.13474306774E+04  0.13474306774E+04  0.25500000920E-02 0. -1.
       -2   -1    0    0    0  501  0.00000000000E+00  0.00000000000E+00 -0.18594624557E+03  0.18594624559E+03  0.25500000920E-02 0.  1.
    10030    2    1    2    0    0  0.00000000000E+00  0.00000000000E+00  0.11614844318E+04  0.15333769230E+04  0.10010987477E+04 0.  0.
        2    1    3    3  502    0  0.27147546682E+03 -0.19029247605E+03  0.63273211786E+01  0.33158737993E+03  0.25500000920E-02 0.  1.
       -2    1    3    3    0  502 -0.27147546682E+03  0.19029247605E+03  0.11551571107E+04  0.12017895431E+04  0.25500000920E-02 0. -1.
</event>
<event>
 5   0  0.2378609E-03  0.9965858E+03  0.7818609E-02  0.9312297E-01
       -1   -1    0    0    0  501  0.00000000000E+00  0.00000000000E+00  0.84845675081E+03  0.84845675083E+03  0.50400001928E-02 0. -1.
        1   -1    0    0  501    0  0.00000000000E+00  0.00000000000E+00 -0.29264402111E+03  0.29264402115E+03  0.50400001928E-02 0.  1.
    10030    2    1    2    0    0  0.00000000000E+00  0.00000000000E+00  0.55581272971E+03  0.11411007720E+04  0.99658576214E+03 0.  0.
        1    1    3    3  502    0  0.29888724277E+03 -0.89177068990E+02 -0.16704412408E+03  0.35382180959E+03  0.50400001928E-02 0.  1.
       -1    1    3    3    0  502 -0.29888724277E+03  0.89177068990E+02  0.72285685379E+03  0.78727896239E+03  0.50400001928E-02 0. -1.
</event>
<event>
 5   0  0.1548000E-03  0.1000570E+04  0.7818609E-02  0.9307920E-01
        3   -1    0    0  501    0  0.00000000000E+00  0.00000000000E+00  0.34003440556E+03  0.34003442056E+03  0.10100000352E+00 0.  1.
       -3   -1    0    0    0  501  0.00000000000E+00  0.00000000000E+00 -0.73605762486E+03  0.73605763179E+03  0.10100000352E+00 0. -1.
    10030    2    1    2    0    0  0.00000000000E+00  0.00000000000E+00 -0.39602321930E+03  0.10760920523E+04  0.10005696952E+04 0.  0.
        2    1    3    3  502    0 -0.45199911400E+03 -0.12796709615E+03 -0.38306330183E+03  0.60614871935E+03  0.25500000920E-02 0.  1.
       -2    1    3    3    0  502  0.45199911400E+03  0.12796709615E+03 -0.12959917471E+02  0.46994333299E+03  0.25500000920E-02 0. -1.
</event>
<event>
 5   0  0.2378609E-03  0.9982462E+03  0.7818609E-02  0.9310470E-01
        1   -1    0    0  501    0  0.00000000000E+00  0.00000000000E+00  0.54497551084E+03  0.54497551087E+03  0.50400001928E-02 0.  1.
       -1   -1    0    0    0  501  0.00000000000E+00  0.00000000000E+00 -0.45712858186E+03  0.45712858189E+03  0.50400001928E-02 0. -1.
    10030    2    1    2    0    0  0.00000000000E+00  0.00000000000E+00  0.87846928982E+02  0.10021040928E+04  0.99824622703E+03 0.  0.
        1    1    3    3  502    0  0.17248174461E+03  0.15602957256E+03  0.48725071193E+03  0.53991521189E+03  0.50400001928E-02 0.  1.
       -1    1    3    3    0  502 -0.17248174461E+03 -0.15602957256E+03 -0.39940378295E+03  0.46218888086E+03  0.50400001928E-02 0. -1.
</event>
<event>
 5   0  0.3873874E-03  0.1002062E+04  0.7818609E-02  0.9306286E-01
       -2   -1    0    0    0  501  0.00000000000E+00  0.00000000000E+00  0.48965724529E+03  0.48965724529E+03  0.25500000920E-02 0.  1.
        2   -1    0    0  501    0  0.00000000000E+00  0.00000000000E+00 -0.51266941298E+03  0.51266941299E+03  0.25500000920E-02 0. -1.
    10030    2    1    2    0    0  0.00000000000E+00  0.00000000000E+00 -0.23012167694E+02  0.10023266583E+04  0.10020624582E+04 0.  0.
        5    1    3    3  502    0  0.74581446939E+02  0.28029019741E+03 -0.42012966101E+03  0.51054481591E+03  0.46999998093E+01 0. -1.
       -5    1    3    3    0  502 -0.74581446939E+02 -0.28029019741E+03  0.39711749332E+03  0.49178184237E+03  0.46999998093E+01 0.  1.
</event>
<event>
 5   0  0.4140860E-03  0.9973419E+03  0.7818609E-02  0.9311465E-01
        2   -1    0    0  501    0  0.00000000000E+00  0.00000000000E+00  0.51919876349E+03  0.51919876350E+03  0.25500000920E-02 0. -1.
       -2   -1    0    0    0  501  0.00000000000E+00  0.00000000000E+00 -0.47895475831E+03  0.47895475832E+03  0.25500000920E-02 0.  1.
    10030    2    1    2    0    0  0.00000000000E+00  0.00000000000E+00  0.40244005178E+02  0.99815352181E+03  0.99734190384E+03 0.  0.
        3    1    3    3  502    0 -0.10694747035E+03  0.83811669362E+02 -0.46007106815E+03  0.47971611948E+03  0.10100000352E+00 0.  1.
       -3    1    3    3    0  502  0.10694747035E+03 -0.83811669362E+02  0.50031507333E+03  0.51843740233E+03  0.10100000352E+00 0. -1.
</event>
<event>
 5   0  0.3873874E-03  0.1008953E+04  0.7818609E-02  0.9298780E-01
       -2   -1    0    0    0  501  0.00000000000E+00  0.00000000000E+00  0.23520986920E+03  0.23520986922E+03  0.25500000920E-02 0. -1.
        2   -1    0    0  501    0  0.00000000000E+00  0.00000000000E+00 -0.10819971260E+04  0.10819971260E+04  0.25500000920E-02 0.  1.
    10030    2    1    2    0    0  0.00000000000E+00  0.00000000000E+00 -0.84678725684E+03  0.13172069953E+04  0.10089527293E+04 0.  0.
        5    1    3    3  502    0 -0.28573253344E+03 -0.11173770947E+03  0.99378181587E+02  0.32253140833E+03  0.46999998093E+01 0. -1.
       -5    1    3    3    0  502  0.28573253344E+03  0.11173770947E+03 -0.94616543843E+03  0.99467558694E+03  0.46999998093E+01 0.  1.
</event>
<event>
 5   0  0.2350769E-03  0.1003228E+04  0.7818609E-02  0.9305011E-01
        1   -1    0    0  501    0  0.00000000000E+00  0.00000000000E+00  0.37882453696E+03  0.37882453699E+03  0.50400001928E-02 0.  1.
       -1   -1    0    0    0  501  0.00000000000E+00  0.00000000000E+00 -0.66420417207E+03  0.66420417209E+03  0.50400001928E-02 0. -1.
    10030    2    1    2    0    0  0.00000000000E+00  0.00000000000E+00 -0.28537963512E+03  0.10430287091E+04  0.10032284644E+04 0.  0.
        2    1    3    3  502    0  0.81350812068E+02  0.79155195897E+02 -0.65067723138E+03  0.66050311059E+03  0.25500000920E-02 0. -1.
       -2    1    3    3    0  502 -0.81350812068E+02 -0.79155195897E+02  0.36529759626E+03  0.38252559849E+03  0.25500000920E-02 0.  1.
</event>
<event>
 5   0  0.3826483E-03  0.9978786E+03  0.7818609E-02  0.9310875E-01
        2   -1    0    0  501    0  0.00000000000E+00  0.00000000000E+00  0.12579219207E+04  0.12579219207E+04  0.25500000920E-02 0.  1.
       -2   -1    0    0    0  501  0.00000000000E+00  0.00000000000E+00 -0.19789814206E+03  0.19789814208E+03  0.25500000920E-02 0. -1.
    10030    2    1    2    0    0  0.00000000000E+00  0.00000000000E+00  0.10600237787E+04  0.14558200628E+04  0.99787857174E+03 0.  0.
        4    1    3    3  502    0  0.48003686613E+03 -0.87736962556E+02  0.68166630589E+03  0.83833390301E+03  0.12699999809E+01 0.  1.
       -4    1    3    3    0  502 -0.48003686613E+03  0.87736962556E+02  0.37835747278E+03  0.61748615980E+03  0.12699999809E+01 0. -1.
</event>
<event>
 5   0  0.2378609E-03  0.9251359E+03  0.7818609E-02  0.9394695E-01
       -1   -1    0    0    0  501  0.00000000000E+00  0.00000000000E+00  0.27982205938E+03  0.27982205943E+03  0.50400001928E-02 0.  1.
        1   -1    0    0  501    0  0.00000000000E+00  0.00000000000E+00 -0.76466128978E+03  0.76466128980E+03  0.50400001928E-02 0. -1.
    10030    2    1    2    0    0  0.00000000000E+00  0.00000000000E+00 -0.48483923040E+03  0.10444833492E+04  0.92513587515E+03 0.  0.
        1    1    3    3  502    0 -0.22626913995E+03 -0.39722741479E+03 -0.16273267677E+03  0.48525175617E+03  0.50400001928E-02 0. -1.
       -1    1    3    3    0  502  0.22626913995E+03  0.39722741479E+03 -0.32210655363E+03  0.55923159305E+03  0.50400001928E-02 0.  1.
</event>
<event>
 5   0  0.4140860E-03  0.9982531E+03  0.7818609E-02  0.9310463E-01
       -2   -1    0    0    0  501  0.00000000000E+00  0.00000000000E+00  0.17108036433E+03  0.17108036435E+03  0.25500000920E-02 0. -1.
        2   -1    0    0  501    0  0.00000000000E+00  0.00000000000E+00 -0.14562004186E+04  0.14562004186E+04  0.25500000920E-02 0.  1.
    10030    2    1    2    0    0  0.00000000000E+00  0.00000000000E+00 -0.12851200543E+04  0.16272807830E+04  0.99825307048E+03 0.  0.
        3    1    3    3  502    0  0.56250688826E+02  0.29804372451E+03  0.36231709010E+01  0.30332711597E+03  0.10100000352E+00 0. -1.
       -3    1    3    3    0  502 -0.56250688826E+02 -0.29804372451E+03 -0.12887432252E+04  0.13239536670E+04  0.10100000352E+00 0.  1.
</event>
<event>
 5   0  0.2378609E-03  0.9970077E+03  0.7818609E-02  0.9311833E-01
       -1   -1    0    0    0  501  0.00000000000E+00  0.00000000000E+00  0.33033323687E+03  0.33033323691E+03  0.50400001928E-02 0. -1.
        1   -1    0    0  501    0  0.00000000000E+00  0.00000000000E+00 -0.75228901420E+03  0.75228901421E+03  0.50400001928E-02 0.  1.
    10030    2    1    2    0    0  0.00000000000E+00  0.00000000000E+00 -0.42195577732E+03  0.10826222511E+04  0.99700765324E+03 0.  0.
        1    1    3    3  502    0 -0.41273866219E+03  0.81988527590E+02  0.79237903661E+02  0.42819851393E+03  0.50400001928E-02 0. -1.
       -1    1    3    3    0  502  0.41273866219E+03 -0.81988527590E+02 -0.50119368098E+03  0.65442373720E+03  0.50400001928E-02 0.  1.
</event>
<event>
 5   0  0.3873874E-03  0.1003211E+04  0.7818609E-02  0.9305030E-01
        2   -1    0    0  501    0  0.00000000000E+00  0.00000000000E+00  0.11597497061E+04  0.11597497061E+04  0.25500000920E-02 0. -1.
       -2   -1    0    0    0  501  0.00000000000E+00  0.00000000000E+00 -0.21695015087E+03  0.21695015089E+03  0.25500000920E-02 0.  1.
    10030    2    1    2    0    0  0.00000000000E+00  0.00000000000E+00  0.94279955522E+03  0.13766998570E+04  0.10032105935E+04 0.  0.
        5    1    3    3  502    0  0.47931065506E+03 -0.43746124190E+02  0.66514784203E+03  0.82103359809E+03  0.46999998093E+01 0. -1.
       -5    1    3    3    0  502 -0.47931065506E+03  0.43746124190E+02  0.27765171319E+03  0.55566625889E+03  0.46999998093E+01 0.  1.
</event>
<event>
 5   0  0.1548000E-03  0.1000773E+04  0.7818609E-02  0.9307698E-01
       -3   -1    0    0    0  501  0.00000000000E+00  0.00000000000E+00  0.44767071645E+03  0.44767072785E+03  0.10100000352E+00 0. -1.
        3   -1    0    0  501    0  0.00000000000E+00  0.00000000000E+00 -0.55930930833E+03  0.55930931745E+03  0.10100000352E+00 0.  1.
    10030    2    1    2    0    0  0.00000000000E+00  0.00000000000E+00 -0.11163859187E+03  0.10069800453E+04  0.10007725198E+04 0.  0.
        4    1    3    3  502    0  0.38502515197E+03 -0.31594672598E+03 -0.73740574011E+01  0.49811915335E+03  0.12699999809E+01 0. -1.
       -4    1    3    3    0  502 -0.38502515197E+03  0.31594672598E+03 -0.10426453447E+03  0.50886089195E+03  0.12699999809E+01 0.  1.
</event>
<event>
 5   0  0.2405022E-03  0.1001770E+04  0.7818609E-02  0.9306605E-01
       -1   -1    0    0    0  501  0.00000000000E+00  0.00000000000E+00  0.20695852882E+03  0.20695852888E+03  0.50400001928E-02 0. -1.
        1   -1    0    0  501    0  0.00000000000E+00  0.00000000000E+00 -0.12122525094E+04  0.12122525094E+04  0.50400001928E-02 0.  1.
    10030    2    1    2    0    0  0.00000000000E+00  0.00000000000E+00 -0.10052939805E+04  0.14192110382E+04  0.10017704247E+04 0.  0.
        4    1    3    3  502    0 -0.29735883771E+03  0.36004513092E+03 -0.75933857166E+03  0.89143224867E+03  0.12699999809E+01 0.  1.
       -4    1    3    3    0  502  0.29735883771E+03 -0.36004513092E+03 -0.24595540887E+03  0.52777878957E+03  0.12699999809E+01 0. -1.
</event>
<event>
 5   0  0.3895011E-03  0.1004604E+04  0.7818609E-02  0.9303510E-01
        2   -1    0    0  501    0  0.00000000000E+00  0.00000000000E+00  0.20912569284E+03  0.20912569286E+03  0.25500000920E-02 0.  1.
       -2   -1    0    0    0  501  0.00000000000E+00  0.00000000000E+00 -0.12064859199E+04  0.12064859199E+04  0.25500000920E-02 0. -1.
    10030    2    1    2    0    0  0.00000000000E+00  0.00000000000E+00 -0.99736022704E+03  0.14156116128E+04  0.10046038103E+04 0.  0.
        2    1    3    3  502    0  0.17209484749E+03  0.37993222792E+03 -0.10427111429E+03  0.42992743531E+03  0.25500000920E-02 0.  1.
       -2    1    3    3    0  502 -0.17209484749E+03 -0.37993222792E+03 -0.89308911275E+03  0.98568417745E+03  0.25500000920E-02 0. -1.
</event>
<event>
 5   0  0.4140860E-03  0.1007170E+04  0.7818609E-02  0.9300716E-01
       -2   -1    0    0    0  501  0.00000000000E+00  0.00000000000E+00  0.13175707340E+03  0.13175707343E+03  0.25500000920E-02 0. -1.
        2   -1    0    0  501    0  0.00000000000E+00  0.00000000000E+00 -0.19247363621E+04  0.19247363621E+04  0.25500000920E-02 0.  1.
    10030    2    1    2    0    0  0.00000000000E+00  0.00000000000E+00 -0.17929792886E+04  0.20564934355E+04  0.10071695590E+04 0.  0.
        3    1    3    3  502    0 -0.30612981601E+03 -0.11304594122E+03 -0.16796219921E+04  0.17110303608E+04  0.10100000352E+00 0.  1.
       -3    1    3    3    0  502  0.30612981601E+03  0.11304594122E+03 -0.11335729654E+03  0.34546307466E+03  0.10100000352E+00 0. -1.
</event>
<event>
 5   0  0.2327595E-03  0.9692449E+03  0.7818609E-02  0.9342935E-01
        1   -1    0    0  501    0  0.00000000000E+00  0.00000000000E+00  0.28520880768E+03  0.28520880773E+03  0.50400001928E-02 0. -1.
       -1   -1    0    0    0  501  0.00000000000E+00  0.00000000000E+00 -0.82346314705E+03  0.82346314707E+03  0.50400001928E-02 0.  1.
    10030    2    1    2    0    0  0.00000000000E+00  0.00000000000E+00 -0.53825433937E+03  0.11086719548E+04  0.96924494814E+03 0.  0.
        5    1    3    3  502    0  0.32626858893E+03 -0.57456629473E+02 -0.67367612449E+03  0.75074234401E+03  0.46999998093E+01 0.  1.
       -5    1    3    3    0  502 -0.32626858893E+03  0.57456629473E+02  0.13542178512E+03  0.35792961078E+03  0.46999998093E+01 0. -1.
</event>
<event>
 5   0  0.1548000E-03  0.1008221E+04  0.7818609E-02  0.9299574E-01
        4   -1    0    0  501    0  0.00000000000E+00  0.00000000000E+00  0.22839231577E+03  0.22839584673E+03  0.12699999809E+01 0.  1.
       -4   -1    0    0    0  501  0.00000000000E+00  0.00000000000E+00 -0.11126669032E+04  0.11126676280E+04  0.12699999809E+01 0. -1.
    10030    2    1    2    0    0  0.00000000000E+00  0.00000000000E+00 -0.88427458741E+03  0.13410634747E+04  0.10082210557E+04 0.  0.
        2    1    3    3  502    0 -0.28270737074E+03  0.35341002173E+02  0.11103460204E+03  0.30577953948E+03  0.25500000920E-02 0.  1.
       -2    1    3    3    0  502  0.28270737074E+03 -0.35341002173E+02 -0.99530918945E+03  0.10352839352E+04  0.25500000920E-02 0. -1.
</event>
<event>
 5   0  0.3826483E-03  0.1075517E+04  0.7818609E-02  0.9229389E-01
       -2   -1    0    0    0  501  0.00000000000E+00  0.00000000000E+00  0.55256314905E+03  0.55256314906E+03  0.25500000920E-02 0. -1.
        2   -1    0    0  501    0  0.00000000000E+00  0.00000000000E+00 -0.52335025751E+03  0.52335025752E+03  0.25500000920E-02 0.  1.
    10030    2    1    2    0    0  0.00000000000E+00  0.00000000000E+00  0.29212891540E+02  0.10759134066E+04  0.10755167434E+04 0.  0.
        4    1    3    3  502    0  0.81089435999E+00  0.51481011761E+03  0.17007399005E+03  0.54217791336E+03  0.12699999809E+01 0. -1.
       -4    1    3    3    0  502 -0.81089435999E+00 -0.51481011761E+03 -0.14086109851E+03  0.53373549321E+03  0.12699999809E+01 0.  1.
</event>
<event>
 5   0  0.3895011E-03  0.9996330E+03  0.7818609E-02  0.9308947E-01
       -2   -1    0    0    0  501  0.00000000000E+00  0.00000000000E+00  0.16098750630E+03  0.16098750632E+03  0.25500000920E-02 0.  1.
        2   -1    0    0  501    0  0.00000000000E+00  0.00000000000E+00 -0.15517758442E+04  0.15517758442E+04  0.25500000920E-02 0. -1.
    10030    2    1    2    0    0  0.00000000000E+00  0.00000000000E+00 -0.13907883379E+04  0.17127633505E+04  0.99963297967E+03 0.  0.
        2    1    3    3  502    0 -0.30726078608E+03 -0.27754105703E+03 -0.11750775697E+04  0.12458914574E+04  0.25500000920E-02 0. -1.
       -2    1    3    3    0  502  0.30726078608E+03  0.27754105703E+03 -0.21571076821E+03  0.46687189305E+03  0.25500000920E-02 0.  1.
</event>
<event>
 5   0  0.1548000E-03  0.9960117E+03  0.7818609E-02  0.9312930E-01
       -4   -1    0    0    0  501  0.00000000000E+00  0.00000000000E+00  0.24093665133E+03  0.24093999845E+03  0.12699999809E+01 0. -1.
        4   -1    0    0  501    0  0.00000000000E+00  0.00000000000E+00 -0.10293461791E+04  0.10293469625E+04  0.12699999809E+01 0.  1.
    10030    2    1    2    0    0  0.00000000000E+00  0.00000000000E+00 -0.78840952775E+03  0.12702869610E+04  0.99601173678E+03 0.  0.
        5    1    3    3  502    0  0.31790914672E+03 -0.25014068202E+03 -0.23794565071E+02  0.40524666278E+03  0.46999998093E+01 0. -1.
       -5    1    3    3    0  502 -0.31790914672E+03  0.25014068202E+03 -0.76461496268E+03  0.86504029821E+03  0.46999998093E+01 0.  1.
</event>
<event>
 5   0  0.3895011E-03  0.9998727E+03  0.7818609E-02  0.9308684E-01
        2   -1    0    0  501    0  0.00000000000E+00  0.00000000000E+00  0.27619285396E+03  0.27619285397E+03  0.25500000920E-02 0. -1.
       -2   -1    0    0    0  501  0.00000000000E+00  0.00000000000E+00 -0.90493412172E+03  0.90493412172E+03  0.25500000920E-02 0.  1.
    10030    2    1    2    0    0  0.00000000000E+00  0.00000000000E+00 -0.62874126776E+03  0.11811269757E+04  0.99987266735E+03 0.  0.
        2    1    3    3  502    0  0.80245707240E+02 -0.13069606834E+03 -0.87645948459E+03  0.88977641234E+03  0.25500000920E-02 0.  1.
       -2    1    3    3    0  502 -0.80245707240E+02  0.13069606834E+03  0.24771821683E+03  0.29135056335E+03  0.25500000920E-02 0. -1.
</event>
<event>
 5   0  0.3873874E-03  0.9962585E+03  0.7818609E-02  0.9312658E-01
       -2   -1    0    0    0  501  0.00000000000E+00  0.00000000000E+00  0.73993582460E+03  0.73993582460E+03  0.25500000920E-02 0. -1.
        2   -1    0    0  501    0  0.00000000000E+00  0.00000000000E+00 -0.33534358507E+03  0.33534358508E+03  0.25500000920E-02 0.  1.
    10030    2    1    2    0    0  0.00000000000E+00  0.00000000000E+00  0.40459223953E+03  0.10752794097E+04  0.99625846476E+03 0.  0.
        5    1    3    3  502    0 -0.38415503784E+01  0.31035586374E+03 -0.21818800253E+03  0.37942537358E+03  0.46999998093E+01 0.  1.
       -5    1    3    3    0  502  0.38415503784E+01 -0.31035586374E+03  0.62278024206E+03  0.69585403611E+03  0.46999998093E+01 0. -1.
</event>
<event>
 5   0  0.3826483E-03  0.1003101E+04  0.7818609E-02  0.9305150E-01
       -2   -1    0    0    0  501  0.00000000000E+00  0.00000000000E+00  0.23835909243E+03  0.23835909244E+03  0.25500000920E-02 0.  1.
        2   -1    0    0  501    0  0.00000000000E+00  0.00000000000E+00 -0.10553535117E+04  0.10553535117E+04  0.25500000920E-02 0. -1.
    10030    2    1    2    0    0  0.00000000000E+00  0.00000000000E+00 -0.81699441931E+03  0.12937126042E+04  0.10031014012E+04 0.  0.
        4    1    3    3  502    0  0.81322600004E+02  0.48008710794E+03 -0.25343911358E+03  0.54893532741E+03  0.12699999809E+01 0. -1.
       -4    1    3    3    0  502 -0.81322600004E+02 -0.48008710794E+03 -0.56355530572E+03  0.74477727677E+03  0.12699999809E+01 0.  1.
</event>
<event>
 5   0  0.3895011E-03  0.1004498E+04  0.7818609E-02  0.9303625E-01
       -2   -1    0    0    0  501  0.00000000000E+00  0.00000000000E+00  0.20868409917E+03  0.20868409919E+03  0.25500000920E-02 0.  1.
        2   -1    0    0  501    0  0.00000000000E+00  0.00000000000E+00 -0.12087853367E+04  0.12087853367E+04  0.25500000920E-02 0. -1.
    10030    2    1    2    0    0  0.00000000000E+00  0.00000000000E+00 -0.10001012375E+04  0.14174694359E+04  0.10044984402E+04 0.  0.
        2    1    3    3  502    0 -0.56319012227E+02  0.59937577959E+01  0.20416341857E+03  0.21187368350E+03  0.25500000920E-02 0.  1.
       -2    1    3    3    0  502  0.56319012227E+02 -0.59937577959E+01 -0.12042646561E+04  0.12055957524E+04  0.25500000920E-02 0. -1.
</event>
<event>
 5   0  0.3873874E-03  0.9996382E+03  0.7818609E-02  0.9308942E-01
        2   -1    0    0  501    0  0.00000000000E+00  0.00000000000E+00  0.14632945028E+04  0.14632945029E+04  0.25500000920E-02 0. -1.
       -2   -1    0    0    0  501  0.00000000000E+00  0.00000000000E+00 -0.17072375665E+03  0.17072375667E+03  0.25500000920E-02 0.  1.
    10030    2    1    2    0    0  0.00000000000E+00  0.00000000000E+00  0.12925707462E+04  0.16340182595E+04  0.99963820382E+03 0.  0.
        5    1    3    3  502    0 -0.22108013913E+03 -0.35957228099E+03  0.20880692883E+03  0.47094699988E+03  0.46999998093E+01 0.  1.
       -5    1    3    3    0  502  0.22108013913E+03  0.35957228099E+03  0.10837638174E+04  0.11630712596E+04  0.46999998093E+01 0. -1.
</event>
<event>
 5   0  0.2378609E-03  0.9976931E+03  0.7818609E-02  0.9311079E-01
       -1   -1    0    0    0  501  0.00000000000E+00  0.00000000000E+00  0.38727251032E+03  0.38727251035E+03  0.50400001928E-02 0. -1.
        1   -1    0    0  501    0  0.00000000000E+00  0.00000000000E+00 -0.64256530580E+03  0.64256530582E+03  0.50400001928E-02 0.  1.
    10030    2    1    2    0    0  0.00000000000E+00  0.00000000000E+00 -0.25529279548E+03  0.10298378162E+04  0.99769309720E+03 0.  0.
        1    1    3    3  502    0 -0.16665573715E+03 -0.26609706005E+03 -0.52777755830E+03  0.61410986897E+03  0.50400001928E-02 0.  1.
       -1    1    3    3    0  502  0.16665573715E+03  0.26609706005E+03  0.27248476282E+03  0.41572794720E+03  0.50400001928E-02 0. -1.
</event>
<event>
 5   0  0.4140860E-03  0.9950697E+03  0.7818609E-02  0.9313969E-01
       -2   -1    0    0    0  501  0.00000000000E+00  0.00000000000E+00  0.30680900773E+03  0.30680900774E+03  0.25500000920E-02 0.  1.
        2   -1    0    0  501    0  0.00000000000E+00  0.00000000000E+00 -0.80682412541E+03  0.80682412541E+03  0.25500000920E-02 0. -1.
    10030    2    1    2    0    0  0.00000000000E+00  0.00000000000E+00 -0.50001511768E+03  0.11136331332E+04  0.99506966457E+03 0.  0.
        3    1    3    3  502    0  0.10498477950E+03 -0.30553200926E+03 -0.67346872328E+03  0.74694828740E+03  0.10100000352E+00 0. -1.
       -3    1    3    3    0  502 -0.10498477950E+03  0.30553200926E+03  0.17345360560E+03  0.36668484575E+03  0.10100000352E+00 0.  1.
</event>
<event>
 5   0  0.2378609E-03  0.1043981E+04  0.7818609E-02  0.9261580E-01
        1   -1    0    0  501    0  0.00000000000E+00  0.00000000000E+00  0.12379341184E+04  0.12379341184E+04  0.50400001928E-02 0. -1.
       -1   -1    0    0    0  501  0.00000000000E+00  0.00000000000E+00 -0.22010407275E+03  0.22010407281E+03  0.50400001928E-02 0.  1.
    10030    2    1    2    0    0  0.00000000000E+00  0.00000000000E+00  0.10178300456E+04  0.14580381912E+04  0.10439814966E+04 0.  0.
        1    1    3    3  502    0  0.19315883348E+03  0.18352245104E+03  0.11358115432E+04  0.11666441989E+04  0.50400001928E-02 0. -1.
       -1    1    3    3    0  502 -0.19315883348E+03 -0.18352245104E+03 -0.11798149758E+03  0.29139399236E+03  0.50400001928E-02 0.  1.
</event>
<event>
 5   0  0.3895011E-03  0.9527131E+03  0.7818609E-02  0.9361985E-01
       -2   -1    0    0    0  501  0.00000000000E+00  0.00000000000E+00  0.45887617054E+03  0.45887617054E+03  0.25500000920E-02 0. -1.
        2   -1    0    0  501    0  0.00000000000E+00  0.00000000000E+00 -0.49450284079E+03  0.49450284079E+03  0.25500000920E-02 0.  1.
    10030    2    1    2    0    0  0.00000000000E+00  0.00000000000E+00 -0.35626670249E+02  0.95337901134E+03  0.95271311507E+03 0.  0.
        2    1    3    3  502    0 -0.18436953758E+03  0.36565654323E+03 -0.26133242347E+03  0.48578953216E+03  0.25500000920E-02 0.  1.
       -2    1    3    3    0  502  0.18436953758E+03 -0.36565654323E+03  0.22570575322E+03  0.46758947918E+03  0.25500000920E-02 0. -1.
</event>
<event>
 5   0  0.3873874E-03  0.1001395E+04  0.7818609E-02  0.9307016E-01
       -2   -1    0    0    0  501  0.00000000000E+00  0.00000000000E+00  0.48652449012E+03  0.48652449013E+03  0.25500000920E-02 0.  1.
        2   -1    0    0  501    0  0.00000000000E+00  0.00000000000E+00 -0.51528328963E+03  0.51528328963E+03  0.25500000920E-02 0. -1.
    10030    2    1    2    0    0  0.00000000000E+00  0.00000000000E+00 -0.28758799503E+02  0.10018077798E+04  0.10013949066E+04 0.  0.
        5    1    3    3  502    0 -0.69167633828E+02  0.18927794943E+03  0.44413864894E+03  0.48774125639E+03  0.46999998093E+01 0.  1.
       -5    1    3    3    0  502  0.69167633828E+02 -0.18927794943E+03 -0.47289744844E+03  0.51406652337E+03  0.46999998093E+01 0. -1.
</event>
<event>
 5   0  0.2378609E-03  0.1015935E+04  0.7818609E-02  0.9291239E-01
       -1   -1    0    0    0  501  0.00000000000E+00  0.00000000000E+00  0.10011680018E+03  0.10011680031E+03  0.50400001928E-02 0. -1.
        1   -1    0    0  501    0  0.00000000000E+00  0.00000000000E+00 -0.25772971655E+04  0.25772971655E+04  0.50400001928E-02 0.  1.
    10030    2    1    2    0    0  0.00000000000E+00  0.00000000000E+00 -0.24771803653E+04  0.26774139658E+04  0.10159345363E+04 0.  0.
        1    1    3    3  502    0 -0.15195019795E+03 -0.37869440024E+03 -0.44126164978E+03  0.60100761644E+03  0.50400001928E-02 0. -1.
       -1    1    3    3    0  502  0.15195019795E+03  0.37869440024E+03 -0.20359187155E+04  0.20764063494E+04  0.50400001928E-02 0.  1.
</event>
<event>
 5   0  0.2405022E-03  0.1012471E+04  0.7818609E-02  0.9294971E-01
        1   -1    0    0  501    0  0.00000000000E+00  0.00000000000E+00  0.57801205532E+03  0.57801205534E+03  0.50400001928E-02 0.  1.
       -1   -1    0    0    0  501  0.00000000000E+00  0.00000000000E+00 -0.44337214568E+03  0.44337214571E+03  0.50400001928E-02 0. -1.
    10030    2    1    2    0    0  0.00000000000E+00  0.00000000000E+00  0.13463990964E+03  0.10213842011E+04  0.10124711260E+04 0.  0.
        4    1    3    3  502    0  0.14548064545E+02  0.11757860564E+03  0.56382794583E+03  0.57614229153E+03  0.12699999809E+01 0.  1.
       -4    1    3    3    0  502 -0.14548064545E+02 -0.11757860564E+03 -0.42918803620E+03  0.44524190953E+03  0.12699999809E+01 0. -1.
</event>
<event>
 5   0  0.2313036E-03  0.9966152E+03  0.7818609E-02  0.9312265E-01
       -1   -1    0    0    0  501  0.00000000000E+00  0.00000000000E+00  0.37831565965E+03  0.37831565969E+03  0.50400001928E-02 0.  1.
        1   -1    0    0  501    0  0.00000000000E+00  0.00000000000E+00 -0.65635781838E+03  0.65635781840E+03  0.50400001928E-02 0. -1.
    10030    2    1    2    0    0  0.00000000000E+00  0.00000000000E+00 -0.27804215873E+03  0.10346734781E+04  0.99661515352E+03 0.  0.
        3    1    3    3  502    0  0.30398486564E+03 -0.39475756154E+03 -0.14771337746E+03  0.51967257289E+03  0.10100000352E+00 0.  1.
       -3    1    3    3    0  502 -0.30398486564E+03  0.39475756154E+03 -0.13032878127E+03  0.51500090520E+03  0.10100000352E+00 0. -1.
</event>
<event>
 5   0  0.1548000E-03  0.1091266E+04  0.7818609E-02  0.9213746E-01
       -3   -1    0    0    0  501  0.00000000000E+00  0.00000000000E+00  0.24983696409E+03  0.24983698450E+03  0.10100000352E+00 0. -1.
        3   -1    0    0  501    0  0.00000000000E+00  0.00000000000E+00 -0.11916389625E+04  0.11916389668E+04  0.10100000352E+00 0.  1.
    10030    2    1    2    0    0  0.00000000000E+00  0.00000000000E+00 -0.94180199843E+03  0.14414759513E+04  0.10912661976E+04 0.  0.
        4    1    3    3  502    0  0.25076470462E+03 -0.43018814127E+03 -0.17621699984E+03  0.52820338687E+03  0.12699999809E+01 0. -1.
       -4    1    3    3    0  502 -0.25076470462E+03  0.43018814127E+03 -0.76558499859E+03  0.91327256443E+03  0.12699999809E+01 0.  1.
</event>
<event>
 5   0  0.2327595E-03  0.9790855E+03  0.7818609E-02  0.9331786E-01
       -1   -1    0    0    0  501  0.00000000000E+00  0.00000000000E+00  0.29492854697E+03  0.29492854701E+03  0.50400001928E-02 0.  1.
        1   -1    0    0  501    0  0.00000000000E+00  0.00000000000E+00 -0.81257685677E+03  0.81257685679E+03  0.50400001928E-02 0. -1.
    10030    2    1    2    0    0  0.00000000000E+00  0.00000000000E+00 -0.51764830980E+03  0.11075054038E+04  0.97908551558E+03 0.  0.
        5    1    3    3  502    0 -0.31338824445E+03  0.32516552912E+03 -0.45141462001E+02  0.45387735643E+03  0.46999998093E+01 0. -1.
       -5    1    3    3    0  502  0.31338824445E+03 -0.32516552912E+03 -0.47250684780E+03  0.65362804737E+03  0.46999998093E+01 0.  1.
</event>
<event>
 5   0  0.2313036E-03  0.9994208E+03  0.7818609E-02  0.9309180E-01
        1   -1    0    0  501    0  0.00000000000E+00  0.00000000000E+00  0.71990646273E+03  0.71990646274E+03  0.50400001928E-02 0. -1.
       -1   -1    0    0    0  501  0.00000000000E+00  0.00000000000E+00 -0.34686519887E+03  0.34686519890E+03  0.50400001928E-02 0.  1.
    10030    2    1    2    0    0  0.00000000000E+00  0.00000000000E+00  0.37304126386E+03  0.10667716616E+04  0.99942082906E+03 0.  0.
        3    1    3    3  502    0  0.83527999128E+02  0.50586115206E+02  0.70962291782E+03  0.71631039179E+03  0.10100000352E+00 0. -1.
       -3    1    3    3    0  502 -0.83527999128E+02 -0.50586115206E+02 -0.33658165396E+03  0.35046126986E+03  0.10100000352E+00 0.  1.
</event>
<event>
 5   0  0.3873874E-03  0.1002610E+04  0.7818609E-02  0.9305686E-01
       -2   -1    0    0    0  501  0.00000000000E+00  0.00000000000E+00  0.43993537418E+03  0.43993537418E+03  0.25500000920E-02 0. -1.
        2   -1    0    0  501    0  0.00000000000E+00  0.00000000000E+00 -0.57123597131E+03  0.57123597132E+03  0.25500000920E-02 0.  1.
    10030    2    1    2    0    0  0.00000000000E+00  0.00000000000E+00 -0.13130059714E+03  0.10111713455E+04  0.10026104144E+04 0.  0.
        5    1    3    3  502    0 -0.44367360463E+03  0.10307662803E+03  0.14545435917E+03  0.47817373338E+03  0.46999998093E+01 0. -1.
       -5    1    3    3    0  502  0.44367360463E+03 -0.10307662803E+03 -0.27675495631E+03  0.53299761213E+03  0.46999998093E+01 0.  1.
</event>
<event>
 5   0  0.2327595E-03  0.9987492E+03  0.7818609E-02  0.9309918E-01
       -1   -1    0    0    0  501  0.00000000000E+00  0.00000000000E+00  0.10390535807E+03  0.10390535820E+03  0.50400001928E-02 0. -1.
        1   -1    0    0  501    0  0.00000000000E+00  0.00000000000E+00 -0.24000203374E+04  0.24000203374E+04  0.50400001928E-02 0.  1.
    10030    2    1    2    0    0  0.00000000000E+00  0.00000000000E+00 -0.22961149793E+04  0.25039256956E+04  0.99874916310E+03 0.  0.
        5    1    3    3  502    0 -0.22196446735E+03 -0.14684026683E+03 -0.22073395148E+04  0.22233308599E+04  0.46999998093E+01 0.  1.
       -5    1    3    3    0  502  0.22196446735E+03  0.14684026683E+03 -0.88775464458E+02  0.28059483569E+03  0.46999998093E+01 0. -1.
</event>
<event>
 5   0  0.3873874E-03  0.9989496E+03  0.7818609E-02  0.9309698E-01
       -2   -1    0    0    0  501  0.00000000000E+00  0.00000000000E+00  0.30214378883E+03  0.30214378884E+03  0.25500000920E-02 0.  1.
        2   -1    0    0  501    0  0.00000000000E+00  0.00000000000E+00 -0.82568335301E+03  0.82568335301E+03  0.25500000920E-02 0. -1.
    10030    2    1    2    0    0  0.00000000000E+00  0.00000000000E+00 -0.52353956418E+03  0.11278271418E+04  0.99894964169E+03 0.  0.
        5    1    3    3  502    0  0.25730673967E+03 -0.41046370915E+03 -0.12457824640E+03  0.50022899185E+03  0.46999998093E+01 0. -1.
       -5    1    3    3    0  502 -0.25730673967E+03  0.41046370915E+03 -0.39896131778E+03  0.62759815000E+03  0.46999998093E+01 0.  1.
</event>
<event>
 5   0  0.2405022E-03  0.1008808E+04  0.7818609E-02  0.9298936E-01
        1   -1    0    0  501    0  0.00000000000E+00  0.00000000000E+00  0.84630228217E+03  0.84630228218E+03  0.50400001928E-02 0. -1.
       -1   -1    0    0    0  501  0.00000000000E+00  0.00000000000E+00 -0.30062962404E+03  0.30062962408E+03  0.50400001928E-02 0.  1.
    10030    2    1    2    0    0  0.00000000000E+00  0.00000000000E+00  0.54567265813E+03  0.11469319063E+04  0.10088082810E+04 0.  0.
        4    1    3    3  502    0  0.77119415771E+01  0.13767115772E+03 -0.27878445537E+03  0.31102284027E+03  0.12699999809E+01 0.  1.
       -4    1    3    3    0  502 -0.77119415771E+01 -0.13767115772E+03  0.82445711350E+03  0.83590906599E+03  0.12699999809E+01 0. -1.
</event>
<event>
 5   0  0.2327595E-03  0.1009842E+04  0.7818609E-02  0.9297815E-01
        1   -1    0    0  501    0  0.00000000000E+00  0.00000000000E+00  0.94859470264E+03  0.94859470265E+03  0.50400001928E-02 0. -1.
       -1   -1    0    0    0  501  0.00000000000E+00  0.00000000000E+00 -0.26876115368E+03  0.26876115372E+03  0.50400001928E-02 0.  1.
    10030    2    1    2    0    0  0.00000000000E+00  0.00000000000E+00  0.67983354896E+03  0.12173558564E+04  0.10098423772E+04 0.  0.
        5    1    3    3  502    0  0.66776580456E+02 -0.30901026535E+03 -0.13465006423E+03  0.34365562062E+03  0.46999998093E+01 0.  1.
       -5    1    3    3    0  502 -0.66776580456E+02  0.30901026535E+03  0.81448361319E+03  0.87370023575E+03  0.46999998093E+01 0. -1.
</event>
<event>
 5   0  0.4140860E-03  0.1006271E+04  0.7818609E-02  0.9301694E-01
        2   -1    0    0  501    0  0.00000000000E+00  0.00000000000E+00  0.56284789567E+03  0.56284789567E+03  0.25500000920E-02 0.  1.
       -2   -1    0    0    0  501  0.00000000000E+00  0.00000000000E+00 -0.44975757804E+03  0.44975757805E+03  0.25500000920E-02 0. -1.
    10030    2    1    2    0    0  0.00000000000E+00  0.00000000000E+00  0.11309031763E+03  0.10126054737E+04  0.10062705528E+04 0.  0.
        3    1    3    3  502    0  0.35524940163E+03  0.27452781197E+03  0.28508156570E+03  0.53182625566E+03  0.10100000352E+00 0.  1.
       -3    1    3    3    0  502 -0.35524940163E+03 -0.27452781197E+03 -0.17199124808E+03  0.48077921806E+03  0.10100000352E+00 0. -1.
</event>
<event>
 5   0  0.3873874E-03  0.9991416E+03  0.7818609E-02  0.9309487E-01
       -2   -1    0    0    0  501  0.00000000000E+00  0.00000000000E+00  0.21077914453E+03  0.21077914454E+03  0.25500000920E-02 0. -1.
        2   -1    0    0  501    0  0.00000000000E+00  0.00000000000E+00 -0.11840402790E+04  0.11840402790E+04  0.25500000920E-02 0.  1.
    10030    2    1    2    0    0  0.00000000000E+00  0.00000000000E+00 -0.97326113445E+03  0.13948194235E+04  0.99914162579E+03 0.  0.
        5    1    3    3  502    0  0.39070405106E+03  0.17457280613E+03 -0.84642305880E+03  0.94846159891E+03  0.46999998093E+01 0.  1.
       -5    1    3    3    0  502 -0.39070405106E+03 -0.17457280613E+03 -0.12683807565E+03  0.44635782460E+03  0.46999998093E+01 0. -1.
</event>
<event>
 5   0  0.1548000E-03  0.9887341E+03  0.7818609E-02  0.9320988E-01
        3   -1    0    0  501    0  0.00000000000E+00  0.00000000000E+00  0.11523132282E+04  0.11523132326E+04  0.10100000352E+00 0.  1.
       -3   -1    0    0    0  501  0.00000000000E+00  0.00000000000E+00 -0.21209401462E+03  0.21209403867E+03  0.10100000352E+00 0. -1.
    10030    2    1    2    0    0  0.00000000000E+00  0.00000000000E+00  0.94021921357E+03  0.13644072713E+04  0.98873405544E+03 0.  0.
        2    1    3    3  502    0 -0.35933457782E+03 -0.85232923357E+02  0.16583721093E+02  0.36967689927E+03  0.25500000920E-02 0. -1.
       -2    1    3    3    0  502  0.35933457782E+03  0.85232923357E+02  0.92363549247E+03  0.99473037201E+03  0.25500000920E-02 0.  1.
</event>
<event>
 5   0  0.3826483E-03  0.9965373E+03  0.7818609E-02  0.9312351E-01
       -2   -1    0    0    0  501  0.00000000000E+00  0.00000000000E+00  0.17010846467E+03  0.17010846469E+03  0.25500000920E-02 0. -1.
        2   -1    0    0  501    0  0.00000000000E+00  0.00000000000E+00 -0.14594902125E+04  0.14594902125E+04  0.25500000920E-02 0.  1.
    10030    2    1    2    0    0  0.00000000000E+00  0.00000000000E+00 -0.12893817478E+04  0.16295986772E+04  0.99653728334E+03 0.  0.
        4    1    3    3  502    0 -0.40470660726E+03  0.20758185381E+03 -0.31199515025E+03  0.55156164721E+03  0.12699999809E+01 0. -1.
       -4    1    3    3    0  502  0.40470660726E+03 -0.20758185381E+03 -0.97738659756E+03  0.10780370300E+04  0.12699999809E+01 0.  1.
</event>
<event>
 5   0  0.2378609E-03  0.9968794E+03  0.7818609E-02  0.9311974E-01
        1   -1    0    0  501    0  0.00000000000E+00  0.00000000000E+00  0.29308088504E+03  0.29308088509E+03  0.50400001928E-02 0. -1.
       -1   -1    0    0    0  501  0.00000000000E+00  0.00000000000E+00 -0.84769135619E+03  0.84769135620E+03  0.50400001928E-02 0.  1.
    10030    2    1    2    0    0  0.00000000000E+00  0.00000000000E+00 -0.55461047114E+03  0.11407722413E+04  0.99687939681E+03 0.  0.
        1    1    3    3  502    0  0.42483414935E+02 -0.24778573411E+03  0.21521394794E+03  0.33093753789E+03  0.50400001928E-02 0. -1.
       -1    1    3    3    0  502 -0.42483414935E+02  0.24778573411E+03 -0.76982441909E+03  0.80983470339E+03  0.50400001928E-02 0.  1.
</event>
<event>
 5   0  0.2350769E-03  0.9959986E+03  0.7818609E-02  0.9312944E-01
        1   -1    0    0  501    0  0.00000000000E+00  0.00000000000E+00  0.15577496424E+04  0.15577496425E+04  0.50400001928E-02 0.  1.
       -1   -1    0    0    0  501  0.00000000000E+00  0.00000000000E+00 -0.15920615163E+03  0.15920615171E+03  0.50400001928E-02 0. -1.
    10030    2    1    2    0    0  0.00000000000E+00  0.00000000000E+00  0.13985434908E+04  0.17169557942E+04  0.99599864629E+03 0.  0.
        2    1    3    3  502    0  0.71883485631E+02  0.33590862131E+02 -0.14823984891E+03  0.16813873538E+03  0.25500000920E-02 0. -1.
       -2    1    3    3    0  502 -0.71883485631E+02 -0.33590862131E+02  0.15467833397E+04  0.15488170588E+04  0.25500000920E-02 0.  1.
</event>
<event>
 5   0  0.2405022E-03  0.1007532E+04  0.7818609E-02  0.9300322E-01
       -1   -1    0    0    0  501  0.00000000000E+00  0.00000000000E+00  0.47733996272E+03  0.47733996274E+03  0.50400001928E-02 0. -1.
        1   -1    0    0  501    0  0.00000000000E+00  0.00000000000E+00 -0.53165475887E+03  0.53165475889E+03  0.50400001928E-02 0.  1.
    10030    2    1    2    0    0  0.00000000000E+00  0.00000000000E+00 -0.54314796147E+02  0.10089947216E+04  0.10075317619E+04 0.  0.
        4    1    3    3  502    0 -0.25798743265E+03 -0.10947852799E+02 -0.46033729581E+03  0.52781569672E+03  0.12699999809E+01 0.  1.
       -4    1    3    3    0  502  0.25798743265E+03  0.10947852799E+02  0.40602249966E+03  0.48117902492E+03  0.12699999809E+01 0. -1.
</event>
<event>
 5   0  0.2405022E-03  0.9953223E+03  0.7818609E-02  0.9313690E-01
       -1   -1    0    0    0  501  0.00000000000E+00  0.00000000000E+00  0.17468097702E+03  0.17468097709E+03  0.50400001928E-02 0. -1.
        1   -1    0    0  501    0  0.00000000000E+00  0.00000000000E+00 -0.14178224676E+04  0.14178224676E+04  0.50400001928E-02 0.  1.
    10030    2    1    2    0    0  0.00000000000E+00  0.00000000000E+00 -0.12431414906E+04  0.15925034447E+04  0.99532228740E+03 0.  0.
        4    1    3    3  502    0 -0.20383865784E+03 -0.41638936694E+03 -0.33208924225E+03  0.57027640758E+03  0.12699999809E+01 0. -1.
       -4    1    3    3    0  502  0.20383865784E+03  0.41638936694E+03 -0.91105224832E+03  0.10222270371E+04  0.12699999809E+01 0.  1.
</event>
<event>
 5   0  0.2378609E-03  0.1019263E+04  0.7818609E-02  0.9287666E-01
       -1   -1    0    0    0  501  0.00000000000E+00  0.00000000000E+00  0.11102779072E+04  0.11102779072E+04  0.50400001928E-02 0.  1.
        1   -1    0    0  501    0  0.00000000000E+00  0.00000000000E+00 -0.23392724016E+03  0.23392724022E+03  0.50400001928E-02 0. -1.
    10030    2    1    2    0    0  0.00000000000E+00  0.00000000000E+00  0.87635066707E+03  0.13442051475E+04  0.10192629625E+04 0.  0.
        1    1    3    3  502    0  0.10471632446E+02 -0.44710696438E+03  0.11591809661E+03  0.46200789802E+03  0.50400001928E-02 0. -1.
       -1    1    3    3    0  502 -0.10471632446E+02  0.44710696438E+03  0.76043257046E+03  0.88219724945E+03  0.50400001928E-02 0.  1.
</event>
<event>
 5   0  0.2327595E-03  0.9991947E+03  0.7818609E-02  0.9309429E-01
       -1   -1    0    0    0  501  0.00000000000E+00  0.00000000000E+00  0.11879325767E+03  0.11879325778E+03  0.50400001928E-02 0. -1.
        1   -1    0    0  501    0  0.00000000000E+00  0.00000000000E+00 -0.21011082720E+04  0.21011082720E+04  0.50400001928E-02 0.  1.
    10030    2    1    2    0    0  0.00000000000E+00  0.00000000000E+00 -0.19823150143E+04  0.22199015297E+04  0.99919466865E+03 0.  0.
        5    1    3    3  502    0  0.32326452251E+03  0.82929161912E+02 -0.16524354148E+03  0.37243081963E+03  0.46999998093E+01 0. -1.
       -5    1    3    3    0  502 -0.32326452251E+03 -0.82929161912E+02 -0.18170714728E+04  0.18474707101E+04  0.46999998093E+01 0.  1.
</event>
<event>
 5   0  0.3826483E-03  0.9631795E+03  0.7818609E-02  0.9349877E-01
       -2   -1    0    0    0  501  0.00000000000E+00  0.00000000000E+00  0.31002814152E+03  0.31002814153E+03  0.25500000920E-02 0.  1.
        2   -1    0    0  501    0  0.00000000000E+00  0.00000000000E+00 -0.74808921726E+03  0.74808921727E+03  0.25500000920E-02 0. -1.
    10030    2    1    2    0    0  0.00000000000E+00  0.00000000000E+00 -0.43806107574E+03  0.10581173588E+04  0.96317954656E+03 0.  0.
        4    1    3    3  502    0 -0.15363130545E+03  0.29414128930E+03  0.16437633679E+03  0.37032805603E+03  0.12699999809E+01 0.  1.
       -4    1    3    3    0  502  0.15363130545E+03 -0.29414128930E+03 -0.60243741253E+03  0.68778930277E+03  0.12699999809E+01 0. -1.
</event>
<event>
 5   0  0.2327595E-03  0.1016871E+04  0.7818609E-02  0.9290232E-01
       -1   -1    0    0    0  501  0.00000000000E+00  0.00000000000E+00  0.50618025084E+03  0.50618025086E+03  0.50400001928E-02 0.  1.
        1   -1    0    0  501    0  0.00000000000E+00  0.00000000000E+00 -0.51070128103E+03  0.51070128105E+03  0.50400001928E-02 0. -1.
    10030    2    1    2    0    0  0.00000000000E+00  0.00000000000E+00 -0.45210301875E+01  0.10168815319E+04  0.10168714817E+04 0.  0.
        5    1    3    3  502    0  0.24829305085E+03  0.16108651540E+03  0.41112778414E+03  0.50660285178E+03  0.46999998093E+01 0.  1.
       -5    1    3    3    0  502 -0.24829305085E+03 -0.16108651540E+03 -0.41564881433E+03  0.51027868013E+03  0.46999998093E+01 0. -1.
</event>
<event>
 5   0  0.3826483E-03  0.1001061E+04  0.7818609E-02  0.9307381E-01
        2   -1    0    0  501    0  0.00000000000E+00  0.00000000000E+00  0.52200502334E+03  0.52200502334E+03  0.25500000920E-02 0.  1.
       -2   -1    0    0    0  501  0.00000000000E+00  0.00000000000E+00 -0.47993977743E+03  0.47993977743E+03  0.25500000920E-02 0. -1.
    10030    2    1    2    0    0  0.00000000000E+00  0.00000000000E+00  0.42065245909E+02  0.10019448008E+04  0.10010613862E+04 0.  0.
        4    1    3    3  502    0 -0.18931975878E+03  0.45986647648E+03  0.77741378476E+02  0.50335323788E+03  0.12699999809E+01 0. -1.
       -4    1    3    3    0  502  0.18931975878E+03 -0.45986647648E+03 -0.35676132567E+02  0.49859156290E+03  0.12699999809E+01 0.  1.
</event>
<event>
 5   0  0.2378609E-03  0.9989939E+03  0.7818609E-02  0.9309649E-01
       -1   -1    0    0    0  501  0.00000000000E+00  0.00000000000E+00  0.26683417390E+03  0.26683417395E+03  0.50400001928E-02 0.  1.
        1   -1    0    0  501    0  0.00000000000E+00  0.00000000000E+00 -0.93502707901E+03  0.93502707902E+03  0.50400001928E-02 0. -1.
    10030    2    1    2    0    0  0.00000000000E+00  0.00000000000E+00 -0.66819290511E+03  0.12018612530E+04  0.99899385030E+03 0.  0.
        1    1    3    3  502    0 -0.29972182680E+03 -0.25354100314E+03  0.37457917931E+02  0.39435936578E+03  0.50400001928E-02 0.  1.
       -1    1    3    3    0  502  0.29972182680E+03  0.25354100314E+03 -0.70565082304E+03  0.80750188719E+03  0.50400001928E-02 0. -1.
</event>
<event>
 5   0  0.1548000E-03  0.9880780E+03  0.7818609E-02  0.9321718E-01
        3   -1    0    0  501    0  0.00000000000E+00  0.00000000000E+00  0.41748170471E+03  0.41748171693E+03  0.10100000352E+00 0.  1.
       -3   -1    0    0    0  501  0.00000000000E+00  0.00000000000E+00 -0.58463530116E+03  0.58463530989E+03  0.10100000352E+00 0. -1.
    10030    2    1    2    0    0  0.00000000000E+00  0.00000000000E+00 -0.16715359645E+03  0.10021170268E+04  0.98807803873E+03 0.  0.
        3    1    3    3  502    0  0.12254397861E+03 -0.44189099101E+03 -0.27000879068E+03  0.53215545837E+03  0.10100000352E+00 0. -1.
       -3    1    3    3    0  502 -0.12254397861E+03  0.44189099101E+03  0.10285519422E+03  0.46996156844E+03  0.10100000352E+00 0.  1.
</event>
<event>
 5   0  0.4026829E-03  0.9953304E+03  0.7818609E-02  0.9313681E-01
       -2   -1    0    0    0  501  0.00000000000E+00  0.00000000000E+00  0.40917284325E+03  0.40917284326E+03  0.25500000920E-02 0.  1.
        2   -1    0    0  501    0  0.00000000000E+00  0.00000000000E+00 -0.60529594885E+03  0.60529594885E+03  0.25500000920E-02 0. -1.
    10030    2    1    2    0    0  0.00000000000E+00  0.00000000000E+00 -0.19612310559E+03  0.10144687921E+04  0.99533042635E+03 0.  0.
        1    1    3    3  502    0  0.19389532451E+03  0.44977262325E+03 -0.18796102863E+03  0.52461429431E+03  0.50400001928E-02 0.  1.
       -1    1    3    3    0  502 -0.19389532451E+03 -0.44977262325E+03 -0.81620769676E+01  0.48985449780E+03  0.50400001928E-02 0. -1.
</event>
<event>
 5   0  0.2313036E-03  0.9919170E+03  0.7818609E-02  0.9317455E-01
       -1   -1    0    0    0  501  0.00000000000E+00  0.00000000000E+00  0.31317468693E+03  0.31317468697E+03  0.50400001928E-02 0.  1.
        1   -1    0    0  501    0  0.00000000000E+00  0.00000000000E+00 -0.78542381694E+03  0.78542381695E+03  0.50400001928E-02 0. -1.
    10030    2    1    2    0    0  0.00000000000E+00  0.00000000000E+00 -0.47224913000E+03  0.10985985039E+04  0.99191704897E+03 0.  0.
        3    1    3    3  502    0  0.23877611309E+03 -0.37705187375E+03 -0.47570574610E+03  0.65228683472E+03  0.10100000352E+00 0. -1.
       -3    1    3    3    0  502 -0.23877611309E+03  0.37705187375E+03  0.34566160940E+01  0.44631166921E+03  0.10100000352E+00 0.  1.
</event>
<event>
 5   0  0.3895011E-03  0.1045292E+04  0.7818609E-02  0.9260218E-01
        2   -1    0    0  501    0  0.00000000000E+00  0.00000000000E+00  0.99292241416E+03  0.99292241417E+03  0.25500000920E-02 0.  1.
       -2   -1    0    0    0  501  0.00000000000E+00  0.00000000000E+00 -0.27510605890E+03  0.27510605892E+03  0.25500000920E-02 0. -1.
    10030    2    1    2    0    0  0.00000000000E+00  0.00000000000E+00  0.71781635526E+03  0.12680284731E+04  0.10452922504E+04 0.  0.
        2    1    3    3  502    0 -0.79654093783E+02  0.45239285841E+03  0.66134102483E+03  0.80521799789E+03  0.25500000920E-02 0.  1.
       -2    1    3    3    0  502  0.79654093783E+02 -0.45239285841E+03  0.56475330432E+02  0.46281047520E+03  0.25500000920E-02 0. -1.
</event>
<event>
 5   0  0.2378609E-03  0.1003532E+04  0.7818609E-02  0.9304679E-01
       -1   -1    0    0    0  501  0.00000000000E+00  0.00000000000E+00  0.28513422479E+03  0.28513422484E+03  0.50400001928E-02 0. -1.
        1   -1    0    0  501    0  0.00000000000E+00  0.00000000000E+00 -0.88298504136E+03  0.88298504138E+03  0.50400001928E-02 0.  1.
    10030    2    1    2    0    0  0.00000000000E+00  0.00000000000E+00 -0.59785081657E+03  0.11681192662E+04  0.10035322721E+04 0.  0.
        1    1    3    3  502    0 -0.18245632521E+03  0.38751199938E+03  0.53093138097E+01  0.42835038124E+03  0.50400001928E-02 0. -1.
       -1    1    3    3    0  502  0.18245632521E+03 -0.38751199938E+03 -0.60316013038E+03  0.73976888497E+03  0.50400001928E-02 0.  1.
</event>
<event>
 5   0  0.2313036E-03  0.1002208E+04  0.7818609E-02  0.9306127E-01
       -1   -1    0    0    0  501  0.00000000000E+00  0.00000000000E+00  0.88114437177E+03  0.88114437178E+03  0.50400001928E-02 0. -1.
        1   -1    0    0  501    0  0.00000000000E+00  0.00000000000E+00 -0.28497601420E+03  0.28497601425E+03  0.50400001928E-02 0.  1.
    10030    2    1    2    0    0  0.00000000000E+00  0.00000000000E+00  0.59616835757E+03  0.11661203860E+04  0.10022075854E+04 0.  0.
        3    1    3    3  502    0  0.45552127707E+03  0.17082086475E+03  0.15833391633E+03  0.51161415242E+03  0.10100000352E+00 0.  1.
       -3    1    3    3    0  502 -0.45552127707E+03 -0.17082086475E+03  0.43783444124E+03  0.65450623361E+03  0.10100000352E+00 0. -1.
</event>
<event>
 5   0  0.2378609E-03  0.1008194E+04  0.7818609E-02  0.9299603E-01
        1   -1    0    0  501    0  0.00000000000E+00  0.00000000000E+00  0.98422575396E+03  0.98422575397E+03  0.50400001928E-02 0.  1.
       -1   -1    0    0    0  501  0.00000000000E+00  0.00000000000E+00 -0.25818648511E+03  0.25818648516E+03  0.50400001928E-02 0. -1.
    10030    2    1    2    0    0  0.00000000000E+00  0.00000000000E+00  0.72603926884E+03  0.12424122391E+04  0.10081940052E+04 0.  0.
        1    1    3    3  502    0  0.34368476693E+03 -0.35059247663E+03  0.22208526370E+03  0.53884707298E+03  0.50400001928E-02 0. -1.
       -1    1    3    3    0  502 -0.34368476693E+03  0.35059247663E+03  0.50395400514E+03  0.70356516615E+03  0.50400001928E-02 0.  1.
</event>
<event>
 5   0  0.3873874E-03  0.9988610E+03  0.7818609E-02  0.9309795E-01
       -2   -1    0    0    0  501  0.00000000000E+00  0.00000000000E+00  0.39241110054E+03  0.39241110055E+03  0.25500000920E-02 0. -1.
        2   -1    0    0  501    0  0.00000000000E+00  0.00000000000E+00 -0.63563656297E+03  0.63563656298E+03  0.25500000920E-02 0.  1.
    10030    2    1    2    0    0  0.00000000000E+00  0.00000000000E+00 -0.24322546243E+03  0.10280476635E+04  0.99886103783E+03 0.  0.
        5    1    3    3  502    0  0.36277321691E+02  0.27652385841E+03  0.30477167968E+03  0.41314568263E+03  0.46999998093E+01 0. -1.
       -5    1    3    3    0  502 -0.36277321691E+02 -0.27652385841E+03 -0.54799714212E+03  0.61490198089E+03  0.46999998093E+01 0.  1.
</event>
<event>
 5   0  0.4140860E-03  0.9984429E+03  0.7818609E-02  0.9310254E-01
        2   -1    0    0  501    0  0.00000000000E+00  0.00000000000E+00  0.19720724112E+04  0.19720724112E+04  0.25500000920E-02 0. -1.
       -2   -1    0    0    0  501  0.00000000000E+00  0.00000000000E+00 -0.12637571852E+03  0.12637571855E+03  0.25500000920E-02 0.  1.
    10030    2    1    2    0    0  0.00000000000E+00  0.00000000000E+00  0.18456966926E+04  0.20984481297E+04  0.99844292370E+03 0.  0.
        3    1    3    3  502    0 -0.42278316499E+03 -0.12480549113E+03  0.43039926020E+03  0.61608891290E+03  0.10100000352E+00 0. -1.
       -3    1    3    3    0  502  0.42278316499E+03  0.12480549113E+03  0.14152974324E+04  0.14823592168E+04  0.10100000352E+00 0.  1.
</event>
<event>
 5   0  0.4026829E-03  0.1003455E+04  0.7818609E-02  0.9304763E-01
        2   -1    0    0  501    0  0.00000000000E+00  0.00000000000E+00  0.31338933758E+03  0.31338933759E+03  0.25500000920E-02 0. -1.
       -2   -1    0    0    0  501  0.00000000000E+00  0.00000000000E+00 -0.80325208596E+03  0.80325208596E+03  0.25500000920E-02 0.  1.
    10030    2    1    2    0    0  0.00000000000E+00  0.00000000000E+00 -0.48986274838E+03  0.11166414236E+04  0.10034553087E+04 0.  0.
        1    1    3    3  502    0 -0.12287270130E+03  0.10504038420E+03  0.28361697879E+03  0.32645026225E+03  0.50400001928E-02 0. -1.
       -1    1    3    3    0  502  0.12287270130E+03 -0.10504038420E+03 -0.77347972717E+03  0.79019116130E+03  0.50400001928E-02 0.  1.
</event>
<event>
 5   0  0.2350769E-03  0.1006598E+04  0.7818609E-02  0.9301337E-01
        1   -1    0    0  501    0  0.00000000000E+00  0.00000000000E+00  0.25819344081E+03  0.25819344086E+03  0.50400001928E-02 0.  1.
       -1   -1    0    0    0  501  0.00000000000E+00  0.00000000000E+00 -0.98108611279E+03  0.98108611281E+03  0.50400001928E-02 0. -1.
    10030    2    1    2    0    0  0.00000000000E+00  0.00000000000E+00 -0.72289267199E+03  0.12392795537E+04  0.10065982301E+04 0.  0.
        2    1    3    3  502    0 -0.13436231281E+03  0.37718456170E+03  0.13982750923E+02  0.40064565643E+03  0.25500000920E-02 0.  1.
       -2    1    3    3    0  502  0.13436231281E+03 -0.37718456170E+03 -0.73687542291E+03  0.83863389723E+03  0.25500000920E-02 0. -1.
</event>
<event>
 5   0  0.2378609E-03  0.9973677E+03  0.7818609E-02  0.9311437E-01
        1   -1    0    0  501    0  0.00000000000E+00  0.00000000000E+00  0.41314387433E+03  0.41314387436E+03  0.50400001928E-02 0. -1.
       -1   -1    0    0    0  501  0.00000000000E+00  0.00000000000E+00 -0.60193456452E+03  0.60193456454E+03  0.50400001928E-02 0.  1.
    10030    2    1    2    0    0  0.00000000000E+00  0.00000000000E+00 -0.18879069018E+03  0.10150784389E+04  0.99736769169E+03 0.  0.
        1    1    3    3  502    0 -0.23482647622E+03  0.23243603078E+03  0.28575526017E+03  0.43683641227E+03  0.50400001928E-02 0. -1.
       -1    1    3    3    0  502  0.23482647622E+03 -0.23243603078E+03 -0.47454595036E+03  0.57824202663E+03  0.50400001928E-02 0.  1.
</event>
<event>
 5   0  0.3873874E-03  0.9998088E+03  0.7818609E-02  0.9308755E-01
        2   -1    0    0  501    0  0.00000000000E+00  0.00000000000E+00  0.90789339623E+03  0.90789339624E+03  0.25500000920E-02 0.  1.
       -2   -1    0    0    0  501  0.00000000000E+00  0.00000000000E+00 -0.27525740959E+03  0.27525740960E+03  0.25500000920E-02 0. -1.
    10030    2    1    2    0    0  0.00000000000E+00  0.00000000000E+00  0.63263598665E+03  0.11831508058E+04  0.99980875059E+03 0.  0.
        5    1    3    3  502    0 -0.39265638117E+03 -0.26469791761E+03  0.12683616976E+03  0.49025863095E+03  0.46999998093E+01 0. -1.
       -5    1    3    3    0  502  0.39265638117E+03  0.26469791761E+03  0.50579981689E+03  0.69289217489E+03  0.46999998093E+01 0.  1.
</event>
<event>
 5   0  0.2313036E-03  0.1002880E+04  0.7818609E-02  0.9305392E-01
        1   -1    0    0  501    0  0.00000000000E+00  0.00000000000E+00  0.70211371043E+03  0.70211371045E+03  0.50400001928E-02 0.  1.
       -1   -1    0    0    0  501  0.00000000000E+00  0.00000000000E+00 -0.35812137504E+03  0.35812137508E+03  0.50400001928E-02 0. -1.
    10030    2    1    2    0    0  0.00000000000E+00  0.00000000000E+00  0.34399233539E+03  0.10602350855E+04  0.10028797085E+04 0.  0.
        3    1    3    3  502    0  0.42096266326E+02 -0.15094753412E+03 -0.33156925062E+03  0.36673618836E+03  0.10100000352E+00 0. -1.
       -3    1    3    3    0  502 -0.42096266326E+02  0.15094753412E+03  0.67556158600E+03  0.69349889717E+03  0.10100000352E+00 0.  1.
</event>
<event>
 5   0  0.2405022E-03  0.1000009E+04  0.7818609E-02  0.9308535E-01
       -1   -1    0    0    0  501  0.00000000000E+00  0.00000000000E+00  0.86866333556E+03  0.86866333558E+03  0.50400001928E-02 0.  1.
        1   -1    0    0  501    0  0.00000000000E+00  0.00000000000E+00 -0.28780380323E+03  0.28780380327E+03  0.50400001928E-02 0. -1.
    10030    2    1    2    0    0  0.00000000000E+00  0.00000000000E+00  0.58085953233E+03  0.11564671389E+04  0.10000092234E+04 0.  0.
        4    1    3    3  502    0 -0.24459174272E+03  0.23852733317E+03  0.71262760135E+03  0.79029116177E+03  0.12699999809E+01 0.  1.
       -4    1    3    3    0  502  0.24459174272E+03 -0.23852733317E+03 -0.13176806901E+03  0.36617597708E+03  0.12699999809E+01 0. -1.
</event>
<event>
 5   0  0.3873874E-03  0.9973445E+03  0.7818609E-02  0.9311462E-01
       -2   -1    0    0    0  501  0.00000000000E+00  0.00000000000E+00  0.63328899927E+03  0.63328899928E+03  0.25500000920E-02 0. -1.
        2   -1    0    0  501    0  0.00000000000E+00  0.00000000000E+00 -0.39267070066E+03  0.39267070066E+03  0.25500000920E-02 0.  1.
    10030    2    1    2    0    0  0.00000000000E+00  0.00000000000E+00  0.24061829861E+03  0.10259596999E+04  0.99734454442E+03 0.  0.
        5    1    3    3  502    0 -0.15407228432E+03 -0.41549586232E+03 -0.11489222326E+03  0.45781807890E+03  0.46999998093E+01 0.  1.
       -5    1    3    3    0  502  0.15407228432E+03  0.41549586232E+03  0.35551052187E+03  0.56814162104E+03  0.46999998093E+01 0. -1.
</event>
<event>
 5   0  0.2327595E-03  0.9977536E+03  0.7818609E-02  0.9311012E-01
       -1   -1    0    0    0  501  0.00000000000E+00  0.00000000000E+00  0.45673275856E+03  0.45673275858E+03  0.50400001928E-02 0. -1.
        1   -1    0    0  501    0  0.00000000000E+00  0.00000000000E+00 -0.54490960238E+03  0.54490960241E+03  0.50400001928E-02 0.  1.
    10030    2    1    2    0    0  0.00000000000E+00  0.00000000000E+00 -0.88176843827E+02  0.10016423610E+04  0.99775360863E+03 0.  0.
        5    1    3    3  502    0  0.20265451834E+03  0.45545752159E+03 -0.25426507042E+02  0.49917832990E+03  0.46999998093E+01 0.  1.
       -5    1    3    3    0  502 -0.20265451834E+03 -0.45545752159E+03 -0.62750336785E+02  0.50246403109E+03  0.46999998093E+01 0. -1.
</event>
<event>
 5   0  0.3873874E-03  0.9974145E+03  0.7818609E-02  0.9311385E-01
       -2   -1    0    0    0  501  0.00000000000E+00  0.00000000000E+00  0.29356935054E+03  0.29356935055E+03  0.25500000920E-02 0. -1.
        2   -1    0    0  501    0  0.00000000000E+00  0.00000000000E+00 -0.84718970426E+03  0.84718970426E+03  0.25500000920E-02 0.  1.
    10030    2    1    2    0    0  0.00000000000E+00  0.00000000000E+00 -0.55362035372E+03  0.11407590548E+04  0.99741452019E+03 0.  0.
        5    1    3    3  502    0  0.24122467001E+03 -0.28486741806E+03  0.10139177653E+03  0.38683480924E+03  0.46999998093E+01 0. -1.
       -5    1    3    3    0  502 -0.24122467001E+03  0.28486741806E+03 -0.65501213024E+03  0.75392424557E+03  0.46999998093E+01 0.  1.
</event>
<event>
 5   0  0.3826483E-03  0.1002510E+04  0.7818609E-02  0.9305796E-01
       -2   -1    0    0    0  501  0.00000000000E+00  0.00000000000E+00  0.30905400153E+03  0.30905400154E+03  0.25500000920E-02 0. -1.
        2   -1    0    0  501    0  0.00000000000E+00  0.00000000000E+00 -0.81298603555E+03  0.81298603555E+03  0.25500000920E-02 0.  1.
    10030    2    1    2    0    0  0.00000000000E+00  0.00000000000E+00 -0.50393203402E+03  0.11220400371E+04  0.10025100248E+04 0.  0.
        4    1    3    3  502    0  0.12784423046E+03 -0.18588649455E+02  0.29009915299E+03  0.31756702697E+03  0.12699999809E+01 0. -1.
       -4    1    3    3    0  502 -0.12784423046E+03  0.18588649455E+02 -0.79403118702E+03  0.80447301012E+03  0.12699999809E+01 0.  1.
</event>
<event>
 5   0  0.4026829E-03  0.9994346E+03  0.7818609E-02  0.9309165E-01
       -2   -1    0    0    0  501  0.00000000000E+00  0.00000000000E+00  0.19206443259E+03  0.19206443261E+03  0.25500000920E-02 0.  1.
        2   -1    0    0  501    0  0.00000000000E+00  0.00000000000E+00 -0.13001749948E+04  0.13001749948E+04  0.25500000920E-02 0. -1.
    10030    2    1    2    0    0  0.00000000000E+00  0.00000000000E+00 -0.11081105622E+04  0.14922394274E+04  0.99943458549E+03 0.  0.
        1    1    3    3  502    0 -0.17262394876E+03 -0.19771553616E+03 -0.11889704003E+04  0.12175964331E+04  0.50400001928E-02 0. -1.
       -1    1    3    3    0  502  0.17262394876E+03  0.19771553616E+03  0.80859838087E+02  0.27464299439E+03  0.50400001928E-02 0.  1.
</event>
<event>
 5   0  0.4026829E-03  0.9920820E+03  0.7818609E-02  0.9317272E-01
       -2   -1    0    0    0  501  0.00000000000E+00  0.00000000000E+00  0.27299862584E+03  0.27299862586E+03  0.25500000920E-02 0. -1.
        2   -1    0    0  501    0  0.00000000000E+00  0.00000000000E+00 -0.90131112345E+03  0.90131112345E+03  0.25500000920E-02 0.  1.
    10030    2    1    2    0    0  0.00000000000E+00  0.00000000000E+00 -0.62831249760E+03  0.11743097493E+04  0.99208204936E+03 0.  0.
        1    1    3    3  502    0 -0.46060688419E+03 -0.16469836742E+03 -0.21674529607E+03  0.53503530481E+03  0.50400001928E-02 0. -1.
       -1    1    3    3    0  502  0.46060688419E+03  0.16469836742E+03 -0.41156720153E+03  0.63927444450E+03  0.50400001928E-02 0.  1.
</event>
<event>
 5   0  0.2350769E-03  0.9988796E+03  0.7818609E-02  0.9309774E-01
       -1   -1    0    0    0  501  0.00000000000E+00  0.00000000000E+00  0.32175553105E+03  0.32175553109E+03  0.50400001928E-02 0. -1.
        1   -1    0    0  501    0  0.00000000000E+00  0.00000000000E+00 -0.77524734510E+03  0.77524734511E+03  0.50400001928E-02 0.  1.
    10030    2    1    2    0    0  0.00000000000E+00  0.00000000000E+00 -0.45349181405E+03  0.10970028762E+04  0.99887961486E+03 0.  0.
        2    1    3    3  502    0 -0.41863408974E+03  0.24129751159E+02 -0.52469596982E+03  0.67167150211E+03  0.25500000920E-02 0.  1.
       -2    1    3    3    0  502  0.41863408974E+03 -0.24129751159E+02  0.71204155775E+02  0.42533137410E+03  0.25500000920E-02 0. -1.
</event>
<event>
 5   0  0.4026829E-03  0.9986310E+03  0.7818609E-02  0.9310048E-01
        2   -1    0    0  501    0  0.00000000000E+00  0.00000000000E+00  0.56175925832E+03  0.56175925832E+03  0.25500000920E-02 0. -1.
       -2   -1    0    0    0  501  0.00000000000E+00  0.00000000000E+00 -0.44381281769E+03  0.44381281770E+03  0.25500000920E-02 0.  1.
    10030    2    1    2    0    0  0.00000000000E+00  0.00000000000E+00  0.11794644063E+03  0.10055720760E+04  0.99863098150E+03 0.  0.
        1    1    3    3  502    0  0.46496866713E+03  0.73208441580E+02 -0.10880004813E+03  0.48310742887E+03  0.50400001928E-02 0. -1.
       -1    1    3    3    0  502 -0.46496866713E+03 -0.73208441580E+02  0.22674648875E+03  0.52246464715E+03  0.50400001928E-02 0.  1.
</event>
<event>
 5   0  0.2327595E-03  0.9793597E+03  0.7818609E-02  0.9331477E-01
       -1   -1    0    0    0  501  0.00000000000E+00  0.00000000000E+00  0.32684402230E+03  0.32684402234E+03  0.50400001928E-02 0.  1.
        1   -1    0    0  501    0  0.00000000000E+00  0.00000000000E+00 -0.73364148089E+03  0.73364148091E+03  0.50400001928E-02 0. -1.
    10030    2    1    2    0    0  0.00000000000E+00  0.00000000000E+00 -0.40679745859E+03  0.10604855032E+04  0.97935965318E+03 0.  0.
        5    1    3    3  502    0 -0.42206026327E+03 -0.12219414874E+03 -0.43739638884E+03  0.62000319901E+03  0.46999998093E+01 0.  1.
       -5    1    3    3    0  502  0.42206026327E+03  0.12219414874E+03  0.30598930252E+02  0.44048230424E+03  0.46999998093E+01 0. -1.
</event>
<event>
 5   0  0.2313036E-03  0.1001490E+04  0.7818609E-02  0.9306913E-01
       -1   -1    0    0    0  501  0.00000000000E+00  0.00000000000E+00  0.25830582796E+03  0.25830582801E+03  0.50400001928E-02 0. -1.
        1   -1    0    0  501    0  0.00000000000E+00  0.00000000000E+00 -0.97073035858E+03  0.97073035860E+03  0.50400001928E-02 0.  1.
    10030    2    1    2    0    0  0.00000000000E+00  0.00000000000E+00 -0.71242453063E+03  0.12290361866E+04  0.10014895088E+04 0.  0.
        3    1    3    3  502    0  0.39144827238E+03  0.24797283864E+03 -0.12329143663E+03  0.47950293764E+03  0.10100000352E+00 0.  1.
       -3    1    3    3    0  502 -0.39144827238E+03 -0.24797283864E+03 -0.58913309400E+03  0.74953324897E+03  0.10100000352E+00 0. -1.
</event>
<event>
 5   0  0.3826483E-03  0.9832829E+03  0.7818609E-02  0.9327072E-01
       -2   -1    0    0    0  501  0.00000000000E+00  0.00000000000E+00  0.18599905100E+03  0.18599905102E+03  0.25500000920E-02 0. -1.
        2   -1    0    0  501    0  0.00000000000E+00  0.00000000000E+00 -0.12995299058E+04  0.12995299058E+04  0.25500000920E-02 0.  1.
    10030    2    1    2    0    0  0.00000000000E+00  0.00000000000E+00 -0.11135308548E+04  0.14855289568E+04  0.98328292825E+03 0.  0.
        4    1    3    3  502    0 -0.18737403470E+03  0.45256777616E+03 -0.62056090880E+03  0.79058464147E+03  0.12699999809E+01 0. -1.
       -4    1    3    3    0  502  0.18737403470E+03 -0.45256777616E+03 -0.49296994601E+03  0.69494431537E+03  0.12699999809E+01 0.  1.
</event>
<event>
 5   0  0.2405022E-03  0.9945563E+03  0.7818609E-02  0.9314536E-01
       -1   -1    0    0    0  501  0.00000000000E+00  0.00000000000E+00  0.25303121166E+03  0.25303121171E+03  0.50400001928E-02 0. -1.
        1   -1    0    0  501    0  0.00000000000E+00  0.00000000000E+00 -0.97729268864E+03  0.97729268865E+03  0.50400001928E-02 0.  1.
    10030    2    1    2    0    0  0.00000000000E+00  0.00000000000E+00 -0.72426147698E+03  0.12303239004E+04  0.99455628939E+03 0.  0.
        4    1    3    3  502    0 -0.13159978109E+02 -0.27290569808E+03 -0.87611793090E+03  0.91773359250E+03  0.12699999809E+01 0.  1.
       -4    1    3    3    0  502  0.13159978109E+02  0.27290569808E+03  0.15185645392E+03  0.31259030786E+03  0.12699999809E+01 0. -1.
</event>
<event>
 5   0  0.4140860E-03  0.9923587E+03  0.7818609E-02  0.9316966E-01
       -2   -1    0    0    0  501  0.00000000000E+00  0.00000000000E+00  0.86017308911E+02  0.86017308949E+02  0.25500000920E-02 0.  1.
        2   -1    0    0  501    0  0.00000000000E+00  0.00000000000E+00 -0.28621441805E+04  0.28621441805E+04  0.25500000920E-02 0. -1.
    10030    2    1    2    0    0  0.00000000000E+00  0.00000000000E+00 -0.27761268716E+04  0.29481614895E+04  0.99235868552E+03 0.  0.
        3    1    3    3  502    0  0.29427471446E+03  0.16557415410E+03 -0.24681733879E+04  0.24911628392E+04  0.10100000352E+00 0. -1.
       -3    1    3    3    0  502 -0.29427471446E+03 -0.16557415410E+03 -0.30795348366E+03  0.45699865030E+03  0.10100000352E+00 0.  1.
</event>
<event>
 5   0  0.4140860E-03  0.1002750E+04  0.7818609E-02  0.9305534E-01
        2   -1    0    0  501    0  0.00000000000E+00  0.00000000000E+00  0.18823950924E+04  0.18823950924E+04  0.25500000920E-02 0. -1.
       -2   -1    0    0    0  501  0.00000000000E+00  0.00000000000E+00 -0.13354096853E+03  0.13354096855E+03  0.25500000920E-02 0.  1.
    10030    2    1    2    0    0  0.00000000000E+00  0.00000000000E+00  0.17488541239E+04  0.20159360609E+04  0.10027499465E+04 0.  0.
        3    1    3    3  502    0 -0.25107353845E+03  0.26143736281E+03  0.15708220138E+04  0.16121008733E+04  0.10100000352E+00 0. -1.
       -3    1    3    3    0  502  0.25107353845E+03 -0.26143736281E+03  0.17803211005E+03  0.40383518766E+03  0.10100000352E+00 0.  1.
</event>
<event>
 5   0  0.4140860E-03  0.1001373E+04  0.7818609E-02  0.9307040E-01
       -2   -1    0    0    0  501  0.00000000000E+00  0.00000000000E+00  0.43928023947E+03  0.43928023947E+03  0.25500000920E-02 0.  1.
        2   -1    0    0  501    0  0.00000000000E+00  0.00000000000E+00 -0.57067683485E+03  0.57067683486E+03  0.25500000920E-02 0. -1.
    10030    2    1    2    0    0  0.00000000000E+00  0.00000000000E+00 -0.13139659539E+03  0.10099570743E+04  0.10013731706E+04 0.  0.
        3    1    3    3  502    0 -0.36141427007E+03 -0.32280807409E+03  0.61324622443E+02  0.48845270684E+03  0.10100000352E+00 0.  1.
       -3    1    3    3    0  502  0.36141427007E+03  0.32280807409E+03 -0.19272121783E+03  0.52150436749E+03  0.10100000352E+00 0. -1.
</event>
<event>
 5   0  0.2350769E-03  0.9875178E+03  0.7818609E-02  0.9322342E-01
        1   -1    0    0  501    0  0.00000000000E+00  0.00000000000E+00  0.82063586236E+03  0.82063586238E+03  0.50400001928E-02 0. -1.
       -1   -1    0    0    0  501  0.00000000000E+00  0.00000000000E+00 -0.29708407178E+03  0.29708407182E+03  0.50400001928E-02 0.  1.
    10030    2    1    2    0    0  0.00000000000E+00  0.00000000000E+00  0.52355179059E+03  0.11177199342E+04  0.98751778408E+03 0.  0.
        2    1    3    3  502    0  0.28413635364E+03 -0.16097660944E+03 -0.15739142221E+03  0.36251758032E+03  0.25500000920E-02 0.  1.
       -2    1    3    3    0  502 -0.28413635364E+03  0.16097660944E+03  0.68094321280E+03  0.75520235388E+03  0.25500000920E-02 0. -1.
</event>
<event>
 5   0  0.3873874E-03  0.9893807E+03  0.7818609E-02  0.9320269E-01
        2   -1    0    0  501    0  0.00000000000E+00  0.00000000000E+00  0.16961354931E+04  0.16961354931E+04  0.25500000920E-02 0.  1.
       -2   -1    0    0    0  501  0.00000000000E+00  0.00000000000E+00 -0.14428005249E+03  0.14428005251E+03  0.25500000920E-02 0. -1.
    10030    2    1    2    0    0  0.00000000000E+00  0.00000000000E+00  0.15518554406E+04  0.18404155456E+04  0.98938065069E+03 0.  0.
        5    1    3    3  502    0  0.32137349576E+03  0.28470621331E+03  0.31892429437E+03  0.53485824965E+03  0.46999998093E+01 0. -1.
       -5    1    3    3    0  502 -0.32137349576E+03 -0.28470621331E+03  0.12329311462E+04  0.13055572959E+04  0.46999998093E+01 0.  1.
</event>
<event>
 5   0  0.3873874E-03  0.1005470E+04  0.7818609E-02  0.9302566E-01
       -2   -1    0    0    0  501  0.00000000000E+00  0.00000000000E+00  0.52231917909E+03  0.52231917909E+03  0.25500000920E-02 0.  1.
        2   -1    0    0  501    0  0.00000000000E+00  0.00000000000E+00 -0.48388524717E+03  0.48388524718E+03  0.25500000920E-02 0. -1.
    10030    2    1    2    0    0  0.00000000000E+00  0.00000000000E+00  0.38433931917E+02  0.10062044263E+04  0.10054701290E+04 0.  0.
        5    1    3    3  502    0  0.48341231050E+03  0.12636720379E+03 -0.36179787958E+02  0.50098622655E+03  0.46999998093E+01 0. -1.
       -5    1    3    3    0  502 -0.48341231050E+03 -0.12636720379E+03  0.74613719875E+02  0.50521819972E+03  0.46999998093E+01 0.  1.
</event>
<event>
 5   0  0.3826483E-03  0.9989684E+03  0.7818609E-02  0.9309677E-01
        2   -1    0    0  501    0  0.00000000000E+00  0.00000000000E+00  0.19100256942E+04  0.19100256942E+04  0.25500000920E-02 0. -1.
       -2   -1    0    0    0  501  0.00000000000E+00  0.00000000000E+00 -0.13061837480E+03  0.13061837482E+03  0.25500000920E-02 0.  1.
    10030    2    1    2    0    0  0.00000000000E+00  0.00000000000E+00  0.17794073194E+04  0.20406440690E+04  0.99896837192E+03 0.  0.
        4    1    3    3  502    0  0.26213990394E+03  0.34524742180E+03  0.13965766377E+04  0.14623067494E+04  0.12699999809E+01 0. -1.
       -4    1    3    3    0  502 -0.26213990394E+03 -0.34524742180E+03  0.38283068169E+03  0.57833731960E+03  0.12699999809E+01 0.  1.
</event>
<event>
 5   0  0.3826483E-03  0.9393632E+03  0.7818609E-02  0.9377670E-01
       -2   -1    0    0    0  501  0.00000000000E+00  0.00000000000E+00  0.43128298674E+03  0.43128298675E+03  0.25500000920E-02 0.  1.
        2   -1    0    0  501    0  0.00000000000E+00  0.00000000000E+00 -0.51149902763E+03  0.51149902764E+03  0.25500000920E-02 0. -1.
    10030    2    1    2    0    0  0.00000000000E+00  0.00000000000E+00 -0.80216040891E+02  0.94278201439E+03  0.93936324893E+03 0.  0.
        4    1    3    3  502    0 -0.25373042162E+03 -0.55269932154E+02 -0.43289578375E+03  0.50481111789E+03  0.12699999809E+01 0. -1.
       -4    1    3    3    0  502  0.25373042162E+03  0.55269932154E+02  0.35267974286E+03  0.43797089650E+03  0.12699999809E+01 0.  1.
</event>
<event>
 5   0  0.2350769E-03  0.9813376E+03  0.7818609E-02  0.9329254E-01
       -1   -1    0    0    0  501  0.00000000000E+00  0.00000000000E+00  0.17282318920E+03  0.17282318928E+03  0.50400001928E-02 0. -1.
        1   -1    0    0  501    0  0.00000000000E+00  0.00000000000E+00 -0.13930762632E+04  0.13930762633E+04  0.50400001928E-02 0.  1.
    10030    2    1    2    0    0  0.00000000000E+00  0.00000000000E+00 -0.12202530740E+04  0.15658994525E+04  0.98133762321E+03 0.  0.
        2    1    3    3  502    0 -0.19427559694E+03  0.35075458883E+03 -0.15884534233E+03  0.43128138371E+03  0.25500000920E-02 0. -1.
       -2    1    3    3    0  502  0.19427559694E+03 -0.35075458883E+03 -0.10614077317E+04  0.11346180688E+04  0.25500000920E-02 0.  1.
</event>
<event>
 5   0  0.4140860E-03  0.9913829E+03  0.7818609E-02  0.9318047E-01
       -2   -1    0    0    0  501  0.00000000000E+00  0.00000000000E+00  0.50120183017E+03  0.50120183017E+03  0.25500000920E-02 0.  1.
        2   -1    0    0  501    0  0.00000000000E+00  0.00000000000E+00 -0.49024162836E+03  0.49024162837E+03  0.25500000920E-02 0. -1.
    10030    2    1    2    0    0  0.00000000000E+00  0.00000000000E+00  0.10960201807E+02  0.99144345854E+03  0.99138287531E+03 0.  0.
        3    1    3    3  502    0 -0.36377942646E+02 -0.24980808832E+03 -0.42114010254E+03  0.49100553140E+03  0.10100000352E+00 0. -1.
       -3    1    3    3    0  502  0.36377942646E+02  0.24980808832E+03  0.43210030434E+03  0.50043792714E+03  0.10100000352E+00 0.  1.
</event>
<event>
 5   0  0.2405022E-03  0.9957108E+03  0.7818609E-02  0.9313262E-01
       -1   -1    0    0    0  501  0.00000000000E+00  0.00000000000E+00  0.55057789206E+03  0.55057789208E+03  0.50400001928E-02 0. -1.
        1   -1    0    0  501    0  0.00000000000E+00  0.00000000000E+00 -0.45018156680E+03  0.45018156683E+03  0.50400001928E-02 0.  1.
    10030    2    1    2    0    0  0.00000000000E+00  0.00000000000E+00  0.10039632526E+03  0.10007594589E+04  0.99571083778E+03 0.  0.
        4    1    3    3  502    0 -0.43945649636E+03 -0.21515138859E+03  0.14256775500E+03  0.50964625955E+03  0.12699999809E+01 0.  1.
       -4    1    3    3    0  502  0.43945649636E+03  0.21515138859E+03 -0.42171429744E+02  0.49111319937E+03  0.12699999809E+01 0. -1.
</event>
<event>
 5   0  0.4026829E-03  0.9971159E+03  0.7818609E-02  0.9311714E-01
       -2   -1    0    0    0  501  0.00000000000E+00  0.00000000000E+00  0.21092008580E+03  0.21092008582E+03  0.25500000920E-02 0.  1.
        2   -1    0    0  501    0  0.00000000000E+00  0.00000000000E+00 -0.11784558596E+04  0.11784558596E+04  0.25500000920E-02 0. -1.
    10030    2    1    2    0    0  0.00000000000E+00  0.00000000000E+00 -0.96753577378E+03  0.13893759454E+04  0.99711586294E+03 0.  0.
        1    1    3    3  502    0 -0.20863351509E+03  0.33094536757E+03 -0.91438598378E+03  0.99456247028E+03  0.50400001928E-02 0. -1.
       -1    1    3    3    0  502  0.20863351509E+03 -0.33094536757E+03 -0.53149790007E+02  0.39481347513E+03  0.50400001928E-02 0.  1.
</event>
<event>
 5   0  0.3895011E-03  0.9896378E+03  0.7818609E-02  0.9319983E-01
        2   -1    0    0  501    0  0.00000000000E+00  0.00000000000E+00  0.10860652746E+04  0.10860652746E+04  0.25500000920E-02 0. -1.
       -2   -1    0    0    0  501  0.00000000000E+00  0.00000000000E+00 -0.22544291522E+03  0.22544291523E+03  0.25500000920E-02 0.  1.
    10030    2    1    2    0    0  0.00000000000E+00  0.00000000000E+00  0.86062235939E+03  0.13115081898E+04  0.98963775521E+03 0.  0.
        2    1    3    3  502    0  0.15752052383E+03 -0.40165548548E+03  0.10921470146E+03  0.44504796984E+03  0.25500000920E-02 0.  1.
       -2    1    3    3    0  502 -0.15752052383E+03  0.40165548548E+03  0.75140765793E+03  0.86646022000E+03  0.25500000920E-02 0. -1.
</event>
<event>
 5   0  0.2405022E-03  0.9983989E+03  0.7818609E-02  0.9310303E-01
        1   -1    0    0  501    0  0.00000000000E+00  0.00000000000E+00  0.10607286206E+04  0.10607286206E+04  0.50400001928E-02 0. -1.
       -1   -1    0    0    0  501  0.00000000000E+00  0.00000000000E+00 -0.23493294210E+03  0.23493294215E+03  0.50400001928E-02 0.  1.
    10030    2    1    2    0    0  0.00000000000E+00  0.00000000000E+00  0.82579567848E+03  0.12956615627E+04  0.99839890953E+03 0.  0.
        4    1    3    3  502    0  0.26946400822E+03  0.10736333843E+03 -0.11434340596E+03  0.31179122110E+03  0.12699999809E+01 0.  1.
       -4    1    3    3    0  502 -0.26946400822E+03 -0.10736333843E+03  0.94013908444E+03  0.98387034164E+03  0.12699999809E+01 0. -1.
</event>
<event>
 5   0  0.2350769E-03  0.1031690E+04  0.7818609E-02  0.9274455E-01
       -1   -1    0    0    0  501  0.00000000000E+00  0.00000000000E+00  0.86375519918E+03  0.86375519920E+03  0.50400001928E-02 0. -1.
        1   -1    0    0  501    0  0.00000000000E+00  0.00000000000E+00 -0.30806871698E+03  0.30806871702E+03  0.50400001928E-02 0.  1.
    10030    2    1    2    0    0  0.00000000000E+00  0.00000000000E+00  0.55568648220E+03  0.11718239162E+04  0.10316897906E+04 0.  0.
        2    1    3    3  502    0  0.49886993533E+02  0.22412991291E+03  0.80250931514E+03  0.83471200475E+03  0.25500000920E-02 0. -1.
       -2    1    3    3    0  502 -0.49886993533E+02 -0.22412991291E+03 -0.24682283294E+03  0.33711191146E+03  0.25500000920E-02 0.  1.
</event>
<event>
 5   0  0.3826483E-03  0.1003821E+04  0.7818609E-02  0.9304364E-01
        2   -1    0    0  501    0  0.00000000000E+00  0.00000000000E+00  0.10647538836E+04  0.10647538836E+04  0.25500000920E-02 0.  1.
       -2   -1    0    0    0  501  0.00000000000E+00  0.00000000000E+00 -0.23659385558E+03  0.23659385560E+03  0.25500000920E-02 0. -1.
    10030    2    1    2    0    0  0.00000000000E+00  0.00000000000E+00  0.82816002800E+03  0.13013477392E+04  0.10038211525E+04 0.  0.
        4    1    3    3  502    0  0.20441335032E+03  0.70348255705E+02 -0.17314343229E+03  0.27697284328E+03  0.12699999809E+01 0. -1.
       -4    1    3    3    0  502 -0.20441335032E+03 -0.70348255705E+02  0.10013034603E+04  0.10243748959E+04  0.12699999809E+01 0.  1.
</event>
<event>
 5   0  0.3826483E-03  0.1000999E+04  0.7818609E-02  0.9307450E-01
        2   -1    0    0  501    0  0.00000000000E+00  0.00000000000E+00  0.68126073074E+03  0.68126073075E+03  0.25500000920E-02 0.  1.
       -2   -1    0    0    0  501  0.00000000000E+00  0.00000000000E+00 -0.36769995161E+03  0.36769995162E+03  0.25500000920E-02 0. -1.
    10030    2    1    2    0    0  0.00000000000E+00  0.00000000000E+00  0.31356077913E+03  0.10489606824E+04  0.10009985769E+04 0.  0.
        4    1    3    3  502    0  0.11356837001E+03  0.38508301375E+03 -0.15638861187E+03  0.43086623559E+03  0.12699999809E+01 0. -1.
       -4    1    3    3    0  502 -0.11356837001E+03 -0.38508301375E+03  0.46994939100E+03  0.61809444678E+03  0.12699999809E+01 0.  1.
</event>
<event>
 5   0  0.2405022E-03  0.9908782E+03  0.7818609E-02  0.9318606E-01
       -1   -1    0    0    0  501  0.00000000000E+00  0.00000000000E+00  0.14515691664E+03  0.14515691673E+03  0.50400001928E-02 0.  1.
        1   -1    0    0  501    0  0.00000000000E+00  0.00000000000E+00 -0.16909968455E+04  0.16909968455E+04  0.50400001928E-02 0. -1.
    10030    2    1    2    0    0  0.00000000000E+00  0.00000000000E+00 -0.15458399289E+04  0.18361537623E+04  0.99087817261E+03 0.  0.
        4    1    3    3  502    0 -0.27398748252E+03 -0.38129475058E+03 -0.47990571839E+03  0.67139104763E+03  0.12699999809E+01 0. -1.
       -4    1    3    3    0  502  0.27398748252E+03  0.38129475058E+03 -0.10659342105E+04  0.11647627146E+04  0.12699999809E+01 0.  1.
</event>
<event>
 5   0  0.2350769E-03  0.1002543E+04  0.7818609E-02  0.9305760E-01
        1   -1    0    0  501    0  0.00000000000E+00  0.00000000000E+00  0.16279266372E+04  0.16279266372E+04  0.50400001928E-02 0.  1.
       -1   -1    0    0    0  501  0.00000000000E+00  0.00000000000E+00 -0.15435150473E+03  0.15435150481E+03  0.50400001928E-02 0. -1.
    10030    2    1    2    0    0  0.00000000000E+00  0.00000000000E+00  0.14735751324E+04  0.17822781420E+04  0.10025426198E+04 0.  0.
        2    1    3    3  502    0  0.67479493068E+01 -0.13453587294E+03 -0.12157225514E+03  0.18145315967E+03  0.25500000920E-02 0. -1.
       -2    1    3    3    0  502 -0.67479493068E+01  0.13453587294E+03  0.15951473876E+04  0.16008249823E+04  0.25500000920E-02 0.  1.
</event>
<event>
 5   0  0.3873874E-03  0.1004160E+04  0.7818609E-02  0.9303993E-01
        2   -1    0    0  501    0  0.00000000000E+00  0.00000000000E+00  0.64208703612E+03  0.64208703612E+03  0.25500000920E-02 0.  1.
       -2   -1    0    0    0  501  0.00000000000E+00  0.00000000000E+00 -0.39260180036E+03  0.39260180037E+03  0.25500000920E-02 0. -1.
    10030    2    1    2    0    0  0.00000000000E+00  0.00000000000E+00  0.24948523576E+03  0.10346888365E+04  0.10041603983E+04 0.  0.
        5    1    3    3  502    0 -0.38567777171E+03  0.21706105383E+03  0.36901437348E+03  0.57624347503E+03  0.46999998093E+01 0.  1.
       -5    1    3    3    0  502  0.38567777171E+03 -0.21706105383E+03 -0.11952913772E+03  0.45844536146E+03  0.46999998093E+01 0. -1.
</event>
<event>
 5   0  0.3873874E-03  0.9734201E+03  0.7818609E-02  0.9338187E-01
        2   -1    0    0  501    0  0.00000000000E+00  0.00000000000E+00  0.16090876424E+04  0.16090876424E+04  0.25500000920E-02 0.  1.
       -2   -1    0    0    0  501  0.00000000000E+00  0.00000000000E+00 -0.14721799441E+03  0.14721799444E+03  0.25500000920E-02 0. -1.
    10030    2    1    2    0    0  0.00000000000E+00  0.00000000000E+00  0.14618696480E+04  0.17563056368E+04  0.97342006466E+03 0.  0.
        5    1    3    3  502    0 -0.45463980991E+03 -0.15694433083E+03  0.86517592909E+03  0.98988906349E+03  0.46999998093E+01 0.  1.
       -5    1    3    3    0  502  0.45463980991E+03  0.15694433083E+03  0.59669371889E+03  0.76641657334E+03  0.46999998093E+01 0. -1.
</event>
<event>
 5   0  0.2327595E-03  0.1000080E+04  0.7818609E-02  0.9308457E-01
       -1   -1    0    0    0  501  0.00000000000E+00  0.00000000000E+00  0.33283059885E+03  0.33283059888E+03  0.50400001928E-02 0. -1.
        1   -1    0    0  501    0  0.00000000000E+00  0.00000000000E+00 -0.75125316049E+03  0.75125316051E+03  0.50400001928E-02 0.  1.
    10030    2    1    2    0    0  0.00000000000E+00  0.00000000000E+00 -0.41842256164E+03  0.10840837594E+04  0.10000800754E+04 0.  0.
        5    1    3    3  502    0 -0.19835802771E+03  0.22270057094E+03 -0.64426626921E+03  0.70995955314E+03  0.46999998093E+01 0.  1.
       -5    1    3    3    0  502  0.19835802771E+03 -0.22270057094E+03  0.22584370757E+03  0.37412420625E+03  0.46999998093E+01 0. -1.
</event>
<event>
 5   0  0.3895011E-03  0.1000868E+04  0.7818609E-02  0.9307593E-01
        2   -1    0    0  501    0  0.00000000000E+00  0.00000000000E+00  0.22893942186E+04  0.22893942186E+04  0.25500000920E-02 0. -1.
       -2   -1    0    0    0  501  0.00000000000E+00  0.00000000000E+00 -0.10938886680E+03  0.10938886683E+03  0.25500000920E-02 0.  1.
    10030    2    1    2    0    0  0.00000000000E+00  0.00000000000E+00  0.21800053518E+04  0.23987830855E+04  0.10008681018E+04 0.  0.
        2    1    3    3  502    0  0.30423857568E+03 -0.51041952491E+02  0.20344003214E+04  0.20576566914E+04  0.25500000920E-02 0. -1.
       -2    1    3    3    0  502 -0.30423857568E+03  0.51041952491E+02  0.14560503041E+03  0.34112639407E+03  0.25500000920E-02 0.  1.
</event>
<event>
 5   0  0.2405022E-03  0.1007497E+04  0.7818609E-02  0.9300360E-01
       -1   -1    0    0    0  501  0.00000000000E+00  0.00000000000E+00  0.37556137542E+03  0.37556137545E+03  0.50400001928E-02 0.  1.
        1   -1    0    0  501    0  0.00000000000E+00  0.00000000000E+00 -0.67568882945E+03  0.67568882947E+03  0.50400001928E-02 0. -1.
    10030    2    1    2    0    0  0.00000000000E+00  0.00000000000E+00 -0.30012745404E+03  0.10512502049E+04  0.10074971487E+04 0.  0.
        4    1    3    3  502    0  0.22548612854E+03  0.13264014162E+03  0.29912375593E+03  0.39738399011E+03  0.12699999809E+01 0.  1.
       -4    1    3    3    0  502 -0.22548612854E+03 -0.13264014162E+03 -0.59925120997E+03  0.65386621482E+03  0.12699999809E+01 0. -1.
</event>
<event>
 5   0  0.4140860E-03  0.9992076E+03  0.7818609E-02  0.9309414E-01
       -2   -1    0    0    0  501  0.00000000000E+00  0.00000000000E+00  0.30171576295E+03  0.30171576296E+03  0.25500000920E-02 0.  1.
        2   -1    0    0  501    0  0.00000000000E+00  0.00000000000E+00 -0.82728172722E+03  0.82728172722E+03  0.25500000920E-02 0. -1.
    10030    2    1    2    0    0  0.00000000000E+00  0.00000000000E+00 -0.52556596427E+03  0.11289974902E+04  0.99920756103E+03 0.  0.
        3    1    3    3  502    0  0.80289625022E+01  0.29691685565E+03 -0.71668478767E+03  0.77579712457E+03  0.10100000352E+00 0. -1.
       -3    1    3    3    0  502 -0.80289625022E+01 -0.29691685565E+03  0.19111882340E+03  0.35320036561E+03  0.10100000352E+00 0.  1.
</event>
<event>
 5   0  0.3873874E-03  0.9893412E+03  0.7818609E-02  0.9320313E-01
        2   -1    0    0  501    0  0.00000000000E+00  0.00000000000E+00  0.16581304925E+04  0.16581304925E+04  0.25500000920E-02 0.  1.
       -2   -1    0    0    0  501  0.00000000000E+00  0.00000000000E+00 -0.14757522755E+03  0.14757522758E+03  0.25500000920E-02 0. -1.
    10030    2    1    2    0    0  0.00000000000E+00  0.00000000000E+00  0.15105552649E+04  0.18057057200E+04  0.98934116413E+03 0.  0.
        5    1    3    3  502    0  0.42287856972E+03  0.21856832218E+03  0.10006818792E+04  0.11081447151E+04  0.46999998093E+01 0. -1.
       -5    1    3    3    0  502 -0.42287856972E+03 -0.21856832218E+03  0.50987338566E+03  0.69756100493E+03  0.46999998093E+01 0.  1.
</event>
<event>
 5   0  0.3895011E-03  0.1002154E+04  0.7818609E-02  0.9306185E-01
        2   -1    0    0  501    0  0.00000000000E+00  0.00000000000E+00  0.38834108760E+03  0.38834108761E+03  0.25500000920E-02 0. -1.
       -2   -1    0    0    0  501  0.00000000000E+00  0.00000000000E+00 -0.64654076755E+03  0.64654076755E+03  0.25500000920E-02 0.  1.
    10030    2    1    2    0    0  0.00000000000E+00  0.00000000000E+00 -0.25819967995E+03  0.10348818552E+04  0.10021543691E+04 0.  0.
        2    1    3    3  502    0  0.24746695379E+03 -0.71496789310E+02  0.31473453783E+03  0.40670568401E+03  0.25500000920E-02 0. -1.
       -2    1    3    3    0  502 -0.24746695379E+03  0.71496789310E+02 -0.57293421777E+03  0.62817617115E+03  0.25500000920E-02 0.  1.
</event>
<event>
 5   0  0.2313036E-03  0.1002794E+04  0.7818609E-02  0.9305486E-01
        1   -1    0    0  501    0  0.00000000000E+00  0.00000000000E+00  0.41754117852E+03  0.41754117855E+03  0.50400001928E-02 0.  1.
       -1   -1    0    0    0  501  0.00000000000E+00  0.00000000000E+00 -0.60209381091E+03  0.60209381093E+03  0.50400001928E-02 0. -1.
    10030    2    1    2    0    0  0.00000000000E+00  0.00000000000E+00 -0.18455263239E+03  0.10196349895E+04  0.10027940156E+04 0.  0.
        3    1    3    3  502    0  0.40492805109E+03  0.97795466558E+02 -0.37601154267E+03  0.56117320878E+03  0.10100000352E+00 0. -1.
       -3    1    3    3    0  502 -0.40492805109E+03 -0.97795466558E+02  0.19145891028E+03  0.45846178070E+03  0.10100000352E+00 0.  1.
</event>
<event>
 5   0  0.3895011E-03  0.9918778E+03  0.7818609E-02  0.9317498E-01
        2   -1    0    0  501    0  0.00000000000E+00  0.00000000000E+00  0.69124816887E+03  0.69124816888E+03  0.25500000920E-02 0. -1.
       -2   -1    0    0    0  501  0.00000000000E+00  0.00000000000E+00 -0.35581345054E+03  0.35581345055E+03  0.25500000920E-02 0.  1.
    10030    2    1    2    0    0  0.00000000000E+00  0.00000000000E+00  0.33543471833E+03  0.10470616194E+04  0.99187780730E+03 0.  0.
        2    1    3    3  502    0 -0.22060098365E+03  0.26277294899E+03 -0.21031369771E+03  0.40242548150E+03  0.25500000920E-02 0.  1.
       -2    1    3    3    0  502  0.22060098365E+03 -0.26277294899E+03  0.54574841604E+03  0.64463613793E+03  0.25500000920E-02 0. -1.
</event>
<event>
 5   0  0.2327595E-03  0.1000530E+04  0.7818609E-02  0.9307963E-01
        1   -1    0    0  501    0  0.00000000000E+00  0.00000000000E+00  0.13656613285E+04  0.13656613285E+04  0.50400001928E-02 0.  1.
       -1   -1    0    0    0  501  0.00000000000E+00  0.00000000000E+00 -0.18325573605E+03  0.18325573612E+03  0.50400001928E-02 0. -1.
    10030    2    1    2    0    0  0.00000000000E+00  0.00000000000E+00  0.11824055925E+04  0.15489170646E+04  0.10005304034E+04 0.  0.
        5    1    3    3  502    0  0.96939859021E+02 -0.44360777533E+03  0.26625753977E+03  0.52640323145E+03  0.46999998093E+01 0. -1.
       -5    1    3    3    0  502 -0.96939859021E+02  0.44360777533E+03  0.91614805269E+03  0.10225138332E+04  0.46999998093E+01 0.  1.
</event>
<event>
 5   0  0.2405022E-03  0.9219888E+03  0.7818609E-02  0.9398504E-01
       -1   -1    0    0    0  501  0.00000000000E+00  0.00000000000E+00  0.26654412873E+03  0.26654412878E+03  0.50400001928E-02 0.  1.
        1   -1    0    0  501    0  0.00000000000E+00  0.00000000000E+00 -0.79730074000E+03  0.79730074002E+03  0.50400001928E-02 0. -1.
    10030    2    1    2    0    0  0.00000000000E+00  0.00000000000E+00 -0.53075661127E+03  0.10638448688E+04  0.92198878760E+03 0.  0.
        4    1    3    3  502    0 -0.24695826573E+03 -0.13396027906E+03  0.15634165599E+03  0.32152459887E+03  0.12699999809E+01 0.  1.
       -4    1    3    3    0  502  0.24695826573E+03  0.13396027906E+03 -0.68709826726E+03  0.74232026993E+03  0.12699999809E+01 0. -1.
</event>
<event>
 5   0  0.4140860E-03  0.9965522E+03  0.7818609E-02  0.9312334E-01
       -2   -1    0    0    0  501  0.00000000000E+00  0.00000000000E+00  0.75833254147E+03  0.75833254147E+03  0.25500000920E-02 0. -1.
        2   -1    0    0  501    0  0.00000000000E+00  0.00000000000E+00 -0.32740132019E+03  0.32740132020E+03  0.25500000920E-02 0.  1.
    10030    2    1    2    0    0  0.00000000000E+00  0.00000000000E+00  0.43093122128E+03  0.10857338617E+04  0.99655220681E+03 0.  0.
        3    1    3    3  502    0  0.16687477876E+03 -0.10307842706E+03 -0.28357169830E+03  0.34479743646E+03  0.10100000352E+00 0.  1.
       -3    1    3    3    0  502 -0.16687477876E+03  0.10307842706E+03  0.71450291958E+03  0.74093642521E+03  0.10100000352E+00 0. -1.
</event>
<event>
 5   0  0.2313036E-03  0.9850240E+03  0.7818609E-02  0.9325124E-01
       -1   -1    0    0    0  501  0.00000000000E+00  0.00000000000E+00  0.24373004774E+03  0.24373004779E+03  0.50400001928E-02 0. -1.
        1   -1    0    0  501    0  0.00000000000E+00  0.00000000000E+00 -0.99523254065E+03  0.99523254066E+03  0.50400001928E-02 0.  1.
    10030    2    1    2    0    0  0.00000000000E+00  0.00000000000E+00 -0.75150249291E+03  0.12389625884E+04  0.98502400922E+03 0.  0.
        3    1    3    3  502    0 -0.44970940101E+03 -0.20066166789E+03 -0.38584614776E+03  0.62560443593E+03  0.10100000352E+00 0.  1.
       -3    1    3    3    0  502  0.44970940101E+03  0.20066166789E+03 -0.36565634515E+03  0.61335815252E+03  0.10100000352E+00 0. -1.
</event>
<event>
 5   0  0.2350769E-03  0.9857260E+03  0.7818609E-02  0.9324340E-01
       -1   -1    0    0    0  501  0.00000000000E+00  0.00000000000E+00  0.21450107388E+03  0.21450107394E+03  0.50400001928E-02 0. -1.
        1   -1    0    0  501    0  0.00000000000E+00  0.00000000000E+00 -0.11324602422E+04  0.11324602422E+04  0.50400001928E-02 0.  1.
    10030    2    1    2    0    0  0.00000000000E+00  0.00000000000E+00 -0.91795916828E+03  0.13469613161E+04  0.98572600273E+03 0.  0.
        2    1    3    3  502    0  0.41973240101E+03 -0.14557005160E+03 -0.16734863419E+03  0.47473307632E+03  0.25500000920E-02 0. -1.
       -2    1    3    3    0  502 -0.41973240101E+03  0.14557005160E+03 -0.75061053409E+03  0.87222823979E+03  0.25500000920E-02 0.  1.
</event>
<event>
 5   0  0.2350769E-03  0.1000607E+04  0.7818609E-02  0.9307879E-01
       -1   -1    0    0    0  501  0.00000000000E+00  0.00000000000E+00  0.56143649032E+03  0.56143649034E+03  0.50400001928E-02 0. -1.
        1   -1    0    0  501    0  0.00000000000E+00  0.00000000000E+00 -0.44582696127E+03  0.44582696130E+03  0.50400001928E-02 0.  1.
    10030    2    1    2    0    0  0.00000000000E+00  0.00000000000E+00  0.11560952905E+03  0.10072634516E+04  0.10006068648E+04 0.  0.
        2    1    3    3  502    0 -0.35283296105E+03  0.28064604473E+03  0.27615840839E+03  0.52869345311E+03  0.25500000920E-02 0. -1.
       -2    1    3    3    0  502  0.35283296105E+03 -0.28064604473E+03 -0.16054887934E+03  0.47856999853E+03  0.25500000920E-02 0.  1.
</event>
<event>
 5   0  0.3826483E-03  0.9130301E+03  0.7818609E-02  0.9409438E-01
        2   -1    0    0  501    0  0.00000000000E+00  0.00000000000E+00  0.49398219302E+03  0.49398219303E+03  0.25500000920E-02 0.  1.
       -2   -1    0    0    0  501  0.00000000000E+00  0.00000000000E+00 -0.42188969577E+03  0.42188969577E+03  0.25500000920E-02 0. -1.
    10030    2    1    2    0    0  0.00000000000E+00  0.00000000000E+00  0.72092497254E+02  0.91587188880E+03  0.91303011371E+03 0.  0.
        4    1    3    3  502    0  0.42666188031E+03  0.15906799124E+03  0.33657390405E+01  0.45536351088E+03  0.12699999809E+01 0. -1.
       -4    1    3    3    0  502 -0.42666188031E+03 -0.15906799124E+03  0.68726758213E+02  0.46050837792E+03  0.12699999809E+01 0.  1.
</event>
<event>
 5   0  0.2405022E-03  0.1004095E+04  0.7818609E-02  0.9304065E-01
        1   -1    0    0  501    0  0.00000000000E+00  0.00000000000E+00  0.53854354668E+03  0.53854354670E+03  0.50400001928E-02 0. -1.
       -1   -1    0    0    0  501  0.00000000000E+00  0.00000000000E+00 -0.46802477288E+03  0.46802477291E+03  0.50400001928E-02 0.  1.
    10030    2    1    2    0    0  0.00000000000E+00  0.00000000000E+00  0.70518773797E+02  0.10065683196E+04  0.10040950576E+04 0.  0.
        4    1    3    3  502    0  0.26761162887E+03  0.16378099461E+03 -0.35763700960E+03  0.47575838578E+03  0.12699999809E+01 0.  1.
       -4    1    3    3    0  502 -0.26761162887E+03 -0.16378099461E+03  0.42815578340E+03  0.53080993384E+03  0.12699999809E+01 0. -1.
</event>
<event>
 5   0  0.2378609E-03  0.9964773E+03  0.7818609E-02  0.9312417E-01
       -1   -1    0    0    0  501  0.00000000000E+00  0.00000000000E+00  0.15579301705E+03  0.15579301713E+03  0.50400001928E-02 0.  1.
        1   -1    0    0  501    0  0.00000000000E+00  0.00000000000E+00 -0.15934074328E+04  0.15934074328E+04  0.50400001928E-02 0. -1.
    10030    2    1    2    0    0  0.00000000000E+00  0.00000000000E+00 -0.14376144157E+04  0.17492004499E+04  0.99647729812E+03 0.  0.
        1    1    3    3  502    0 -0.26999671815E+03  0.30285759830E+03 -0.12264162237E+04  0.12917885688E+04  0.50400001928E-02 0. -1.
       -1    1    3    3    0  502  0.26999671815E+03 -0.30285759830E+03 -0.21119819203E+03  0.45741188113E+03  0.50400001928E-02 0.  1.
</event>
<event>
 5   0  0.3873874E-03  0.9993328E+03  0.7818609E-02  0.9309277E-01
       -2   -1    0    0    0  501  0.00000000000E+00  0.00000000000E+00  0.41063417924E+03  0.41063417925E+03  0.25500000920E-02 0. -1.
        2   -1    0    0  501    0  0.00000000000E+00  0.00000000000E+00 -0.60800221894E+03  0.60800221894E+03  0.25500000920E-02 0.  1.
    10030    2    1    2    0    0  0.00000000000E+00  0.00000000000E+00 -0.19736803969E+03  0.10186363982E+04  0.99933276171E+03 0.  0.
        5    1    3    3  502    0 -0.32776627926E+03 -0.94006931557E+02 -0.47094584635E+03  0.58144657295E+03  0.46999998093E+01 0.  1.
       -5    1    3    3    0  502  0.32776627926E+03  0.94006931557E+02  0.27357780666E+03  0.43718982524E+03  0.46999998093E+01 0. -1.
</event>
<event>
 5   0  0.4026829E-03  0.9977496E+03  0.7818609E-02  0.9311016E-01
       -2   -1    0    0    0  501  0.00000000000E+00  0.00000000000E+00  0.16238827142E+03  0.16238827144E+03  0.25500000920E-02 0. -1.
        2   -1    0    0  501    0  0.00000000000E+00  0.00000000000E+00 -0.15325987698E+04  0.15325987698E+04  0.25500000920E-02 0.  1.
    10030    2    1    2    0    0  0.00000000000E+00  0.00000000000E+00 -0.13702104983E+04  0.16949870412E+04  0.99774959788E+03 0.  0.
        1    1    3    3  502    0 -0.27366978247E+03 -0.25319785400E+03 -0.12200221792E+03  0.39228668638E+03  0.50400001928E-02 0. -1.
       -1    1    3    3    0  502  0.27366978247E+03  0.25319785400E+03 -0.12482082804E+04  0.13027003548E+04  0.50400001928E-02 0.  1.
</event>
<event>
 5   0  0.4026829E-03  0.1010173E+04  0.7818609E-02  0.9297457E-01
       -2   -1    0    0    0  501  0.00000000000E+00  0.00000000000E+00  0.31953062425E+03  0.31953062426E+03  0.25500000920E-02 0. -1.
        2   -1    0    0  501    0  0.00000000000E+00  0.00000000000E+00 -0.79839788533E+03  0.79839788533E+03  0.25500000920E-02 0.  1.
    10030    2    1    2    0    0  0.00000000000E+00  0.00000000000E+00 -0.47886726108E+03  0.11179285096E+04  0.10101734004E+04 0.  0.
        1    1    3    3  502    0 -0.16364808363E+03  0.28384920291E+03 -0.66483488139E+03  0.74118586388E+03  0.50400001928E-02 0.  1.
       -1    1    3    3    0  502  0.16364808363E+03 -0.28384920291E+03  0.18596762031E+03  0.37674264571E+03  0.50400001928E-02 0. -1.
</event>
<event>
 5   0  0.2313036E-03  0.1000490E+04  0.7818609E-02  0.9308007E-01
       -1   -1    0    0    0  501  0.00000000000E+00  0.00000000000E+00  0.52878993637E+03  0.52878993639E+03  0.50400001928E-02 0. -1.
        1   -1    0    0  501    0  0.00000000000E+00  0.00000000000E+00 -0.47324127298E+03  0.47324127301E+03  0.50400001928E-02 0.  1.
    10030    2    1    2    0    0  0.00000000000E+00  0.00000000000E+00  0.55548663387E+02  0.10020312094E+04  0.10004903251E+04 0.  0.
        3    1    3    3  502    0 -0.24179778572E+03 -0.86314723890E+02  0.45777087736E+03  0.52485291949E+03  0.10100000352E+00 0. -1.
       -3    1    3    3    0  502  0.24179778572E+03  0.86314723890E+02 -0.40222221398E+03  0.47717828990E+03  0.10100000352E+00 0.  1.
</event>
<event>
 5   0  0.3873874E-03  0.1002659E+04  0.7818609E-02  0.9305633E-01
       -2   -1    0    0    0  501  0.00000000000E+00  0.00000000000E+00  0.29845525938E+03  0.29845525939E+03  0.25500000920E-02 0. -1.
        2   -1    0    0  501    0  0.00000000000E+00  0.00000000000E+00 -0.84210695988E+03  0.84210695988E+03  0.25500000920E-02 0.  1.
    10030    2    1    2    0    0  0.00000000000E+00  0.00000000000E+00 -0.54365170050E+03  0.11405622193E+04  0.10026589672E+04 0.  0.
        5    1    3    3  502    0  0.47712537372E+03  0.13718915759E+03 -0.35096179484E+03  0.60800144625E+03  0.46999998093E+01 0. -1.
       -5    1    3    3    0  502 -0.47712537372E+03 -0.13718915759E+03 -0.19268990566E+03  0.53256077301E+03  0.46999998093E+01 0.  1.
</event>
<event>
 5   0  0.3895011E-03  0.1058013E+04  0.7818609E-02  0.9247110E-01
        2   -1    0    0  501    0  0.00000000000E+00  0.00000000000E+00  0.41438727610E+03  0.41438727611E+03  0.25500000920E-02 0.  1.
       -2   -1    0    0    0  501  0.00000000000E+00  0.00000000000E+00 -0.67532912880E+03  0.67532912881E+03  0.25500000920E-02 0. -1.
    10030    2    1    2    0    0  0.00000000000E+00  0.00000000000E+00 -0.26094185270E+03  0.10897164049E+04  0.10580128509E+04 0.  0.
        2    1    3    3  502    0  0.15256596639E+03 -0.50629882053E+03 -0.11475160640E+03  0.54109407773E+03  0.25500000920E-02 0.  1.
       -2    1    3    3    0  502 -0.15256596639E+03  0.50629882053E+03 -0.14619024630E+03  0.54862232719E+03  0.25500000920E-02 0. -1.
</event>
<event>
 5   0  0.2327595E-03  0.1008773E+04  0.7818609E-02  0.9298975E-01
        1   -1    0    0  501    0  0.00000000000E+00  0.00000000000E+00  0.73388080568E+03  0.73388080569E+03  0.50400001928E-02 0.  1.
       -1   -1    0    0    0  501  0.00000000000E+00  0.00000000000E+00 -0.34665805327E+03  0.34665805330E+03  0.50400001928E-02 0. -1.
    10030    2    1    2    0    0  0.00000000000E+00  0.00000000000E+00  0.38722275241E+03  0.10805388590E+04  0.10087729010E+04 0.  0.
        5    1    3    3  502    0 -0.35137051066E+03 -0.12305304120E+03  0.55808352368E+03  0.67088195393E+03  0.46999998093E+01 0.  1.
       -5    1    3    3    0  502  0.35137051066E+03  0.12305304120E+03 -0.17086077128E+03  0.40965690506E+03  0.46999998093E+01 0. -1.
</event>
<event>
 5   0  0.4026829E-03  0.1002556E+04  0.7818609E-02  0.9305746E-01
       -2   -1    0    0    0  501  0.00000000000E+00  0.00000000000E+00  0.30681946953E+03  0.30681946954E+03  0.25500000920E-02 0. -1.
        2   -1    0    0  501    0  0.00000000000E+00  0.00000000000E+00 -0.81898201669E+03  0.81898201670E+03  0.25500000920E-02 0.  1.
    10030    2    1    2    0    0  0.00000000000E+00  0.00000000000E+00 -0.51216254716E+03  0.11258014862E+04  0.10025559893E+04 0.  0.
        1    1    3    3  502    0  0.15237432483E+03  0.21148559319E+02  0.27965749975E+03  0.31917630491E+03  0.50400001928E-02 0. -1.
       -1    1    3    3    0  502 -0.15237432483E+03 -0.21148559319E+02 -0.79182004691E+03  0.80662518132E+03  0.50400001928E-02 0.  1.
</event>
<event>
 5   0  0.3826483E-03  0.9932758E+03  0.7818609E-02  0.9315951E-01
        2   -1    0    0  501    0  0.00000000000E+00  0.00000000000E+00  0.56984545680E+03  0.56984545680E+03  0.25500000920E-02 0. -1.
       -2   -1    0    0    0  501  0.00000000000E+00  0.00000000000E+00 -0.43283527732E+03  0.43283527733E+03  0.25500000920E-02 0.  1.
    10030    2    1    2    0    0  0.00000000000E+00  0.00000000000E+00  0.13701017948E+03  0.10026807341E+04  0.99327582539E+03 0.  0.
        4    1    3    3  502    0 -0.23419403498E+02 -0.39803456297E+01 -0.43225979661E+03  0.43291391324E+03  0.12699999809E+01 0.  1.
       -4    1    3    3    0  502  0.23419403498E+02  0.39803456297E+01  0.56926997609E+03  0.56976682089E+03  0.12699999809E+01 0. -1.
</event>
<event>
 5   0  0.4026829E-03  0.1002907E+04  0.7818609E-02  0.9305362E-01
        2   -1    0    0  501    0  0.00000000000E+00  0.00000000000E+00  0.79416124940E+03  0.79416124940E+03  0.25500000920E-02 0.  1.
       -2   -1    0    0    0  501  0.00000000000E+00  0.00000000000E+00 -0.31663035844E+03  0.31663035845E+03  0.25500000920E-02 0. -1.
    10030    2    1    2    0    0  0.00000000000E+00  0.00000000000E+00  0.47753089095E+03  0.11107916079E+04  0.10029068971E+04 0.  0.
        1    1    3    3  502    0  0.55891796854E+02  0.23871767552E+03  0.72325134658E+03  0.76367698140E+03  0.50400001928E-02 0.  1.
       -1    1    3    3    0  502 -0.55891796854E+02 -0.23871767552E+03 -0.24572045563E+03  0.34711462646E+03  0.50400001928E-02 0. -1.
</event>
<event>
 5   0  0.3895011E-03  0.9971793E+03  0.7818609E-02  0.9311644E-01
       -2   -1    0    0    0  501  0.00000000000E+00  0.00000000000E+00  0.39178698536E+03  0.39178698537E+03  0.25500000920E-02 0.  1.
        2   -1    0    0  501    0  0.00000000000E+00  0.00000000000E+00 -0.63450712440E+03  0.63450712441E+03  0.25500000920E-02 0. -1.
    10030    2    1    2    0    0  0.00000000000E+00  0.00000000000E+00 -0.24272013904E+03  0.10262941098E+04  0.99717928872E+03 0.  0.
        2    1    3    3  502    0 -0.89434389128E+02 -0.13014710958E+03  0.36536952137E+03  0.39803475632E+03  0.25500000920E-02 0.  1.
       -2    1    3    3    0  502  0.89434389128E+02  0.13014710958E+03 -0.60808966041E+03  0.62825935345E+03  0.25500000920E-02 0. -1.
</event>
<event>
 5   0  0.2350769E-03  0.9989745E+03  0.7818609E-02  0.9309670E-01
       -1   -1    0    0    0  501  0.00000000000E+00  0.00000000000E+00  0.31531377837E+03  0.31531377841E+03  0.50400001928E-02 0.  1.
        1   -1    0    0  501    0  0.00000000000E+00  0.00000000000E+00 -0.79123569498E+03  0.79123569499E+03  0.50400001928E-02 0. -1.
    10030    2    1    2    0    0  0.00000000000E+00  0.00000000000E+00 -0.47592191661E+03  0.11065494734E+04  0.99897450737E+03 0.  0.
        2    1    3    3  502    0 -0.27578542221E+03  0.37994216151E+03 -0.49088835014E+02  0.47204169193E+03  0.25500000920E-02 0.  1.
       -2    1    3    3    0  502  0.27578542221E+03 -0.37994216151E+03 -0.42683308159E+03  0.63450778147E+03  0.25500000920E-02 0. -1.
</event>
<event>
 5   0  0.2350769E-03  0.9841571E+03  0.7818609E-02  0.9326094E-01
        1   -1    0    0  501    0  0.00000000000E+00  0.00000000000E+00  0.39435230242E+03  0.39435230245E+03  0.50400001928E-02 0. -1.
       -1   -1    0    0    0  501  0.00000000000E+00  0.00000000000E+00 -0.61402279812E+03  0.61402279814E+03  0.50400001928E-02 0.  1.
    10030    2    1    2    0    0  0.00000000000E+00  0.00000000000E+00 -0.21967049570E+03  0.10083751006E+04  0.98415710982E+03 0.  0.
        2    1    3    3  502    0  0.28986678170E+02 -0.51854167495E+02 -0.61033517831E+03  0.61321946487E+03  0.25500000920E-02 0.  1.
       -2    1    3    3    0  502 -0.28986678170E+02  0.51854167495E+02  0.39066468262E+03  0.39515563573E+03  0.25500000920E-02 0. -1.
</event>
<event>
 5   0  0.4026829E-03  0.1007704E+04  0.7818609E-02  0.9300136E-01
       -2   -1    0    0    0  501  0.00000000000E+00  0.00000000000E+00  0.12749589283E+03  0.12749589286E+03  0.25500000920E-02 0. -1.
        2   -1    0    0  501    0  0.00000000000E+00  0.00000000000E+00 -0.19911758973E+04  0.19911758973E+04  0.25500000920E-02 0.  1.
    10030    2    1    2    0    0  0.00000000000E+00  0.00000000000E+00 -0.18636800045E+04  0.21186717902E+04  0.10077038233E+04 0.  0.
        1    1    3    3  502    0  0.18595629692E+03 -0.12258354182E+03 -0.18820568775E+04  0.18951898478E+04  0.50400001928E-02 0.  1.
       -1    1    3    3    0  502 -0.18595629692E+03  0.12258354182E+03  0.18376872991E+02  0.22348194239E+03  0.50400001928E-02 0. -1.
</event>
<event>
 5   0  0.2378609E-03  0.1007742E+04  0.7818609E-02  0.9300095E-01
       -1   -1    0    0    0  501  0.00000000000E+00  0.00000000000E+00  0.25416695953E+03  0.25416695958E+03  0.50400001928E-02 0.  1.
        1   -1    0    0  501    0  0.00000000000E+00  0.00000000000E+00 -0.99889364530E+03  0.99889364532E+03  0.50400001928E-02 0. -1.
    10030    2    1    2    0    0  0.00000000000E+00  0.00000000000E+00 -0.74472668577E+03  0.12530606049E+04  0.10077415557E+04 0.  0.
        1    1    3    3  502    0  0.32612622281E+03 -0.15891597044E+03  0.62435600555E+02  0.36811792011E+03  0.50400001928E-02 0.  1.
       -1    1    3    3    0  502 -0.32612622281E+03  0.15891597044E+03 -0.80716228633E+03  0.88494268479E+03  0.50400001928E-02 0. -1.
</event>
<event>
 5   0  0.2327595E-03  0.1002522E+04  0.7818609E-02  0.9305783E-01
       -1   -1    0    0    0  501  0.00000000000E+00  0.00000000000E+00  0.11048467971E+03  0.11048467983E+03  0.50400001928E-02 0.  1.
        1   -1    0    0  501    0  0.00000000000E+00  0.00000000000E+00 -0.22741860011E+04  0.22741860011E+04  0.50400001928E-02 0. -1.
    10030    2    1    2    0    0  0.00000000000E+00  0.00000000000E+00 -0.21637013214E+04  0.23846706809E+04  0.10025222433E+04 0.  0.
        5    1    3    3  502    0  0.31491030092E+03 -0.31029804130E+03 -0.52002461101E+03  0.68256945295E+03  0.46999998093E+01 0.  1.
       -5    1    3    3    0  502 -0.31491030092E+03  0.31029804130E+03 -0.16436767104E+04  0.17021012280E+04  0.46999998093E+01 0. -1.
</event>
<event>
 5   0  0.4026829E-03  0.9999568E+03  0.7818609E-02  0.9308592E-01
        2   -1    0    0  501    0  0.00000000000E+00  0.00000000000E+00  0.45401451057E+03  0.45401451058E+03  0.25500000920E-02 0.  1.
       -2   -1    0    0    0  501  0.00000000000E+00  0.00000000000E+00 -0.55059562158E+03  0.55059562159E+03  0.25500000920E-02 0. -1.
    10030    2    1    2    0    0  0.00000000000E+00  0.00000000000E+00 -0.96581111015E+02  0.10046101322E+04  0.99995680239E+03 0.  0.
        1    1    3    3  502    0  0.20249706223E+03 -0.32471689211E+02  0.40981265085E+03  0.45826398466E+03  0.50400001928E-02 0.  1.
       -1    1    3    3    0  502 -0.20249706223E+03  0.32471689211E+02 -0.50639376187E+03  0.54634614751E+03  0.50400001928E-02 0. -1.
</event>
<event>
 5   0  0.2405022E-03  0.1000561E+04  0.7818609E-02  0.9307930E-01
       -1   -1    0    0    0  501  0.00000000000E+00  0.00000000000E+00  0.39906880800E+03  0.39906880803E+03  0.50400001928E-02 0.  1.
        1   -1    0    0  501    0  0.00000000000E+00  0.00000000000E+00 -0.62716167427E+03  0.62716167429E+03  0.50400001928E-02 0. -1.
    10030    2    1    2    0    0  0.00000000000E+00  0.00000000000E+00 -0.22809286627E+03  0.10262304823E+04  0.10005611661E+04 0.  0.
        4    1    3    3  502    0 -0.83033786434E+02  0.29419773771E+03 -0.52022666981E+03  0.60339400018E+03  0.12699999809E+01 0. -1.
       -4    1    3    3    0  502  0.83033786434E+02 -0.29419773771E+03  0.29213380354E+03  0.42283648215E+03  0.12699999809E+01 0.  1.
</event>
<event>
 5   0  0.3895011E-03  0.9861454E+03  0.7818609E-02  0.9323872E-01
       -2   -1    0    0    0  501  0.00000000000E+00  0.00000000000E+00  0.19090131142E+03  0.19090131144E+03  0.25500000920E-02 0.  1.
        2   -1    0    0  501    0  0.00000000000E+00  0.00000000000E+00 -0.12735411066E+04  0.12735411066E+04  0.25500000920E-02 0. -1.
    10030    2    1    2    0    0  0.00000000000E+00  0.00000000000E+00 -0.10826397951E+04  0.14644424180E+04  0.98614535927E+03 0.  0.
        2    1    3    3  502    0  0.65354574077E+02 -0.21496672879E+03  0.11046334904E+03  0.25036786201E+03  0.25500000920E-02 0.  1.
       -2    1    3    3    0  502 -0.65354574077E+02  0.21496672879E+03 -0.11931031442E+04  0.12140745560E+04  0.25500000920E-02 0. -1.
</event>
<event>
 5   0  0.2405022E-03  0.9999892E+03  0.7818609E-02  0.9308557E-01
       -1   -1    0    0    0  501  0.00000000000E+00  0.00000000000E+00  0.43825352783E+03  0.43825352786E+03  0.50400001928E-02 0. -1.
        1   -1    0    0  501    0  0.00000000000E+00  0.00000000000E+00 -0.57043372606E+03  0.57043372608E+03  0.50400001928E-02 0.  1.
    10030    2    1    2    0    0  0.00000000000E+00  0.00000000000E+00 -0.13218019823E+03  0.10086872539E+04  0.99998918568E+03 0.  0.
        4    1    3    3  502    0  0.28440481111E+03 -0.90748215342E+02  0.33848670619E+03  0.45132715223E+03  0.12699999809E+01 0. -1.
       -4    1    3    3    0  502 -0.28440481111E+03  0.90748215342E+02 -0.47066690442E+03  0.55736010172E+03  0.12699999809E+01 0.  1.
</event>
<event>
 5   0  0.2378609E-03  0.1008785E+04  0.7818609E-02  0.9298962E-01
       -1   -1    0    0    0  501  0.00000000000E+00  0.00000000000E+00  0.74200213398E+03  0.74200213400E+03  0.50400001928E-02 0. -1.
        1   -1    0    0  501    0  0.00000000000E+00  0.00000000000E+00 -0.34287179583E+03  0.34287179586E+03  0.50400001928E-02 0.  1.
    10030    2    1    2    0    0  0.00000000000E+00  0.00000000000E+00  0.39913033815E+03  0.10848739299E+04  0.10087846236E+04 0.  0.
        1    1    3    3  502    0 -0.48267125130E+03 -0.14338599903E+03  0.23147695295E+03  0.55417746374E+03  0.50400001928E-02 0. -1.
       -1    1    3    3    0  502  0.48267125130E+03  0.14338599903E+03  0.16765338521E+03  0.53069646612E+03  0.50400001928E-02 0.  1.
</event>
<event>
 5   0  0.3873874E-03  0.9960333E+03  0.7818609E-02  0.9312906E-01
       -2   -1    0    0    0  501  0.00000000000E+00  0.00000000000E+00  0.72568588640E+03  0.72568588641E+03  0.25500000920E-02 0.  1.
        2   -1    0    0  501    0  0.00000000000E+00  0.00000000000E+00 -0.34177405374E+03  0.34177405375E+03  0.25500000920E-02 0. -1.
    10030    2    1    2    0    0  0.00000000000E+00  0.00000000000E+00  0.38391183266E+03  0.10674599402E+04  0.99603334712E+03 0.  0.
        5    1    3    3  502    0 -0.30686934370E+03 -0.13362481637E+03 -0.20323399916E+03  0.39159996688E+03  0.46999998093E+01 0. -1.
       -5    1    3    3    0  502  0.30686934370E+03  0.13362481637E+03  0.58714583182E+03  0.67585997327E+03  0.46999998093E+01 0.  1.
</event>
<event>
 5   0  0.2313036E-03  0.1001137E+04  0.7818609E-02  0.9307299E-01
       -1   -1    0    0    0  501  0.00000000000E+00  0.00000000000E+00  0.31336587609E+03  0.31336587613E+03  0.50400001928E-02 0. -1.
        1   -1    0    0  501    0  0.00000000000E+00  0.00000000000E+00 -0.79960465617E+03  0.79960465618E+03  0.50400001928E-02 0.  1.
    10030    2    1    2    0    0  0.00000000000E+00  0.00000000000E+00 -0.48623878008E+03  0.11129705323E+04  0.10011369809E+04 0.  0.
        3    1    3    3  502    0 -0.46970807806E+03  0.97368338449E+02 -0.84092764909E+02  0.48700911207E+03  0.10100000352E+00 0. -1.
       -3    1    3    3    0  502  0.46970807806E+03 -0.97368338449E+02 -0.40214601517E+03  0.62596142025E+03  0.10100000352E+00 0.  1.
</event>
<event>
 5   0  0.2313036E-03  0.9999839E+03  0.7818609E-02  0.9308562E-01
       -1   -1    0    0    0  501  0.00000000000E+00  0.00000000000E+00  0.94226772089E+03  0.94226772090E+03  0.50400001928E-02 0. -1.
        1   -1    0    0  501    0  0.00000000000E+00  0.00000000000E+00 -0.26530884220E+03  0.26530884224E+03  0.50400001928E-02 0.  1.
    10030    2    1    2    0    0  0.00000000000E+00  0.00000000000E+00  0.67695887869E+03  0.12075765631E+04  0.99998391608E+03 0.  0.
        3    1    3    3  502    0  0.34336133289E+03  0.38281154796E+02  0.77493726692E+03  0.84846345213E+03  0.10100000352E+00 0. -1.
       -3    1    3    3    0  502 -0.34336133289E+03 -0.38281154796E+02 -0.97978388234E+02  0.35911311101E+03  0.10100000352E+00 0.  1.
</event>
<event>
 5   0  0.3895011E-03  0.1011100E+04  0.7818609E-02  0.9296453E-01
       -2   -1    0    0    0  501  0.00000000000E+00  0.00000000000E+00  0.21503654297E+03  0.21503654298E+03  0.25500000920E-02 0. -1.
        2   -1    0    0  501    0  0.00000000000E+00  0.00000000000E+00 -0.11885469977E+04  0.11885469977E+04  0.25500000920E-02 0.  1.
    10030    2    1    2    0    0  0.00000000000E+00  0.00000000000E+00 -0.97351045472E+03  0.14035835407E+04  0.10111004649E+04 0.  0.
        2    1    3    3  502    0  0.14407821084E+03  0.86605221784E+02 -0.11486130880E+04  0.11608492673E+04  0.25500000920E-02 0.  1.
       -2    1    3    3    0  502 -0.14407821084E+03 -0.86605221784E+02  0.17510263333E+03  0.24273427340E+03  0.25500000920E-02 0. -1.
</event>
<event>
 5   0  0.3826483E-03  0.1006888E+04  0.7818609E-02  0.9301023E-01
       -2   -1    0    0    0  501  0.00000000000E+00  0.00000000000E+00  0.76812608496E+03  0.76812608497E+03  0.25500000920E-02 0. -1.
        2   -1    0    0  501    0  0.00000000000E+00  0.00000000000E+00 -0.32996623157E+03  0.32996623158E+03  0.25500000920E-02 0.  1.
    10030    2    1    2    0    0  0.00000000000E+00  0.00000000000E+00  0.43815985339E+03  0.10980923165E+04  0.10068876196E+04 0.  0.
        4    1    3    3  502    0  0.21746098293E+03 -0.22698275840E+03 -0.20978826285E+03  0.37791954148E+03  0.12699999809E+01 0.  1.
       -4    1    3    3    0  502 -0.21746098293E+03  0.22698275840E+03  0.64794811624E+03  0.72017277506E+03  0.12699999809E+01 0. -1.
</event>
<event>
 5   0  0.2313036E-03  0.1003681E+04  0.7818609E-02  0.9304517E-01
        1   -1    0    0  501    0  0.00000000000E+00  0.00000000000E+00  0.85918773844E+03  0.85918773845E+03  0.50400001928E-02 0. -1.
       -1   -1    0    0    0  501  0.00000000000E+00  0.00000000000E+00 -0.29311850635E+03  0.29311850639E+03  0.50400001928E-02 0.  1.
    10030    2    1    2    0    0  0.00000000000E+00  0.00000000000E+00  0.56606923209E+03  0.11523062448E+04  0.10036808788E+04 0.  0.
        3    1    3    3  502    0 -0.17341757096E+03  0.42569154951E+03  0.51825759858E+02  0.46257201475E+03  0.10100000352E+00 0.  1.
       -3    1    3    3    0  502  0.17341757096E+03 -0.42569154951E+03  0.51424347223E+03  0.68973423010E+03  0.10100000352E+00 0. -1.
</event>
<event>
 5   0  0.3895011E-03  0.1001786E+04  0.7818609E-02  0.9306589E-01
        2   -1    0    0  501    0  0.00000000000E+00  0.00000000000E+00  0.43506565721E+03  0.43506565722E+03  0.25500000920E-02 0. -1.
       -2   -1    0    0    0  501  0.00000000000E+00  0.00000000000E+00 -0.57667980817E+03  0.57667980817E+03  0.25500000920E-02 0.  1.
    10030    2    1    2    0    0  0.00000000000E+00  0.00000000000E+00 -0.14161415096E+03  0.10117454654E+04  0.10017855654E+04 0.  0.
        2    1    3    3  502    0 -0.46199018272E+03 -0.11754849147E+03  0.84477902787E+02  0.48413747308E+03  0.25500000920E-02 0. -1.
       -2    1    3    3    0  502  0.46199018272E+03  0.11754849147E+03 -0.22609205375E+03  0.52760799231E+03  0.25500000920E-02 0.  1.
</event>
<event>
 5   0  0.3826483E-03  0.1004484E+04  0.7818609E-02  0.9303640E-01
       -2   -1    0    0    0  501  0.00000000000E+00  0.00000000000E+00  0.63068772514E+03  0.63068772515E+03  0.25500000920E-02 0.  1.
        2   -1    0    0  501    0  0.00000000000E+00  0.00000000000E+00 -0.39995559170E+03  0.39995559171E+03  0.25500000920E-02 0. -1.
    10030    2    1    2    0    0  0.00000000000E+00  0.00000000000E+00  0.23073213345E+03  0.10306433169E+04  0.10044841110E+04 0.  0.
        4    1    3    3  502    0  0.93788665620E+02  0.40430348500E+03 -0.17482051406E+03  0.45035702150E+03  0.12699999809E+01 0. -1.
       -4    1    3    3    0  502 -0.93788665620E+02 -0.40430348500E+03  0.40555264750E+03  0.58028629535E+03  0.12699999809E+01 0.  1.
</event>
<event>
 5   0  0.4140860E-03  0.9980046E+03  0.7818609E-02  0.9310736E-01
       -2   -1    0    0    0  501  0.00000000000E+00  0.00000000000E+00  0.19262537065E+03  0.19262537066E+03  0.25500000920E-02 0. -1.
        2   -1    0    0  501    0  0.00000000000E+00  0.00000000000E+00 -0.12926818443E+04  0.12926818444E+04  0.25500000920E-02 0.  1.
    10030    2    1    2    0    0  0.00000000000E+00  0.00000000000E+00 -0.11000564737E+04  0.14853072150E+04  0.99800464811E+03 0.  0.
        3    1    3    3  502    0 -0.94867430676E+02 -0.23288950434E+03  0.91427647068E+02  0.26757499039E+03  0.10100000352E+00 0. -1.
       -3    1    3    3    0  502  0.94867430676E+02  0.23288950434E+03 -0.11914841208E+04  0.12177322246E+04  0.10100000352E+00 0.  1.
</event>
<event>
 5   0  0.2313036E-03  0.1002689E+04  0.7818609E-02  0.9305601E-01
       -1   -1    0    0    0  501  0.00000000000E+00  0.00000000000E+00  0.26552387173E+03  0.26552387178E+03  0.50400001928E-02 0. -1.
        1   -1    0    0  501    0  0.00000000000E+00  0.00000000000E+00 -0.94660450944E+03  0.94660450945E+03  0.50400001928E-02 0.  1.
    10030    2    1    2    0    0  0.00000000000E+00  0.00000000000E+00 -0.68108063770E+03  0.12121283812E+04  0.10026885745E+04 0.  0.
        3    1    3    3  502    0 -0.25880174747E+03 -0.31976402321E+03 -0.68696084006E+03  0.80071379469E+03  0.10100000352E+00 0. -1.
       -3    1    3    3    0  502  0.25880174747E+03  0.31976402321E+03  0.58802023584E+01  0.41141458653E+03  0.10100000352E+00 0.  1.
</event>
<event>
 5   0  0.3895011E-03  0.1004408E+04  0.7818609E-02  0.9303723E-01
        2   -1    0    0  501    0  0.00000000000E+00  0.00000000000E+00  0.72061299485E+03  0.72061299485E+03  0.25500000920E-02 0.  1.
       -2   -1    0    0    0  501  0.00000000000E+00  0.00000000000E+00 -0.34999210240E+03  0.34999210241E+03  0.25500000920E-02 0. -1.
    10030    2    1    2    0    0  0.00000000000E+00  0.00000000000E+00  0.37062089245E+03  0.10706050973E+04  0.10044079989E+04 0.  0.
        2    1    3    3  502    0  0.16295402242E+03  0.14528661259E+03  0.66738623789E+03  0.70218701480E+03  0.25500000920E-02 0.  1.
       -2    1    3    3    0  502 -0.16295402242E+03 -0.14528661259E+03 -0.29676534544E+03  0.36841808246E+03  0.25500000920E-02 0. -1.
</event>
<event>
 5   0  0.2327595E-03  0.1003683E+04  0.7818609E-02  0.9304515E-01
        1   -1    0    0  501    0  0.00000000000E+00  0.00000000000E+00  0.72844264199E+03  0.72844264201E+03  0.50400001928E-02 0. -1.
       -1   -1    0    0    0  501  0.00000000000E+00  0.00000000000E+00 -0.34573041699E+03  0.34573041703E+03  0.50400001928E-02 0.  1.
    10030    2    1    2    0    0  0.00000000000E+00  0.00000000000E+00  0.38271222500E+03  0.10741730590E+04  0.10036827754E+04 0.  0.
        5    1    3    3  502    0  0.36701447388E+02 -0.49848118871E+03  0.14358736112E+03  0.52006721874E+03  0.46999998093E+01 0.  1.
       -5    1    3    3    0  502 -0.36701447388E+02  0.49848118871E+03  0.23912486388E+03  0.55410584030E+03  0.46999998093E+01 0. -1.
</event>
<event>
 5   0  0.2405022E-03  0.1000810E+04  0.7818609E-02  0.9307657E-01
        1   -1    0    0  501    0  0.00000000000E+00  0.00000000000E+00  0.67625703403E+03  0.67625703405E+03  0.50400001928E-02 0.  1.
       -1   -1    0    0    0  501  0.00000000000E+00  0.00000000000E+00 -0.37028101833E+03  0.37028101836E+03  0.50400001928E-02 0. -1.
    10030    2    1    2    0    0  0.00000000000E+00  0.00000000000E+00  0.30597601570E+03  0.10465380524E+04  0.10008099585E+04 0.  0.
        4    1    3    3  502    0 -0.20037655711E+03  0.16779449372E+03 -0.29323886797E+03  0.39280580870E+03  0.12699999809E+01 0. -1.
       -4    1    3    3    0  502  0.20037655711E+03 -0.16779449372E+03  0.59921488367E+03  0.65373224372E+03  0.12699999809E+01 0.  1.
</event>
<event>
 5   0  0.3895011E-03  0.1035045E+04  0.7818609E-02  0.9270922E-01
       -2   -1    0    0    0  501  0.00000000000E+00  0.00000000000E+00  0.29929937568E+03  0.29929937569E+03  0.25500000920E-02 0. -1.
        2   -1    0    0  501    0  0.00000000000E+00  0.00000000000E+00 -0.89485528585E+03  0.89485528586E+03  0.25500000920E-02 0.  1.
    10030    2    1    2    0    0  0.00000000000E+00  0.00000000000E+00 -0.59555591018E+03  0.11941546615E+04  0.10350451746E+04 0.  0.
        2    1    3    3  502    0  0.44979848271E+02 -0.38363047766E+03  0.99602076539E+02  0.39889359960E+03  0.25500000920E-02 0. -1.
       -2    1    3    3    0  502 -0.44979848271E+02  0.38363047766E+03 -0.69515798672E+03  0.79526106195E+03  0.25500000920E-02 0.  1.
</event>
<event>
 5   0  0.2327595E-03  0.9987544E+03  0.7818609E-02  0.9309912E-01
       -1   -1    0    0    0  501  0.00000000000E+00  0.00000000000E+00  0.11898622220E+04  0.11898622221E+04  0.50400001928E-02 0. -1.
        1   -1    0    0  501    0  0.00000000000E+00  0.00000000000E+00 -0.20958527697E+03  0.20958527703E+03  0.50400001928E-02 0.  1.
    10030    2    1    2    0    0  0.00000000000E+00  0.00000000000E+00  0.98027694508E+03  0.13994474991E+04  0.99875443111E+03 0.  0.
        5    1    3    3  502    0  0.38359740698E+03  0.24373289543E+03  0.20024791148E+03  0.49666287460E+03  0.46999998093E+01 0.  1.
       -5    1    3    3    0  502 -0.38359740698E+03 -0.24373289543E+03  0.78002903360E+03  0.90278462449E+03  0.46999998093E+01 0. -1.
</event>
<event>
 5   0  0.2313036E-03  0.9992127E+03  0.7818609E-02  0.9309409E-01
       -1   -1    0    0    0  501  0.00000000000E+00  0.00000000000E+00  0.19939402327E+03  0.19939402333E+03  0.50400001928E-02 0. -1.
        1   -1    0    0  501    0  0.00000000000E+00  0.00000000000E+00 -0.12518252870E+04  0.12518252870E+04  0.50400001928E-02 0.  1.
    10030    2    1    2    0    0  0.00000000000E+00  0.00000000000E+00 -0.10524312637E+04  0.14512193103E+04  0.99921265095E+03 0.  0.
        3    1    3    3  502    0 -0.19623963580E+03  0.32388426265E+03 -0.99950647250E+03  0.10688424622E+04  0.10100000352E+00 0.  1.
       -3    1    3    3    0  502  0.19623963580E+03 -0.32388426265E+03 -0.52924791232E+02  0.38237684813E+03  0.10100000352E+00 0. -1.
</event>
<event>
 5   0  0.2313036E-03  0.1004461E+04  0.7818609E-02  0.9303665E-01
       -1   -1    0    0    0  501  0.00000000000E+00  0.00000000000E+00  0.24844530549E+03  0.24844530554E+03  0.50400001928E-02 0.  1.
        1   -1    0    0  501    0  0.00000000000E+00  0.00000000000E+00 -0.10152556982E+04  0.10152556982E+04  0.50400001928E-02 0. -1.
    10030    2    1    2    0    0  0.00000000000E+00  0.00000000000E+00 -0.76681039270E+03  0.12637010037E+04  0.10044610737E+04 0.  0.
        3    1    3    3  502    0  0.46786978022E+03 -0.17008392076E+03 -0.46690314849E+03  0.68251683614E+03  0.10100000352E+00 0. -1.
       -3    1    3    3    0  502 -0.46786978022E+03  0.17008392076E+03 -0.29990724421E+03  0.58118416761E+03  0.10100000352E+00 0.  1.
</event>
<event>
 5   0  0.2350769E-03  0.1002527E+04  0.7818609E-02  0.9305777E-01
        1   -1    0    0  501    0  0.00000000000E+00  0.00000000000E+00  0.28272296621E+03  0.28272296626E+03  0.50400001928E-02 0.  1.
       -1   -1    0    0    0  501  0.00000000000E+00  0.00000000000E+00 -0.88873325562E+03  0.88873325563E+03  0.50400001928E-02 0. -1.
    10030    2    1    2    0    0  0.00000000000E+00  0.00000000000E+00 -0.60601028941E+03  0.11714562219E+04  0.10025274106E+04 0.  0.
        2    1    3    3  502    0  0.46936049471E+03 -0.27400998825E+02 -0.99889843428E+02  0.48065379386E+03  0.25500000920E-02 0.  1.
       -2    1    3    3    0  502 -0.46936049471E+03  0.27400998825E+02 -0.50612044598E+03  0.69080242803E+03  0.25500000920E-02 0. -1.
</event>
<event>
 5   0  0.3873874E-03  0.9980244E+03  0.7818609E-02  0.9310714E-01
        2   -1    0    0  501    0  0.00000000000E+00  0.00000000000E+00  0.28128083783E+03  0.28128083784E+03  0.25500000920E-02 0.  1.
       -2   -1    0    0    0  501  0.00000000000E+00  0.00000000000E+00 -0.88528318912E+03  0.88528318912E+03  0.25500000920E-02 0. -1.
    10030    2    1    2    0    0  0.00000000000E+00  0.00000000000E+00 -0.60400235129E+03  0.11665640270E+04  0.99802444291E+03 0.  0.
        5    1    3    3  502    0 -0.25882623553E+03  0.40999843152E+03 -0.16418625091E+03  0.51192670280E+03  0.46999998093E+01 0.  1.
       -5    1    3    3    0  502  0.25882623553E+03 -0.40999843152E+03 -0.43981610037E+03  0.65463732417E+03  0.46999998093E+01 0. -1.
</event>
<event>
 5   0  0.2405022E-03  0.9987060E+03  0.7818609E-02  0.9309965E-01
       -1   -1    0    0    0  501  0.00000000000E+00  0.00000000000E+00  0.11565969679E+04  0.11565969679E+04  0.50400001928E-02 0.  1.
        1   -1    0    0  501    0  0.00000000000E+00  0.00000000000E+00 -0.21559229941E+03  0.21559229947E+03  0.50400001928E-02 0. -1.
    10030    2    1    2    0    0  0.00000000000E+00  0.00000000000E+00  0.94100466850E+03  0.13721892674E+04  0.99870596244E+03 0.  0.
        4    1    3    3  502    0  0.82675471386E+02  0.30384636166E+03 -0.61976786671E+02  0.32093703440E+03  0.12699999809E+01 0. -1.
       -4    1    3    3    0  502 -0.82675471386E+02 -0.30384636166E+03  0.10029814552E+04  0.10512522330E+04  0.12699999809E+01 0.  1.
</event>
<event>
 5   0  0.2313036E-03  0.1002343E+04  0.7818609E-02  0.9305979E-01
        1   -1    0    0  501    0  0.00000000000E+00  0.00000000000E+00  0.93199597142E+03  0.93199597143E+03  0.50400001928E-02 0.  1.
       -1   -1    0    0    0  501  0.00000000000E+00  0.00000000000E+00 -0.26949978624E+03  0.26949978629E+03  0.50400001928E-02 0. -1.
    10030    2    1    2    0    0  0.00000000000E+00  0.00000000000E+00  0.66249618518E+03  0.12014957577E+04  0.10023426861E+04 0.  0.
        3    1    3    3  502    0 -0.15070182386E+03 -0.31740993894E+03  0.75962187412E+03  0.83695012450E+03  0.10100000352E+00 0.  1.
       -3    1    3    3    0  502  0.15070182386E+03  0.31740993894E+03 -0.97125688943E+02  0.36454563323E+03  0.10100000352E+00 0. -1.
</event>
<event>
 5   0  0.3895011E-03  0.9892293E+03  0.7818609E-02  0.9320437E-01
        2   -1    0    0  501    0  0.00000000000E+00  0.00000000000E+00  0.20789139504E+04  0.20789139504E+04  0.25500000920E-02 0.  1.
       -2   -1    0    0    0  501  0.00000000000E+00  0.00000000000E+00 -0.11767858296E+03  0.11767858298E+03  0.25500000920E-02 0. -1.
    10030    2    1    2    0    0  0.00000000000E+00  0.00000000000E+00  0.19612353674E+04  0.21965925334E+04  0.98922929152E+03 0.  0.
        2    1    3    3  502    0 -0.42793149482E+03  0.24705258755E+03  0.93180169783E+03  0.10547107420E+04  0.25500000920E-02 0.  1.
       -2    1    3    3    0  502  0.42793149482E+03 -0.24705258755E+03  0.10294336696E+04  0.11418817914E+04  0.25500000920E-02 0. -1.
</event>
<event>
 5   0  0.1548000E-03  0.9947655E+03  0.7818609E-02  0.9314305E-01
       -4   -1    0    0    0  501  0.00000000000E+00  0.00000000000E+00  0.18706546370E+03  0.18706977470E+03  0.12699999809E+01 0.  1.
        4   -1    0    0  501    0  0.00000000000E+00  0.00000000000E+00 -0.13224562475E+04  0.13224568574E+04  0.12699999809E+01 0. -1.
    10030    2    1    2    0    0  0.00000000000E+00  0.00000000000E+00 -0.11353907838E+04  0.15095266321E+04  0.99476551049E+03 0.  0.
        3    1    3    3  502    0  0.48631902874E+03  0.22192109129E+02 -0.72237989320E+03  0.87110929723E+03  0.10100000352E+00 0. -1.
       -3    1    3    3    0  502 -0.48631902874E+03 -0.22192109129E+02 -0.41301089064E+03  0.63841733483E+03  0.10100000352E+00 0.  1.
</event>
<event>
 5   0  0.3873874E-03  0.9804096E+03  0.7818609E-02  0.9330296E-01
        2   -1    0    0  501    0  0.00000000000E+00  0.00000000000E+00  0.85940132539E+03  0.85940132540E+03  0.25500000920E-02 0.  1.
       -2   -1    0    0    0  501  0.00000000000E+00  0.00000000000E+00 -0.27961411443E+03  0.27961411445E+03  0.25500000920E-02 0. -1.
    10030    2    1    2    0    0  0.00000000000E+00  0.00000000000E+00  0.57978721096E+03  0.11390154398E+04  0.98040958900E+03 0.  0.
        5    1    3    3  502    0  0.15022525057E+03 -0.24427674515E+03  0.75174837096E+03  0.80460329192E+03  0.46999998093E+01 0.  1.
       -5    1    3    3    0  502 -0.15022525057E+03  0.24427674515E+03 -0.17196116000E+03  0.33441214792E+03  0.46999998093E+01 0. -1.
</event>
<event>
 5   0  0.2378609E-03  0.9929589E+03  0.7818609E-02  0.9316301E-01
       -1   -1    0    0    0  501  0.00000000000E+00  0.00000000000E+00  0.39291681995E+03  0.39291681998E+03  0.50400001928E-02 0.  1.
        1   -1    0    0  501    0  0.00000000000E+00  0.00000000000E+00 -0.62733850831E+03  0.62733850833E+03  0.50400001928E-02 0. -1.
    10030    2    1    2    0    0  0.00000000000E+00  0.00000000000E+00 -0.23442168836E+03  0.10202553283E+04  0.99295891504E+03 0.  0.
        1    1    3    3  502    0  0.20205890269E+03 -0.27263874355E+02 -0.58233676437E+03  0.61699856253E+03  0.50400001928E-02 0. -1.
       -1    1    3    3    0  502 -0.20205890269E+03  0.27263874355E+02  0.34791507601E+03  0.40325676578E+03  0.50400001928E-02 0.  1.
</event>
<event>
 5   0  0.4140860E-03  0.1003782E+04  0.7818609E-02  0.9304407E-01
       -2   -1    0    0    0  501  0.00000000000E+00  0.00000000000E+00  0.48823423158E+03  0.48823423158E+03  0.25500000920E-02 0.  1.
        2   -1    0    0  501    0  0.00000000000E+00  0.00000000000E+00 -0.51592955976E+03  0.51592955977E+03  0.25500000920E-02 0. -1.
    10030    2    1    2    0    0  0.00000000000E+00  0.00000000000E+00 -0.27695328184E+02  0.10041637913E+04  0.10037817933E+04 0.  0.
        3    1    3    3  502    0  0.27520721693E+03  0.29026196623E+03 -0.31711883533E+03  0.51044626281E+03  0.10100000352E+00 0.  1.
       -3    1    3    3    0  502 -0.27520721693E+03 -0.29026196623E+03  0.28942350715E+03  0.49371752854E+03  0.10100000352E+00 0. -1.
</event>
<event>
 5   0  0.3873874E-03  0.1000183E+04  0.7818609E-02  0.9308344E-01
       -2   -1    0    0    0  501  0.00000000000E+00  0.00000000000E+00  0.38978666471E+03  0.38978666472E+03  0.25500000920E-02 0.  1.
        2   -1    0    0  501    0  0.00000000000E+00  0.00000000000E+00 -0.64161188876E+03  0.64161188877E+03  0.25500000920E-02 0. -1.
    10030    2    1    2    0    0  0.00000000000E+00  0.00000000000E+00 -0.25182522405E+03  0.10313985535E+04  0.10001834995E+04 0.  0.
        5    1    3    3  502    0  0.37551408034E+02  0.31839782067E+03 -0.52166381221E+03  0.61232548813E+03  0.46999998093E+01 0. -1.
       -5    1    3    3    0  502 -0.37551408034E+02 -0.31839782067E+03  0.26983858816E+03  0.41907306536E+03  0.46999998093E+01 0.  1.
</event>
<event>
 5   0  0.2378609E-03  0.1001514E+04  0.7818609E-02  0.9306886E-01
        1   -1    0    0  501    0  0.00000000000E+00  0.00000000000E+00  0.76421791925E+03  0.76421791927E+03  0.50400001928E-02 0. -1.
       -1   -1    0    0    0  501  0.00000000000E+00  0.00000000000E+00 -0.32812298917E+03  0.32812298921E+03  0.50400001928E-02 0.  1.
    10030    2    1    2    0    0  0.00000000000E+00  0.00000000000E+00  0.43609493008E+03  0.10923409085E+04  0.10015137904E+04 0.  0.
        1    1    3    3  502    0  0.47273513692E+03  0.81456060197E+02  0.37475750021E+03  0.60873375412E+03  0.50400001928E-02 0. -1.
       -1    1    3    3    0  502 -0.47273513692E+03 -0.81456060197E+02  0.61337429871E+02  0.48360715436E+03  0.50400001928E-02 0.  1.
</event>
<event>
 5   0  0.3895011E-03  0.1005346E+04  0.7818609E-02  0.9302701E-01
       -2   -1    0    0    0  501  0.00000000000E+00  0.00000000000E+00  0.12513304884E+04  0.12513304884E+04  0.25500000920E-02 0. -1.
        2   -1    0    0  501    0  0.00000000000E+00  0.00000000000E+00 -0.20192918784E+03  0.20192918785E+03  0.25500000920E-02 0.  1.
    10030    2    1    2    0    0  0.00000000000E+00  0.00000000000E+00  0.10494013006E+04  0.14532596763E+04  0.10053460086E+04 0.  0.
        2    1    3    3  502    0 -0.21749014854E+03  0.30468374785E+03  0.39755417692E+02  0.37645005533E+03  0.25500000920E-02 0.  1.
       -2    1    3    3    0  502  0.21749014854E+03 -0.30468374785E+03  0.10096458829E+04  0.10768096210E+04  0.25500000920E-02 0. -1.
</event>
<event>
 5   0  0.3873874E-03  0.9868098E+03  0.7818609E-02  0.9323131E-01
        2   -1    0    0  501    0  0.00000000000E+00  0.00000000000E+00  0.45879626371E+03  0.45879626371E+03  0.25500000920E-02 0.  1.
       -2   -1    0    0    0  501  0.00000000000E+00  0.00000000000E+00 -0.53062419594E+03  0.53062419595E+03  0.25500000920E-02 0. -1.
    10030    2    1    2    0    0  0.00000000000E+00  0.00000000000E+00 -0.71827932235E+02  0.98942045966E+03  0.98680980647E+03 0.  0.
        5    1    3    3  502    0 -0.42639554256E+03 -0.24691345100E+03 -0.61415434009E+02  0.49656153348E+03  0.46999998093E+01 0.  1.
       -5    1    3    3    0  502  0.42639554256E+03  0.24691345100E+03 -0.10412498226E+02  0.49285892618E+03  0.46999998093E+01 0. -1.
</event>
<event>
 5   0  0.2350769E-03  0.1003455E+04  0.7818609E-02  0.9304764E-01
       -1   -1    0    0    0  501  0.00000000000E+00  0.00000000000E+00  0.45551296997E+03  0.45551297000E+03  0.50400001928E-02 0. -1.
        1   -1    0    0  501    0  0.00000000000E+00  0.00000000000E+00 -0.55263038480E+03  0.55263038482E+03  0.50400001928E-02 0.  1.
    10030    2    1    2    0    0  0.00000000000E+00  0.00000000000E+00 -0.97117414833E+02  0.10081433548E+04  0.10034546485E+04 0.  0.
        2    1    3    3  502    0 -0.12081493371E+03  0.21077902613E+03  0.39247568346E+03  0.46158553723E+03  0.25500000920E-02 0. -1.
       -2    1    3    3    0  502  0.12081493371E+03 -0.21077902613E+03 -0.48959309830E+03  0.54655781759E+03  0.25500000920E-02 0.  1.
</event>
<event>
 5   0  0.3873874E-03  0.9994197E+03  0.7818609E-02  0.9309181E-01
       -2   -1    0    0    0  501  0.00000000000E+00  0.00000000000E+00  0.43118593649E+03  0.43118593649E+03  0.25500000920E-02 0. -1.
        2   -1    0    0  501    0  0.00000000000E+00  0.00000000000E+00 -0.57912355684E+03  0.57912355685E+03  0.25500000920E-02 0.  1.
    10030    2    1    2    0    0  0.00000000000E+00  0.00000000000E+00 -0.14793762036E+03  0.10103094933E+04  0.99941969804E+03 0.  0.
        5    1    3    3  502    0  0.72755436196E+02  0.39965072143E+03 -0.36812705804E+03  0.54822775696E+03  0.46999998093E+01 0.  1.
       -5    1    3    3    0  502 -0.72755436196E+02 -0.39965072143E+03  0.22018943769E+03  0.46208173639E+03  0.46999998093E+01 0. -1.
</event>
<event>
 5   0  0.2405022E-03  0.1004590E+04  0.7818609E-02  0.9303524E-01
       -1   -1    0    0    0  501  0.00000000000E+00  0.00000000000E+00  0.44168124834E+03  0.44168124837E+03  0.50400001928E-02 0. -1.
        1   -1    0    0  501    0  0.00000000000E+00  0.00000000000E+00 -0.57122749193E+03  0.57122749195E+03  0.50400001928E-02 0.  1.
    10030    2    1    2    0    0  0.00000000000E+00  0.00000000000E+00 -0.12954624359E+03  0.10129087403E+04  0.10045904076E+04 0.  0.
        4    1    3    3  502    0  0.20352862634E+03 -0.29101214427E+03  0.29339621967E+03  0.46064620314E+03  0.12699999809E+01 0. -1.
       -4    1    3    3    0  502 -0.20352862634E+03  0.29101214427E+03 -0.42294246326E+03  0.55226253718E+03  0.12699999809E+01 0.  1.
</event>
<event>
 5   0  0.2327595E-03  0.1001620E+04  0.7818609E-02  0.9306769E-01
       -1   -1    0    0    0  501  0.00000000000E+00  0.00000000000E+00  0.19015799956E+03  0.19015799962E+03  0.50400001928E-02 0. -1.
        1   -1    0    0  501    0  0.00000000000E+00  0.00000000000E+00 -0.13189601769E+04  0.13189601769E+04  0.50400001928E-02 0.  1.
    10030    2    1    2    0    0  0.00000000000E+00  0.00000000000E+00 -0.11288021774E+04  0.15091181765E+04  0.10016203448E+04 0.  0.
        5    1    3    3  502    0  0.67352880050E+02  0.43278388564E+03 -0.19858430594E+03  0.48093255107E+03  0.46999998093E+01 0. -1.
       -5    1    3    3    0  502 -0.67352880050E+02 -0.43278388564E+03 -0.93021787142E+03  0.10281856255E+04  0.46999998093E+01 0.  1.
</event>
<event>
 5   0  0.2327595E-03  0.9870290E+03  0.7818609E-02  0.9322887E-01
        1   -1    0    0  501    0  0.00000000000E+00  0.00000000000E+00  0.22879492725E+03  0.22879492731E+03  0.50400001928E-02 0.  1.
       -1   -1    0    0    0  501  0.00000000000E+00  0.00000000000E+00 -0.10645190315E+04  0.10645190315E+04  0.50400001928E-02 0. -1.
    10030    2    1    2    0    0  0.00000000000E+00  0.00000000000E+00 -0.83572410422E+03  0.12933139588E+04  0.98702898521E+03 0.  0.
        5    1    3    3  502    0  0.27315668484E+03  0.38610114191E+03 -0.60245212597E+03  0.76593689057E+03  0.46999998093E+01 0. -1.
       -5    1    3    3    0  502 -0.27315668484E+03 -0.38610114191E+03 -0.23327197825E+03  0.52737706823E+03  0.46999998093E+01 0.  1.
</event>
<event>
 5   0  0.2327595E-03  0.1012271E+04  0.7818609E-02  0.9295188E-01
       -1   -1    0    0    0  501  0.00000000000E+00  0.00000000000E+00  0.40116477162E+03  0.40116477165E+03  0.50400001928E-02 0.  1.
        1   -1    0    0  501    0  0.00000000000E+00  0.00000000000E+00 -0.63857284546E+03  0.63857284548E+03  0.50400001928E-02 0. -1.
    10030    2    1    2    0    0  0.00000000000E+00  0.00000000000E+00 -0.23740807384E+03  0.10397376171E+04  0.10122705760E+04 0.  0.
        5    1    3    3  502    0  0.96543751655E+02  0.39544983137E+03 -0.42761292765E+03  0.59040339684E+03  0.46999998093E+01 0.  1.
       -5    1    3    3    0  502 -0.96543751655E+02 -0.39544983137E+03  0.19020485381E+03  0.44933422029E+03  0.46999998093E+01 0. -1.
</event>
<event>
 5   0  0.4140860E-03  0.9818522E+03  0.7818609E-02  0.9328676E-01
        2   -1    0    0  501    0  0.00000000000E+00  0.00000000000E+00  0.12988926051E+04  0.12988926051E+04  0.25500000920E-02 0. -1.
       -2   -1    0    0    0  501  0.00000000000E+00  0.00000000000E+00 -0.18554914775E+03  0.18554914777E+03  0.25500000920E-02 0.  1.
    10030    2    1    2    0    0  0.00000000000E+00  0.00000000000E+00  0.11133434573E+04  0.14844417528E+04  0.98185215977E+03 0.  0.
        3    1    3    3  502    0  0.33365598945E+03 -0.91083907660E+02  0.29926004950E+02  0.34715727488E+03  0.10100000352E+00 0.  1.
       -3    1    3    3    0  502 -0.33365598945E+03  0.91083907660E+02  0.10834174524E+04  0.11372844780E+04  0.10100000352E+00 0. -1.
</event>
<event>
 5   0  0.2327595E-03  0.1008966E+04  0.7818609E-02  0.9298766E-01
       -1   -1    0    0    0  501  0.00000000000E+00  0.00000000000E+00  0.20601440643E+03  0.20601440649E+03  0.50400001928E-02 0.  1.
        1   -1    0    0  501    0  0.00000000000E+00  0.00000000000E+00 -0.12353646667E+04  0.12353646667E+04  0.50400001928E-02 0. -1.
    10030    2    1    2    0    0  0.00000000000E+00  0.00000000000E+00 -0.10293502603E+04  0.14413790732E+04  0.10089656458E+04 0.  0.
        5    1    3    3  502    0  0.20051821418E+03 -0.28569445489E+03  0.56306578341E+01  0.34911698624E+03  0.46999998093E+01 0.  1.
       -5    1    3    3    0  502 -0.20051821418E+03  0.28569445489E+03 -0.10349809181E+04  0.10922620870E+04  0.46999998093E+01 0. -1.
</event>
<event>
 5   0  0.2327595E-03  0.1001950E+04  0.7818609E-02  0.9306408E-01
       -1   -1    0    0    0  501  0.00000000000E+00  0.00000000000E+00  0.30403959194E+03  0.30403959198E+03  0.50400001928E-02 0. -1.
        1   -1    0    0  501    0  0.00000000000E+00  0.00000000000E+00 -0.82547171162E+03  0.82547171164E+03  0.50400001928E-02 0.  1.
    10030    2    1    2    0    0  0.00000000000E+00  0.00000000000E+00 -0.52143211969E+03  0.11295113036E+04  0.10019502630E+04 0.  0.
        5    1    3    3  502    0 -0.43859153407E+03 -0.78408276179E+01 -0.53344649532E+03  0.69066002180E+03  0.46999998093E+01 0.  1.
       -5    1    3    3    0  502  0.43859153407E+03  0.78408276179E+01  0.12014375634E+02  0.43885128182E+03  0.46999998093E+01 0. -1.
</event>
<event>
 5   0  0.4140860E-03  0.1025103E+04  0.7818609E-02  0.9281433E-01
        2   -1    0    0  501    0  0.00000000000E+00  0.00000000000E+00  0.10348211964E+04  0.10348211964E+04  0.25500000920E-02 0.  1.
       -2   -1    0    0    0  501  0.00000000000E+00  0.00000000000E+00 -0.25386915441E+03  0.25386915442E+03  0.25500000920E-02 0. -1.
    10030    2    1    2    0    0  0.00000000000E+00  0.00000000000E+00  0.78095204201E+03  0.12886903509E+04  0.10251032770E+04 0.  0.
        3    1    3    3  502    0 -0.13955045477E+03  0.31975666530E+03  0.86251287491E+03  0.93040159287E+03  0.10100000352E+00 0.  1.
       -3    1    3    3    0  502  0.13955045477E+03 -0.31975666530E+03 -0.81560832893E+02  0.35828875798E+03  0.10100000352E+00 0. -1.
</event>
<event>
 5   0  0.4026829E-03  0.9921738E+03  0.7818609E-02  0.9317170E-01
       -2   -1    0    0    0  501  0.00000000000E+00  0.00000000000E+00  0.23642259690E+03  0.23642259691E+03  0.25500000920E-02 0. -1.
        2   -1    0    0  501    0  0.00000000000E+00  0.00000000000E+00 -0.10409420459E+04  0.10409420459E+04  0.25500000920E-02 0.  1.
    10030    2    1    2    0    0  0.00000000000E+00  0.00000000000E+00 -0.80451944903E+03  0.12773646428E+04  0.99217381890E+03 0.  0.
        1    1    3    3  502    0 -0.42786170065E+03 -0.19632089622E+03 -0.20076525795E+03  0.51177555432E+03  0.50400001928E-02 0. -1.
       -1    1    3    3    0  502  0.42786170065E+03  0.19632089622E+03 -0.60375419108E+03  0.76558908851E+03  0.50400001928E-02 0.  1.
</event>
<event>
 5   0  0.3826483E-03  0.1003820E+04  0.7818609E-02  0.9304365E-01
       -2   -1    0    0    0  501  0.00000000000E+00  0.00000000000E+00  0.40790394580E+03  0.40790394580E+03  0.25500000920E-02 0. -1.
        2   -1    0    0  501    0  0.00000000000E+00  0.00000000000E+00 -0.61758041189E+03  0.61758041190E+03  0.25500000920E-02 0.  1.
    10030    2    1    2    0    0  0.00000000000E+00  0.00000000000E+00 -0.20967646609E+03  0.10254843577E+04  0.10038196788E+04 0.  0.
        4    1    3    3  502    0  0.35414637252E+03 -0.13564430602E+03  0.23103222364E+03  0.44406816165E+03  0.12699999809E+01 0. -1.
       -4    1    3    3    0  502 -0.35414637252E+03  0.13564430602E+03 -0.44070868973E+03  0.58141619605E+03  0.12699999809E+01 0.  1.
</event>
<event>
 5   0  0.2350769E-03  0.1001008E+04  0.7818609E-02  0.9307440E-01
       -1   -1    0    0    0  501  0.00000000000E+00  0.00000000000E+00  0.62646979236E+03  0.62646979238E+03  0.50400001928E-02 0. -1.
        1   -1    0    0  501    0  0.00000000000E+00  0.00000000000E+00 -0.39986624345E+03  0.39986624348E+03  0.50400001928E-02 0.  1.
    10030    2    1    2    0    0  0.00000000000E+00  0.00000000000E+00  0.22660354891E+03  0.10263360359E+04  0.10010077373E+04 0.  0.
        2    1    3    3  502    0  0.26306982292E+03 -0.22962718915E+03  0.48094073906E+03  0.59433860065E+03  0.25500000920E-02 0. -1.
       -2    1    3    3    0  502 -0.26306982292E+03  0.22962718915E+03 -0.25433719015E+03  0.43199743521E+03  0.25500000920E-02 0.  1.
</event>
<event>
 5   0  0.3873874E-03  0.1001278E+04  0.7818609E-02  0.9307145E-01
       -2   -1    0    0    0  501  0.00000000000E+00  0.00000000000E+00  0.21081668226E+03  0.21081668227E+03  0.25500000920E-02 0.  1.
        2   -1    0    0  501    0  0.00000000000E+00  0.00000000000E+00 -0.11888964069E+04  0.11888964069E+04  0.25500000920E-02 0. -1.
    10030    2    1    2    0    0  0.00000000000E+00  0.00000000000E+00 -0.97807972461E+03  0.13997130891E+04  0.10012775760E+04 0.  0.
        5    1    3    3  502    0 -0.19505532078E+03  0.14697121131E+03 -0.10999356035E+04  0.11267331259E+04  0.46999998093E+01 0. -1.
       -5    1    3    3    0  502  0.19505532078E+03 -0.14697121131E+03  0.12185587890E+03  0.27297996325E+03  0.46999998093E+01 0.  1.
</event>
<event>
 5   0  0.2405022E-03  0.1020154E+04  0.7818609E-02  0.9286712E-01
       -1   -1    0    0    0  501  0.00000000000E+00  0.00000000000E+00  0.25257873471E+03  0.25257873476E+03  0.50400001928E-02 0. -1.
        1   -1    0    0  501    0  0.00000000000E+00  0.00000000000E+00 -0.10300891360E+04  0.10300891360E+04  0.50400001928E-02 0.  1.
    10030    2    1    2    0    0  0.00000000000E+00  0.00000000000E+00 -0.77751040132E+03  0.12826678708E+04  0.10201541269E+04 0.  0.
        4    1    3    3  502    0  0.28989039872E+03 -0.22240365419E+03 -0.83625989999E+03  0.91259633020E+03  0.12699999809E+01 0.  1.
       -4    1    3    3    0  502 -0.28989039872E+03  0.22240365419E+03  0.58749498670E+02  0.37007154059E+03  0.12699999809E+01 0. -1.
</event>
<event>
 5   0  0.4026829E-03  0.9978903E+03  0.7818609E-02  0.9310862E-01
        2   -1    0    0  501    0  0.00000000000E+00  0.00000000000E+00  0.92779022867E+03  0.92779022868E+03  0.25500000920E-02 0. -1.
       -2   -1    0    0    0  501  0.00000000000E+00  0.00000000000E+00 -0.26832173798E+03  0.26832173799E+03  0.25500000920E-02 0.  1.
    10030    2    1    2    0    0  0.00000000000E+00  0.00000000000E+00  0.65946849070E+03  0.11961119667E+04  0.99789034798E+03 0.  0.
        1    1    3    3  502    0  0.75339545744E+02  0.28635225601E+03  0.81109351638E+03  0.86345026146E+03  0.50400001928E-02 0. -1.
       -1    1    3    3    0  502 -0.75339545744E+02 -0.28635225601E+03 -0.15162502568E+03  0.33266170521E+03  0.50400001928E-02 0.  1.
</event>
<event>
 5   0  0.3873874E-03  0.1000609E+04  0.7818609E-02  0.9307877E-01
       -2   -1    0    0    0  501  0.00000000000E+00  0.00000000000E+00  0.57645015208E+03  0.57645015209E+03  0.25500000920E-02 0.  1.
        2   -1    0    0  501    0  0.00000000000E+00  0.00000000000E+00 -0.43421700679E+03  0.43421700680E+03  0.25500000920E-02 0. -1.
    10030    2    1    2    0    0  0.00000000000E+00  0.00000000000E+00  0.14223314529E+03  0.10106671589E+04  0.10006087339E+04 0.  0.
        5    1    3    3  502    0 -0.28854283620E+03  0.22518324483E+03  0.41559906519E+03  0.55381326732E+03  0.46999998093E+01 0.  1.
       -5    1    3    3    0  502  0.28854283620E+03 -0.22518324483E+03 -0.27336591991E+03  0.45685389157E+03  0.46999998093E+01 0. -1.
</event>
<event>
 5   0  0.3895011E-03  0.9728854E+03  0.7818609E-02  0.9338794E-01
        2   -1    0    0  501    0  0.00000000000E+00  0.00000000000E+00  0.11286320211E+04  0.11286320211E+04  0.25500000920E-02 0. -1.
       -2   -1    0    0    0  501  0.00000000000E+00  0.00000000000E+00 -0.20965777585E+03  0.20965777587E+03  0.25500000920E-02 0.  1.
    10030    2    1    2    0    0  0.00000000000E+00  0.00000000000E+00  0.91897424528E+03  0.13382897970E+04  0.97288535670E+03 0.  0.
        2    1    3    3  502    0 -0.30631340933E+03 -0.14262469824E+03 -0.21883852405E+02  0.33859800987E+03  0.25500000920E-02 0.  1.
       -2    1    3    3    0  502  0.30631340933E+03  0.14262469824E+03  0.94085809769E+03  0.99969178714E+03  0.25500000920E-02 0. -1.
</event>
<event>
 5   0  0.2378609E-03  0.9955927E+03  0.7818609E-02  0.9313392E-01
       -1   -1    0    0    0  501  0.00000000000E+00  0.00000000000E+00  0.60116302683E+03  0.60116302685E+03  0.50400001928E-02 0. -1.
        1   -1    0    0  501    0  0.00000000000E+00  0.00000000000E+00 -0.41220299525E+03  0.41220299528E+03  0.50400001928E-02 0.  1.
    10030    2    1    2    0    0  0.00000000000E+00  0.00000000000E+00  0.18896003158E+03  0.10133660221E+04  0.99559268844E+03 0.  0.
        1    1    3    3  502    0 -0.35512718774E+03 -0.20163000931E+03 -0.19526156764E+03  0.45265556436E+03  0.50400001928E-02 0.  1.
       -1    1    3    3    0  502  0.35512718774E+03  0.20163000931E+03  0.38422159921E+03  0.56071045777E+03  0.50400001928E-02 0. -1.
</event>
<event>
 5   0  0.2405022E-03  0.9974699E+03  0.7818609E-02  0.9311324E-01
       -1   -1    0    0    0  501  0.00000000000E+00  0.00000000000E+00  0.51976704955E+03  0.51976704957E+03  0.50400001928E-02 0. -1.
        1   -1    0    0  501    0  0.00000000000E+00  0.00000000000E+00 -0.47855386823E+03  0.47855386826E+03  0.50400001928E-02 0.  1.
    10030    2    1    2    0    0  0.00000000000E+00  0.00000000000E+00  0.41213181315E+02  0.99832091783E+03  0.99746986354E+03 0.  0.
        4    1    3    3  502    0 -0.23762508215E+03 -0.43846562843E+03  0.16463943034E+02  0.49898944007E+03  0.12699999809E+01 0.  1.
       -4    1    3    3    0  502  0.23762508215E+03  0.43846562843E+03  0.24749238281E+02  0.49933147776E+03  0.12699999809E+01 0. -1.
</event>
<event>
 5   0  0.3895011E-03  0.9890734E+03  0.7818609E-02  0.9320611E-01
        2   -1    0    0  501    0  0.00000000000E+00  0.00000000000E+00  0.16449250775E+04  0.16449250775E+04  0.25500000920E-02 0. -1.
       -2   -1    0    0    0  501  0.00000000000E+00  0.00000000000E+00 -0.14867944945E+03  0.14867944947E+03  0.25500000920E-02 0.  1.
    10030    2    1    2    0    0  0.00000000000E+00  0.00000000000E+00  0.14962456280E+04  0.17936045270E+04  0.98907341473E+03 0.  0.
        2    1    3    3  502    0  0.19244600399E+03 -0.68559795589E+02 -0.68581685925E+02  0.21549792963E+03  0.25500000920E-02 0.  1.
       -2    1    3    3    0  502 -0.19244600399E+03  0.68559795589E+02  0.15648273140E+04  0.15781065973E+04  0.25500000920E-02 0. -1.
</event>
<event>
 5   0  0.3873874E-03  0.1001154E+04  0.7818609E-02  0.9307280E-01
        2   -1    0    0  501    0  0.00000000000E+00  0.00000000000E+00  0.94802778249E+03  0.94802778250E+03  0.25500000920E-02 0. -1.
       -2   -1    0    0    0  501  0.00000000000E+00  0.00000000000E+00 -0.26431434329E+03  0.26431434330E+03  0.25500000920E-02 0.  1.
    10030    2    1    2    0    0  0.00000000000E+00  0.00000000000E+00  0.68371343920E+03  0.12123421258E+04  0.10011540156E+04 0.  0.
        5    1    3    3  502    0 -0.44481468012E+02 -0.39896575569E+03  0.70393317839E+03  0.81036799347E+03  0.46999998093E+01 0.  1.
       -5    1    3    3    0  502  0.44481468012E+02  0.39896575569E+03 -0.20219739182E+02  0.40197413233E+03  0.46999998093E+01 0. -1.
</event>
<event>
 5   0  0.2405022E-03  0.1003032E+04  0.7818609E-02  0.9305226E-01
       -1   -1    0    0    0  501  0.00000000000E+00  0.00000000000E+00  0.33921636393E+03  0.33921636397E+03  0.50400001928E-02 0.  1.
        1   -1    0    0  501    0  0.00000000000E+00  0.00000000000E+00 -0.74146794575E+03  0.74146794576E+03  0.50400001928E-02 0. -1.
    10030    2    1    2    0    0  0.00000000000E+00  0.00000000000E+00 -0.40225158182E+03  0.10806843097E+04  0.10030315260E+04 0.  0.
        4    1    3    3  502    0  0.32856409897E+02  0.14963737245E+03  0.31338569441E+03  0.34883103828E+03  0.12699999809E+01 0.  1.
       -4    1    3    3    0  502 -0.32856409897E+02 -0.14963737245E+03 -0.71563727623E+03  0.73185327145E+03  0.12699999809E+01 0. -1.
</event>
<event>
 5   0  0.2350769E-03  0.1001690E+04  0.7818609E-02  0.9306694E-01
        1   -1    0    0  501    0  0.00000000000E+00  0.00000000000E+00  0.31416120342E+03  0.31416120346E+03  0.50400001928E-02 0.  1.
       -1   -1    0    0    0  501  0.00000000000E+00  0.00000000000E+00 -0.79846100565E+03  0.79846100567E+03  0.50400001928E-02 0. -1.
    10030    2    1    2    0    0  0.00000000000E+00  0.00000000000E+00 -0.48429980223E+03  0.11126222091E+04  0.10016895137E+04 0.  0.
        2    1    3    3  502    0 -0.25919156853E+03  0.26297046541E+03  0.13372177089E+03  0.39270249158E+03  0.25500000920E-02 0.  1.
       -2    1    3    3    0  502  0.25919156853E+03 -0.26297046541E+03 -0.61802157312E+03  0.71991971755E+03  0.25500000920E-02 0. -1.
</event>
<event>
 5   0  0.1548000E-03  0.1003546E+04  0.7818609E-02  0.9304664E-01
        3   -1    0    0  501    0  0.00000000000E+00  0.00000000000E+00  0.71090693709E+03  0.71090694426E+03  0.10100000352E+00 0.  1.
       -3   -1    0    0    0  501  0.00000000000E+00  0.00000000000E+00 -0.35416216033E+03  0.35416217473E+03  0.10100000352E+00 0. -1.
    10030    2    1    2    0    0  0.00000000000E+00  0.00000000000E+00  0.35674477676E+03  0.10650691190E+04  0.10035464077E+04 0.  0.
        5    1    3    3  502    0 -0.30254439020E+03  0.39820479424E+03  0.13520854047E+03  0.51807683369E+03  0.46999998093E+01 0.  1.
       -5    1    3    3    0  502  0.30254439020E+03 -0.39820479424E+03  0.22153623629E+03  0.54699228530E+03  0.46999998093E+01 0. -1.
</event>
<event>
 5   0  0.3826483E-03  0.9913855E+03  0.7818609E-02  0.9318044E-01
       -2   -1    0    0    0  501  0.00000000000E+00  0.00000000000E+00  0.29488184939E+03  0.29488184940E+03  0.25500000920E-02 0.  1.
        2   -1    0    0  501    0  0.00000000000E+00  0.00000000000E+00 -0.83325332975E+03  0.83325332975E+03  0.25500000920E-02 0. -1.
    10030    2    1    2    0    0  0.00000000000E+00  0.00000000000E+00 -0.53837148036E+03  0.11281351791E+04  0.99138546064E+03 0.  0.
        4    1    3    3  502    0  0.23832735057E+03  0.42515955564E+03 -0.16646140969E+03  0.51504522869E+03  0.12699999809E+01 0. -1.
       -4    1    3    3    0  502 -0.23832735057E+03 -0.42515955564E+03 -0.37191007067E+03  0.61308995046E+03  0.12699999809E+01 0.  1.
</event>
<event>
 5   0  0.2327595E-03  0.9813633E+03  0.7818609E-02  0.9329225E-01
       -1   -1    0    0    0  501  0.00000000000E+00  0.00000000000E+00  0.16439101569E+03  0.16439101577E+03  0.50400001928E-02 0.  1.
        1   -1    0    0  501    0  0.00000000000E+00  0.00000000000E+00 -0.14646086593E+04  0.14646086593E+04  0.50400001928E-02 0. -1.
    10030    2    1    2    0    0  0.00000000000E+00  0.00000000000E+00 -0.13002176436E+04  0.16289996751E+04  0.98136334791E+03 0.  0.
        5    1    3    3  502    0 -0.18222469122E+03  0.38255601979E+03 -0.10607255164E+04  0.11422415058E+04  0.46999998093E+01 0. -1.
       -5    1    3    3    0  502  0.18222469122E+03 -0.38255601979E+03 -0.23949212718E+03  0.48675816927E+03  0.46999998093E+01 0.  1.
</event>
<event>
 5   0  0.3826483E-03  0.1003866E+04  0.7818609E-02  0.9304315E-01
        2   -1    0    0  501    0  0.00000000000E+00  0.00000000000E+00  0.62445891932E+03  0.62445891932E+03  0.25500000920E-02 0.  1.
       -2   -1    0    0    0  501  0.00000000000E+00  0.00000000000E+00 -0.40344802412E+03  0.40344802413E+03  0.25500000920E-02 0. -1.
    10030    2    1    2    0    0  0.00000000000E+00  0.00000000000E+00  0.22101089519E+03  0.10279069435E+04  0.10038659615E+04 0.  0.
        4    1    3    3  502    0  0.24900931104E+03  0.46273555840E+02  0.55422876358E+03  0.60935869095E+03  0.12699999809E+01 0.  1.
       -4    1    3    3    0  502 -0.24900931104E+03 -0.46273555840E+02 -0.33321786839E+03  0.41854825250E+03  0.12699999809E+01 0. -1.
</event>
<event>
 5   0  0.3826483E-03  0.1019288E+04  0.7818609E-02  0.9287640E-01
       -2   -1    0    0    0  501  0.00000000000E+00  0.00000000000E+00  0.22983534742E+03  0.22983534743E+03  0.25500000920E-02 0.  1.
        2   -1    0    0  501    0  0.00000000000E+00  0.00000000000E+00 -0.11300992633E+04  0.11300992633E+04  0.25500000920E-02 0. -1.
    10030    2    1    2    0    0  0.00000000000E+00  0.00000000000E+00 -0.90026391590E+03  0.13599346108E+04  0.10192875096E+04 0.  0.
        4    1    3    3  502    0 -0.39353107465E+03 -0.23887188134E+03 -0.15840630744E+03  0.48684766975E+03  0.12699999809E+01 0.  1.
       -4    1    3    3    0  502  0.39353107465E+03  0.23887188134E+03 -0.74185760847E+03  0.87308694100E+03  0.12699999809E+01 0. -1.
</event>
<event>
 5   0  0.4140860E-03  0.1013667E+04  0.7818609E-02  0.9293681E-01
        2   -1    0    0  501    0  0.00000000000E+00  0.00000000000E+00  0.14413244522E+04  0.14413244522E+04  0.25500000920E-02 0. -1.
       -2   -1    0    0    0  501  0.00000000000E+00  0.00000000000E+00 -0.17822518014E+03  0.17822518016E+03  0.25500000920E-02 0.  1.
    10030    2    1    2    0    0  0.00000000000E+00  0.00000000000E+00  0.12630992720E+04  0.16195496323E+04  0.10136672238E+04 0.  0.
        3    1    3    3  502    0  0.36810620754E+03 -0.49725459640E+02  0.80615316496E+02  0.38009688347E+03  0.10100000352E+00 0.  1.
       -3    1    3    3    0  502 -0.36810620754E+03  0.49725459640E+02  0.11824839555E+04  0.12394527489E+04  0.10100000352E+00 0. -1.
</event>
<event>
 5   0  0.2350769E-03  0.9928574E+03  0.7818609E-02  0.9316414E-01
        1   -1    0    0  501    0  0.00000000000E+00  0.00000000000E+00  0.48326330305E+03  0.48326330308E+03  0.50400001928E-02 0. -1.
       -1   -1    0    0    0  501  0.00000000000E+00  0.00000000000E+00 -0.50995277420E+03  0.50995277422E+03  0.50400001928E-02 0.  1.
    10030    2    1    2    0    0  0.00000000000E+00  0.00000000000E+00 -0.26689471143E+02  0.99321607730E+03  0.99285741592E+03 0.  0.
        2    1    3    3  502    0 -0.48996484882E+03 -0.55450619330E+02 -0.70821019893E+02  0.49815252798E+03  0.25500000920E-02 0.  1.
       -2    1    3    3    0  502  0.48996484882E+03  0.55450619330E+02  0.44131548750E+02  0.49506354932E+03  0.25500000920E-02 0. -1.
</event>
<event>
 5   0  0.2405022E-03  0.9892535E+03  0.7818609E-02  0.9320410E-01
        1   -1    0    0  501    0  0.00000000000E+00  0.00000000000E+00  0.48000994094E+03  0.48000994096E+03  0.50400001928E-02 0. -1.
       -1   -1    0    0    0  501  0.00000000000E+00  0.00000000000E+00 -0.50968869105E+03  0.50968869108E+03  0.50400001928E-02 0.  1.
    10030    2    1    2    0    0  0.00000000000E+00  0.00000000000E+00 -0.29678750115E+02  0.98969863204E+03  0.98925353376E+03 0.  0.
        4    1    3    3  502    0 -0.12804022835E+03 -0.28519390426E+03  0.36863996526E+03  0.48334966638E+03  0.12699999809E+01 0. -1.
       -4    1    3    3    0  502  0.12804022835E+03  0.28519390426E+03 -0.39831871537E+03  0.50634896566E+03  0.12699999809E+01 0.  1.
</event>
<event>
 5   0  0.2327595E-03  0.9988952E+03  0.7818609E-02  0.9309757E-01
       -1   -1    0    0    0  501  0.00000000000E+00  0.00000000000E+00  0.18882947756E+03  0.18882947763E+03  0.50400001928E-02 0. -1.
        1   -1    0    0  501    0  0.00000000000E+00  0.00000000000E+00 -0.13210221178E+04  0.13210221179E+04  0.50400001928E-02 0.  1.
    10030    2    1    2    0    0  0.00000000000E+00  0.00000000000E+00 -0.11321926403E+04  0.15098515955E+04  0.99889522257E+03 0.  0.
        5    1    3    3  502    0  0.19724682383E+03 -0.28105123113E+03 -0.17912418045E+02  0.34385905361E+03  0.46999998093E+01 0. -1.
       -5    1    3    3    0  502 -0.19724682383E+03  0.28105123113E+03 -0.11142802222E+04  0.11659925419E+04  0.46999998093E+01 0.  1.
</event>
<event>
 5   0  0.4026829E-03  0.1003961E+04  0.7818609E-02  0.9304211E-01
        2   -1    0    0  501    0  0.00000000000E+00  0.00000000000E+00  0.13933638361E+04  0.13933638361E+04  0.25500000920E-02 0. -1.
       -2   -1    0    0    0  501  0.00000000000E+00  0.00000000000E+00 -0.18084621273E+03  0.18084621275E+03  0.25500000920E-02 0.  1.
    10030    2    1    2    0    0  0.00000000000E+00  0.00000000000E+00  0.12125176234E+04  0.15742100489E+04  0.10039612995E+04 0.  0.
        1    1    3    3  502    0 -0.21091205779E+03 -0.16974231461E+03  0.12690758649E+04  0.12976324211E+04  0.50400001928E-02 0. -1.
       -1    1    3    3    0  502  0.21091205779E+03  0.16974231461E+03 -0.56558241461E+02  0.27657762779E+03  0.50400001928E-02 0.  1.
</event>
<event>
 5   0  0.3873874E-03  0.1000268E+04  0.7818609E-02  0.9308251E-01
       -2   -1    0    0    0  501  0.00000000000E+00  0.00000000000E+00  0.53101636930E+03  0.53101636931E+03  0.25500000920E-02 0.  1.
        2   -1    0    0  501    0  0.00000000000E+00  0.00000000000E+00 -0.47104731916E+03  0.47104731917E+03  0.25500000920E-02 0. -1.
    10030    2    1    2    0    0  0.00000000000E+00  0.00000000000E+00  0.59969050141E+02  0.10020636885E+04  0.10002676386E+04 0.  0.
        5    1    3    3  502    0  0.29762893329E+03 -0.24284409361E+03 -0.29083338773E+03  0.48183232058E+03  0.46999998093E+01 0. -1.
       -5    1    3    3    0  502 -0.29762893329E+03  0.24284409361E+03  0.35080243788E+03  0.52023136790E+03  0.46999998093E+01 0.  1.
</event>
<event>
 5   0  0.3826483E-03  0.1003086E+04  0.7818609E-02  0.9305167E-01
       -2   -1    0    0    0  501  0.00000000000E+00  0.00000000000E+00  0.14704374397E+03  0.14704374399E+03  0.25500000920E-02 0. -1.
        2   -1    0    0  501    0  0.00000000000E+00  0.00000000000E+00 -0.17106830095E+04  0.17106830095E+04  0.25500000920E-02 0.  1.
    10030    2    1    2    0    0  0.00000000000E+00  0.00000000000E+00 -0.15636392655E+04  0.18577267535E+04  0.10030857082E+04 0.  0.
        4    1    3    3  502    0 -0.42892268674E+03 -0.25304888788E+03 -0.89193589118E+03  0.10215476777E+04  0.12699999809E+01 0.  1.
       -4    1    3    3    0  502  0.42892268674E+03  0.25304888788E+03 -0.67170337435E+03  0.83617907584E+03  0.12699999809E+01 0. -1.
</event>
<event>
 5   0  0.2327595E-03  0.9282145E+03  0.7818609E-02  0.9390983E-01
       -1   -1    0    0    0  501  0.00000000000E+00  0.00000000000E+00  0.40643038680E+03  0.40643038683E+03  0.50400001928E-02 0. -1.
        1   -1    0    0  501    0  0.00000000000E+00  0.00000000000E+00 -0.52996903466E+03  0.52996903468E+03  0.50400001928E-02 0.  1.
    10030    2    1    2    0    0  0.00000000000E+00  0.00000000000E+00 -0.12353864786E+03  0.93639942151E+03  0.92821445749E+03 0.  0.
        5    1    3    3  502    0  0.32262816568E+03 -0.23296187562E+03  0.17911067981E+03  0.43642054764E+03  0.46999998093E+01 0. -1.
       -5    1    3    3    0  502 -0.32262816568E+03  0.23296187562E+03 -0.30264932767E+03  0.49997887387E+03  0.46999998093E+01 0.  1.
</event>
<event>
 5   0  0.2378609E-03  0.9249297E+03  0.7818609E-02  0.9394944E-01
        1   -1    0    0  501    0  0.00000000000E+00  0.00000000000E+00  0.15803017861E+04  0.15803017861E+04  0.50400001928E-02 0.  1.
       -1   -1    0    0    0  501  0.00000000000E+00  0.00000000000E+00 -0.13533728416E+03  0.13533728425E+03  0.50400001928E-02 0. -1.
    10030    2    1    2    0    0  0.00000000000E+00  0.00000000000E+00  0.14449645019E+04  0.17156390703E+04  0.92492973130E+03 0.  0.
        1    1    3    3  502    0  0.29625598229E+03 -0.30523831630E+03  0.10591106388E+04  0.11413384169E+04  0.50400001928E-02 0.  1.
       -1    1    3    3    0  502 -0.29625598229E+03  0.30523831630E+03  0.38585386318E+03  0.57430065343E+03  0.50400001928E-02 0. -1.
</event>
<event>
 5   0  0.1548000E-03  0.1015661E+04  0.7818609E-02  0.9291533E-01
       -4   -1    0    0    0  501  0.00000000000E+00  0.00000000000E+00  0.17509017332E+04  0.17509021938E+04  0.12699999809E+01 0.  1.
        4   -1    0    0  501    0  0.00000000000E+00  0.00000000000E+00 -0.14728770612E+03  0.14729318136E+03  0.12699999809E+01 0. -1.
    10030    2    1    2    0    0  0.00000000000E+00  0.00000000000E+00  0.16036140271E+04  0.18981953752E+04  0.10156612301E+04 0.  0.
        5    1    3    3  502    0  0.20326154983E+03 -0.45578034505E+03  0.97731558641E+03  0.10973690473E+04  0.46999998093E+01 0. -1.
       -5    1    3    3    0  502 -0.20326154983E+03  0.45578034505E+03  0.62629844070E+03  0.80082632786E+03  0.46999998093E+01 0.  1.
</event>
<event>
 5   0  0.2350769E-03  0.9918797E+03  0.7818609E-02  0.9317496E-01
       -1   -1    0    0    0  501  0.00000000000E+00  0.00000000000E+00  0.25996948406E+03  0.25996948411E+03  0.50400001928E-02 0. -1.
        1   -1    0    0  501    0  0.00000000000E+00  0.00000000000E+00 -0.94609703008E+03  0.94609703009E+03  0.50400001928E-02 0.  1.
    10030    2    1    2    0    0  0.00000000000E+00  0.00000000000E+00 -0.68612754602E+03  0.12060665142E+04  0.99187974437E+03 0.  0.
        2    1    3    3  502    0  0.15372334526E+03  0.36381311854E+03  0.21648391273E+02  0.39554962388E+03  0.25500000920E-02 0. -1.
       -2    1    3    3    0  502 -0.15372334526E+03 -0.36381311854E+03 -0.70777593729E+03  0.81051689033E+03  0.25500000920E-02 0.  1.
</event>
<event>
 5   0  0.2313036E-03  0.1000373E+04  0.7818609E-02  0.9308136E-01
       -1   -1    0    0    0  501  0.00000000000E+00  0.00000000000E+00  0.76167349281E+03  0.76167349283E+03  0.50400001928E-02 0. -1.
        1   -1    0    0  501    0  0.00000000000E+00  0.00000000000E+00 -0.32846953293E+03  0.32846953297E+03  0.50400001928E-02 0.  1.
    10030    2    1    2    0    0  0.00000000000E+00  0.00000000000E+00  0.43320395988E+03  0.10901430258E+04  0.10003730034E+04 0.  0.
        3    1    3    3  502    0  0.26152913496E+03 -0.37627696490E+03 -0.19022463687E+01  0.45824171731E+03  0.10100000352E+00 0. -1.
       -3    1    3    3    0  502 -0.26152913496E+03  0.37627696490E+03  0.43510620625E+03  0.63190130848E+03  0.10100000352E+00 0.  1.
</event>
<event>
 5   0  0.4026829E-03  0.9997109E+03  0.7818609E-02  0.9308862E-01
        2   -1    0    0  501    0  0.00000000000E+00  0.00000000000E+00  0.83533521100E+03  0.83533521100E+03  0.25500000920E-02 0.  1.
       -2   -1    0    0    0  501  0.00000000000E+00  0.00000000000E+00 -0.29910803709E+03  0.29910803710E+03  0.25500000920E-02 0. -1.
    10030    2    1    2    0    0  0.00000000000E+00  0.00000000000E+00  0.53622717390E+03  0.11344432481E+04  0.99971090878E+03 0.  0.
        1    1    3    3  502    0  0.15183924060E+03  0.15729903314E+03  0.77820222887E+03  0.80832966657E+03  0.50400001928E-02 0.  1.
       -1    1    3    3    0  502 -0.15183924060E+03 -0.15729903314E+03 -0.24197505497E+03  0.32611358154E+03  0.50400001928E-02 0. -1.
</event>
<event>
 5   0  0.2350769E-03  0.9963592E+03  0.7818609E-02  0.9312547E-01
       -1   -1    0    0    0  501  0.00000000000E+00  0.00000000000E+00  0.13855883207E+03  0.13855883216E+03  0.50400001928E-02 0. -1.
        1   -1    0    0  501    0  0.00000000000E+00  0.00000000000E+00 -0.17911736768E+04  0.17911736768E+04  0.50400001928E-02 0.  1.
    10030    2    1    2    0    0  0.00000000000E+00  0.00000000000E+00 -0.16526148447E+04  0.19297325090E+04  0.99635923801E+03 0.  0.
        2    1    3    3  502    0  0.39133323914E+03  0.16381065341E+03 -0.13321281079E+04  0.13980489728E+04  0.25500000920E-02 0.  1.
       -2    1    3    3    0  502 -0.39133323914E+03 -0.16381065341E+03 -0.32048673680E+03  0.53168353623E+03  0.25500000920E-02 0. -1.
</event>
<event>
 5   0  0.2405022E-03  0.1002081E+04  0.7818609E-02  0.9306265E-01
       -1   -1    0    0    0  501  0.00000000000E+00  0.00000000000E+00  0.10784260391E+04  0.10784260391E+04  0.50400001928E-02 0.  1.
        1   -1    0    0  501    0  0.00000000000E+00  0.00000000000E+00 -0.23278520380E+03  0.23278520386E+03  0.50400001928E-02 0. -1.
    10030    2    1    2    0    0  0.00000000000E+00  0.00000000000E+00  0.84564083532E+03  0.13112112430E+04  0.10020810852E+04 0.  0.
        4    1    3    3  502    0 -0.40971548372E+03 -0.28266545476E+03  0.34795618986E+03  0.60732335693E+03  0.12699999809E+01 0.  1.
       -4    1    3    3    0  502  0.40971548372E+03  0.28266545476E+03  0.49768464546E+03  0.70388788606E+03  0.12699999809E+01 0. -1.
</event>
<event>
 5   0  0.3826483E-03  0.1003998E+04  0.7818609E-02  0.9304171E-01
        2   -1    0    0  501    0  0.00000000000E+00  0.00000000000E+00  0.74503805760E+03  0.74503805760E+03  0.25500000920E-02 0.  1.
       -2   -1    0    0    0  501  0.00000000000E+00  0.00000000000E+00 -0.33824145784E+03  0.33824145785E+03  0.25500000920E-02 0. -1.
    10030    2    1    2    0    0  0.00000000000E+00  0.00000000000E+00  0.40679659975E+03  0.10832795155E+04  0.10039975274E+04 0.  0.
        4    1    3    3  502    0  0.42053921592E+03  0.24866881785E+03  0.78910961165E+02  0.49489187283E+03  0.12699999809E+01 0.  1.
       -4    1    3    3    0  502 -0.42053921592E+03 -0.24866881785E+03  0.32788563859E+03  0.58838764262E+03  0.12699999809E+01 0. -1.
</event>
<event>
 5   0  0.2327595E-03  0.9972689E+03  0.7818609E-02  0.9311545E-01
        1   -1    0    0  501    0  0.00000000000E+00  0.00000000000E+00  0.34254837170E+03  0.34254837173E+03  0.50400001928E-02 0.  1.
       -1   -1    0    0    0  501  0.00000000000E+00  0.00000000000E+00 -0.72584292270E+03  0.72584292272E+03  0.50400001928E-02 0. -1.
    10030    2    1    2    0    0  0.00000000000E+00  0.00000000000E+00 -0.38329455100E+03  0.10683912944E+04  0.99726889314E+03 0.  0.
        5    1    3    3  502    0  0.42659012460E+03 -0.24848667673E+03 -0.26655876719E+03  0.56107078812E+03  0.46999998093E+01 0. -1.
       -5    1    3    3    0  502 -0.42659012460E+03  0.24848667673E+03 -0.11673578381E+03  0.50732050633E+03  0.46999998093E+01 0.  1.
</event>
<event>
 5   0  0.2327595E-03  0.1005220E+04  0.7818609E-02  0.9302838E-01
       -1   -1    0    0    0  501  0.00000000000E+00  0.00000000000E+00  0.47149669356E+03  0.47149669358E+03  0.50400001928E-02 0. -1.
        1   -1    0    0  501    0  0.00000000000E+00  0.00000000000E+00 -0.53577660736E+03  0.53577660738E+03  0.50400001928E-02 0.  1.
    10030    2    1    2    0    0  0.00000000000E+00  0.00000000000E+00 -0.64279913802E+02  0.10072733010E+04  0.10052201727E+04 0.  0.
        5    1    3    3  502    0  0.26385001536E+03 -0.15285296457E+03 -0.43247310264E+03  0.52918421545E+03  0.46999998093E+01 0.  1.
       -5    1    3    3    0  502 -0.26385001536E+03  0.15285296457E+03  0.36819318883E+03  0.47808908551E+03  0.46999998093E+01 0. -1.
</event>
<event>
 5   0  0.2350769E-03  0.9767134E+03  0.7818609E-02  0.9334460E-01
        1   -1    0    0  501    0  0.00000000000E+00  0.00000000000E+00  0.71750737564E+03  0.71750737566E+03  0.50400001928E-02 0.  1.
       -1   -1    0    0    0  501  0.00000000000E+00  0.00000000000E+00 -0.33238998385E+03  0.33238998389E+03  0.50400001928E-02 0. -1.
    10030    2    1    2    0    0  0.00000000000E+00  0.00000000000E+00  0.38511739178E+03  0.10498973595E+04  0.97671339713E+03 0.  0.
        2    1    3    3  502    0  0.40623059412E+02  0.28778495132E+03 -0.22930375546E+03  0.37020348923E+03  0.25500000920E-02 0. -1.
       -2    1    3    3    0  502 -0.40623059412E+02 -0.28778495132E+03  0.61442114725E+03  0.67969387032E+03  0.25500000920E-02 0.  1.
</event>
<event>
 5   0  0.4026829E-03  0.9915083E+03  0.7818609E-02  0.9317908E-01
        2   -1    0    0  501    0  0.00000000000E+00  0.00000000000E+00  0.46950549244E+03  0.46950549245E+03  0.25500000920E-02 0.  1.
       -2   -1    0    0    0  501  0.00000000000E+00  0.00000000000E+00 -0.52347025413E+03  0.52347025414E+03  0.25500000920E-02 0. -1.
    10030    2    1    2    0    0  0.00000000000E+00  0.00000000000E+00 -0.53964761689E+02  0.99297574658E+03  0.99150826411E+03 0.  0.
        1    1    3    3  502    0 -0.37741031119E+03 -0.15186161332E+03 -0.31072426168E+03  0.51190825293E+03  0.50400001928E-02 0.  1.
       -1    1    3    3    0  502  0.37741031119E+03  0.15186161332E+03  0.25675949999E+03  0.48106749366E+03  0.50400001928E-02 0. -1.
</event>
<event>
 5   0  0.2350769E-03  0.9896480E+03  0.7818609E-02  0.9319972E-01
        1   -1    0    0  501    0  0.00000000000E+00  0.00000000000E+00  0.58347466296E+03  0.58347466298E+03  0.50400001928E-02 0.  1.
       -1   -1    0    0    0  501  0.00000000000E+00  0.00000000000E+00 -0.41964256783E+03  0.41964256786E+03  0.50400001928E-02 0. -1.
    10030    2    1    2    0    0  0.00000000000E+00  0.00000000000E+00  0.16383209513E+03  0.10031172308E+04  0.98964803007E+03 0.  0.
        2    1    3    3  502    0  0.23053859479E+03  0.12837643859E+03 -0.34237664783E+03  0.43226186815E+03  0.25500000920E-02 0. -1.
       -2    1    3    3    0  502 -0.23053859479E+03 -0.12837643859E+03  0.50620874296E+03  0.57085536270E+03  0.25500000920E-02 0.  1.
</event>
<event>
 5   0  0.4026829E-03  0.9589785E+03  0.7818609E-02  0.9354717E-01
       -2   -1    0    0    0  501  0.00000000000E+00  0.00000000000E+00  0.19526893864E+03  0.19526893866E+03  0.25500000920E-02 0.  1.
        2   -1    0    0  501    0  0.00000000000E+00  0.00000000000E+00 -0.11774014342E+04  0.11774014342E+04  0.25500000920E-02 0. -1.
    10030    2    1    2    0    0  0.00000000000E+00  0.00000000000E+00 -0.98213249557E+03  0.13726703729E+04  0.95897847405E+03 0.  0.
        1    1    3    3  502    0 -0.41769442519E+03 -0.18950564198E+03 -0.29103567780E+03  0.54321523078E+03  0.50400001928E-02 0.  1.
       -1    1    3    3    0  502  0.41769442519E+03  0.18950564198E+03 -0.69109681777E+03  0.82945514208E+03  0.50400001928E-02 0. -1.
</event>
<event>
 5   0  0.4140860E-03  0.1001877E+04  0.7818609E-02  0.9306488E-01
        2   -1    0    0  501    0  0.00000000000E+00  0.00000000000E+00  0.18609396830E+04  0.18609396830E+04  0.25500000920E-02 0.  1.
       -2   -1    0    0    0  501  0.00000000000E+00  0.00000000000E+00 -0.13484557321E+03  0.13484557324E+03  0.25500000920E-02 0. -1.
    10030    2    1    2    0    0  0.00000000000E+00  0.00000000000E+00  0.17260941098E+04  0.19957852563E+04  0.10018771947E+04 0.  0.
        3    1    3    3  502    0 -0.18825483074E+03  0.45801393972E+03  0.10137439413E+04  0.11282257926E+04  0.10100000352E+00 0.  1.
       -3    1    3    3    0  502  0.18825483074E+03 -0.45801393972E+03  0.71235016847E+03  0.86755946367E+03  0.10100000352E+00 0. -1.
</event>
<event>
 5   0  0.4140860E-03  0.9992221E+03  0.7818609E-02  0.9309398E-01
       -2   -1    0    0    0  501  0.00000000000E+00  0.00000000000E+00  0.32971448781E+03  0.32971448782E+03  0.25500000920E-02 0.  1.
        2   -1    0    0  501    0  0.00000000000E+00  0.00000000000E+00 -0.75705251005E+03  0.75705251005E+03  0.25500000920E-02 0. -1.
    10030    2    1    2    0    0  0.00000000000E+00  0.00000000000E+00 -0.42733802224E+03  0.10867669979E+04  0.99922205861E+03 0.  0.
        3    1    3    3  502    0  0.44655592835E+03 -0.37940894760E+02  0.26492761395E+02  0.44894719650E+03  0.10100000352E+00 0.  1.
       -3    1    3    3    0  502 -0.44655592835E+03  0.37940894760E+02 -0.45383078363E+03  0.63781980137E+03  0.10100000352E+00 0. -1.
</event>
<event>
 5   0  0.2378609E-03  0.1026037E+04  0.7818609E-02  0.9280440E-01
       -1   -1    0    0    0  501  0.00000000000E+00  0.00000000000E+00  0.62550518884E+03  0.62550518886E+03  0.50400001928E-02 0. -1.
        1   -1    0    0  501    0  0.00000000000E+00  0.00000000000E+00 -0.42076071210E+03  0.42076071213E+03  0.50400001928E-02 0.  1.
    10030    2    1    2    0    0  0.00000000000E+00  0.00000000000E+00  0.20474447674E+03  0.10462659010E+04  0.10260370533E+04 0.  0.
        1    1    3    3  502    0 -0.35047669970E+02 -0.32546672585E+03  0.50516771401E+03  0.60195626760E+03  0.50400001928E-02 0. -1.
       -1    1    3    3    0  502  0.35047669970E+02  0.32546672585E+03 -0.30042323727E+03  0.44430963339E+03  0.50400001928E-02 0.  1.
</event>
<event>
 5   0  0.2327595E-03  0.1013695E+04  0.7818609E-02  0.9293650E-01
        1   -1    0    0  501    0  0.00000000000E+00  0.00000000000E+00  0.12393651399E+04  0.12393651399E+04  0.50400001928E-02 0.  1.
       -1   -1    0    0    0  501  0.00000000000E+00  0.00000000000E+00 -0.20727917286E+03  0.20727917292E+03  0.50400001928E-02 0. -1.
    10030    2    1    2    0    0  0.00000000000E+00  0.00000000000E+00  0.10320859670E+04  0.14466443128E+04  0.10136953805E+04 0.  0.
        5    1    3    3  502    0 -0.35824349596E+03  0.34229744947E+03  0.36389418377E+03  0.61477395300E+03  0.46999998093E+01 0.  1.
       -5    1    3    3    0  502  0.35824349596E+03 -0.34229744947E+03  0.66819178325E+03  0.83187035980E+03  0.46999998093E+01 0. -1.
</event>
<event>
 5   0  0.4140860E-03  0.9612979E+03  0.7818609E-02  0.9352042E-01
       -2   -1    0    0    0  501  0.00000000000E+00  0.00000000000E+00  0.28694543093E+03  0.28694543094E+03  0.25500000920E-02 0.  1.
        2   -1    0    0  501    0  0.00000000000E+00  0.00000000000E+00 -0.80511274806E+03  0.80511274806E+03  0.25500000920E-02 0. -1.
    10030    2    1    2    0    0  0.00000000000E+00  0.00000000000E+00 -0.51816731713E+03  0.10920581790E+04  0.96129792353E+03 0.  0.
        3    1    3    3  502    0  0.46782074019E+02 -0.42276695675E+03 -0.47994273737E+01  0.42537454893E+03  0.10100000352E+00 0.  1.
       -3    1    3    3    0  502 -0.46782074019E+02  0.42276695675E+03 -0.51336788976E+03  0.66668363007E+03  0.10100000352E+00 0. -1.
</event>
<event>
 5   0  0.2327595E-03  0.1003296E+04  0.7818609E-02  0.9304937E-01
        1   -1    0    0  501    0  0.00000000000E+00  0.00000000000E+00  0.12804172580E+04  0.12804172580E+04  0.50400001928E-02 0. -1.
       -1   -1    0    0    0  501  0.00000000000E+00  0.00000000000E+00 -0.19653813300E+03  0.19653813307E+03  0.50400001928E-02 0.  1.
    10030    2    1    2    0    0  0.00000000000E+00  0.00000000000E+00  0.10838791250E+04  0.14769553911E+04  0.10032962023E+04 0.  0.
        5    1    3    3  502    0 -0.20948751520E+03 -0.27297931230E+03  0.10792591962E+04  0.11327953154E+04  0.46999998093E+01 0. -1.
       -5    1    3    3    0  502  0.20948751520E+03  0.27297931230E+03  0.46199288173E+01  0.34416007571E+03  0.46999998093E+01 0.  1.
</event>
<event>
 5   0  0.3895011E-03  0.9994750E+03  0.7818609E-02  0.9309121E-01
       -2   -1    0    0    0  501  0.00000000000E+00  0.00000000000E+00  0.23227302184E+03  0.23227302186E+03  0.25500000920E-02 0. -1.
        2   -1    0    0  501    0  0.00000000000E+00  0.00000000000E+00 -0.10751898041E+04  0.10751898041E+04  0.25500000920E-02 0.  1.
    10030    2    1    2    0    0  0.00000000000E+00  0.00000000000E+00 -0.84291678226E+03  0.13074628260E+04  0.99947503194E+03 0.  0.
        2    1    3    3  502    0  0.16060986381E+03 -0.44414676546E+03 -0.63511452798E+03  0.79147478878E+03  0.25500000920E-02 0.  1.
       -2    1    3    3    0  502 -0.16060986381E+03  0.44414676546E+03 -0.20780225428E+03  0.51598803718E+03  0.25500000920E-02 0. -1.
</event>
<event>
 5   0  0.2378609E-03  0.9936999E+03  0.7818609E-02  0.9315482E-01
       -1   -1    0    0    0  501  0.00000000000E+00  0.00000000000E+00  0.21976233222E+03  0.21976233228E+03  0.50400001928E-02 0.  1.
        1   -1    0    0  501    0  0.00000000000E+00  0.00000000000E+00 -0.11233039239E+04  0.11233039240E+04  0.50400001928E-02 0. -1.
    10030    2    1    2    0    0  0.00000000000E+00  0.00000000000E+00 -0.90354159172E+03  0.13430662562E+04  0.99369993493E+03 0.  0.
        1    1    3    3  502    0 -0.12954885809E+03 -0.15269503627E+03  0.16280677760E+03  0.25807891737E+03  0.50400001928E-02 0.  1.
       -1    1    3    3    0  502  0.12954885809E+03  0.15269503627E+03 -0.10663483693E+04  0.10849873389E+04  0.50400001928E-02 0. -1.
</event>
<event>
 5   0  0.2378609E-03  0.9971854E+03  0.7818609E-02  0.9311637E-01
       -1   -1    0    0    0  501  0.00000000000E+00  0.00000000000E+00  0.14129458227E+03  0.14129458235E+03  0.50400001928E-02 0.  1.
        1   -1    0    0  501    0  0.00000000000E+00  0.00000000000E+00 -0.17594069431E+04  0.17594069431E+04  0.50400001928E-02 0. -1.
    10030    2    1    2    0    0  0.00000000000E+00  0.00000000000E+00 -0.16181123608E+04  0.19007015255E+04  0.99718537725E+03 0.  0.
        1    1    3    3  502    0  0.18012058563E+03 -0.30935587761E+03 -0.14753804146E+03  0.38718465631E+03  0.50400001928E-02 0.  1.
       -1    1    3    3    0  502 -0.18012058563E+03  0.30935587761E+03 -0.14705743194E+04  0.15135168691E+04  0.50400001928E-02 0. -1.
</event>
<event>
 5   0  0.2350769E-03  0.1000880E+04  0.7818609E-02  0.9307580E-01
        1   -1    0    0  501    0  0.00000000000E+00  0.00000000000E+00  0.14675626843E+03  0.14675626852E+03  0.50400001928E-02 0.  1.
       -1   -1    0    0    0  501  0.00000000000E+00  0.00000000000E+00 -0.17065036678E+04  0.17065036678E+04  0.50400001928E-02 0. -1.
    10030    2    1    2    0    0  0.00000000000E+00  0.00000000000E+00 -0.15597473994E+04  0.18532599363E+04  0.10008798338E+04 0.  0.
        2    1    3    3  502    0  0.30621512069E+03 -0.36084147459E+03 -0.10811030214E+04  0.11801516906E+04  0.25500000920E-02 0. -1.
       -2    1    3    3    0  502 -0.30621512069E+03  0.36084147459E+03 -0.47864437802E+03  0.67310824578E+03  0.25500000920E-02 0.  1.
</event>
<event>
 5   0  0.3826483E-03  0.1000053E+04  0.7818609E-02  0.9308486E-01
       -2   -1    0    0    0  501  0.00000000000E+00  0.00000000000E+00  0.52429157012E+03  0.52429157012E+03  0.25500000920E-02 0.  1.
        2   -1    0    0  501    0  0.00000000000E+00  0.00000000000E+00 -0.47688484041E+03  0.47688484042E+03  0.25500000920E-02 0. -1.
    10030    2    1    2    0    0  0.00000000000E+00  0.00000000000E+00  0.47406729709E+02  0.10011764105E+04  0.10000534021E+04 0.  0.
        4    1    3    3  502    0 -0.42381219756E+03 -0.24797831808E+03 -0.70822279109E+02  0.49611231910E+03  0.12699999809E+01 0. -1.
       -4    1    3    3    0  502  0.42381219756E+03  0.24797831808E+03  0.11822900882E+03  0.50506409144E+03  0.12699999809E+01 0.  1.
</event>
<event>
 5   0  0.2313036E-03  0.1000347E+04  0.7818609E-02  0.9308164E-01
        1   -1    0    0  501    0  0.00000000000E+00  0.00000000000E+00  0.75933782284E+03  0.75933782285E+03  0.50400001928E-02 0.  1.
       -1   -1    0    0    0  501  0.00000000000E+00  0.00000000000E+00 -0.32946266899E+03  0.32946266903E+03  0.50400001928E-02 0. -1.
    10030    2    1    2    0    0  0.00000000000E+00  0.00000000000E+00  0.42987515385E+03  0.10888004919E+04  0.10003468715E+04 0.  0.
        3    1    3    3  502    0 -0.48819536281E+03 -0.51105172951E+02  0.11038660858E+03  0.50312191815E+03  0.10100000352E+00 0. -1.
       -3    1    3    3    0  502  0.48819536281E+03  0.51105172951E+02  0.31948854527E+03  0.58567857373E+03  0.10100000352E+00 0.  1.
</event>
<event>
 5   0  0.2327595E-03  0.1047432E+04  0.7818609E-02  0.9257999E-01
        1   -1    0    0  501    0  0.00000000000E+00  0.00000000000E+00  0.17751005466E+04  0.17751005466E+04  0.50400001928E-02 0. -1.
       -1   -1    0    0    0  501  0.00000000000E+00  0.00000000000E+00 -0.15451435764E+03  0.15451435772E+03  0.50400001928E-02 0.  1.
    10030    2    1    2    0    0  0.00000000000E+00  0.00000000000E+00  0.16205861890E+04  0.19296149043E+04  0.10474321377E+04 0.  0.
        5    1    3    3  502    0  0.16570221312E+03 -0.37562428553E+03  0.21133870092E+03  0.46177588051E+03  0.46999998093E+01 0.  1.
       -5    1    3    3    0  502 -0.16570221312E+03  0.37562428553E+03  0.14092474880E+04  0.14678390238E+04  0.46999998093E+01 0. -1.
</event>
<event>
 5   0  0.2350769E-03  0.9951501E+03  0.7818609E-02  0.9313880E-01
        1   -1    0    0  501    0  0.00000000000E+00  0.00000000000E+00  0.40967115828E+03  0.40967115832E+03  0.50400001928E-02 0.  1.
       -1   -1    0    0    0  501  0.00000000000E+00  0.00000000000E+00 -0.60434061886E+03  0.60434061888E+03  0.50400001928E-02 0. -1.
    10030    2    1    2    0    0  0.00000000000E+00  0.00000000000E+00 -0.19466946058E+03  0.10140117772E+04  0.99515008186E+03 0.  0.
        2    1    3    3  502    0  0.40626074245E+03 -0.11279118498E+02 -0.38983993698E+03  0.56316088806E+03  0.25500000920E-02 0. -1.
       -2    1    3    3    0  502 -0.40626074245E+03  0.11279118498E+02  0.19517047640E+03  0.45085088914E+03  0.25500000920E-02 0.  1.
</event>
<event>
 5   0  0.3895011E-03  0.1003646E+04  0.7818609E-02  0.9304555E-01
       -2   -1    0    0    0  501  0.00000000000E+00  0.00000000000E+00  0.29494576489E+03  0.29494576490E+03  0.25500000920E-02 0.  1.
        2   -1    0    0  501    0  0.00000000000E+00  0.00000000000E+00 -0.85380471608E+03  0.85380471608E+03  0.25500000920E-02 0. -1.
    10030    2    1    2    0    0  0.00000000000E+00  0.00000000000E+00 -0.55885895119E+03  0.11487504810E+04  0.10036455252E+04 0.  0.
        2    1    3    3  502    0  0.71062918088E+02 -0.30651759865E+03  0.16801573947E+03  0.35669632088E+03  0.25500000920E-02 0.  1.
       -2    1    3    3    0  502 -0.71062918088E+02  0.30651759865E+03 -0.72687469066E+03  0.79205416010E+03  0.25500000920E-02 0. -1.
</event>
<event>
 5   0  0.1548000E-03  0.9647090E+03  0.7818609E-02  0.9348121E-01
        3   -1    0    0  501    0  0.00000000000E+00  0.00000000000E+00  0.55816841436E+03  0.55816842350E+03  0.10100000352E+00 0.  1.
       -3   -1    0    0    0  501  0.00000000000E+00  0.00000000000E+00 -0.41683806128E+03  0.41683807352E+03  0.10100000352E+00 0. -1.
    10030    2    1    2    0    0  0.00000000000E+00  0.00000000000E+00  0.14133035308E+03  0.97500649701E+03  0.96470897193E+03 0.  0.
        3    1    3    3  502    0  0.39494423883E+03  0.23737389649E+03 -0.73470297427E+02  0.46661034421E+03  0.10100000352E+00 0.  1.
       -3    1    3    3    0  502 -0.39494423883E+03 -0.23737389649E+03  0.21480065050E+03  0.50839615280E+03  0.10100000352E+00 0. -1.
</event>
<event>
 5   0  0.3826483E-03  0.9990338E+03  0.7818609E-02  0.9309605E-01
        2   -1    0    0  501    0  0.00000000000E+00  0.00000000000E+00  0.23737805168E+04  0.23737805168E+04  0.25500000920E-02 0. -1.
       -2   -1    0    0    0  501  0.00000000000E+00  0.00000000000E+00 -0.10511381181E+03  0.10511381184E+03  0.25500000920E-02 0.  1.
    10030    2    1    2    0    0  0.00000000000E+00  0.00000000000E+00  0.22686667050E+04  0.24788943286E+04  0.99903377032E+03 0.  0.
        4    1    3    3  502    0  0.22453715572E+03  0.36326724468E+02  0.22378219958E+04  0.22493522319E+04  0.12699999809E+01 0. -1.
       -4    1    3    3    0  502 -0.22453715572E+03 -0.36326724468E+02  0.30844709191E+02  0.22954209678E+03  0.12699999809E+01 0.  1.
</event>
<event>
 5   0  0.3826483E-03  0.1004375E+04  0.7818609E-02  0.9303760E-01
       -2   -1    0    0    0  501  0.00000000000E+00  0.00000000000E+00  0.70475154329E+03  0.70475154329E+03  0.25500000920E-02 0. -1.
        2   -1    0    0  501    0  0.00000000000E+00  0.00000000000E+00 -0.35784545357E+03  0.35784545357E+03  0.25500000920E-02 0.  1.
    10030    2    1    2    0    0  0.00000000000E+00  0.00000000000E+00  0.34690608972E+03  0.10625969969E+04  0.10043747023E+04 0.  0.
        4    1    3    3  502    0 -0.12264100599E+03  0.10214500719E+03  0.67720182052E+03  0.69575738405E+03  0.12699999809E+01 0. -1.
       -4    1    3    3    0  502  0.12264100599E+03 -0.10214500719E+03 -0.33029573080E+03  0.36683961281E+03  0.12699999809E+01 0.  1.
</event>
<event>
 5   0  0.2405022E-03  0.9991764E+03  0.7818609E-02  0.9309449E-01
       -1   -1    0    0    0  501  0.00000000000E+00  0.00000000000E+00  0.53769115646E+03  0.53769115649E+03  0.50400001928E-02 0. -1.
        1   -1    0    0  501    0  0.00000000000E+00  0.00000000000E+00 -0.46418534717E+03  0.46418534719E+03  0.50400001928E-02 0.  1.
    10030    2    1    2    0    0  0.00000000000E+00  0.00000000000E+00  0.73505809298E+02  0.10018765037E+04  0.99917637313E+03 0.  0.
        4    1    3    3  502    0 -0.16035700368E+02  0.26124777373E+03  0.46343686696E+03  0.53224325784E+03  0.12699999809E+01 0. -1.
       -4    1    3    3    0  502  0.16035700368E+02 -0.26124777373E+03 -0.38993105766E+03  0.46963324583E+03  0.12699999809E+01 0.  1.
</event>
<event>
 5   0  0.3895011E-03  0.9958159E+03  0.7818609E-02  0.9313146E-01
        2   -1    0    0  501    0  0.00000000000E+00  0.00000000000E+00  0.12845941711E+04  0.12845941711E+04  0.25500000920E-02 0.  1.
       -2   -1    0    0    0  501  0.00000000000E+00  0.00000000000E+00 -0.19298884396E+03  0.19298884398E+03  0.25500000920E-02 0. -1.
    10030    2    1    2    0    0  0.00000000000E+00  0.00000000000E+00  0.10916053271E+04  0.14775830151E+04  0.99581593491E+03 0.  0.
        2    1    3    3  502    0 -0.11411051969E+03  0.46901863809E+03  0.72699934443E+03  0.87265556802E+03  0.25500000920E-02 0. -1.
       -2    1    3    3    0  502  0.11411051969E+03 -0.46901863809E+03  0.36460598269E+03  0.60492744706E+03  0.25500000920E-02 0.  1.
</event>
<event>
 5   0  0.1548000E-03  0.1010969E+04  0.7818609E-02  0.9296595E-01
       -3   -1    0    0    0  501  0.00000000000E+00  0.00000000000E+00  0.30453351037E+03  0.30453352712E+03  0.10100000352E+00 0. -1.
        3   -1    0    0  501    0  0.00000000000E+00  0.00000000000E+00 -0.83903627011E+03  0.83903627619E+03  0.10100000352E+00 0.  1.
    10030    2    1    2    0    0  0.00000000000E+00  0.00000000000E+00 -0.53450275974E+03  0.11435698033E+04  0.10109691859E+04 0.  0.
        5    1    3    3  502    0 -0.23650303922E+03  0.40531148203E+02  0.23597725671E+03  0.33657661419E+03  0.46999998093E+01 0. -1.
       -5    1    3    3    0  502  0.23650303922E+03 -0.40531148203E+02 -0.77048001646E+03  0.80699318912E+03  0.46999998093E+01 0.  1.
</event>
<event>
 5   0  0.3826483E-03  0.1008917E+04  0.7818609E-02  0.9298819E-01
       -2   -1    0    0    0  501  0.00000000000E+00  0.00000000000E+00  0.34706219414E+03  0.34706219415E+03  0.25500000920E-02 0.  1.
        2   -1    0    0  501    0  0.00000000000E+00  0.00000000000E+00 -0.73323517128E+03  0.73323517128E+03  0.25500000920E-02 0. -1.
    10030    2    1    2    0    0  0.00000000000E+00  0.00000000000E+00 -0.38617297714E+03  0.10802973654E+04  0.10089166613E+04 0.  0.
        4    1    3    3  502    0 -0.24817691206E+03  0.23773000503E+03  0.20232225090E+03  0.39880225812E+03  0.12699999809E+01 0.  1.
       -4    1    3    3    0  502  0.24817691206E+03 -0.23773000503E+03 -0.58849522804E+03  0.68149510731E+03  0.12699999809E+01 0. -1.
</event>
<event>
 5   0  0.3873874E-03  0.1014723E+04  0.7818609E-02  0.9292543E-01
        2   -1    0    0  501    0  0.00000000000E+00  0.00000000000E+00  0.83574920470E+03  0.83574920471E+03  0.25500000920E-02 0. -1.
       -2   -1    0    0    0  501  0.00000000000E+00  0.00000000000E+00 -0.30800586344E+03  0.30800586345E+03  0.25500000920E-02 0.  1.
    10030    2    1    2    0    0  0.00000000000E+00  0.00000000000E+00  0.52774334127E+03  0.11437550682E+04  0.10147229285E+04 0.  0.
        5    1    3    3  502    0  0.88225443072E+02 -0.26302661634E+03 -0.21490846571E+03  0.35096220358E+03  0.46999998093E+01 0.  1.
       -5    1    3    3    0  502 -0.88225443072E+02  0.26302661634E+03  0.74265180698E+03  0.79279286457E+03  0.46999998093E+01 0. -1.
</event>
<event>
 5   0  0.1548000E-03  0.1003353E+04  0.7818609E-02  0.9304874E-01
        4   -1    0    0  501    0  0.00000000000E+00  0.00000000000E+00  0.10607018608E+04  0.10607026211E+04  0.12699999809E+01 0.  1.
       -4   -1    0    0    0  501  0.00000000000E+00  0.00000000000E+00 -0.23727389465E+03  0.23727729344E+03  0.12699999809E+01 0. -1.
    10030    2    1    2    0    0  0.00000000000E+00  0.00000000000E+00  0.82342796619E+03  0.12979799146E+04  0.10033534986E+04 0.  0.
        4    1    3    3  502    0 -0.14125182849E+03  0.16112415802E+03 -0.17509887659E+03  0.27672062234E+03  0.12699999809E+01 0. -1.
       -4    1    3    3    0  502  0.14125182849E+03 -0.16112415802E+03  0.99852684278E+03  0.10212592922E+04  0.12699999809E+01 0.  1.
</event>
<event>
 5   0  0.3873874E-03  0.9978309E+03  0.7818609E-02  0.9310927E-01
        2   -1    0    0  501    0  0.00000000000E+00  0.00000000000E+00  0.25104505737E+04  0.25104505737E+04  0.25500000920E-02 0.  1.
       -2   -1    0    0    0  501  0.00000000000E+00  0.00000000000E+00 -0.99152181164E+02  0.99152181197E+02  0.25500000920E-02 0. -1.
    10030    2    1    2    0    0  0.00000000000E+00  0.00000000000E+00  0.24112983926E+04  0.26096027549E+04  0.99783094788E+03 0.  0.
        5    1    3    3  502    0 -0.20631940004E+03  0.38165738784E+03  0.18497958527E+04  0.18999991692E+04  0.46999998093E+01 0.  1.
       -5    1    3    3    0  502  0.20631940004E+03 -0.38165738784E+03  0.56150253991E+03  0.70960358571E+03  0.46999998093E+01 0. -1.
</event>
<event>
 5   0  0.2327595E-03  0.1000232E+04  0.7818609E-02  0.9308291E-01
        1   -1    0    0  501    0  0.00000000000E+00  0.00000000000E+00  0.67818180456E+03  0.67818180458E+03  0.50400001928E-02 0.  1.
       -1   -1    0    0    0  501  0.00000000000E+00  0.00000000000E+00 -0.36880364553E+03  0.36880364557E+03  0.50400001928E-02 0. -1.
    10030    2    1    2    0    0  0.00000000000E+00  0.00000000000E+00  0.30937815902E+03  0.10469854501E+04  0.10002318169E+04 0.  0.
        5    1    3    3  502    0  0.37655787940E+03  0.12080738502E+03 -0.16572976680E+03  0.42881080492E+03  0.46999998093E+01 0. -1.
       -5    1    3    3    0  502 -0.37655787940E+03 -0.12080738502E+03  0.47510792582E+03  0.61817464522E+03  0.46999998093E+01 0.  1.
</event>
<event>
 5   0  0.2350769E-03  0.9892569E+03  0.7818609E-02  0.9320407E-01
        1   -1    0    0  501    0  0.00000000000E+00  0.00000000000E+00  0.84599410621E+03  0.84599410623E+03  0.50400001928E-02 0. -1.
       -1   -1    0    0    0  501  0.00000000000E+00  0.00000000000E+00 -0.28919503762E+03  0.28919503767E+03  0.50400001928E-02 0.  1.
    10030    2    1    2    0    0  0.00000000000E+00  0.00000000000E+00  0.55679906859E+03  0.11351891439E+04  0.98925688759E+03 0.  0.
        2    1    3    3  502    0  0.32084589730E+03  0.10656401693E+02 -0.15341106809E+03  0.35579573428E+03  0.25500000920E-02 0.  1.
       -2    1    3    3    0  502 -0.32084589730E+03 -0.10656401693E+02  0.71021013668E+03  0.77939340962E+03  0.25500000920E-02 0. -1.
</event>
<event>
 5   0  0.4026829E-03  0.1005006E+04  0.7818609E-02  0.9303072E-01
       -2   -1    0    0    0  501  0.00000000000E+00  0.00000000000E+00  0.46023776852E+03  0.46023776853E+03  0.25500000920E-02 0. -1.
        2   -1    0    0  501    0  0.00000000000E+00  0.00000000000E+00 -0.54864909539E+03  0.54864909539E+03  0.25500000920E-02 0.  1.
    10030    2    1    2    0    0  0.00000000000E+00  0.00000000000E+00 -0.88411326864E+02  0.10088868639E+04  0.10050055430E+04 0.  0.
        1    1    3    3  502    0 -0.39841428138E+03  0.53486519840E+02 -0.34689009313E+03  0.53096843988E+03  0.50400001928E-02 0.  1.
       -1    1    3    3    0  502  0.39841428138E+03 -0.53486519840E+02  0.25847876626E+03  0.47791842405E+03  0.50400001928E-02 0. -1.
</event>
<event>
 5   0  0.2405022E-03  0.1017771E+04  0.7818609E-02  0.9289266E-01
       -1   -1    0    0    0  501  0.00000000000E+00  0.00000000000E+00  0.18812762917E+03  0.18812762924E+03  0.50400001928E-02 0.  1.
        1   -1    0    0  501    0  0.00000000000E+00  0.00000000000E+00 -0.13765356325E+04  0.13765356325E+04  0.50400001928E-02 0. -1.
    10030    2    1    2    0    0  0.00000000000E+00  0.00000000000E+00 -0.11884080033E+04  0.15646632617E+04  0.10177708683E+04 0.  0.
        4    1    3    3  502    0  0.12372622446E+03  0.30479336012E+03  0.27042711909E+01  0.32896215128E+03  0.12699999809E+01 0.  1.
       -4    1    3    3    0  502 -0.12372622446E+03 -0.30479336012E+03 -0.11911122745E+04  0.12357011105E+04  0.12699999809E+01 0. -1.
</event>
<event>
 5   0  0.4140860E-03  0.9976492E+03  0.7818609E-02  0.9311127E-01
        2   -1    0    0  501    0  0.00000000000E+00  0.00000000000E+00  0.11471651172E+04  0.11471651172E+04  0.25500000920E-02 0. -1.
       -2   -1    0    0    0  501  0.00000000000E+00  0.00000000000E+00 -0.21690509413E+03  0.21690509414E+03  0.25500000920E-02 0.  1.
    10030    2    1    2    0    0  0.00000000000E+00  0.00000000000E+00  0.93026002303E+03  0.13640702113E+04  0.99764915222E+03 0.  0.
        3    1    3    3  502    0  0.39762159509E+03  0.11477170105E+03  0.84370195989E+02  0.42236692155E+03  0.10100000352E+00 0.  1.
       -3    1    3    3    0  502 -0.39762159509E+03 -0.11477170105E+03  0.84588982704E+03  0.94170328975E+03  0.10100000352E+00 0. -1.
</event>
<event>
 5   0  0.2327595E-03  0.1009703E+04  0.7818609E-02  0.9297966E-01
       -1   -1    0    0    0  501  0.00000000000E+00  0.00000000000E+00  0.41082337492E+03  0.41082337495E+03  0.50400001928E-02 0. -1.
        1   -1    0    0  501    0  0.00000000000E+00  0.00000000000E+00 -0.62040068267E+03  0.62040068269E+03  0.50400001928E-02 0.  1.
    10030    2    1    2    0    0  0.00000000000E+00  0.00000000000E+00 -0.20957730775E+03  0.10312240576E+04  0.10097031292E+04 0.  0.
        5    1    3    3  502    0 -0.42898593799E+03  0.21581669534E+03 -0.26382281110E+03  0.54793279390E+03  0.46999998093E+01 0.  1.
       -5    1    3    3    0  502  0.42898593799E+03 -0.21581669534E+03  0.54245503347E+02  0.48329126374E+03  0.46999998093E+01 0. -1.
</event>
<event>
 5   0  0.2313036E-03  0.1040894E+04  0.7818609E-02  0.9264796E-01
        1   -1    0    0  501    0  0.00000000000E+00  0.00000000000E+00  0.49399509815E+03  0.49399509818E+03  0.50400001928E-02 0.  1.
       -1   -1    0    0    0  501  0.00000000000E+00  0.00000000000E+00 -0.54831567037E+03  0.54831567039E+03  0.50400001928E-02 0. -1.
    10030    2    1    2    0    0  0.00000000000E+00  0.00000000000E+00 -0.54320572215E+02  0.10423107686E+04  0.10408943336E+04 0.  0.
        3    1    3    3  502    0 -0.19949037880E+01  0.88521184501E+02 -0.54071806572E+03  0.54791971724E+03  0.10100000352E+00 0. -1.
       -3    1    3    3    0  502  0.19949037880E+01 -0.88521184501E+02  0.48639749350E+03  0.49439105133E+03  0.10100000352E+00 0.  1.
</event>
<event>
 5   0  0.2327595E-03  0.1123041E+04  0.7818609E-02  0.9183021E-01
        1   -1    0    0  501    0  0.00000000000E+00  0.00000000000E+00  0.61839839833E+03  0.61839839836E+03  0.50400001928E-02 0. -1.
       -1   -1    0    0    0  501  0.00000000000E+00  0.00000000000E+00 -0.50987377076E+03  0.50987377078E+03  0.50400001928E-02 0.  1.
    10030    2    1    2    0    0  0.00000000000E+00  0.00000000000E+00  0.10852462758E+03  0.11282721691E+04  0.11230407352E+04 0.  0.
        5    1    3    3  502    0  0.45896975396E+03  0.17818530971E+03 -0.21695782457E+03  0.53804835032E+03  0.46999998093E+01 0.  1.
       -5    1    3    3    0  502 -0.45896975396E+03 -0.17818530971E+03  0.32548245215E+03  0.59022381882E+03  0.46999998093E+01 0. -1.
</event>
<event>
 5   0  0.3895011E-03  0.9908323E+03  0.7818609E-02  0.9318657E-01
       -2   -1    0    0    0  501  0.00000000000E+00  0.00000000000E+00  0.15910989456E+03  0.15910989458E+03  0.25500000920E-02 0. -1.
        2   -1    0    0  501    0  0.00000000000E+00  0.00000000000E+00 -0.15425638039E+04  0.15425638039E+04  0.25500000920E-02 0.  1.
    10030    2    1    2    0    0  0.00000000000E+00  0.00000000000E+00 -0.13834539093E+04  0.17016736984E+04  0.99083230510E+03 0.  0.
        2    1    3    3  502    0  0.25533263184E+03 -0.32773470696E+03 -0.11552148101E+04  0.12276506216E+04  0.25500000920E-02 0.  1.
       -2    1    3    3    0  502 -0.25533263184E+03  0.32773470696E+03 -0.22823909915E+03  0.47402307689E+03  0.25500000920E-02 0. -1.
</event>
<event>
 5   0  0.3873874E-03  0.9981389E+03  0.7818609E-02  0.9310588E-01
       -2   -1    0    0    0  501  0.00000000000E+00  0.00000000000E+00  0.19684361111E+03  0.19684361113E+03  0.25500000920E-02 0. -1.
        2   -1    0    0  501    0  0.00000000000E+00  0.00000000000E+00 -0.12653208906E+04  0.12653208906E+04  0.25500000920E-02 0.  1.
    10030    2    1    2    0    0  0.00000000000E+00  0.00000000000E+00 -0.10684772795E+04  0.14621645018E+04  0.99813893491E+03 0.  0.
        5    1    3    3  502    0  0.23165630206E+03  0.40123975773E+03 -0.80589692533E+03  0.92959664894E+03  0.46999998093E+01 0.  1.
       -5    1    3    3    0  502 -0.23165630206E+03 -0.40123975773E+03 -0.26258035420E+03  0.53256785284E+03  0.46999998093E+01 0. -1.
</event>
<event>
 5   0  0.2405022E-03  0.9877325E+03  0.7818609E-02  0.9322103E-01
        1   -1    0    0  501    0  0.00000000000E+00  0.00000000000E+00  0.22719487591E+03  0.22719487597E+03  0.50400001928E-02 0.  1.
       -1   -1    0    0    0  501  0.00000000000E+00  0.00000000000E+00 -0.10735447461E+04  0.10735447462E+04  0.50400001928E-02 0. -1.
    10030    2    1    2    0    0  0.00000000000E+00  0.00000000000E+00 -0.84634987024E+03  0.13007396221E+04  0.98773248490E+03 0.  0.
        4    1    3    3  502    0 -0.21009341493E+03  0.32763878516E+03 -0.82351055260E+03  0.91085545488E+03  0.12699999809E+01 0. -1.
       -4    1    3    3    0  502  0.21009341493E+03 -0.32763878516E+03 -0.22839317633E+02  0.38988416725E+03  0.12699999809E+01 0.  1.
</event>
<event>
 5   0  0.3826483E-03  0.1000022E+04  0.7818609E-02  0.9308521E-01
       -2   -1    0    0    0  501  0.00000000000E+00  0.00000000000E+00  0.28849956469E+03  0.28849956470E+03  0.25500000920E-02 0.  1.
        2   -1    0    0  501    0  0.00000000000E+00  0.00000000000E+00 -0.86658976252E+03  0.86658976253E+03  0.25500000920E-02 0. -1.
    10030    2    1    2    0    0  0.00000000000E+00  0.00000000000E+00 -0.57809019784E+03  0.11550893272E+04  0.10000215383E+04 0.  0.
        4    1    3    3  502    0 -0.13876733610E+03  0.19596460311E+03 -0.79563094834E+03  0.83107684248E+03  0.12699999809E+01 0. -1.
       -4    1    3    3    0  502  0.13876733610E+03 -0.19596460311E+03  0.21754075051E+03  0.32401248475E+03  0.12699999809E+01 0.  1.
</event>
<event>
 5   0  0.2327595E-03  0.1004702E+04  0.7818609E-02  0.9303403E-01
       -1   -1    0    0    0  501  0.00000000000E+00  0.00000000000E+00  0.42168529641E+03  0.42168529644E+03  0.50400001928E-02 0.  1.
        1   -1    0    0  501    0  0.00000000000E+00  0.00000000000E+00 -0.59844774447E+03  0.59844774449E+03  0.50400001928E-02 0. -1.
    10030    2    1    2    0    0  0.00000000000E+00  0.00000000000E+00 -0.17676244805E+03  0.10201330409E+04  0.10047021739E+04 0.  0.
        5    1    3    3  502    0  0.40526088720E+03  0.26989854503E+03 -0.21378074342E+03  0.53179498640E+03  0.46999998093E+01 0.  1.
       -5    1    3    3    0  502 -0.40526088720E+03 -0.26989854503E+03  0.37018295372E+02  0.48833805453E+03  0.46999998093E+01 0. -1.
</event>
<event>
 5   0  0.3895011E-03  0.9967417E+03  0.7818609E-02  0.9312126E-01
        2   -1    0    0  501    0  0.00000000000E+00  0.00000000000E+00  0.13182450859E+04  0.13182450859E+04  0.25500000920E-02 0.  1.
       -2   -1    0    0    0  501  0.00000000000E+00  0.00000000000E+00 -0.18841225208E+03  0.18841225210E+03  0.25500000920E-02 0. -1.
    10030    2    1    2    0    0  0.00000000000E+00  0.00000000000E+00  0.11298328338E+04  0.15066573380E+04  0.99674174277E+03 0.  0.
        2    1    3    3  502    0 -0.25496873054E+03 -0.35075603442E+03  0.93620819964E+03  0.10317580348E+04  0.25500000920E-02 0.  1.
       -2    1    3    3    0  502  0.25496873054E+03  0.35075603442E+03  0.19362463417E+03  0.47489930322E+03  0.25500000920E-02 0. -1.
</event>
<event>
 5   0  0.4140860E-03  0.1037857E+04  0.7818609E-02  0.9267972E-01
       -2   -1    0    0    0  501  0.00000000000E+00  0.00000000000E+00  0.45335885635E+03  0.45335885636E+03  0.25500000920E-02 0.  1.
        2   -1    0    0  501    0  0.00000000000E+00  0.00000000000E+00 -0.59398146413E+03  0.59398146413E+03  0.25500000920E-02 0. -1.
    10030    2    1    2    0    0  0.00000000000E+00  0.00000000000E+00 -0.14062260778E+03  0.10473403205E+04  0.10378569406E+04 0.  0.
        3    1    3    3  502    0 -0.27457290279E+03 -0.38842874210E+03 -0.27961814080E+03  0.55177303441E+03  0.10100000352E+00 0. -1.
       -3    1    3    3    0  502  0.27457290279E+03  0.38842874210E+03  0.13899553302E+03  0.49556728608E+03  0.10100000352E+00 0.  1.
</event>
<event>
 5   0  0.2350769E-03  0.9984146E+03  0.7818609E-02  0.9310285E-01
       -1   -1    0    0    0  501  0.00000000000E+00  0.00000000000E+00  0.29370250286E+03  0.29370250291E+03  0.50400001928E-02 0.  1.
        1   -1    0    0  501    0  0.00000000000E+00  0.00000000000E+00 -0.84850459490E+03  0.84850459491E+03  0.50400001928E-02 0. -1.
    10030    2    1    2    0    0  0.00000000000E+00  0.00000000000E+00 -0.55480209203E+03  0.11422070978E+04  0.99841458973E+03 0.  0.
        2    1    3    3  502    0  0.28966532714E+03  0.17193266547E+03 -0.69889328870E+03  0.77583417829E+03  0.25500000920E-02 0. -1.
       -2    1    3    3    0  502 -0.28966532714E+03 -0.17193266547E+03  0.14409119667E+03  0.36637291953E+03  0.25500000920E-02 0.  1.
</event>
<event>
 5   0  0.2327595E-03  0.9856605E+03  0.7818609E-02  0.9324413E-01
       -1   -1    0    0    0  501  0.00000000000E+00  0.00000000000E+00  0.13275063287E+04  0.13275063287E+04  0.50400001928E-02 0.  1.
        1   -1    0    0  501    0  0.00000000000E+00  0.00000000000E+00 -0.18296082557E+03  0.18296082564E+03  0.50400001928E-02 0. -1.
    10030    2    1    2    0    0  0.00000000000E+00  0.00000000000E+00  0.11445455031E+04  0.15104671543E+04  0.98566049712E+03 0.  0.
        5    1    3    3  502    0 -0.20887416117E+03  0.43033645519E+03  0.75386342215E+03  0.89283258740E+03  0.46999998093E+01 0.  1.
       -5    1    3    3    0  502  0.20887416117E+03 -0.43033645519E+03  0.39068208094E+03  0.61763456691E+03  0.46999998093E+01 0. -1.
</event>
<event>
 5   0  0.4140860E-03  0.9987175E+03  0.7818609E-02  0.9309953E-01
       -2   -1    0    0    0  501  0.00000000000E+00  0.00000000000E+00  0.50524163340E+03  0.50524163341E+03  0.25500000920E-02 0.  1.
        2   -1    0    0  501    0  0.00000000000E+00  0.00000000000E+00 -0.49354437489E+03  0.49354437490E+03  0.25500000920E-02 0. -1.
    10030    2    1    2    0    0  0.00000000000E+00  0.00000000000E+00  0.11697258508E+02  0.99878600831E+03  0.99871750988E+03 0.  0.
        3    1    3    3  502    0 -0.24273138154E+03 -0.48052722658E+02  0.43961973895E+03  0.50447310416E+03  0.10100000352E+00 0.  1.
       -3    1    3    3    0  502  0.24273138154E+03  0.48052722658E+02 -0.42792248044E+03  0.49431290415E+03  0.10100000352E+00 0. -1.
</event>
<event>
 5   0  0.4140860E-03  0.1002526E+04  0.7818609E-02  0.9305779E-01
       -2   -1    0    0    0  501  0.00000000000E+00  0.00000000000E+00  0.33789604087E+03  0.33789604088E+03  0.25500000920E-02 0.  1.
        2   -1    0    0  501    0  0.00000000000E+00  0.00000000000E+00 -0.74361496457E+03  0.74361496457E+03  0.25500000920E-02 0. -1.
    10030    2    1    2    0    0  0.00000000000E+00  0.00000000000E+00 -0.40571892370E+03  0.10815110055E+04  0.10025259148E+04 0.  0.
        3    1    3    3  502    0 -0.22424844993E+03  0.26313927545E+03  0.18868920808E+03  0.39386961424E+03  0.10100000352E+00 0.  1.
       -3    1    3    3    0  502  0.22424844993E+03 -0.26313927545E+03 -0.59440813178E+03  0.68764139121E+03  0.10100000352E+00 0. -1.
</event>
<event>
 5   0  0.3895011E-03  0.1001410E+04  0.7818609E-02  0.9306999E-01
        2   -1    0    0  501    0  0.00000000000E+00  0.00000000000E+00  0.41266938226E+03  0.41266938226E+03  0.25500000920E-02 0. -1.
       -2   -1    0    0    0  501  0.00000000000E+00  0.00000000000E+00 -0.60752182518E+03  0.60752182518E+03  0.25500000920E-02 0.  1.
    10030    2    1    2    0    0  0.00000000000E+00  0.00000000000E+00 -0.19485244292E+03  0.10201912074E+04  0.10014103181E+04 0.  0.
        2    1    3    3  502    0  0.17798485564E+03 -0.36574983097E+03 -0.39488526237E+03  0.56690909159E+03  0.25500000920E-02 0.  1.
       -2    1    3    3    0  502 -0.17798485564E+03  0.36574983097E+03  0.20003281945E+03  0.45328211585E+03  0.25500000920E-02 0. -1.
</event>
<event>
 5   0  0.2378609E-03  0.1006313E+04  0.7818609E-02  0.9301647E-01
        1   -1    0    0  501    0  0.00000000000E+00  0.00000000000E+00  0.90527378498E+03  0.90527378500E+03  0.50400001928E-02 0. -1.
       -1   -1    0    0    0  501  0.00000000000E+00  0.00000000000E+00 -0.27965760284E+03  0.27965760289E+03  0.50400001928E-02 0.  1.
    10030    2    1    2    0    0  0.00000000000E+00  0.00000000000E+00  0.62561618214E+03  0.11849313879E+04  0.10063134634E+04 0.  0.
        1    1    3    3  502    0  0.19758947022E+03  0.35803819383E+03 -0.32368870688E+02  0.41022029545E+03  0.50400001928E-02 0.  1.
       -1    1    3    3    0  502 -0.19758947022E+03 -0.35803819383E+03  0.65798505283E+03  0.77471109244E+03  0.50400001928E-02 0. -1.
</event>
<event>
 5   0  0.3826483E-03  0.1115640E+04  0.7818609E-02  0.9190081E-01
       -2   -1    0    0    0  501  0.00000000000E+00  0.00000000000E+00  0.27484423013E+03  0.27484423014E+03  0.25500000920E-02 0.  1.
        2   -1    0    0  501    0  0.00000000000E+00  0.00000000000E+00 -0.11321430599E+04  0.11321430599E+04  0.25500000920E-02 0. -1.
    10030    2    1    2    0    0  0.00000000000E+00  0.00000000000E+00 -0.85729882976E+03  0.14069872900E+04  0.11156397048E+04 0.  0.
        4    1    3    3  502    0  0.17123212644E+03 -0.48989083707E+03 -0.17065930691E+03  0.54629633470E+03  0.12699999809E+01 0.  1.
       -4    1    3    3    0  502 -0.17123212644E+03  0.48989083707E+03 -0.68663952286E+03  0.86069095535E+03  0.12699999809E+01 0. -1.
</event>
<event>
 5   0  0.4140860E-03  0.1000741E+04  0.7818609E-02  0.9307733E-01
        2   -1    0    0  501    0  0.00000000000E+00  0.00000000000E+00  0.75114123555E+03  0.75114123555E+03  0.25500000920E-02 0. -1.
       -2   -1    0    0    0  501  0.00000000000E+00  0.00000000000E+00 -0.33332016970E+03  0.33332016971E+03  0.25500000920E-02 0.  1.
    10030    2    1    2    0    0  0.00000000000E+00  0.00000000000E+00  0.41782106585E+03  0.10844614053E+04  0.10007407738E+04 0.  0.
        3    1    3    3  502    0 -0.17587339481E+02  0.32778091681E+03  0.61815615886E+03  0.69990477272E+03  0.10100000352E+00 0. -1.
       -3    1    3    3    0  502  0.17587339481E+02 -0.32778091681E+03 -0.20033509301E+03  0.38455663254E+03  0.10100000352E+00 0.  1.
</event>
<event>
 5   0  0.1548000E-03  0.1031404E+04  0.7818609E-02  0.9274756E-01
        4   -1    0    0  501    0  0.00000000000E+00  0.00000000000E+00  0.12120408845E+04  0.12120415498E+04  0.12699999809E+01 0. -1.
       -4   -1    0    0    0  501  0.00000000000E+00  0.00000000000E+00 -0.21941964388E+03  0.21942331923E+03  0.12699999809E+01 0.  1.
    10030    2    1    2    0    0  0.00000000000E+00  0.00000000000E+00  0.99262124058E+03  0.14314648691E+04  0.10314042583E+04 0.  0.
        5    1    3    3  502    0  0.38685866776E+03 -0.31376461639E+03  0.68157425508E+03  0.84419986882E+03  0.46999998093E+01 0. -1.
       -5    1    3    3    0  502 -0.38685866776E+03  0.31376461639E+03  0.31104698550E+03  0.58726500024E+03  0.46999998093E+01 0.  1.
</event>
<event>
 5   0  0.2378609E-03  0.9789582E+03  0.7818609E-02  0.9331929E-01
       -1   -1    0    0    0  501  0.00000000000E+00  0.00000000000E+00  0.77469875394E+03  0.77469875396E+03  0.50400001928E-02 0. -1.
        1   -1    0    0  501    0  0.00000000000E+00  0.00000000000E+00 -0.30926834119E+03  0.30926834123E+03  0.50400001928E-02 0.  1.
    10030    2    1    2    0    0  0.00000000000E+00  0.00000000000E+00  0.46543041275E+03  0.10839670952E+04  0.97895821890E+03 0.  0.
        1    1    3    3  502    0 -0.21760372810E+03  0.29136360381E+03 -0.13006551534E+03  0.38621389205E+03  0.50400001928E-02 0.  1.
       -1    1    3    3    0  502  0.21760372810E+03 -0.29136360381E+03  0.59549592809E+03  0.69775320315E+03  0.50400001928E-02 0. -1.
</event>
<event>
 5   0  0.4026829E-03  0.9935522E+03  0.7818609E-02  0.9315645E-01
       -2   -1    0    0    0  501  0.00000000000E+00  0.00000000000E+00  0.26094406509E+03  0.26094406510E+03  0.25500000920E-02 0.  1.
        2   -1    0    0  501    0  0.00000000000E+00  0.00000000000E+00 -0.94574475711E+03  0.94574475711E+03  0.25500000920E-02 0. -1.
    10030    2    1    2    0    0  0.00000000000E+00  0.00000000000E+00 -0.68480069202E+03  0.12066888222E+04  0.99355217572E+03 0.  0.
        1    1    3    3  502    0  0.18742520502E+03 -0.20358025974E+03  0.15867314008E+03  0.31898322063E+03  0.50400001928E-02 0.  1.
       -1    1    3    3    0  502 -0.18742520502E+03  0.20358025974E+03 -0.84347383210E+03  0.88770560159E+03  0.50400001928E-02 0. -1.
</event>
<event>
 5   0  0.2327595E-03  0.1003867E+04  0.7818609E-02  0.9304313E-01
       -1   -1    0    0    0  501  0.00000000000E+00  0.00000000000E+00  0.17255847454E+03  0.17255847461E+03  0.50400001928E-02 0. -1.
        1   -1    0    0  501    0  0.00000000000E+00  0.00000000000E+00 -0.14600118705E+04  0.14600118705E+04  0.50400001928E-02 0.  1.
    10030    2    1    2    0    0  0.00000000000E+00  0.00000000000E+00 -0.12874533959E+04  0.16325703451E+04  0.10038673642E+04 0.  0.
        5    1    3    3  502    0  0.39960652507E+03  0.12741149859E+03 -0.10920503962E+04  0.11698355537E+04  0.46999998093E+01 0. -1.
       -5    1    3    3    0  502 -0.39960652507E+03 -0.12741149859E+03 -0.19540299969E+03  0.46273479136E+03  0.46999998093E+01 0.  1.
</event>
<event>
 5   0  0.2405022E-03  0.9854658E+03  0.7818609E-02  0.9324631E-01
        1   -1    0    0  501    0  0.00000000000E+00  0.00000000000E+00  0.41202205105E+03  0.41202205108E+03  0.50400001928E-02 0.  1.
       -1   -1    0    0    0  501  0.00000000000E+00  0.00000000000E+00 -0.58925420067E+03  0.58925420069E+03  0.50400001928E-02 0. -1.
    10030    2    1    2    0    0  0.00000000000E+00  0.00000000000E+00 -0.17723214961E+03  0.10012762518E+04  0.98546582767E+03 0.  0.
        4    1    3    3  502    0  0.45831733310E+03  0.67020678115E+02 -0.25935240722E+03  0.53085952298E+03  0.12699999809E+01 0. -1.
       -4    1    3    3    0  502 -0.45831733310E+03 -0.67020678115E+02  0.82120257605E+02  0.47041672879E+03  0.12699999809E+01 0.  1.
</event>
<event>
 5   0  0.4140860E-03  0.1002762E+04  0.7818609E-02  0.9305521E-01
        2   -1    0    0  501    0  0.00000000000E+00  0.00000000000E+00  0.33616475169E+03  0.33616475170E+03  0.25500000920E-02 0. -1.
       -2   -1    0    0    0  501  0.00000000000E+00  0.00000000000E+00 -0.74779637971E+03  0.74779637972E+03  0.25500000920E-02 0.  1.
    10030    2    1    2    0    0  0.00000000000E+00  0.00000000000E+00 -0.41163162802E+03  0.10839611314E+04  0.10027617550E+04 0.  0.
        3    1    3    3  502    0 -0.30936065678E+03  0.35475704395E+03 -0.39250316596E+03  0.61287463782E+03  0.10100000352E+00 0. -1.
       -3    1    3    3    0  502  0.30936065678E+03 -0.35475704395E+03 -0.19128462063E+02  0.47108649360E+03  0.10100000352E+00 0.  1.
</event>
<event>
 5   0  0.2405022E-03  0.1000034E+04  0.7818609E-02  0.9308508E-01
       -1   -1    0    0    0  501  0.00000000000E+00  0.00000000000E+00  0.68809398581E+03  0.68809398583E+03  0.50400001928E-02 0. -1.
        1   -1    0    0  501    0  0.00000000000E+00  0.00000000000E+00 -0.36334683197E+03  0.36334683200E+03  0.50400001928E-02 0.  1.
    10030    2    1    2    0    0  0.00000000000E+00  0.00000000000E+00  0.32474715385E+03  0.10514408178E+04  0.10000335392E+04 0.  0.
        4    1    3    3  502    0 -0.94695251712E+02 -0.55910969011E+02 -0.35047305063E+03  0.36732301761E+03  0.12699999809E+01 0.  1.
       -4    1    3    3    0  502  0.94695251712E+02  0.55910969011E+02  0.67522020447E+03  0.68411780022E+03  0.12699999809E+01 0. -1.
</event>
<event>
 5   0  0.2378609E-03  0.1002608E+04  0.7818609E-02  0.9305689E-01
       -1   -1    0    0    0  501  0.00000000000E+00  0.00000000000E+00  0.25783385828E+03  0.25783385833E+03  0.50400001928E-02 0.  1.
        1   -1    0    0  501    0  0.00000000000E+00  0.00000000000E+00 -0.97468085341E+03  0.97468085342E+03  0.50400001928E-02 0. -1.
    10030    2    1    2    0    0  0.00000000000E+00  0.00000000000E+00 -0.71684699513E+03  0.12325147117E+04  0.10026080492E+04 0.  0.
        1    1    3    3  502    0  0.16148356011E+03 -0.54463113157E+02  0.22113072630E+03  0.27918088942E+03  0.50400001928E-02 0.  1.
       -1    1    3    3    0  502 -0.16148356011E+03  0.54463113157E+02 -0.93797772142E+03  0.95333382233E+03  0.50400001928E-02 0. -1.
</event>
<event>
 5   0  0.2350769E-03  0.9993191E+03  0.7818609E-02  0.9309292E-01
       -1   -1    0    0    0  501  0.00000000000E+00  0.00000000000E+00  0.25684787605E+03  0.25684787610E+03  0.50400001928E-02 0.  1.
        1   -1    0    0  501    0  0.00000000000E+00  0.00000000000E+00 -0.97201365172E+03  0.97201365173E+03  0.50400001928E-02 0. -1.
    10030    2    1    2    0    0  0.00000000000E+00  0.00000000000E+00 -0.71516577566E+03  0.12288615278E+04  0.99931905210E+03 0.  0.
        2    1    3    3  502    0  0.29196290643E+03 -0.40053834702E+03 -0.27994285312E+03  0.56924626234E+03  0.25500000920E-02 0. -1.
       -2    1    3    3    0  502 -0.29196290643E+03  0.40053834702E+03 -0.43522292254E+03  0.65961526549E+03  0.25500000920E-02 0.  1.
</event>
<event>
 5   0  0.4026829E-03  0.1013702E+04  0.7818609E-02  0.9293643E-01
       -2   -1    0    0    0  501  0.00000000000E+00  0.00000000000E+00  0.13826812754E+03  0.13826812756E+03  0.25500000920E-02 0. -1.
        2   -1    0    0  501    0  0.00000000000E+00  0.00000000000E+00 -0.18579709217E+04  0.18579709217E+04  0.25500000920E-02 0.  1.
    10030    2    1    2    0    0  0.00000000000E+00  0.00000000000E+00 -0.17197027941E+04  0.19962390492E+04  0.10137024423E+04 0.  0.
        1    1    3    3  502    0  0.31302058936E+01 -0.39705175729E+03 -0.14802083206E+04  0.15325392552E+04  0.50400001928E-02 0.  1.
       -1    1    3    3    0  502 -0.31302058936E+01  0.39705175729E+03 -0.23949447351E+03  0.46369979407E+03  0.50400001928E-02 0. -1.
</event>
<event>
 5   0  0.2327595E-03  0.1102599E+04  0.7818609E-02  0.9202663E-01
        1   -1    0    0  501    0  0.00000000000E+00  0.00000000000E+00  0.14368472201E+04  0.14368472201E+04  0.50400001928E-02 0.  1.
       -1   -1    0    0    0  501  0.00000000000E+00  0.00000000000E+00 -0.21152633890E+03  0.21152633896E+03  0.50400001928E-02 0. -1.
    10030    2    1    2    0    0  0.00000000000E+00  0.00000000000E+00  0.12253208812E+04  0.16483735591E+04  0.11025988066E+04 0.  0.
        5    1    3    3  502    0 -0.33208179405E+03 -0.30171503285E+02  0.12689596153E+04  0.13120477250E+04  0.46999998093E+01 0.  1.
       -5    1    3    3    0  502  0.33208179405E+03  0.30171503285E+02 -0.43638734057E+02  0.33632583406E+03  0.46999998093E+01 0. -1.
</event>
<event>
 5   0  0.4140860E-03  0.9927262E+03  0.7818609E-02  0.9316559E-01
        2   -1    0    0  501    0  0.00000000000E+00  0.00000000000E+00  0.11983473425E+04  0.11983473425E+04  0.25500000920E-02 0.  1.
       -2   -1    0    0    0  501  0.00000000000E+00  0.00000000000E+00 -0.20559673724E+03  0.20559673726E+03  0.25500000920E-02 0. -1.
    10030    2    1    2    0    0  0.00000000000E+00  0.00000000000E+00  0.99275060521E+03  0.14039440797E+04  0.99272615298E+03 0.  0.
        3    1    3    3  502    0 -0.22236956380E+03 -0.42720913249E+03  0.32654725477E+03  0.58188399667E+03  0.10100000352E+00 0. -1.
       -3    1    3    3    0  502  0.22236956380E+03  0.42720913249E+03  0.66620335044E+03  0.82206008304E+03  0.10100000352E+00 0.  1.
</event>
<event>
 5   0  0.3895011E-03  0.9939553E+03  0.7818609E-02  0.9315199E-01
       -2   -1    0    0    0  501  0.00000000000E+00  0.00000000000E+00  0.61173132818E+03  0.61173132818E+03  0.25500000920E-02 0. -1.
        2   -1    0    0  501    0  0.00000000000E+00  0.00000000000E+00 -0.40375042489E+03  0.40375042489E+03  0.25500000920E-02 0.  1.
    10030    2    1    2    0    0  0.00000000000E+00  0.00000000000E+00  0.20798090329E+03  0.10154817531E+04  0.99395529814E+03 0.  0.
        2    1    3    3  502    0  0.29092568210E+03  0.13321454831E+03 -0.28451202833E+03  0.42817165093E+03  0.25500000920E-02 0.  1.
       -2    1    3    3    0  502 -0.29092568210E+03 -0.13321454831E+03  0.49249293162E+03  0.58731010215E+03  0.25500000920E-02 0. -1.
</event>
<event>
 5   0  0.3826483E-03  0.1001009E+04  0.7818609E-02  0.9307439E-01
       -2   -1    0    0    0  501  0.00000000000E+00  0.00000000000E+00  0.26116221374E+03  0.26116221375E+03  0.25500000920E-02 0. -1.
        2   -1    0    0  501    0  0.00000000000E+00  0.00000000000E+00 -0.95919257153E+03  0.95919257154E+03  0.25500000920E-02 0.  1.
    10030    2    1    2    0    0  0.00000000000E+00  0.00000000000E+00 -0.69803035780E+03  0.12203547853E+04  0.10010092015E+04 0.  0.
        4    1    3    3  502    0 -0.25397488922E+03 -0.23069276785E+03  0.95222869819E+02  0.35607780797E+03  0.12699999809E+01 0. -1.
       -4    1    3    3    0  502  0.25397488922E+03  0.23069276785E+03 -0.79325322762E+03  0.86427697731E+03  0.12699999809E+01 0.  1.
</event>
<event>
 5   0  0.4140860E-03  0.9986206E+03  0.7818609E-02  0.9310059E-01
        2   -1    0    0  501    0  0.00000000000E+00  0.00000000000E+00  0.51913264084E+03  0.51913264085E+03  0.25500000920E-02 0. -1.
       -2   -1    0    0    0  501  0.00000000000E+00  0.00000000000E+00 -0.48024488177E+03  0.48024488178E+03  0.25500000920E-02 0.  1.
    10030    2    1    2    0    0  0.00000000000E+00  0.00000000000E+00  0.38887759070E+02  0.99937752263E+03  0.99862063614E+03 0.  0.
        3    1    3    3  502    0  0.49509104360E+03 -0.55341049251E+01 -0.45141968400E+02  0.49717559803E+03  0.10100000352E+00 0. -1.
       -3    1    3    3    0  502 -0.49509104360E+03  0.55341049251E+01  0.84029727470E+02  0.50220192459E+03  0.10100000352E+00 0.  1.
</event>
<event>
 5   0  0.2378609E-03  0.9908667E+03  0.7818609E-02  0.9318619E-01
        1   -1    0    0  501    0  0.00000000000E+00  0.00000000000E+00  0.60373799726E+03  0.60373799728E+03  0.50400001928E-02 0.  1.
       -1   -1    0    0    0  501  0.00000000000E+00  0.00000000000E+00 -0.40655749655E+03  0.40655749658E+03  0.50400001928E-02 0. -1.
    10030    2    1    2    0    0  0.00000000000E+00  0.00000000000E+00  0.19718050071E+03  0.10102954939E+04  0.99086670902E+03 0.  0.
        1    1    3    3  502    0 -0.33323153625E+03 -0.21453345864E+03 -0.20453755230E+03  0.44598595489E+03  0.50400001928E-02 0. -1.
       -1    1    3    3    0  502  0.33323153625E+03  0.21453345864E+03  0.40171805302E+03  0.56430953897E+03  0.50400001928E-02 0.  1.
</event>
<event>
 5   0  0.2327595E-03  0.1012055E+04  0.7818609E-02  0.9295421E-01
       -1   -1    0    0    0  501  0.00000000000E+00  0.00000000000E+00  0.21376616779E+03  0.21376616785E+03  0.50400001928E-02 0.  1.
        1   -1    0    0  501    0  0.00000000000E+00  0.00000000000E+00 -0.11978684555E+04  0.11978684556E+04  0.50400001928E-02 0. -1.
    10030    2    1    2    0    0  0.00000000000E+00  0.00000000000E+00 -0.98410228775E+03  0.14116346234E+04  0.10120548390E+04 0.  0.
        5    1    3    3  502    0  0.11818989533E+03  0.89805742565E+02  0.18268405106E+03  0.23543465180E+03  0.46999998093E+01 0.  1.
       -5    1    3    3    0  502 -0.11818989533E+03 -0.89805742565E+02 -0.11667863388E+04  0.11761999716E+04  0.46999998093E+01 0. -1.
</event>
<event>
 5   0  0.1548000E-03  0.9994604E+03  0.7818609E-02  0.9309137E-01
       -3   -1    0    0    0  501  0.00000000000E+00  0.00000000000E+00  0.21561626009E+03  0.21561628375E+03  0.10100000352E+00 0.  1.
        3   -1    0    0  501    0  0.00000000000E+00  0.00000000000E+00 -0.11582162732E+04  0.11582162776E+04  0.10100000352E+00 0. -1.
    10030    2    1    2    0    0  0.00000000000E+00  0.00000000000E+00 -0.94260001312E+03  0.13738325614E+04  0.99946041539E+03 0.  0.
        4    1    3    3  502    0 -0.42309700395E+03 -0.26559551581E+03 -0.45303239524E+03  0.67438269314E+03  0.12699999809E+01 0.  1.
       -4    1    3    3    0  502  0.42309700395E+03  0.26559551581E+03 -0.48956761788E+03  0.69944986822E+03  0.12699999809E+01 0. -1.
</event>
<event>
 5   0  0.3826483E-03  0.1004941E+04  0.7818609E-02  0.9303142E-01
        2   -1    0    0  501    0  0.00000000000E+00  0.00000000000E+00  0.11750495077E+04  0.11750495077E+04  0.25500000920E-02 0. -1.
       -2   -1    0    0    0  501  0.00000000000E+00  0.00000000000E+00 -0.21486479679E+03  0.21486479680E+03  0.25500000920E-02 0.  1.
    10030    2    1    2    0    0  0.00000000000E+00  0.00000000000E+00  0.96018471093E+03  0.13899143045E+04  0.10049413390E+04 0.  0.
        4    1    3    3  502    0 -0.12869988166E+03  0.48555046165E+03  0.46302655705E+03  0.68316770693E+03  0.12699999809E+01 0.  1.
       -4    1    3    3    0  502  0.12869988166E+03 -0.48555046165E+03  0.49715815387E+03  0.70674659760E+03  0.12699999809E+01 0. -1.
</event>
<event>
 5   0  0.3895011E-03  0.9645204E+03  0.7818609E-02  0.9348338E-01
        2   -1    0    0  501    0  0.00000000000E+00  0.00000000000E+00  0.11128422087E+04  0.11128422087E+04  0.25500000920E-02 0. -1.
       -2   -1    0    0    0  501  0.00000000000E+00  0.00000000000E+00 -0.20899179239E+03  0.20899179241E+03  0.25500000920E-02 0.  1.
    10030    2    1    2    0    0  0.00000000000E+00  0.00000000000E+00  0.90385041631E+03  0.13218340011E+04  0.96452037378E+03 0.  0.
        2    1    3    3  502    0 -0.61485740625E+02  0.79208571798E+02  0.10983982553E+04  0.11029656484E+04  0.25500000920E-02 0. -1.
       -2    1    3    3    0  502  0.61485740625E+02 -0.79208571798E+02 -0.19454783904E+03  0.21886835273E+03  0.25500000920E-02 0.  1.
</event>
<event>
 5   0  0.2350769E-03  0.1032494E+04  0.7818609E-02  0.9273607E-01
        1   -1    0    0  501    0  0.00000000000E+00  0.00000000000E+00  0.20880814642E+04  0.20880814642E+04  0.50400001928E-02 0.  1.
       -1   -1    0    0    0  501  0.00000000000E+00  0.00000000000E+00 -0.12763441531E+03  0.12763441541E+03  0.50400001928E-02 0. -1.
    10030    2    1    2    0    0  0.00000000000E+00  0.00000000000E+00  0.19604470489E+04  0.22157158797E+04  0.10324941781E+04 0.  0.
        2    1    3    3  502    0 -0.38424346495E+03  0.78729585889E+02  0.17005509789E+04  0.17451977023E+04  0.25500000920E-02 0.  1.
       -2    1    3    3    0  502  0.38424346495E+03 -0.78729585889E+02  0.25989606999E+03  0.47051817739E+03  0.25500000920E-02 0. -1.
</event>
<event>
 5   0  0.1548000E-03  0.9588841E+03  0.7818609E-02  0.9354826E-01
        4   -1    0    0  501    0  0.00000000000E+00  0.00000000000E+00  0.31856383999E+03  0.31856637150E+03  0.12699999809E+01 0. -1.
       -4   -1    0    0    0  501  0.00000000000E+00  0.00000000000E+00 -0.72155962063E+03  0.72156073828E+03  0.12699999809E+01 0.  1.
    10030    2    1    2    0    0  0.00000000000E+00  0.00000000000E+00 -0.40299578065E+03  0.10401271098E+04  0.95888414591E+03 0.  0.
        4    1    3    3  502    0  0.11013899318E+03 -0.10618252964E+03  0.29137608185E+03  0.32910023001E+03  0.12699999809E+01 0. -1.
       -4    1    3    3    0  502 -0.11013899318E+03  0.10618252964E+03 -0.69437186250E+03  0.71102687976E+03  0.12699999809E+01 0.  1.
</event>
<event>
 5   0  0.4026829E-03  0.9971067E+03  0.7818609E-02  0.9311724E-01
        2   -1    0    0  501    0  0.00000000000E+00  0.00000000000E+00  0.15776989490E+04  0.15776989490E+04  0.25500000920E-02 0.  1.
       -2   -1    0    0    0  501  0.00000000000E+00  0.00000000000E+00 -0.15754302436E+03  0.15754302438E+03  0.25500000920E-02 0. -1.
    10030    2    1    2    0    0  0.00000000000E+00  0.00000000000E+00  0.14201559246E+04  0.17352419733E+04  0.99710674248E+03 0.  0.
        1    1    3    3  502    0 -0.35936974229E+03  0.24731112279E+03  0.29007566017E+03  0.52388289891E+03  0.50400001928E-02 0. -1.
       -1    1    3    3    0  502  0.35936974229E+03 -0.24731112279E+03  0.11300802644E+04  0.12113590744E+04  0.50400001928E-02 0.  1.
</event>
<event>
 5   0  0.2405022E-03  0.1003000E+04  0.7818609E-02  0.9305260E-01
        1   -1    0    0  501    0  0.00000000000E+00  0.00000000000E+00  0.48552012374E+03  0.48552012376E+03  0.50400001928E-02 0. -1.
       -1   -1    0    0    0  501  0.00000000000E+00  0.00000000000E+00 -0.51800589211E+03  0.51800589214E+03  0.50400001928E-02 0.  1.
    10030    2    1    2    0    0  0.00000000000E+00  0.00000000000E+00 -0.32485768376E+02  0.10035260159E+04  0.10030000695E+04 0.  0.
        4    1    3    3  502    0  0.24949692916E+03 -0.36142511594E+03  0.22600768347E+03  0.49392096330E+03  0.12699999809E+01 0. -1.
       -4    1    3    3    0  502 -0.24949692916E+03  0.36142511594E+03 -0.25849345185E+03  0.50960505261E+03  0.12699999809E+01 0.  1.
</event>
<event>
 5   0  0.2327595E-03  0.9965009E+03  0.7818609E-02  0.9312391E-01
       -1   -1    0    0    0  501  0.00000000000E+00  0.00000000000E+00  0.49003254222E+03  0.49003254224E+03  0.50400001928E-02 0. -1.
        1   -1    0    0  501    0  0.00000000000E+00  0.00000000000E+00 -0.50660620070E+03  0.50660620073E+03  0.50400001928E-02 0.  1.
    10030    2    1    2    0    0  0.00000000000E+00  0.00000000000E+00 -0.16573658484E+02  0.99663874297E+03  0.99650092716E+03 0.  0.
        5    1    3    3  502    0  0.36855600789E+03 -0.32500565803E+03  0.73999854093E+02  0.49695098058E+03  0.46999998093E+01 0. -1.
       -5    1    3    3    0  502 -0.36855600789E+03  0.32500565803E+03 -0.90573512577E+02  0.49968776239E+03  0.46999998093E+01 0.  1.
</event>
<event>
 5   0  0.2378609E-03  0.9966831E+03  0.7818609E-02  0.9312190E-01
        1   -1    0    0  501    0  0.00000000000E+00  0.00000000000E+00  0.67318476916E+03  0.67318476918E+03  0.50400001928E-02 0. -1.
       -1   -1    0    0    0  501  0.00000000000E+00  0.00000000000E+00 -0.36890955285E+03  0.36890955288E+03  0.50400001928E-02 0.  1.
    10030    2    1    2    0    0  0.00000000000E+00  0.00000000000E+00  0.30427521631E+03  0.10420943221E+04  0.99668308344E+03 0.  0.
        1    1    3    3  502    0 -0.48417498139E+03 -0.11460315185E+03  0.18143196613E+03  0.52960065463E+03  0.50400001928E-02 0. -1.
       -1    1    3    3    0  502  0.48417498139E+03  0.11460315185E+03  0.12284325018E+03  0.51249366743E+03  0.50400001928E-02 0.  1.
</event>
<event>
 5   0  0.2313036E-03  0.1038082E+04  0.7818609E-02  0.9267736E-01
       -1   -1    0    0    0  501  0.00000000000E+00  0.00000000000E+00  0.48107602354E+03  0.48107602356E+03  0.50400001928E-02 0. -1.
        1   -1    0    0  501    0  0.00000000000E+00  0.00000000000E+00 -0.56000177395E+03  0.56000177398E+03  0.50400001928E-02 0.  1.
    10030    2    1    2    0    0  0.00000000000E+00  0.00000000000E+00 -0.78925750419E+02  0.10410777975E+04  0.10380817436E+04 0.  0.
        3    1    3    3  502    0  0.32080839180E+02 -0.33330640530E+03 -0.43719426485E+03  0.55069154295E+03  0.10100000352E+00 0.  1.
       -3    1    3    3    0  502 -0.32080839180E+02  0.33330640530E+03  0.35826851443E+03  0.49038625459E+03  0.10100000352E+00 0. -1.
</event>
<event>
 5   0  0.4026829E-03  0.1011922E+04  0.7818609E-02  0.9295565E-01
        2   -1    0    0  501    0  0.00000000000E+00  0.00000000000E+00  0.13694213514E+04  0.13694213514E+04  0.25500000920E-02 0. -1.
       -2   -1    0    0    0  501  0.00000000000E+00  0.00000000000E+00 -0.18693776080E+03  0.18693776081E+03  0.25500000920E-02 0.  1.
    10030    2    1    2    0    0  0.00000000000E+00  0.00000000000E+00  0.11824835906E+04  0.15563591123E+04  0.10119220544E+04 0.  0.
        1    1    3    3  502    0 -0.48426842397E+03 -0.48763886180E+02  0.37866759169E+03  0.61667087499E+03  0.50400001928E-02 0.  1.
       -1    1    3    3    0  502  0.48426842397E+03  0.48763886180E+02  0.80381599895E+03  0.93968823726E+03  0.50400001928E-02 0. -1.
</event>
<event>
 5   0  0.4026829E-03  0.9875230E+03  0.7818609E-02  0.9322336E-01
        2   -1    0    0  501    0  0.00000000000E+00  0.00000000000E+00  0.95623125737E+03  0.95623125737E+03  0.25500000920E-02 0. -1.
       -2   -1    0    0    0  501  0.00000000000E+00  0.00000000000E+00 -0.25495970651E+03  0.25495970652E+03  0.25500000920E-02 0.  1.
    10030    2    1    2    0    0  0.00000000000E+00  0.00000000000E+00  0.70127155086E+03  0.12111909639E+04  0.98752304427E+03 0.  0.
        1    1    3    3  502    0 -0.11667730076E+03  0.20385713243E+02  0.93854902313E+03  0.94599336079E+03  0.50400001928E-02 0. -1.
       -1    1    3    3    0  502  0.11667730076E+03 -0.20385713243E+02 -0.23727747227E+03  0.26519760310E+03  0.50400001928E-02 0.  1.
</event>
<event>
 5   0  0.1548000E-03  0.1002792E+04  0.7818609E-02  0.9305488E-01
        3   -1    0    0  501    0  0.00000000000E+00  0.00000000000E+00  0.16076331628E+03  0.16076334801E+03  0.10100000352E+00 0.  1.
       -3   -1    0    0    0  501  0.00000000000E+00  0.00000000000E+00 -0.15637757372E+04  0.15637757405E+04  0.10100000352E+00 0. -1.
    10030    2    1    2    0    0  0.00000000000E+00  0.00000000000E+00 -0.14030124209E+04  0.17245390885E+04  0.10027917104E+04 0.  0.
        2    1    3    3  502    0 -0.19041777115E+03 -0.13618197592E+03  0.61005844318E+02  0.24192182866E+03  0.25500000920E-02 0.  1.
       -2    1    3    3    0  502  0.19041777115E+03  0.13618197592E+03 -0.14640182652E+04  0.14826172598E+04  0.25500000920E-02 0. -1.
</event>
<event>
 5   0  0.3826483E-03  0.9342506E+03  0.7818609E-02  0.9383751E-01
       -2   -1    0    0    0  501  0.00000000000E+00  0.00000000000E+00  0.23664843270E+03  0.23664843271E+03  0.25500000920E-02 0.  1.
        2   -1    0    0  501    0  0.00000000000E+00  0.00000000000E+00 -0.92206840846E+03  0.92206840847E+03  0.25500000920E-02 0. -1.
    10030    2    1    2    0    0  0.00000000000E+00  0.00000000000E+00 -0.68541997577E+03  0.11587168412E+04  0.93425059532E+03 0.  0.
        4    1    3    3  502    0 -0.18103274765E+03  0.31463487919E+03 -0.70734842112E+03  0.79505431556E+03  0.12699999809E+01 0. -1.
       -4    1    3    3    0  502  0.18103274765E+03 -0.31463487919E+03  0.21928445358E+02  0.36366252562E+03  0.12699999809E+01 0.  1.
</event>
<event>
 5   0  0.2350769E-03  0.9905962E+03  0.7818609E-02  0.9318919E-01
       -1   -1    0    0    0  501  0.00000000000E+00  0.00000000000E+00  0.10256940948E+04  0.10256940948E+04  0.50400001928E-02 0.  1.
        1   -1    0    0  501    0  0.00000000000E+00  0.00000000000E+00 -0.23917483049E+03  0.23917483054E+03  0.50400001928E-02 0. -1.
    10030    2    1    2    0    0  0.00000000000E+00  0.00000000000E+00  0.78651926433E+03  0.12648689254E+04  0.99059620694E+03 0.  0.
        2    1    3    3  502    0  0.74764860508E+02 -0.23413969334E+03  0.94232989554E+03  0.97385666933E+03  0.25500000920E-02 0.  1.
       -2    1    3    3    0  502 -0.74764860508E+02  0.23413969334E+03 -0.15581063121E+03  0.29101225604E+03  0.25500000920E-02 0. -1.
</event>
<event>
 5   0  0.3873874E-03  0.1010044E+04  0.7818609E-02  0.9297597E-01
       -2   -1    0    0    0  501  0.00000000000E+00  0.00000000000E+00  0.44601268697E+03  0.44601268698E+03  0.25500000920E-02 0. -1.
        2   -1    0    0  501    0  0.00000000000E+00  0.00000000000E+00 -0.57183804942E+03  0.57183804943E+03  0.25500000920E-02 0.  1.
    10030    2    1    2    0    0  0.00000000000E+00  0.00000000000E+00 -0.12582536245E+03  0.10178507364E+04  0.10100436128E+04 0.  0.
        5    1    3    3  502    0  0.32188402587E+03  0.15099173922E+03 -0.42431699414E+03  0.55360169159E+03  0.46999998093E+01 0.  1.
       -5    1    3    3    0  502 -0.32188402587E+03 -0.15099173922E+03  0.29849163169E+03  0.46424904481E+03  0.46999998093E+01 0. -1.
</event>
<event>
 5   0  0.3873874E-03  0.1018982E+04  0.7818609E-02  0.9287967E-01
       -2   -1    0    0    0  501  0.00000000000E+00  0.00000000000E+00  0.10881753369E+04  0.10881753369E+04  0.25500000920E-02 0. -1.
        2   -1    0    0  501    0  0.00000000000E+00  0.00000000000E+00 -0.23854709809E+03  0.23854709811E+03  0.25500000920E-02 0.  1.
    10030    2    1    2    0    0  0.00000000000E+00  0.00000000000E+00  0.84962823881E+03  0.13267224350E+04  0.10189819799E+04 0.  0.
        5    1    3    3  502    0 -0.25149082468E+03  0.11929440824E+03 -0.13076372195E+03  0.30757118154E+03  0.46999998093E+01 0.  1.
       -5    1    3    3    0  502  0.25149082468E+03 -0.11929440824E+03  0.98039196076E+03  0.10191512535E+04  0.46999998093E+01 0. -1.
</event>
<event>
 5   0  0.4140860E-03  0.1003363E+04  0.7818609E-02  0.9304864E-01
        2   -1    0    0  501    0  0.00000000000E+00  0.00000000000E+00  0.65087776547E+03  0.65087776548E+03  0.25500000920E-02 0.  1.
       -2   -1    0    0    0  501  0.00000000000E+00  0.00000000000E+00 -0.38668439186E+03  0.38668439187E+03  0.25500000920E-02 0. -1.
    10030    2    1    2    0    0  0.00000000000E+00  0.00000000000E+00  0.26419337361E+03  0.10375621573E+04  0.10033628913E+04 0.  0.
        3    1    3    3  502    0  0.19166742779E+03  0.21649544842E+03  0.55604311696E+03  0.62673011750E+03  0.10100000352E+00 0.  1.
       -3    1    3    3    0  502 -0.19166742779E+03 -0.21649544842E+03 -0.29184974335E+03  0.41083203984E+03  0.10100000352E+00 0. -1.
</event>
<event>
 5   0  0.3873874E-03  0.9697855E+03  0.7818609E-02  0.9342319E-01
        2   -1    0    0  501    0  0.00000000000E+00  0.00000000000E+00  0.13433487621E+04  0.13433487621E+04  0.25500000920E-02 0. -1.
       -2   -1    0    0    0  501  0.00000000000E+00  0.00000000000E+00 -0.17502601023E+03  0.17502601025E+03  0.25500000920E-02 0.  1.
    10030    2    1    2    0    0  0.00000000000E+00  0.00000000000E+00  0.11683227519E+04  0.15183747724E+04  0.96978549009E+03 0.  0.
        5    1    3    3  502    0  0.14070321096E+02  0.32358325451E+03  0.19224275875E+02  0.32449308054E+03  0.46999998093E+01 0.  1.
       -5    1    3    3    0  502 -0.14070321096E+02 -0.32358325451E+03  0.11490984760E+04  0.11938816918E+04  0.46999998093E+01 0. -1.
</event>
<event>
 5   0  0.3895011E-03  0.9952171E+03  0.7818609E-02  0.9313806E-01
        2   -1    0    0  501    0  0.00000000000E+00  0.00000000000E+00  0.12564215419E+04  0.12564215419E+04  0.25500000920E-02 0. -1.
       -2   -1    0    0    0  501  0.00000000000E+00  0.00000000000E+00 -0.19707899351E+03  0.19707899353E+03  0.25500000920E-02 0.  1.
    10030    2    1    2    0    0  0.00000000000E+00  0.00000000000E+00  0.10593425483E+04  0.14535005354E+04  0.99521714798E+03 0.  0.
        2    1    3    3  502    0 -0.29397891489E+03  0.91217122293E+02  0.11007009241E+04  0.11429289960E+04  0.25500000920E-02 0. -1.
       -2    1    3    3    0  502  0.29397891489E+03 -0.91217122293E+02 -0.41358375709E+02  0.31057153934E+03  0.25500000920E-02 0.  1.
</event>
<event>
 5   0  0.3873874E-03  0.9999204E+03  0.7818609E-02  0.9308632E-01
       -2   -1    0    0    0  501  0.00000000000E+00  0.00000000000E+00  0.10010474217E+04  0.10010474217E+04  0.25500000920E-02 0.  1.
        2   -1    0    0  501    0  0.00000000000E+00  0.00000000000E+00 -0.24969868297E+03  0.24969868298E+03  0.25500000920E-02 0. -1.
    10030    2    1    2    0    0  0.00000000000E+00  0.00000000000E+00  0.75134873873E+03  0.12507461047E+04  0.99992044243E+03 0.  0.
        5    1    3    3  502    0 -0.35633045637E+03  0.30174314493E+03  0.59914490799E+03  0.75961637055E+03  0.46999998093E+01 0. -1.
       -5    1    3    3    0  502  0.35633045637E+03 -0.30174314493E+03  0.15220383075E+03  0.49112973413E+03  0.46999998093E+01 0.  1.
</event>
<event>
 5   0  0.3895011E-03  0.9929811E+03  0.7818609E-02  0.9316277E-01
        2   -1    0    0  501    0  0.00000000000E+00  0.00000000000E+00  0.68262089974E+03  0.68262089974E+03  0.25500000920E-02 0.  1.
       -2   -1    0    0    0  501  0.00000000000E+00  0.00000000000E+00 -0.36111240943E+03  0.36111240944E+03  0.25500000920E-02 0. -1.
    10030    2    1    2    0    0  0.00000000000E+00  0.00000000000E+00  0.32150849031E+03  0.10437333092E+04  0.99298112337E+03 0.  0.
        2    1    3    3  502    0 -0.10764588509E+03  0.19130041316E+03  0.62884616387E+03  0.66605629076E+03  0.25500000920E-02 0.  1.
       -2    1    3    3    0  502  0.10764588509E+03 -0.19130041316E+03 -0.30733767356E+03  0.37767701842E+03  0.25500000920E-02 0. -1.
</event>
<event>
 5   0  0.3826483E-03  0.9863234E+03  0.7818609E-02  0.9323674E-01
       -2   -1    0    0    0  501  0.00000000000E+00  0.00000000000E+00  0.21047843363E+03  0.21047843364E+03  0.25500000920E-02 0.  1.
        2   -1    0    0  501    0  0.00000000000E+00  0.00000000000E+00 -0.11555030080E+04  0.11555030080E+04  0.25500000920E-02 0. -1.
    10030    2    1    2    0    0  0.00000000000E+00  0.00000000000E+00 -0.94502457435E+03  0.13659814416E+04  0.98632340170E+03 0.  0.
        4    1    3    3  502    0  0.41351519002E+03  0.15040904067E+03 -0.16410911928E+03  0.46962869144E+03  0.12699999809E+01 0.  1.
       -4    1    3    3    0  502 -0.41351519002E+03 -0.15040904067E+03 -0.78091545507E+03  0.89635275018E+03  0.12699999809E+01 0. -1.
</event>
<event>
 5   0  0.4026829E-03  0.9996889E+03  0.7818609E-02  0.9308886E-01
        2   -1    0    0  501    0  0.00000000000E+00  0.00000000000E+00  0.37513286333E+03  0.37513286334E+03  0.25500000920E-02 0. -1.
       -2   -1    0    0    0  501  0.00000000000E+00  0.00000000000E+00 -0.66601593999E+03  0.66601593999E+03  0.25500000920E-02 0.  1.
    10030    2    1    2    0    0  0.00000000000E+00  0.00000000000E+00 -0.29088307665E+03  0.10411488033E+04  0.99968888480E+03 0.  0.
        1    1    3    3  502    0  0.47042890306E+03 -0.10202742856E+03 -0.52037614704E+01  0.48139383894E+03  0.50400001928E-02 0. -1.
       -1    1    3    3    0  502 -0.47042890306E+03  0.10202742856E+03 -0.28567931518E+03  0.55975496439E+03  0.50400001928E-02 0.  1.
</event>
<event>
 5   0  0.2378609E-03  0.1007920E+04  0.7818609E-02  0.9299900E-01
       -1   -1    0    0    0  501  0.00000000000E+00  0.00000000000E+00  0.20020006567E+03  0.20020006574E+03  0.50400001928E-02 0. -1.
        1   -1    0    0  501    0  0.00000000000E+00  0.00000000000E+00 -0.12686099712E+04  0.12686099712E+04  0.50400001928E-02 0.  1.
    10030    2    1    2    0    0  0.00000000000E+00  0.00000000000E+00 -0.10684099056E+04  0.14688100370E+04  0.10079202342E+04 0.  0.
        1    1    3    3  502    0  0.10505726835E+03  0.85744394049E+02  0.17311323155E+03  0.21990298249E+03  0.50400001928E-02 0. -1.
       -1    1    3    3    0  502 -0.10505726835E+03 -0.85744394049E+02 -0.12415231371E+04  0.12489070545E+04  0.50400001928E-02 0.  1.
</event>
<event>
 5   0  0.2327595E-03  0.1000513E+04  0.7818609E-02  0.9307982E-01
        1   -1    0    0  501    0  0.00000000000E+00  0.00000000000E+00  0.93155587370E+03  0.93155587371E+03  0.50400001928E-02 0. -1.
       -1   -1    0    0    0  501  0.00000000000E+00  0.00000000000E+00 -0.26864380840E+03  0.26864380845E+03  0.50400001928E-02 0.  1.
    10030    2    1    2    0    0  0.00000000000E+00  0.00000000000E+00  0.66291206529E+03  0.12001996822E+04  0.10005133036E+04 0.  0.
        5    1    3    3  502    0  0.35425357182E+03  0.45203007582E+02 -0.88733617667E+02  0.36801446975E+03  0.46999998093E+01 0.  1.
       -5    1    3    3    0  502 -0.35425357182E+03 -0.45203007582E+02  0.75164568296E+03  0.83218521241E+03  0.46999998093E+01 0. -1.
</event>
<event>
 5   0  0.2350769E-03  0.1041444E+04  0.7818609E-02  0.9264222E-01
       -1   -1    0    0    0  501  0.00000000000E+00  0.00000000000E+00  0.28166728728E+03  0.28166728733E+03  0.50400001928E-02 0.  1.
        1   -1    0    0  501    0  0.00000000000E+00  0.00000000000E+00 -0.96266604665E+03  0.96266604666E+03  0.50400001928E-02 0. -1.
    10030    2    1    2    0    0  0.00000000000E+00  0.00000000000E+00 -0.68099875936E+03  0.12443333340E+04  0.10414442548E+04 0.  0.
        2    1    3    3  502    0 -0.20819052599E+03  0.33430458671E+03  0.66525365810E+02  0.39941016025E+03  0.25500000920E-02 0.  1.
       -2    1    3    3    0  502  0.20819052599E+03 -0.33430458671E+03 -0.74752412517E+03  0.84492317374E+03  0.25500000920E-02 0. -1.
</event>
<event>
 5   0  0.2327595E-03  0.1012154E+04  0.7818609E-02  0.9295314E-01
       -1   -1    0    0    0  501  0.00000000000E+00  0.00000000000E+00  0.26714898712E+03  0.26714898717E+03  0.50400001928E-02 0.  1.
        1   -1    0    0  501    0  0.00000000000E+00  0.00000000000E+00 -0.95869256263E+03  0.95869256264E+03  0.50400001928E-02 0. -1.
    10030    2    1    2    0    0  0.00000000000E+00  0.00000000000E+00 -0.69154357551E+03  0.12258415498E+04  0.10121536387E+04 0.  0.
        5    1    3    3  502    0 -0.40224694507E+03  0.27194405777E+03 -0.51848085130E+03  0.71035248894E+03  0.46999998093E+01 0.  1.
       -5    1    3    3    0  502  0.40224694507E+03 -0.27194405777E+03 -0.17306272420E+03  0.51548906087E+03  0.46999998093E+01 0. -1.
</event>
<event>
 5   0  0.4026829E-03  0.9925894E+03  0.7818609E-02  0.9316710E-01
       -2   -1    0    0    0  501  0.00000000000E+00  0.00000000000E+00  0.18783776490E+03  0.18783776492E+03  0.25500000920E-02 0. -1.
        2   -1    0    0  501    0  0.00000000000E+00  0.00000000000E+00 -0.13112827733E+04  0.13112827733E+04  0.25500000920E-02 0.  1.
    10030    2    1    2    0    0  0.00000000000E+00  0.00000000000E+00 -0.11234450084E+04  0.14991205382E+04  0.99258939206E+03 0.  0.
        1    1    3    3  502    0  0.63390518227E+02  0.70123797439E+02 -0.12975607014E+04  0.13009994153E+04  0.50400001928E-02 0.  1.
       -1    1    3    3    0  502 -0.63390518227E+02 -0.70123797439E+02  0.17411569301E+03  0.19812112291E+03  0.50400001928E-02 0. -1.
</event>
<event>
 5   0  0.3826483E-03  0.9944745E+03  0.7818609E-02  0.9314626E-01
        2   -1    0    0  501    0  0.00000000000E+00  0.00000000000E+00  0.78808259586E+03  0.78808259587E+03  0.25500000920E-02 0.  1.
       -2   -1    0    0    0  501  0.00000000000E+00  0.00000000000E+00 -0.31372967904E+03  0.31372967905E+03  0.25500000920E-02 0. -1.
    10030    2    1    2    0    0  0.00000000000E+00  0.00000000000E+00  0.47435291682E+03  0.11018122749E+04  0.99447453435E+03 0.  0.
        4    1    3    3  502    0 -0.34214480722E+02 -0.16315855534E+03  0.75619593351E+03  0.77435472984E+03  0.12699999809E+01 0.  1.
       -4    1    3    3    0  502  0.34214480722E+02  0.16315855534E+03 -0.28184301669E+03  0.32745754508E+03  0.12699999809E+01 0. -1.
</event>
<event>
 5   0  0.2405022E-03  0.1006000E+04  0.7818609E-02  0.9301989E-01
       -1   -1    0    0    0  501  0.00000000000E+00  0.00000000000E+00  0.59474558655E+03  0.59474558657E+03  0.50400001928E-02 0. -1.
        1   -1    0    0  501    0  0.00000000000E+00  0.00000000000E+00 -0.42540679072E+03  0.42540679075E+03  0.50400001928E-02 0.  1.
    10030    2    1    2    0    0  0.00000000000E+00  0.00000000000E+00  0.16933879583E+03  0.10201523773E+04  0.10059996248E+04 0.  0.
        4    1    3    3  502    0 -0.21519086581E+03  0.19018909140E+03 -0.33409073610E+03  0.44056467410E+03  0.12699999809E+01 0.  1.
       -4    1    3    3    0  502  0.21519086581E+03 -0.19018909140E+03  0.50342953193E+03  0.57958770323E+03  0.12699999809E+01 0. -1.
</event>
<event>
 5   0  0.2350769E-03  0.1008453E+04  0.7818609E-02  0.9299322E-01
        1   -1    0    0  501    0  0.00000000000E+00  0.00000000000E+00  0.57391997760E+03  0.57391997762E+03  0.50400001928E-02 0. -1.
       -1   -1    0    0    0  501  0.00000000000E+00  0.00000000000E+00 -0.44299582475E+03  0.44299582477E+03  0.50400001928E-02 0.  1.
    10030    2    1    2    0    0  0.00000000000E+00  0.00000000000E+00  0.13092415285E+03  0.10169158024E+04  0.10084525846E+04 0.  0.
        2    1    3    3  502    0  0.40148363722E+03  0.17688026524E+03 -0.18515620072E+03  0.47619172385E+03  0.25500000920E-02 0.  1.
       -2    1    3    3    0  502 -0.40148363722E+03 -0.17688026524E+03  0.31608035357E+03  0.54072407854E+03  0.25500000920E-02 0. -1.
</event>
<event>
 5   0  0.2350769E-03  0.9739321E+03  0.7818609E-02  0.9337607E-01
        1   -1    0    0  501    0  0.00000000000E+00  0.00000000000E+00  0.16734862425E+04  0.16734862425E+04  0.50400001928E-02 0.  1.
       -1   -1    0    0    0  501  0.00000000000E+00  0.00000000000E+00 -0.14170173822E+03  0.14170173830E+03  0.50400001928E-02 0. -1.
    10030    2    1    2    0    0  0.00000000000E+00  0.00000000000E+00  0.15317845043E+04  0.18151879808E+04  0.97393205005E+03 0.  0.
        2    1    3    3  502    0 -0.15567643251E+03  0.80747016269E+02 -0.80803666003E+02  0.19309185566E+03  0.25500000920E-02 0. -1.
       -2    1    3    3    0  502  0.15567643251E+03 -0.80747016269E+02  0.16125881703E+04  0.16220961252E+04  0.25500000920E-02 0.  1.
</event>
<event>
 5   0  0.3895011E-03  0.1002639E+04  0.7818609E-02  0.9305655E-01
        2   -1    0    0  501    0  0.00000000000E+00  0.00000000000E+00  0.65919755670E+03  0.65919755670E+03  0.25500000920E-02 0.  1.
       -2   -1    0    0    0  501  0.00000000000E+00  0.00000000000E+00 -0.38125353337E+03  0.38125353338E+03  0.25500000920E-02 0. -1.
    10030    2    1    2    0    0  0.00000000000E+00  0.00000000000E+00  0.27794402332E+03  0.10404510901E+04  0.10026393124E+04 0.  0.
        2    1    3    3  502    0  0.13739627774E+03 -0.59748912023E+02  0.63542132302E+03  0.65284602119E+03  0.25500000920E-02 0.  1.
       -2    1    3    3    0  502 -0.13739627774E+03  0.59748912023E+02 -0.35747729970E+03  0.38760506889E+03  0.25500000920E-02 0. -1.
</event>
<event>
 5   0  0.2378609E-03  0.9981463E+03  0.7818609E-02  0.9310580E-01
       -1   -1    0    0    0  501  0.00000000000E+00  0.00000000000E+00  0.31201344710E+03  0.31201344714E+03  0.50400001928E-02 0.  1.
        1   -1    0    0  501    0  0.00000000000E+00  0.00000000000E+00 -0.79827969887E+03  0.79827969889E+03  0.50400001928E-02 0. -1.
    10030    2    1    2    0    0  0.00000000000E+00  0.00000000000E+00 -0.48626625177E+03  0.11102931460E+04  0.99814628311E+03 0.  0.
        1    1    3    3  502    0  0.65299082805E+02 -0.43507317584E+03 -0.50523704864E+03  0.66993814184E+03  0.50400001928E-02 0.  1.
       -1    1    3    3    0  502 -0.65299082805E+02  0.43507317584E+03  0.18970796867E+02  0.44035500418E+03  0.50400001928E-02 0. -1.
</event>
<event>
 5   0  0.2350769E-03  0.9950880E+03  0.7818609E-02  0.9313949E-01
        1   -1    0    0  501    0  0.00000000000E+00  0.00000000000E+00  0.60929386362E+03  0.60929386364E+03  0.50400001928E-02 0.  1.
       -1   -1    0    0    0  501  0.00000000000E+00  0.00000000000E+00 -0.40629002578E+03  0.40629002582E+03  0.50400001928E-02 0. -1.
    10030    2    1    2    0    0  0.00000000000E+00  0.00000000000E+00  0.20300383783E+03  0.10155838895E+04  0.99508797518E+03 0.  0.
        2    1    3    3  502    0  0.40074203935E+03  0.16528328689E+03  0.35073931845E+03  0.55761170769E+03  0.25500000920E-02 0.  1.
       -2    1    3    3    0  502 -0.40074203935E+03 -0.16528328689E+03 -0.14773548062E+03  0.45797218177E+03  0.25500000920E-02 0. -1.
</event>
<event>
 5   0  0.2313036E-03  0.1006060E+04  0.7818609E-02  0.9301924E-01
        1   -1    0    0  501    0  0.00000000000E+00  0.00000000000E+00  0.39036609900E+03  0.39036609903E+03  0.50400001928E-02 0. -1.
       -1   -1    0    0    0  501  0.00000000000E+00  0.00000000000E+00 -0.64820942090E+03  0.64820942092E+03  0.50400001928E-02 0.  1.
    10030    2    1    2    0    0  0.00000000000E+00  0.00000000000E+00 -0.25784332190E+03  0.10385755199E+04  0.10060596066E+04 0.  0.
        3    1    3    3  502    0  0.44878473486E+03 -0.21975045522E+03 -0.69252382504E+02  0.50447388783E+03  0.10100000352E+00 0. -1.
       -3    1    3    3    0  502 -0.44878473486E+03  0.21975045522E+03 -0.18859093939E+03  0.53410163212E+03  0.10100000352E+00 0.  1.
</event>
<event>
 5   0  0.2405022E-03  0.1004786E+04  0.7818609E-02  0.9303311E-01
       -1   -1    0    0    0  501  0.00000000000E+00  0.00000000000E+00  0.45554415772E+03  0.45554415775E+03  0.50400001928E-02 0.  1.
        1   -1    0    0  501    0  0.00000000000E+00  0.00000000000E+00 -0.55406037777E+03  0.55406037779E+03  0.50400001928E-02 0. -1.
    10030    2    1    2    0    0  0.00000000000E+00  0.00000000000E+00 -0.98516220054E+02  0.10096045355E+04  0.10047864811E+04 0.  0.
        4    1    3    3  502    0  0.48378329088E+03 -0.12718074268E+03 -0.96130928154E+02  0.50937607138E+03  0.12699999809E+01 0. -1.
       -4    1    3    3    0  502 -0.48378329088E+03  0.12718074268E+03 -0.23852918991E+01  0.50022846416E+03  0.12699999809E+01 0.  1.
</event>
<event>
 5   0  0.3826483E-03  0.1000043E+04  0.7818609E-02  0.9308498E-01
        2   -1    0    0  501    0  0.00000000000E+00  0.00000000000E+00  0.13542239405E+04  0.13542239405E+04  0.25500000920E-02 0. -1.
       -2   -1    0    0    0  501  0.00000000000E+00  0.00000000000E+00 -0.18462340363E+03  0.18462340365E+03  0.25500000920E-02 0.  1.
    10030    2    1    2    0    0  0.00000000000E+00  0.00000000000E+00  0.11696005368E+04  0.15388473441E+04  0.10000428655E+04 0.  0.
        4    1    3    3  502    0  0.29058902025E+03  0.38334045002E+02 -0.38564500245E+02  0.29563543643E+03  0.12699999809E+01 0.  1.
       -4    1    3    3    0  502 -0.29058902025E+03 -0.38334045002E+02  0.12081650371E+04  0.12432119077E+04  0.12699999809E+01 0. -1.
</event>
<event>
 5   0  0.3895011E-03  0.1068746E+04  0.7818609E-02  0.9236201E-01
       -2   -1    0    0    0  501  0.00000000000E+00  0.00000000000E+00  0.44051661964E+03  0.44051661965E+03  0.25500000920E-02 0.  1.
        2   -1    0    0  501    0  0.00000000000E+00  0.00000000000E+00 -0.64822639992E+03  0.64822639993E+03  0.25500000920E-02 0. -1.
    10030    2    1    2    0    0  0.00000000000E+00  0.00000000000E+00 -0.20770978028E+03  0.10887430196E+04  0.10687459988E+04 0.  0.
        2    1    3    3  502    0  0.40817007785E+03 -0.33255306647E+03 -0.10710251022E+02  0.52660142798E+03  0.25500000920E-02 0. -1.
       -2    1    3    3    0  502 -0.40817007785E+03  0.33255306647E+03 -0.19699952926E+03  0.56214159160E+03  0.25500000920E-02 0.  1.
</event>
<event>
 5   0  0.3873874E-03  0.1001126E+04  0.7818609E-02  0.9307310E-01
        2   -1    0    0  501    0  0.00000000000E+00  0.00000000000E+00  0.16017001152E+04  0.16017001152E+04  0.25500000920E-02 0. -1.
       -2   -1    0    0    0  501  0.00000000000E+00  0.00000000000E+00 -0.15643599227E+03  0.15643599230E+03  0.25500000920E-02 0.  1.
    10030    2    1    2    0    0  0.00000000000E+00  0.00000000000E+00  0.14452641229E+04  0.17581361075E+04  0.10011264593E+04 0.  0.
        5    1    3    3  502    0 -0.39392550381E+03  0.10613379666E+03  0.21334697178E+03  0.46041362459E+03  0.46999998093E+01 0.  1.
       -5    1    3    3    0  502  0.39392550381E+03 -0.10613379666E+03  0.12319171512E+04  0.12977224829E+04  0.46999998093E+01 0. -1.
</event>
<event>
 5   0  0.4140860E-03  0.1014210E+04  0.7818609E-02  0.9293095E-01
       -2   -1    0    0    0  501  0.00000000000E+00  0.00000000000E+00  0.72165166911E+03  0.72165166911E+03  0.25500000920E-02 0.  1.
        2   -1    0    0  501    0  0.00000000000E+00  0.00000000000E+00 -0.35634308729E+03  0.35634308730E+03  0.25500000920E-02 0. -1.
    10030    2    1    2    0    0  0.00000000000E+00  0.00000000000E+00  0.36530858182E+03  0.10779947564E+04  0.10142102025E+04 0.  0.
        3    1    3    3  502    0  0.23361368129E+03  0.14015494584E+03  0.63726454488E+03  0.69305473903E+03  0.10100000352E+00 0.  1.
       -3    1    3    3    0  502 -0.23361368129E+03 -0.14015494584E+03 -0.27195596307E+03  0.38494001738E+03  0.10100000352E+00 0. -1.
</event>
<event>
 5   0  0.4026829E-03  0.9997193E+03  0.7818609E-02  0.9308853E-01
        2   -1    0    0  501    0  0.00000000000E+00  0.00000000000E+00  0.17959446770E+04  0.17959446770E+04  0.25500000920E-02 0. -1.
       -2   -1    0    0    0  501  0.00000000000E+00  0.00000000000E+00 -0.13912437414E+03  0.13912437417E+03  0.25500000920E-02 0.  1.
    10030    2    1    2    0    0  0.00000000000E+00  0.00000000000E+00  0.16568203028E+04  0.19350690511E+04  0.99971931902E+03 0.  0.
        1    1    3    3  502    0 -0.25132925694E+01  0.31580957304E+03  0.78456716340E+02  0.32541889839E+03  0.50400001928E-02 0.  1.
       -1    1    3    3    0  502  0.25132925694E+01 -0.31580957304E+03  0.15783635865E+04  0.16096501528E+04  0.50400001928E-02 0. -1.
</event>
<event>
 5   0  0.2313036E-03  0.9901670E+03  0.7818609E-02  0.9319396E-01
        1   -1    0    0  501    0  0.00000000000E+00  0.00000000000E+00  0.76557593080E+03  0.76557593081E+03  0.50400001928E-02 0.  1.
       -1   -1    0    0    0  501  0.00000000000E+00  0.00000000000E+00 -0.32016112341E+03  0.32016112345E+03  0.50400001928E-02 0. -1.
    10030    2    1    2    0    0  0.00000000000E+00  0.00000000000E+00  0.44541480739E+03  0.10857370543E+04  0.99016695580E+03 0.  0.
        3    1    3    3  502    0 -0.22684394416E+03  0.42028641615E+03  0.36571298329E+03  0.60153540457E+03  0.10100000352E+00 0.  1.
       -3    1    3    3    0  502  0.22684394416E+03 -0.42028641615E+03  0.79701824104E+02  0.48420164970E+03  0.10100000352E+00 0. -1.
</event>
<event>
 5   0  0.2313036E-03  0.9995816E+03  0.7818609E-02  0.9309004E-01
        1   -1    0    0  501    0  0.00000000000E+00  0.00000000000E+00  0.32832486254E+03  0.32832486258E+03  0.50400001928E-02 0. -1.
       -1   -1    0    0    0  501  0.00000000000E+00  0.00000000000E+00 -0.76080391293E+03  0.76080391295E+03  0.50400001928E-02 0.  1.
    10030    2    1    2    0    0  0.00000000000E+00  0.00000000000E+00 -0.43247905039E+03  0.10891287755E+04  0.99958159280E+03 0.  0.
        3    1    3    3  502    0 -0.48490235540E+02  0.15442085135E+03 -0.73145724441E+03  0.74915072774E+03  0.10100000352E+00 0.  1.
       -3    1    3    3    0  502  0.48490235540E+02 -0.15442085135E+03  0.29897819402E+03  0.33997804779E+03  0.10100000352E+00 0. -1.
</event>
<event>
 5   0  0.3873874E-03  0.9969939E+03  0.7818609E-02  0.9311848E-01
       -2   -1    0    0    0  501  0.00000000000E+00  0.00000000000E+00  0.46186823434E+03  0.46186823435E+03  0.25500000920E-02 0.  1.
        2   -1    0    0  501    0  0.00000000000E+00  0.00000000000E+00 -0.53803047513E+03  0.53803047514E+03  0.25500000920E-02 0. -1.
    10030    2    1    2    0    0  0.00000000000E+00  0.00000000000E+00 -0.76162240792E+02  0.99989870949E+03  0.99699385270E+03 0.  0.
        5    1    3    3  502    0  0.16334756303E+03 -0.10156975635E+03  0.42312640530E+03  0.46481919777E+03  0.46999998093E+01 0.  1.
       -5    1    3    3    0  502 -0.16334756303E+03  0.10156975635E+03 -0.49928864609E+03  0.53507951172E+03  0.46999998093E+01 0. -1.
</event>
<event>
 5   0  0.2405022E-03  0.1089762E+04  0.7818609E-02  0.9215228E-01
        1   -1    0    0  501    0  0.00000000000E+00  0.00000000000E+00  0.39819445596E+03  0.39819445599E+03  0.50400001928E-02 0.  1.
       -1   -1    0    0    0  501  0.00000000000E+00  0.00000000000E+00 -0.74560412741E+03  0.74560412743E+03  0.50400001928E-02 0. -1.
    10030    2    1    2    0    0  0.00000000000E+00  0.00000000000E+00 -0.34740967146E+03  0.11437985834E+04  0.10897622308E+04 0.  0.
        4    1    3    3  502    0  0.13078648257E+03  0.15645373944E+03  0.35663288162E+03  0.41081808841E+03  0.12699999809E+01 0.  1.
       -4    1    3    3    0  502 -0.13078648257E+03 -0.15645373944E+03 -0.70404255308E+03  0.73298049501E+03  0.12699999809E+01 0. -1.
</event>
<event>
 5   0  0.4026829E-03  0.1024220E+04  0.7818609E-02  0.9282373E-01
        2   -1    0    0  501    0  0.00000000000E+00  0.00000000000E+00  0.70782979496E+03  0.70782979496E+03  0.25500000920E-02 0. -1.
       -2   -1    0    0    0  501  0.00000000000E+00  0.00000000000E+00 -0.37050792734E+03  0.37050792735E+03  0.25500000920E-02 0.  1.
    10030    2    1    2    0    0  0.00000000000E+00  0.00000000000E+00  0.33732186762E+03  0.10783377223E+04  0.10242198011E+04 0.  0.
        1    1    3    3  502    0 -0.49203884969E+03  0.57705125085E+02  0.32098286189E+02  0.49644980720E+03  0.50400001928E-02 0.  1.
       -1    1    3    3    0  502  0.49203884969E+03 -0.57705125085E+02  0.30522358143E+03  0.58188791511E+03  0.50400001928E-02 0. -1.
</event>
<event>
 5   0  0.4140860E-03  0.1020331E+04  0.7818609E-02  0.9286523E-01
        2   -1    0    0  501    0  0.00000000000E+00  0.00000000000E+00  0.70931881439E+03  0.70931881439E+03  0.25500000920E-02 0. -1.
       -2   -1    0    0    0  501  0.00000000000E+00  0.00000000000E+00 -0.36692817242E+03  0.36692817243E+03  0.25500000920E-02 0.  1.
    10030    2    1    2    0    0  0.00000000000E+00  0.00000000000E+00  0.34239064197E+03  0.10762469868E+04  0.10203314290E+04 0.  0.
        3    1    3    3  502    0  0.27443229478E+02 -0.56820466289E+02  0.70518672914E+03  0.70800425803E+03  0.10100000352E+00 0. -1.
       -3    1    3    3    0  502 -0.27443229478E+02  0.56820466289E+02 -0.36279608718E+03  0.36824272879E+03  0.10100000352E+00 0.  1.
</event>
<event>
 5   0  0.1548000E-03  0.9964518E+03  0.7818609E-02  0.9312445E-01
        3   -1    0    0  501    0  0.00000000000E+00  0.00000000000E+00  0.39022587016E+03  0.39022588323E+03  0.10100000352E+00 0. -1.
       -3   -1    0    0    0  501  0.00000000000E+00  0.00000000000E+00 -0.63611628516E+03  0.63611629318E+03  0.10100000352E+00 0.  1.
    10030    2    1    2    0    0  0.00000000000E+00  0.00000000000E+00 -0.24589041500E+03  0.10263421764E+04  0.99645178854E+03 0.  0.
        5    1    3    3  502    0  0.39898353695E+03  0.48486731554E+01 -0.43021516644E+03  0.58678663228E+03  0.46999998093E+01 0. -1.
       -5    1    3    3    0  502 -0.39898353695E+03 -0.48486731554E+01  0.18432475143E+03  0.43955554413E+03  0.46999998093E+01 0.  1.
</event>
<event>
 5   0  0.2378609E-03  0.9940733E+03  0.7818609E-02  0.9315069E-01
       -1   -1    0    0    0  501  0.00000000000E+00  0.00000000000E+00  0.14938356841E+03  0.14938356849E+03  0.50400001928E-02 0. -1.
        1   -1    0    0  501    0  0.00000000000E+00  0.00000000000E+00 -0.16537655996E+04  0.16537655996E+04  0.50400001928E-02 0.  1.
    10030    2    1    2    0    0  0.00000000000E+00  0.00000000000E+00 -0.15043820312E+04  0.18031491681E+04  0.99407325014E+03 0.  0.
        1    1    3    3  502    0  0.15569577869E+03 -0.17125686054E+03 -0.15500498423E+04  0.15672346989E+04  0.50400001928E-02 0.  1.
       -1    1    3    3    0  502 -0.15569577869E+03  0.17125686054E+03  0.45667811104E+02  0.23591446921E+03  0.50400001928E-02 0. -1.
</event>
<event>
 5   0  0.4140860E-03  0.1004483E+04  0.7818609E-02  0.9303642E-01
        2   -1    0    0  501    0  0.00000000000E+00  0.00000000000E+00  0.24566471817E+03  0.24566471818E+03  0.25500000920E-02 0. -1.
       -2   -1    0    0    0  501  0.00000000000E+00  0.00000000000E+00 -0.10267917024E+04  0.10267917024E+04  0.25500000920E-02 0.  1.
    10030    2    1    2    0    0  0.00000000000E+00  0.00000000000E+00 -0.78112698424E+03  0.12724564206E+04  0.10044829400E+04 0.  0.
        3    1    3    3  502    0 -0.22389445233E+03  0.19037569893E+03 -0.90649330687E+03  0.95294373293E+03  0.10100000352E+00 0.  1.
       -3    1    3    3    0  502  0.22389445233E+03 -0.19037569893E+03  0.12536632263E+03  0.31951268767E+03  0.10100000352E+00 0. -1.
</event>
<event>
 5   0  0.4026829E-03  0.1001885E+04  0.7818609E-02  0.9306479E-01
       -2   -1    0    0    0  501  0.00000000000E+00  0.00000000000E+00  0.15816190566E+03  0.15816190568E+03  0.25500000920E-02 0.  1.
        2   -1    0    0  501    0  0.00000000000E+00  0.00000000000E+00 -0.15866246270E+04  0.15866246270E+04  0.25500000920E-02 0. -1.
    10030    2    1    2    0    0  0.00000000000E+00  0.00000000000E+00 -0.14284627213E+04  0.17447865326E+04  0.10018853719E+04 0.  0.
        1    1    3    3  502    0 -0.19717203810E+03 -0.11640052583E+03 -0.14901637125E+04  0.15076517453E+04  0.50400001928E-02 0. -1.
       -1    1    3    3    0  502  0.19717203810E+03  0.11640052583E+03  0.61700991211E+02  0.23713478733E+03  0.50400001928E-02 0.  1.
</event>
<event>
 5   0  0.2350769E-03  0.9998277E+03  0.7818609E-02  0.9308734E-01
        1   -1    0    0  501    0  0.00000000000E+00  0.00000000000E+00  0.11082337062E+04  0.11082337062E+04  0.50400001928E-02 0. -1.
       -1   -1    0    0    0  501  0.00000000000E+00  0.00000000000E+00 -0.22550644203E+03  0.22550644208E+03  0.50400001928E-02 0.  1.
    10030    2    1    2    0    0  0.00000000000E+00  0.00000000000E+00  0.88272726421E+03  0.13337401483E+04  0.99982766530E+03 0.  0.
        2    1    3    3  502    0 -0.27200685162E+03 -0.72859661151E+02  0.99237171166E+03  0.10315511968E+04  0.25500000920E-02 0. -1.
       -2    1    3    3    0  502  0.27200685162E+03  0.72859661151E+02 -0.10964444745E+03  0.30218895151E+03  0.25500000920E-02 0.  1.
</event>
<event>
 5   0  0.3826483E-03  0.1000307E+04  0.7818609E-02  0.9308208E-01
       -2   -1    0    0    0  501  0.00000000000E+00  0.00000000000E+00  0.15781824894E+03  0.15781824896E+03  0.25500000920E-02 0. -1.
        2   -1    0    0  501    0  0.00000000000E+00  0.00000000000E+00 -0.15850746053E+04  0.15850746053E+04  0.25500000920E-02 0.  1.
    10030    2    1    2    0    0  0.00000000000E+00  0.00000000000E+00 -0.14272563564E+04  0.17428928543E+04  0.10003073501E+04 0.  0.
        4    1    3    3  502    0 -0.37455021611E+03 -0.32092066329E+03 -0.85808787796E+03  0.98974459115E+03  0.12699999809E+01 0.  1.
       -4    1    3    3    0  502  0.37455021611E+03  0.32092066329E+03 -0.56916847839E+03  0.75314826311E+03  0.12699999809E+01 0. -1.
</event>
<event>
 5   0  0.3895011E-03  0.1006619E+04  0.7818609E-02  0.9301315E-01
        2   -1    0    0  501    0  0.00000000000E+00  0.00000000000E+00  0.90877893486E+03  0.90877893486E+03  0.25500000920E-02 0.  1.
       -2   -1    0    0    0  501  0.00000000000E+00  0.00000000000E+00 -0.27874814214E+03  0.27874814215E+03  0.25500000920E-02 0. -1.
    10030    2    1    2    0    0  0.00000000000E+00  0.00000000000E+00  0.63003079272E+03  0.11875270770E+04  0.10066189740E+04 0.  0.
        2    1    3    3  502    0  0.17491112947E+03 -0.31697135560E+03 -0.97474162723E+02  0.37492126625E+03  0.25500000920E-02 0. -1.
       -2    1    3    3    0  502 -0.17491112947E+03  0.31697135560E+03  0.72750495544E+03  0.81260581076E+03  0.25500000920E-02 0.  1.
</event>
<event>
 5   0  0.2313036E-03  0.1000704E+04  0.7818609E-02  0.9307773E-01
       -1   -1    0    0    0  501  0.00000000000E+00  0.00000000000E+00  0.43988213180E+03  0.43988213183E+03  0.50400001928E-02 0. -1.
        1   -1    0    0  501    0  0.00000000000E+00  0.00000000000E+00 -0.56913491254E+03  0.56913491256E+03  0.50400001928E-02 0.  1.
    10030    2    1    2    0    0  0.00000000000E+00  0.00000000000E+00 -0.12925278074E+03  0.10090170444E+04  0.10007043092E+04 0.  0.
        3    1    3    3  502    0 -0.33464269590E+03  0.14368885578E+03  0.28132728298E+03  0.46019264613E+03  0.10100000352E+00 0. -1.
       -3    1    3    3    0  502  0.33464269590E+03 -0.14368885578E+03 -0.41058006373E+03  0.54882439826E+03  0.10100000352E+00 0.  1.
</event>
<event>
 5   0  0.2405022E-03  0.1007079E+04  0.7818609E-02  0.9300815E-01
       -1   -1    0    0    0  501  0.00000000000E+00  0.00000000000E+00  0.75436067359E+03  0.75436067361E+03  0.50400001928E-02 0. -1.
        1   -1    0    0  501    0  0.00000000000E+00  0.00000000000E+00 -0.33611504184E+03  0.33611504187E+03  0.50400001928E-02 0.  1.
    10030    2    1    2    0    0  0.00000000000E+00  0.00000000000E+00  0.41824563175E+03  0.10904757155E+04  0.10070788835E+04 0.  0.
        4    1    3    3  502    0  0.10237084830E+03 -0.33710946649E+03 -0.18042991106E+03  0.39582717022E+03  0.12699999809E+01 0.  1.
       -4    1    3    3    0  502 -0.10237084830E+03  0.33710946649E+03  0.59867554281E+03  0.69464854526E+03  0.12699999809E+01 0. -1.
</event>
<event>
 5   0  0.2327595E-03  0.9965823E+03  0.7818609E-02  0.9312301E-01
        1   -1    0    0  501    0  0.00000000000E+00  0.00000000000E+00  0.94756965913E+03  0.94756965914E+03  0.50400001928E-02 0.  1.
       -1   -1    0    0    0  501  0.00000000000E+00  0.00000000000E+00 -0.26203250175E+03  0.26203250180E+03  0.50400001928E-02 0. -1.
    10030    2    1    2    0    0  0.00000000000E+00  0.00000000000E+00  0.68553715738E+03  0.12096021609E+04  0.99658225632E+03 0.  0.
        5    1    3    3  502    0  0.13979258883E+03  0.36394359724E+03  0.71937374780E+03  0.81824054464E+03  0.46999998093E+01 0.  1.
       -5    1    3    3    0  502 -0.13979258883E+03 -0.36394359724E+03 -0.33836590427E+02  0.39136161630E+03  0.46999998093E+01 0. -1.
</event>
<event>
 5   0  0.2405022E-03  0.1008970E+04  0.7818609E-02  0.9298761E-01
       -1   -1    0    0    0  501  0.00000000000E+00  0.00000000000E+00  0.26570114559E+03  0.26570114564E+03  0.50400001928E-02 0. -1.
        1   -1    0    0  501    0  0.00000000000E+00  0.00000000000E+00 -0.95786313274E+03  0.95786313276E+03  0.50400001928E-02 0.  1.
    10030    2    1    2    0    0  0.00000000000E+00  0.00000000000E+00 -0.69216198715E+03  0.12235642784E+04  0.10089704292E+04 0.  0.
        4    1    3    3  502    0  0.37491046784E+03  0.20244701939E+03 -0.18518678835E+02  0.42648236649E+03  0.12699999809E+01 0. -1.
       -4    1    3    3    0  502 -0.37491046784E+03 -0.20244701939E+03 -0.67364330831E+03  0.79708191191E+03  0.12699999809E+01 0.  1.
</event>
<event>
 5   0  0.2378609E-03  0.1005032E+04  0.7818609E-02  0.9303043E-01
       -1   -1    0    0    0  501  0.00000000000E+00  0.00000000000E+00  0.14275814549E+03  0.14275814558E+03  0.50400001928E-02 0.  1.
        1   -1    0    0  501    0  0.00000000000E+00  0.00000000000E+00 -0.17688816570E+04  0.17688816570E+04  0.50400001928E-02 0. -1.
    10030    2    1    2    0    0  0.00000000000E+00  0.00000000000E+00 -0.16261235115E+04  0.19116398026E+04  0.10050318702E+04 0.  0.
        1    1    3    3  502    0 -0.35726776771E+03  0.18342433287E+03 -0.13875920980E+04  0.14445402640E+04  0.50400001928E-02 0. -1.
       -1    1    3    3    0  502  0.35726776771E+03 -0.18342433287E+03 -0.23853141353E+03  0.46709953864E+03  0.50400001928E-02 0.  1.
</event>
<event>
 5   0  0.3873874E-03  0.1003649E+04  0.7818609E-02  0.9304552E-01
        2   -1    0    0  501    0  0.00000000000E+00  0.00000000000E+00  0.89269882985E+03  0.89269882985E+03  0.25500000920E-02 0.  1.
       -2   -1    0    0    0  501  0.00000000000E+00  0.00000000000E+00 -0.28209698650E+03  0.28209698651E+03  0.25500000920E-02 0. -1.
    10030    2    1    2    0    0  0.00000000000E+00  0.00000000000E+00  0.61060184335E+03  0.11747958164E+04  0.10036486432E+04 0.  0.
        5    1    3    3  502    0  0.40420094274E+03  0.22204845906E+03  0.53682129428E+03  0.70773096037E+03  0.46999998093E+01 0. -1.
       -5    1    3    3    0  502 -0.40420094274E+03 -0.22204845906E+03  0.73780549069E+02  0.46706485599E+03  0.46999998093E+01 0.  1.
</event>
<event>
 5   0  0.2405022E-03  0.8784489E+03  0.7818609E-02  0.9452930E-01
        1   -1    0    0  501    0  0.00000000000E+00  0.00000000000E+00  0.40777442496E+03  0.40777442499E+03  0.50400001928E-02 0.  1.
       -1   -1    0    0    0  501  0.00000000000E+00  0.00000000000E+00 -0.47310003868E+03  0.47310003871E+03  0.50400001928E-02 0. -1.
    10030    2    1    2    0    0  0.00000000000E+00  0.00000000000E+00 -0.65325613723E+02  0.88087446370E+03  0.87844885166E+03 0.  0.
        4    1    3    3  502    0 -0.38645512426E+03  0.19982141297E+03 -0.93164497721E+02  0.44492403473E+03  0.12699999809E+01 0. -1.
       -4    1    3    3    0  502  0.38645512426E+03 -0.19982141297E+03  0.27838883997E+02  0.43595042896E+03  0.12699999809E+01 0.  1.
</event>
<event>
 5   0  0.3873874E-03  0.1005537E+04  0.7818609E-02  0.9302493E-01
        2   -1    0    0  501    0  0.00000000000E+00  0.00000000000E+00  0.11022103186E+04  0.11022103186E+04  0.25500000920E-02 0. -1.
       -2   -1    0    0    0  501  0.00000000000E+00  0.00000000000E+00 -0.22933556132E+03  0.22933556133E+03  0.25500000920E-02 0.  1.
    10030    2    1    2    0    0  0.00000000000E+00  0.00000000000E+00  0.87287475728E+03  0.13315458799E+04  0.10055367166E+04 0.  0.
        5    1    3    3  502    0 -0.46248642678E+03 -0.11710681068E+03  0.22644928957E+03  0.52811842498E+03  0.46999998093E+01 0.  1.
       -5    1    3    3    0  502  0.46248642678E+03  0.11710681068E+03  0.64642546772E+03  0.80342745495E+03  0.46999998093E+01 0. -1.
</event>
<event>
 5   0  0.4140860E-03  0.1006750E+04  0.7818609E-02  0.9301173E-01
       -2   -1    0    0    0  501  0.00000000000E+00  0.00000000000E+00  0.46234944633E+03  0.46234944634E+03  0.25500000920E-02 0.  1.
        2   -1    0    0  501    0  0.00000000000E+00  0.00000000000E+00 -0.54804071695E+03  0.54804071695E+03  0.25500000920E-02 0. -1.
    10030    2    1    2    0    0  0.00000000000E+00  0.00000000000E+00 -0.85691270616E+02  0.10103901633E+04  0.10067498638E+04 0.  0.
        3    1    3    3  502    0  0.10386369615E+03 -0.44986680186E+03  0.15842503444E+03  0.48812530004E+03  0.10100000352E+00 0.  1.
       -3    1    3    3    0  502 -0.10386369615E+03  0.44986680186E+03 -0.24411630505E+03  0.52226486326E+03  0.10100000352E+00 0. -1.
</event>
<event>
 5   0  0.4140860E-03  0.9962700E+03  0.7818609E-02  0.9312645E-01
       -2   -1    0    0    0  501  0.00000000000E+00  0.00000000000E+00  0.31184916006E+03  0.31184916007E+03  0.25500000920E-02 0. -1.
        2   -1    0    0  501    0  0.00000000000E+00  0.00000000000E+00 -0.79570029568E+03  0.79570029569E+03  0.25500000920E-02 0.  1.
    10030    2    1    2    0    0  0.00000000000E+00  0.00000000000E+00 -0.48385113562E+03  0.11075494558E+04  0.99626998123E+03 0.  0.
        3    1    3    3  502    0 -0.38712760782E+03  0.26809899780E+03 -0.61318222375E+02  0.47487344836E+03  0.10100000352E+00 0. -1.
       -3    1    3    3    0  502  0.38712760782E+03 -0.26809899780E+03 -0.42253291325E+03  0.63267600740E+03  0.10100000352E+00 0.  1.
</event>
<event>
 5   0  0.2327595E-03  0.9672621E+03  0.7818609E-02  0.9345198E-01
       -1   -1    0    0    0  501  0.00000000000E+00  0.00000000000E+00  0.14125897318E+03  0.14125897327E+03  0.50400001928E-02 0.  1.
        1   -1    0    0  501    0  0.00000000000E+00  0.00000000000E+00 -0.16558167118E+04  0.16558167118E+04  0.50400001928E-02 0. -1.
    10030    2    1    2    0    0  0.00000000000E+00  0.00000000000E+00 -0.15145577387E+04  0.17970756851E+04  0.96726205046E+03 0.  0.
        5    1    3    3  502    0 -0.13435054565E+03  0.10561372421E+03  0.83248810701E+02  0.19014936849E+03  0.46999998093E+01 0.  1.
       -5    1    3    3    0  502  0.13435054565E+03 -0.10561372421E+03 -0.15978065494E+04  0.16069263166E+04  0.46999998093E+01 0. -1.
</event>
<event>
 5   0  0.3873874E-03  0.1004637E+04  0.7818609E-02  0.9303474E-01
        2   -1    0    0  501    0  0.00000000000E+00  0.00000000000E+00  0.60737955970E+03  0.60737955971E+03  0.25500000920E-02 0. -1.
       -2   -1    0    0    0  501  0.00000000000E+00  0.00000000000E+00 -0.41543014316E+03  0.41543014317E+03  0.25500000920E-02 0.  1.
    10030    2    1    2    0    0  0.00000000000E+00  0.00000000000E+00  0.19194941655E+03  0.10228097029E+04  0.10046368049E+04 0.  0.
        5    1    3    3  502    0  0.34369076098E+03 -0.35752047494E+03  0.17715068327E+03  0.52663904505E+03  0.46999998093E+01 0.  1.
       -5    1    3    3    0  502 -0.34369076098E+03  0.35752047494E+03  0.14798733275E+02  0.49617065783E+03  0.46999998093E+01 0. -1.
</event>
<event>
 5   0  0.4140860E-03  0.9971398E+03  0.7818609E-02  0.9311687E-01
        2   -1    0    0  501    0  0.00000000000E+00  0.00000000000E+00  0.15004721795E+04  0.15004721795E+04  0.25500000920E-02 0.  1.
       -2   -1    0    0    0  501  0.00000000000E+00  0.00000000000E+00 -0.16566247679E+03  0.16566247681E+03  0.25500000920E-02 0. -1.
    10030    2    1    2    0    0  0.00000000000E+00  0.00000000000E+00  0.13348097028E+04  0.16661346564E+04  0.99713978485E+03 0.  0.
        3    1    3    3  502    0 -0.57511429100E+02  0.11693732522E+03 -0.13670239938E+03  0.18886359814E+03  0.10100000352E+00 0. -1.
       -3    1    3    3    0  502  0.57511429100E+02 -0.11693732522E+03  0.14715121021E+04  0.14772710582E+04  0.10100000352E+00 0.  1.
</event>
<event>
 5   0  0.2313036E-03  0.1000457E+04  0.7818609E-02  0.9308044E-01
        1   -1    0    0  501    0  0.00000000000E+00  0.00000000000E+00  0.61623391823E+03  0.61623391825E+03  0.50400001928E-02 0. -1.
       -1   -1    0    0    0  501  0.00000000000E+00  0.00000000000E+00 -0.40606110522E+03  0.40606110525E+03  0.50400001928E-02 0.  1.
    10030    2    1    2    0    0  0.00000000000E+00  0.00000000000E+00  0.21017281301E+03  0.10222950235E+04  0.10004571474E+04 0.  0.
        3    1    3    3  502    0 -0.30232546165E+02  0.27252604183E+03  0.53260162106E+03  0.59904002143E+03  0.10100000352E+00 0. -1.
       -3    1    3    3    0  502  0.30232546165E+02 -0.27252604183E+03 -0.32242880805E+03  0.42325500207E+03  0.10100000352E+00 0.  1.
</event>
<event>
 5   0  0.2313036E-03  0.9635213E+03  0.7818609E-02  0.9349484E-01
       -1   -1    0    0    0  501  0.00000000000E+00  0.00000000000E+00  0.37886691434E+03  0.37886691438E+03  0.50400001928E-02 0. -1.
        1   -1    0    0  501    0  0.00000000000E+00  0.00000000000E+00 -0.61259853391E+03  0.61259853393E+03  0.50400001928E-02 0.  1.
    10030    2    1    2    0    0  0.00000000000E+00  0.00000000000E+00 -0.23373161957E+03  0.99146544831E+03  0.96352128425E+03 0.  0.
        3    1    3    3  502    0  0.27354185865E+03  0.33722476245E+03  0.97867031175E+02  0.44511083433E+03  0.10100000352E+00 0. -1.
       -3    1    3    3    0  502 -0.27354185865E+03 -0.33722476245E+03 -0.33159865074E+03  0.54635461398E+03  0.10100000352E+00 0.  1.
</event>
<event>
 5   0  0.2405022E-03  0.9997152E+03  0.7818609E-02  0.9308857E-01
       -1   -1    0    0    0  501  0.00000000000E+00  0.00000000000E+00  0.25159721541E+03  0.25159721546E+03  0.50400001928E-02 0. -1.
        1   -1    0    0  501    0  0.00000000000E+00  0.00000000000E+00 -0.99308577903E+03  0.99308577904E+03  0.50400001928E-02 0.  1.
    10030    2    1    2    0    0  0.00000000000E+00  0.00000000000E+00 -0.74148856362E+03  0.12446829945E+04  0.99971519285E+03 0.  0.
        4    1    3    3  502    0  0.48337039698E+03  0.61873490879E+02 -0.50927805550E+03  0.70486950584E+03  0.12699999809E+01 0.  1.
       -4    1    3    3    0  502 -0.48337039698E+03 -0.61873490879E+02 -0.23221050812E+03  0.53981348866E+03  0.12699999809E+01 0. -1.
</event>
<event>
 5   0  0.1548000E-03  0.1003700E+04  0.7818609E-02  0.9304496E-01
       -3   -1    0    0    0  501  0.00000000000E+00  0.00000000000E+00  0.50149747267E+03  0.50149748284E+03  0.10100000352E+00 0.  1.
        3   -1    0    0  501    0  0.00000000000E+00  0.00000000000E+00 -0.50220298202E+03  0.50220299218E+03  0.10100000352E+00 0. -1.
    10030    2    1    2    0    0  0.00000000000E+00  0.00000000000E+00 -0.70550935035E+00  0.10037004750E+04  0.10037002271E+04 0.  0.
        5    1    3    3  502    0 -0.31173212571E+03  0.36232187248E+03 -0.15324945355E+03  0.50195770986E+03  0.46999998093E+01 0. -1.
       -5    1    3    3    0  502  0.31173212571E+03 -0.36232187248E+03  0.15254394420E+03  0.50174276516E+03  0.46999998093E+01 0.  1.
</event>
<event>
 5   0  0.4026829E-03  0.1012380E+04  0.7818609E-02  0.9295070E-01
        2   -1    0    0  501    0  0.00000000000E+00  0.00000000000E+00  0.67322663542E+03  0.67322663543E+03  0.25500000920E-02 0. -1.
       -2   -1    0    0    0  501  0.00000000000E+00  0.00000000000E+00 -0.38059712977E+03  0.38059712978E+03  0.25500000920E-02 0.  1.
    10030    2    1    2    0    0  0.00000000000E+00  0.00000000000E+00  0.29262950565E+03  0.10538237652E+04  0.10123796227E+04 0.  0.
        1    1    3    3  502    0  0.55790584719E+02 -0.50273443785E+03  0.12619419118E+03  0.52132473397E+03  0.50400001928E-02 0. -1.
       -1    1    3    3    0  502 -0.55790584719E+02  0.50273443785E+03  0.16643531447E+03  0.53249903124E+03  0.50400001928E-02 0.  1.
</event>
<event>
 5   0  0.3873874E-03  0.9999172E+03  0.7818609E-02  0.9308636E-01
        2   -1    0    0  501    0  0.00000000000E+00  0.00000000000E+00  0.13340501125E+04  0.13340501125E+04  0.25500000920E-02 0.  1.
       -2   -1    0    0    0  501  0.00000000000E+00  0.00000000000E+00 -0.18736821552E+03  0.18736821554E+03  0.25500000920E-02 0. -1.
    10030    2    1    2    0    0  0.00000000000E+00  0.00000000000E+00  0.11466818969E+04  0.15214183280E+04  0.99991717458E+03 0.  0.
        5    1    3    3  502    0 -0.11559143365E+03 -0.40585577122E+03  0.16547563124E+03  0.45330404928E+03  0.46999998093E+01 0. -1.
       -5    1    3    3    0  502  0.11559143365E+03  0.40585577122E+03  0.98120626571E+03  0.10681142787E+04  0.46999998093E+01 0.  1.
</event>
<event>
 5   0  0.3895011E-03  0.1000001E+04  0.7818609E-02  0.9308543E-01
        2   -1    0    0  501    0  0.00000000000E+00  0.00000000000E+00  0.88642490462E+03  0.88642490463E+03  0.25500000920E-02 0.  1.
       -2   -1    0    0    0  501  0.00000000000E+00  0.00000000000E+00 -0.28203254475E+03  0.28203254476E+03  0.25500000920E-02 0. -1.
    10030    2    1    2    0    0  0.00000000000E+00  0.00000000000E+00  0.60439235987E+03  0.11684574494E+04  0.10000013432E+04 0.  0.
        2    1    3    3  502    0  0.23770048184E+03  0.33166257657E+03 -0.35443269894E+02  0.40958248150E+03  0.25500000920E-02 0.  1.
       -2    1    3    3    0  502 -0.23770048184E+03 -0.33166257657E+03  0.63983562977E+03  0.75887496789E+03  0.25500000920E-02 0. -1.
</event>
<event>
 5   0  0.4140860E-03  0.9876570E+03  0.7818609E-02  0.9322187E-01
        2   -1    0    0  501    0  0.00000000000E+00  0.00000000000E+00  0.13552912153E+04  0.13552912153E+04  0.25500000920E-02 0.  1.
       -2   -1    0    0    0  501  0.00000000000E+00  0.00000000000E+00 -0.17993666955E+03  0.17993666956E+03  0.25500000920E-02 0. -1.
    10030    2    1    2    0    0  0.00000000000E+00  0.00000000000E+00  0.11753545458E+04  0.15352278849E+04  0.98765700031E+03 0.  0.
        3    1    3    3  502    0  0.48046273352E+03  0.16390042722E+02  0.41213509115E+03  0.63322066878E+03  0.10100000352E+00 0. -1.
       -3    1    3    3    0  502 -0.48046273352E+03 -0.16390042722E+02  0.76321945462E+03  0.90200721611E+03  0.10100000352E+00 0.  1.
</event>
<event>
 5   0  0.2350769E-03  0.9908146E+03  0.7818609E-02  0.9318677E-01
        1   -1    0    0  501    0  0.00000000000E+00  0.00000000000E+00  0.72141967910E+03  0.72141967911E+03  0.50400001928E-02 0.  1.
       -1   -1    0    0    0  501  0.00000000000E+00  0.00000000000E+00 -0.34020197668E+03  0.34020197672E+03  0.50400001928E-02 0. -1.
    10030    2    1    2    0    0  0.00000000000E+00  0.00000000000E+00  0.38121770241E+03  0.10616216558E+04  0.99081461612E+03 0.  0.
        2    1    3    3  502    0  0.20146244220E+03  0.42630397629E+03  0.35347906862E+03  0.58929589153E+03  0.25500000920E-02 0.  1.
       -2    1    3    3    0  502 -0.20146244220E+03 -0.42630397629E+03  0.27738633793E+02  0.47232576431E+03  0.25500000920E-02 0. -1.
</event>
<event>
 5   0  0.2378609E-03  0.9982564E+03  0.7818609E-02  0.9310459E-01
       -1   -1    0    0    0  501  0.00000000000E+00  0.00000000000E+00  0.65139966251E+03  0.65139966253E+03  0.50400001928E-02 0. -1.
        1   -1    0    0  501    0  0.00000000000E+00  0.00000000000E+00 -0.38245180490E+03  0.38245180494E+03  0.50400001928E-02 0.  1.
    10030    2    1    2    0    0  0.00000000000E+00  0.00000000000E+00  0.26894785760E+03  0.10338514675E+04  0.99825643332E+03 0.  0.
        1    1    3    3  502    0 -0.11241149914E+03  0.15598818027E+03  0.61150658530E+03  0.64102181040E+03  0.50400001928E-02 0. -1.
       -1    1    3    3    0  502  0.11241149914E+03 -0.15598818027E+03 -0.34255872769E+03  0.39282965706E+03  0.50400001928E-02 0.  1.
</event>
<event>
 5   0  0.4140860E-03  0.1019139E+04  0.7818609E-02  0.9287799E-01
        2   -1    0    0  501    0  0.00000000000E+00  0.00000000000E+00  0.94754881742E+03  0.94754881742E+03  0.25500000920E-02 0.  1.
       -2   -1    0    0    0  501  0.00000000000E+00  0.00000000000E+00 -0.27403464668E+03  0.27403464670E+03  0.25500000920E-02 0. -1.
    10030    2    1    2    0    0  0.00000000000E+00  0.00000000000E+00  0.67351417074E+03  0.12215834641E+04  0.10191392553E+04 0.  0.
        3    1    3    3  502    0 -0.43320892034E+03 -0.13726663358E+03  0.60421023652E+02  0.45843517279E+03  0.10100000352E+00 0. -1.
       -3    1    3    3    0  502  0.43320892034E+03  0.13726663358E+03  0.61309314708E+03  0.76314829133E+03  0.10100000352E+00 0.  1.
</event>
<event>
 5   0  0.3873874E-03  0.1007967E+04  0.7818609E-02  0.9299850E-01
        2   -1    0    0  501    0  0.00000000000E+00  0.00000000000E+00  0.19925205298E+04  0.19925205298E+04  0.25500000920E-02 0.  1.
       -2   -1    0    0    0  501  0.00000000000E+00  0.00000000000E+00 -0.12747644569E+03  0.12747644571E+03  0.25500000920E-02 0. -1.
    10030    2    1    2    0    0  0.00000000000E+00  0.00000000000E+00  0.18650440841E+04  0.21199969755E+04  0.10079671326E+04 0.  0.
        5    1    3    3  502    0 -0.17187734048E+03 -0.95281903496E+02 -0.43519381105E+02  0.20133675232E+03  0.46999998093E+01 0. -1.
       -5    1    3    3    0  502  0.17187734048E+03  0.95281903496E+02  0.19085634652E+04  0.19186602232E+04  0.46999998093E+01 0.  1.
</event>
<event>
 5   0  0.2313036E-03  0.1011214E+04  0.7818609E-02  0.9296330E-01
        1   -1    0    0  501    0  0.00000000000E+00  0.00000000000E+00  0.67975431723E+03  0.67975431724E+03  0.50400001928E-02 0.  1.
       -1   -1    0    0    0  501  0.00000000000E+00  0.00000000000E+00 -0.37607502026E+03  0.37607502030E+03  0.50400001928E-02 0. -1.
    10030    2    1    2    0    0  0.00000000000E+00  0.00000000000E+00  0.30367929696E+03  0.10558293375E+04  0.10112143564E+04 0.  0.
        3    1    3    3  502    0 -0.21386298329E+03 -0.32502843732E+03 -0.18529599299E+03  0.43094718459E+03  0.10100000352E+00 0. -1.
       -3    1    3    3    0  502  0.21386298329E+03  0.32502843732E+03  0.48897528996E+03  0.62488215295E+03  0.10100000352E+00 0.  1.
</event>
<event>
 5   0  0.2350769E-03  0.1006940E+04  0.7818609E-02  0.9300965E-01
        1   -1    0    0  501    0  0.00000000000E+00  0.00000000000E+00  0.43965121855E+03  0.43965121858E+03  0.50400001928E-02 0. -1.
       -1   -1    0    0    0  501  0.00000000000E+00  0.00000000000E+00 -0.57655285290E+03  0.57655285292E+03  0.50400001928E-02 0.  1.
    10030    2    1    2    0    0  0.00000000000E+00  0.00000000000E+00 -0.13690163435E+03  0.10162040715E+04  0.10069402452E+04 0.  0.
        2    1    3    3  502    0 -0.76631274222E+02 -0.46766301174E+03 -0.24001813638E+03  0.53121535232E+03  0.25500000920E-02 0.  1.
       -2    1    3    3    0  502  0.76631274222E+02  0.46766301174E+03  0.10311650203E+03  0.48498871919E+03  0.25500000920E-02 0. -1.
</event>
<event>
 5   0  0.2350769E-03  0.1001817E+04  0.7818609E-02  0.9306554E-01
       -1   -1    0    0    0  501  0.00000000000E+00  0.00000000000E+00  0.25541767249E+03  0.25541767254E+03  0.50400001928E-02 0. -1.
        1   -1    0    0  501    0  0.00000000000E+00  0.00000000000E+00 -0.98234995205E+03  0.98234995207E+03  0.50400001928E-02 0.  1.
    10030    2    1    2    0    0  0.00000000000E+00  0.00000000000E+00 -0.72693227956E+03  0.12377676246E+04  0.10018174252E+04 0.  0.
        2    1    3    3  502    0  0.40812477149E+03 -0.17142977579E+03 -0.73827644691E+02  0.44878114739E+03  0.25500000920E-02 0. -1.
       -2    1    3    3    0  502 -0.40812477149E+03  0.17142977579E+03 -0.65310463487E+03  0.78898647721E+03  0.25500000920E-02 0.  1.
</event>
<event>
 5   0  0.3826483E-03  0.9995901E+03  0.7818609E-02  0.9308994E-01
       -2   -1    0    0    0  501  0.00000000000E+00  0.00000000000E+00  0.41628396481E+03  0.41628396482E+03  0.25500000920E-02 0.  1.
        2   -1    0    0  501    0  0.00000000000E+00  0.00000000000E+00 -0.60005936027E+03  0.60005936028E+03  0.25500000920E-02 0. -1.
    10030    2    1    2    0    0  0.00000000000E+00  0.00000000000E+00 -0.18377539546E+03  0.10163433251E+04  0.99959009524E+03 0.  0.
        4    1    3    3  502    0 -0.11612267548E+03 -0.25785048640E+03  0.32711385653E+03  0.43240772094E+03  0.12699999809E+01 0.  1.
       -4    1    3    3    0  502  0.11612267548E+03  0.25785048640E+03 -0.51088925199E+03  0.58393560415E+03  0.12699999809E+01 0. -1.
</event>
<event>
 5   0  0.2327595E-03  0.1009679E+04  0.7818609E-02  0.9297992E-01
        1   -1    0    0  501    0  0.00000000000E+00  0.00000000000E+00  0.11992274937E+04  0.11992274937E+04  0.50400001928E-02 0. -1.
       -1   -1    0    0    0  501  0.00000000000E+00  0.00000000000E+00 -0.21252251379E+03  0.21252251385E+03  0.50400001928E-02 0.  1.
    10030    2    1    2    0    0  0.00000000000E+00  0.00000000000E+00  0.98670497995E+03  0.14117500076E+04  0.10096788432E+04 0.  0.
        5    1    3    3  502    0  0.13762663275E+03  0.34987884751E+03  0.22328824099E+02  0.37666558691E+03  0.46999998093E+01 0.  1.
       -5    1    3    3    0  502 -0.13762663275E+03 -0.34987884751E+03  0.96437615585E+03  0.10350844207E+04  0.46999998093E+01 0. -1.
</event>
<event>
 5   0  0.3873874E-03  0.9987595E+03  0.7818609E-02  0.9309906E-01
       -2   -1    0    0    0  501  0.00000000000E+00  0.00000000000E+00  0.29690700157E+03  0.29690700158E+03  0.25500000920E-02 0. -1.
        2   -1    0    0  501    0  0.00000000000E+00  0.00000000000E+00 -0.83992679192E+03  0.83992679193E+03  0.25500000920E-02 0.  1.
    10030    2    1    2    0    0  0.00000000000E+00  0.00000000000E+00 -0.54301979035E+03  0.11368337935E+04  0.99875952128E+03 0.  0.
        5    1    3    3  502    0 -0.10791393129E+03  0.21193727395E+03 -0.77129600915E+03  0.80714462668E+03  0.46999998093E+01 0.  1.
       -5    1    3    3    0  502  0.10791393129E+03 -0.21193727395E+03  0.22827621880E+03  0.32968916682E+03  0.46999998093E+01 0. -1.
</event>
<event>
 5   0  0.2350769E-03  0.1011981E+04  0.7818609E-02  0.9295501E-01
       -1   -1    0    0    0  501  0.00000000000E+00  0.00000000000E+00  0.29971515137E+03  0.29971515141E+03  0.50400001928E-02 0. -1.
        1   -1    0    0  501    0  0.00000000000E+00  0.00000000000E+00 -0.85423187996E+03  0.85423187997E+03  0.50400001928E-02 0.  1.
    10030    2    1    2    0    0  0.00000000000E+00  0.00000000000E+00 -0.55451672859E+03  0.11539470314E+04  0.10119807058E+04 0.  0.
        2    1    3    3  502    0 -0.30654602053E+03 -0.32171145687E+03 -0.13245313197E+01  0.44437650543E+03  0.25500000920E-02 0. -1.
       -2    1    3    3    0  502  0.30654602053E+03  0.32171145687E+03 -0.55319219727E+03  0.70957052596E+03  0.25500000920E-02 0.  1.
</event>
<event>
 5   0  0.4026829E-03  0.9699898E+03  0.7818609E-02  0.9342086E-01
       -2   -1    0    0    0  501  0.00000000000E+00  0.00000000000E+00  0.41305126502E+03  0.41305126503E+03  0.25500000920E-02 0. -1.
        2   -1    0    0  501    0  0.00000000000E+00  0.00000000000E+00 -0.56946943839E+03  0.56946943840E+03  0.25500000920E-02 0.  1.
    10030    2    1    2    0    0  0.00000000000E+00  0.00000000000E+00 -0.15641817337E+03  0.98252070342E+03  0.96998983896E+03 0.  0.
        1    1    3    3  502    0  0.58092068891E+02  0.30226558031E+03 -0.45785888173E+03  0.55170093811E+03  0.50400001928E-02 0.  1.
       -1    1    3    3    0  502 -0.58092068891E+02 -0.30226558031E+03  0.30144070835E+03  0.43081976532E+03  0.50400001928E-02 0. -1.
</event>
<event>
 5   0  0.2327595E-03  0.9848399E+03  0.7818609E-02  0.9325330E-01
        1   -1    0    0  501    0  0.00000000000E+00  0.00000000000E+00  0.14402949577E+04  0.14402949577E+04  0.50400001928E-02 0. -1.
       -1   -1    0    0    0  501  0.00000000000E+00  0.00000000000E+00 -0.16835259936E+03  0.16835259943E+03  0.50400001928E-02 0.  1.
    10030    2    1    2    0    0  0.00000000000E+00  0.00000000000E+00  0.12719423583E+04  0.16086475571E+04  0.98483988554E+03 0.  0.
        5    1    3    3  502    0  0.11893929724E+03  0.39493437649E+03  0.10752813868E+04  0.11516821910E+04  0.46999998093E+01 0. -1.
       -5    1    3    3    0  502 -0.11893929724E+03 -0.39493437649E+03  0.19666097153E+03  0.45696536618E+03  0.46999998093E+01 0.  1.
</event>
<event>
 5   0  0.1548000E-03  0.9996539E+03  0.7818609E-02  0.9308924E-01
       -4   -1    0    0    0  501  0.00000000000E+00  0.00000000000E+00  0.48682562912E+03  0.48682728567E+03  0.12699999809E+01 0.  1.
        4   -1    0    0  501    0  0.00000000000E+00  0.00000000000E+00 -0.51317217494E+03  0.51317374644E+03  0.12699999809E+01 0. -1.
    10030    2    1    2    0    0  0.00000000000E+00  0.00000000000E+00 -0.26346545821E+02  0.10000010321E+04  0.99965390197E+03 0.  0.
        1    1    3    3  502    0 -0.48852019754E+03 -0.99057831910E+02 -0.50098736971E+02  0.50097337348E+03  0.50400001928E-02 0.  1.
       -1    1    3    3    0  502  0.48852019754E+03  0.99057831910E+02  0.23752191150E+02  0.49902765863E+03  0.50400001928E-02 0. -1.
</event>
<event>
 5   0  0.3895011E-03  0.9703429E+03  0.7818609E-02  0.9341684E-01
       -2   -1    0    0    0  501  0.00000000000E+00  0.00000000000E+00  0.18101270352E+03  0.18101270354E+03  0.25500000920E-02 0. -1.
        2   -1    0    0  501    0  0.00000000000E+00  0.00000000000E+00 -0.13004132144E+04  0.13004132144E+04  0.25500000920E-02 0.  1.
    10030    2    1    2    0    0  0.00000000000E+00  0.00000000000E+00 -0.11194005109E+04  0.14814259179E+04  0.97034285003E+03 0.  0.
        2    1    3    3  502    0  0.22598326551E+03 -0.29924383967E+03 -0.10297068112E+04  0.10958610445E+04  0.25500000920E-02 0.  1.
       -2    1    3    3    0  502 -0.22598326551E+03  0.29924383967E+03 -0.89693699722E+02  0.38556487346E+03  0.25500000920E-02 0. -1.
</event>
<event>
 5   0  0.3895011E-03  0.9993142E+03  0.7818609E-02  0.9309297E-01
       -2   -1    0    0    0  501  0.00000000000E+00  0.00000000000E+00  0.53105248455E+03  0.53105248455E+03  0.25500000920E-02 0. -1.
        2   -1    0    0  501    0  0.00000000000E+00  0.00000000000E+00 -0.47011778410E+03  0.47011778410E+03  0.25500000920E-02 0.  1.
    10030    2    1    2    0    0  0.00000000000E+00  0.00000000000E+00  0.60934700451E+02  0.10011702687E+04  0.99931419940E+03 0.  0.
        2    1    3    3  502    0 -0.25832234495E+03  0.42421585894E+03  0.85045025749E+02  0.50390692125E+03  0.25500000920E-02 0. -1.
       -2    1    3    3    0  502  0.25832234495E+03 -0.42421585894E+03 -0.24110325298E+02  0.49726334740E+03  0.25500000920E-02 0.  1.
</event>
<event>
 5   0  0.3826483E-03  0.9650614E+03  0.7818609E-02  0.9347717E-01
        2   -1    0    0  501    0  0.00000000000E+00  0.00000000000E+00  0.29991532702E+04  0.29991532702E+04  0.25500000920E-02 0. -1.
       -2   -1    0    0    0  501  0.00000000000E+00  0.00000000000E+00 -0.77633866947E+02  0.77633866989E+02  0.25500000920E-02 0.  1.
    10030    2    1    2    0    0  0.00000000000E+00  0.00000000000E+00  0.29215194032E+04  0.30767871372E+04  0.96506137835E+03 0.  0.
        4    1    3    3  502    0 -0.27638296646E+03 -0.24974545048E+03  0.48289868296E+03  0.60987956605E+03  0.12699999809E+01 0.  1.
       -4    1    3    3    0  502  0.27638296646E+03  0.24974545048E+03  0.24386207203E+04  0.24669075711E+04  0.12699999809E+01 0. -1.
</event>
<event>
 5   0  0.3895011E-03  0.9988919E+03  0.7818609E-02  0.9309761E-01
       -2   -1    0    0    0  501  0.00000000000E+00  0.00000000000E+00  0.16123909220E+03  0.16123909222E+03  0.25500000920E-02 0. -1.
        2   -1    0    0  501    0  0.00000000000E+00  0.00000000000E+00 -0.15470583262E+04  0.15470583262E+04  0.25500000920E-02 0.  1.
    10030    2    1    2    0    0  0.00000000000E+00  0.00000000000E+00 -0.13858192340E+04  0.17082974184E+04  0.99889194632E+03 0.  0.
        2    1    3    3  502    0  0.47544710149E+02  0.32702659946E+03 -0.13333518609E+04  0.13736935908E+04  0.25500000920E-02 0.  1.
       -2    1    3    3    0  502 -0.47544710149E+02 -0.32702659946E+03 -0.52467373020E+02  0.33460382762E+03  0.25500000920E-02 0. -1.
</event>
<event>
 5   0  0.3895011E-03  0.1000724E+04  0.7818609E-02  0.9307752E-01
       -2   -1    0    0    0  501  0.00000000000E+00  0.00000000000E+00  0.67715930788E+03  0.67715930789E+03  0.25500000920E-02 0. -1.
        2   -1    0    0  501    0  0.00000000000E+00  0.00000000000E+00 -0.36972380427E+03  0.36972380428E+03  0.25500000920E-02 0.  1.
    10030    2    1    2    0    0  0.00000000000E+00  0.00000000000E+00  0.30743550361E+03  0.10468831122E+04  0.10007235691E+04 0.  0.
        2    1    3    3  502    0 -0.37304948915E+03 -0.22650756963E+03 -0.10229545176E+03  0.44825880908E+03  0.25500000920E-02 0.  1.
       -2    1    3    3    0  502  0.37304948915E+03  0.22650756963E+03  0.40973095537E+03  0.59862430309E+03  0.25500000920E-02 0. -1.
</event>
<event>
 5   0  0.4140860E-03  0.9985285E+03  0.7818609E-02  0.9310160E-01
       -2   -1    0    0    0  501  0.00000000000E+00  0.00000000000E+00  0.27123535015E+03  0.27123535017E+03  0.25500000920E-02 0.  1.
        2   -1    0    0  501    0  0.00000000000E+00  0.00000000000E+00 -0.91899818389E+03  0.91899818389E+03  0.25500000920E-02 0. -1.
    10030    2    1    2    0    0  0.00000000000E+00  0.00000000000E+00 -0.64776283373E+03  0.11902335341E+04  0.99852850577E+03 0.  0.
        3    1    3    3  502    0 -0.16712006743E+03 -0.39709642625E+03 -0.62460760110E+03  0.75878149307E+03  0.10100000352E+00 0. -1.
       -3    1    3    3    0  502  0.16712006743E+03  0.39709642625E+03 -0.23155232639E+02  0.43145204099E+03  0.10100000352E+00 0.  1.
</event>
<event>
 5   0  0.2350769E-03  0.1001108E+04  0.7818609E-02  0.9307331E-01
       -1   -1    0    0    0  501  0.00000000000E+00  0.00000000000E+00  0.10846418867E+03  0.10846418879E+03  0.50400001928E-02 0.  1.
        1   -1    0    0  501    0  0.00000000000E+00  0.00000000000E+00 -0.23100171567E+04  0.23100171567E+04  0.50400001928E-02 0. -1.
    10030    2    1    2    0    0  0.00000000000E+00  0.00000000000E+00 -0.22015529681E+04  0.24184813455E+04  0.10011076603E+04 0.  0.
        2    1    3    3  502    0  0.27448707004E+03 -0.24830951107E+03 -0.19148469047E+04  0.19502921405E+04  0.25500000920E-02 0. -1.
       -2    1    3    3    0  502 -0.27448707004E+03  0.24830951107E+03 -0.28670606335E+03  0.46818920500E+03  0.25500000920E-02 0.  1.
</event>
<event>
 5   0  0.2378609E-03  0.9985535E+03  0.7818609E-02  0.9310133E-01
        1   -1    0    0  501    0  0.00000000000E+00  0.00000000000E+00  0.11390012655E+04  0.11390012655E+04  0.50400001928E-02 0. -1.
       -1   -1    0    0    0  501  0.00000000000E+00  0.00000000000E+00 -0.21885599088E+03  0.21885599094E+03  0.50400001928E-02 0.  1.
    10030    2    1    2    0    0  0.00000000000E+00  0.00000000000E+00  0.92014527466E+03  0.13578572565E+04  0.99855345500E+03 0.  0.
        1    1    3    3  502    0  0.20666551809E+03  0.26157483516E+03 -0.45345391684E+02  0.33643459295E+03  0.50400001928E-02 0.  1.
       -1    1    3    3    0  502 -0.20666551809E+03 -0.26157483516E+03  0.96549066634E+03  0.10214226635E+04  0.50400001928E-02 0. -1.
</event>
<event>
 5   0  0.2313036E-03  0.1010750E+04  0.7818609E-02  0.9296832E-01
       -1   -1    0    0    0  501  0.00000000000E+00  0.00000000000E+00  0.33968072817E+03  0.33968072821E+03  0.50400001928E-02 0.  1.
        1   -1    0    0  501    0  0.00000000000E+00  0.00000000000E+00 -0.75189435867E+03  0.75189435869E+03  0.50400001928E-02 0. -1.
    10030    2    1    2    0    0  0.00000000000E+00  0.00000000000E+00 -0.41221363050E+03  0.10915750869E+04  0.10107502625E+04 0.  0.
        3    1    3    3  502    0 -0.58625388036E+02  0.16305806109E+03  0.30659707947E+03  0.35217417104E+03  0.10100000352E+00 0.  1.
       -3    1    3    3    0  502  0.58625388036E+02 -0.16305806109E+03 -0.71881070996E+03  0.73940091586E+03  0.10100000352E+00 0. -1.
</event>
<event>
 5   0  0.1548000E-03  0.1004317E+04  0.7818609E-02  0.9303823E-01
       -3   -1    0    0    0  501  0.00000000000E+00  0.00000000000E+00  0.96451776421E+03  0.96451776950E+03  0.10100000352E+00 0. -1.
        3   -1    0    0  501    0  0.00000000000E+00  0.00000000000E+00 -0.26143939716E+03  0.26143941667E+03  0.10100000352E+00 0.  1.
    10030    2    1    2    0    0  0.00000000000E+00  0.00000000000E+00  0.70307836705E+03  0.12259571862E+04  0.10043165995E+04 0.  0.
        5    1    3    3  502    0  0.38429611693E+03 -0.81044551788E+02  0.73345876555E+03  0.83200695647E+03  0.46999998093E+01 0. -1.
       -5    1    3    3    0  502 -0.38429611693E+03  0.81044551788E+02 -0.30380398501E+02  0.39395022969E+03  0.46999998093E+01 0.  1.
</event>
<event>
 5   0  0.2350769E-03  0.9867336E+03  0.7818609E-02  0.9323216E-01
        1   -1    0    0  501    0  0.00000000000E+00  0.00000000000E+00  0.83742690832E+03  0.83742690834E+03  0.50400001928E-02 0.  1.
       -1   -1    0    0    0  501  0.00000000000E+00  0.00000000000E+00 -0.29066512288E+03  0.29066512292E+03  0.50400001928E-02 0. -1.
    10030    2    1    2    0    0  0.00000000000E+00  0.00000000000E+00  0.54676178544E+03  0.11280920313E+04  0.98673359169E+03 0.  0.
        2    1    3    3  502    0 -0.23144480594E+03 -0.73884019456E+02  0.76429747819E+03  0.80198265674E+03  0.25500000920E-02 0.  1.
       -2    1    3    3    0  502  0.23144480594E+03  0.73884019456E+02 -0.21753569275E+03  0.32610937453E+03  0.25500000920E-02 0. -1.
</event>
<event>
 5   0  0.2378609E-03  0.1005605E+04  0.7818609E-02  0.9302419E-01
        1   -1    0    0  501    0  0.00000000000E+00  0.00000000000E+00  0.49485012384E+03  0.49485012387E+03  0.50400001928E-02 0.  1.
       -1   -1    0    0    0  501  0.00000000000E+00  0.00000000000E+00 -0.51088223670E+03  0.51088223673E+03  0.50400001928E-02 0. -1.
    10030    2    1    2    0    0  0.00000000000E+00  0.00000000000E+00 -0.16032112860E+02  0.10057323606E+04  0.10056045706E+04 0.  0.
        1    1    3    3  502    0  0.45490055056E+03 -0.53267554358E+02 -0.21549890858E+03  0.50617360942E+03  0.50400001928E-02 0. -1.
       -1    1    3    3    0  502 -0.45490055056E+03  0.53267554358E+02  0.19946679572E+03  0.49955875117E+03  0.50400001928E-02 0.  1.
</event>
<event>
 5   0  0.3826483E-03  0.1012987E+04  0.7818609E-02  0.9294415E-01
        2   -1    0    0  501    0  0.00000000000E+00  0.00000000000E+00  0.14518020359E+04  0.14518020359E+04  0.25500000920E-02 0. -1.
       -2   -1    0    0    0  501  0.00000000000E+00  0.00000000000E+00 -0.17670149308E+03  0.17670149310E+03  0.25500000920E-02 0.  1.
    10030    2    1    2    0    0  0.00000000000E+00  0.00000000000E+00  0.12751005428E+04  0.16285035290E+04  0.10129868458E+04 0.  0.
        4    1    3    3  502    0  0.40041586889E+03 -0.27686950606E+03  0.41280224775E+03  0.63827650755E+03  0.12699999809E+01 0.  1.
       -4    1    3    3    0  502 -0.40041586889E+03  0.27686950606E+03  0.86229829509E+03  0.99022702147E+03  0.12699999809E+01 0. -1.
</event>
<event>
 5   0  0.3826483E-03  0.1004079E+04  0.7818609E-02  0.9304082E-01
        2   -1    0    0  501    0  0.00000000000E+00  0.00000000000E+00  0.69471730767E+03  0.69471730768E+03  0.25500000920E-02 0. -1.
       -2   -1    0    0    0  501  0.00000000000E+00  0.00000000000E+00 -0.36280030067E+03  0.36280030068E+03  0.25500000920E-02 0.  1.
    10030    2    1    2    0    0  0.00000000000E+00  0.00000000000E+00  0.33191700700E+03  0.10575176084E+04  0.10040789772E+04 0.  0.
        4    1    3    3  502    0  0.37353558342E+03 -0.26946867167E+03 -0.44421907900E+02  0.46272790698E+03  0.12699999809E+01 0.  1.
       -4    1    3    3    0  502 -0.37353558342E+03  0.26946867167E+03  0.37633891490E+03  0.59478970138E+03  0.12699999809E+01 0. -1.
</event>
<event>
 5   0  0.3895011E-03  0.1011824E+04  0.7818609E-02  0.9295670E-01
        2   -1    0    0  501    0  0.00000000000E+00  0.00000000000E+00  0.14958698455E+04  0.14958698455E+04  0.25500000920E-02 0.  1.
       -2   -1    0    0    0  501  0.00000000000E+00  0.00000000000E+00 -0.17110252158E+03  0.17110252160E+03  0.25500000920E-02 0. -1.
    10030    2    1    2    0    0  0.00000000000E+00  0.00000000000E+00  0.13247673240E+04  0.16669723671E+04  0.10118242981E+04 0.  0.
        2    1    3    3  502    0  0.34191030761E+03  0.66251930659E+02  0.12669371640E+04  0.13139336948E+04  0.25500000920E-02 0.  1.
       -2    1    3    3    0  502 -0.34191030761E+03 -0.66251930659E+02  0.57830159943E+02  0.35303867234E+03  0.25500000920E-02 0. -1.
</event>
<event>
 5   0  0.2327595E-03  0.1016522E+04  0.7818609E-02  0.9290607E-01
       -1   -1    0    0    0  501  0.00000000000E+00  0.00000000000E+00  0.57334987438E+03  0.57334987440E+03  0.50400001928E-02 0. -1.
        1   -1    0    0  501    0  0.00000000000E+00  0.00000000000E+00 -0.45056117693E+03  0.45056117696E+03  0.50400001928E-02 0.  1.
    10030    2    1    2    0    0  0.00000000000E+00  0.00000000000E+00  0.12278869745E+03  0.10239110514E+04  0.10165219018E+04 0.  0.
        5    1    3    3  502    0  0.95046194465E+02 -0.72218011893E+02 -0.43621887266E+03  0.45228112407E+03  0.46999998093E+01 0.  1.
       -5    1    3    3    0  502 -0.95046194465E+02  0.72218011893E+02  0.55900757012E+03  0.57162992729E+03  0.46999998093E+01 0. -1.
</event>
<event>
 5   0  0.2405022E-03  0.1003929E+04  0.7818609E-02  0.9304247E-01
       -1   -1    0    0    0  501  0.00000000000E+00  0.00000000000E+00  0.29505188013E+03  0.29505188018E+03  0.50400001928E-02 0. -1.
        1   -1    0    0  501    0  0.00000000000E+00  0.00000000000E+00 -0.85397906302E+03  0.85397906304E+03  0.50400001928E-02 0.  1.
    10030    2    1    2    0    0  0.00000000000E+00  0.00000000000E+00 -0.55892718289E+03  0.11490309432E+04  0.10039285396E+04 0.  0.
        4    1    3    3  502    0  0.33711437804E+03  0.23058366780E+03 -0.61344730417E+03  0.73697634943E+03  0.12699999809E+01 0.  1.
       -4    1    3    3    0  502 -0.33711437804E+03 -0.23058366780E+03  0.54520121278E+02  0.41205459378E+03  0.12699999809E+01 0. -1.
</event>
<event>
 5   0  0.2313036E-03  0.9987140E+03  0.7818609E-02  0.9309956E-01
        1   -1    0    0  501    0  0.00000000000E+00  0.00000000000E+00  0.44602829433E+03  0.44602829436E+03  0.50400001928E-02 0. -1.
       -1   -1    0    0    0  501  0.00000000000E+00  0.00000000000E+00 -0.55906188706E+03  0.55906188708E+03  0.50400001928E-02 0.  1.
    10030    2    1    2    0    0  0.00000000000E+00  0.00000000000E+00 -0.11303359273E+03  0.10050901814E+04  0.99871401298E+03 0.  0.
        3    1    3    3  502    0  0.30071112935E+02  0.77711215936E+02  0.43898225769E+03  0.44682069970E+03  0.10100000352E+00 0. -1.
       -3    1    3    3    0  502 -0.30071112935E+02 -0.77711215936E+02 -0.55201585042E+03  0.55826948173E+03  0.10100000352E+00 0.  1.
</event>
<event>
 5   0  0.1548000E-03  0.1005531E+04  0.7818609E-02  0.9302499E-01
       -3   -1    0    0    0  501  0.00000000000E+00  0.00000000000E+00  0.87266965685E+03  0.87266966270E+03  0.10100000352E+00 0. -1.
        3   -1    0    0  501    0  0.00000000000E+00  0.00000000000E+00 -0.28965496372E+03  0.28965498133E+03  0.10100000352E+00 0.  1.
    10030    2    1    2    0    0  0.00000000000E+00  0.00000000000E+00  0.58301469313E+03  0.11623246440E+04  0.10055309273E+04 0.  0.
        3    1    3    3  502    0 -0.27354820211E+03 -0.41917060641E+03  0.34622192286E+03  0.60860680758E+03  0.10100000352E+00 0. -1.
       -3    1    3    3    0  502  0.27354820211E+03  0.41917060641E+03  0.23679277027E+03  0.55371783645E+03  0.10100000352E+00 0.  1.
</event>
<event>
 5   0  0.2405022E-03  0.9972375E+03  0.7818609E-02  0.9311580E-01
        1   -1    0    0  501    0  0.00000000000E+00  0.00000000000E+00  0.11134590332E+04  0.11134590332E+04  0.50400001928E-02 0.  1.
       -1   -1    0    0    0  501  0.00000000000E+00  0.00000000000E+00 -0.22328675911E+03  0.22328675917E+03  0.50400001928E-02 0. -1.
    10030    2    1    2    0    0  0.00000000000E+00  0.00000000000E+00  0.89017227413E+03  0.13367457924E+04  0.99723750226E+03 0.  0.
        4    1    3    3  502    0  0.13721491431E+03  0.22728500893E+03 -0.12066048992E+03  0.29162814460E+03  0.12699999809E+01 0. -1.
       -4    1    3    3    0  502 -0.13721491431E+03 -0.22728500893E+03  0.10108327640E+04  0.10451176478E+04  0.12699999809E+01 0.  1.
</event>
<event>
 5   0  0.2350769E-03  0.1004860E+04  0.7818609E-02  0.9303231E-01
       -1   -1    0    0    0  501  0.00000000000E+00  0.00000000000E+00  0.14955133959E+03  0.14955133967E+03  0.50400001928E-02 0.  1.
        1   -1    0    0  501    0  0.00000000000E+00  0.00000000000E+00 -0.16879542892E+04  0.16879542892E+04  0.50400001928E-02 0. -1.
    10030    2    1    2    0    0  0.00000000000E+00  0.00000000000E+00 -0.15384029496E+04  0.18375056289E+04  0.10048598414E+04 0.  0.
        2    1    3    3  502    0 -0.23356860484E+03  0.28827282358E+03 -0.14967925578E+03  0.40007423511E+03  0.25500000920E-02 0.  1.
       -2    1    3    3    0  502  0.23356860484E+03 -0.28827282358E+03 -0.13887236939E+04  0.14374313938E+04  0.25500000920E-02 0. -1.
</event>
<event>
 5   0  0.4026829E-03  0.9978657E+03  0.7818609E-02  0.9310889E-01
       -2   -1    0    0    0  501  0.00000000000E+00  0.00000000000E+00  0.22297270195E+03  0.22297270196E+03  0.25500000920E-02 0.  1.
        2   -1    0    0  501    0  0.00000000000E+00  0.00000000000E+00 -0.11164326320E+04  0.11164326320E+04  0.25500000920E-02 0. -1.
    10030    2    1    2    0    0  0.00000000000E+00  0.00000000000E+00 -0.89345993006E+03  0.13394053340E+04  0.99786572345E+03 0.  0.
        1    1    3    3  502    0 -0.23858942968E+03 -0.42884768131E+03 -0.56752495895E+03  0.75027983365E+03  0.50400001928E-02 0.  1.
       -1    1    3    3    0  502  0.23858942968E+03  0.42884768131E+03 -0.32593497111E+03  0.58912550032E+03  0.50400001928E-02 0. -1.
</event>
<event>
 5   0  0.3895011E-03  0.9923789E+03  0.7818609E-02  0.9316943E-01
        2   -1    0    0  501    0  0.00000000000E+00  0.00000000000E+00  0.28229778025E+03  0.28229778026E+03  0.25500000920E-02 0.  1.
       -2   -1    0    0    0  501  0.00000000000E+00  0.00000000000E+00 -0.87214278590E+03  0.87214278590E+03  0.25500000920E-02 0. -1.
    10030    2    1    2    0    0  0.00000000000E+00  0.00000000000E+00 -0.58984500565E+03  0.11544405662E+04  0.99237890451E+03 0.  0.
        2    1    3    3  502    0  0.68521180039E+02  0.30774639554E+03 -0.74063881402E+03  0.80495269981E+03  0.25500000920E-02 0. -1.
       -2    1    3    3    0  502 -0.68521180039E+02 -0.30774639554E+03  0.15079380837E+03  0.34948786636E+03  0.25500000920E-02 0.  1.
</event>
<event>
 5   0  0.4140860E-03  0.9972454E+03  0.7818609E-02  0.9311571E-01
       -2   -1    0    0    0  501  0.00000000000E+00  0.00000000000E+00  0.20536069937E+03  0.20536069938E+03  0.25500000920E-02 0.  1.
        2   -1    0    0  501    0  0.00000000000E+00  0.00000000000E+00 -0.12106727492E+04  0.12106727492E+04  0.25500000920E-02 0. -1.
    10030    2    1    2    0    0  0.00000000000E+00  0.00000000000E+00 -0.10053120498E+04  0.14160334486E+04  0.99724541111E+03 0.  0.
        3    1    3    3  502    0 -0.12189330559E+03 -0.45865974384E+03 -0.71985585261E+03  0.86221760438E+03  0.10100000352E+00 0. -1.
       -3    1    3    3    0  502  0.12189330559E+03  0.45865974384E+03 -0.28545619723E+03  0.55381584421E+03  0.10100000352E+00 0.  1.
</event>
<event>
 5   0  0.3873874E-03  0.1031790E+04  0.7818609E-02  0.9274349E-01
        2   -1    0    0  501    0  0.00000000000E+00  0.00000000000E+00  0.13824923376E+04  0.13824923376E+04  0.25500000920E-02 0. -1.
       -2   -1    0    0    0  501  0.00000000000E+00  0.00000000000E+00 -0.19251290890E+03  0.19251290892E+03  0.25500000920E-02 0.  1.
    10030    2    1    2    0    0  0.00000000000E+00  0.00000000000E+00  0.11899794287E+04  0.15750052465E+04  0.10317899427E+04 0.  0.
        5    1    3    3  502    0 -0.11245595948E+03 -0.34466091460E+03  0.34774066618E+02  0.36423730531E+03  0.46999998093E+01 0. -1.
       -5    1    3    3    0  502  0.11245595948E+03  0.34466091460E+03  0.11552053621E+04  0.12107679412E+04  0.46999998093E+01 0.  1.
</event>
<event>
 5   0  0.2327595E-03  0.1007655E+04  0.7818609E-02  0.9300189E-01
       -1   -1    0    0    0  501  0.00000000000E+00  0.00000000000E+00  0.42141724033E+03  0.42141724036E+03  0.50400001928E-02 0.  1.
        1   -1    0    0  501    0  0.00000000000E+00  0.00000000000E+00 -0.60235316669E+03  0.60235316671E+03  0.50400001928E-02 0. -1.
    10030    2    1    2    0    0  0.00000000000E+00  0.00000000000E+00 -0.18093592636E+03  0.10237704071E+04  0.10076547211E+04 0.  0.
        5    1    3    3  502    0 -0.45196122708E+03 -0.21904819006E+03 -0.13071026077E+03  0.51899742063E+03  0.46999998093E+01 0. -1.
       -5    1    3    3    0  502  0.45196122708E+03  0.21904819006E+03 -0.50225665593E+02  0.50477298643E+03  0.46999998093E+01 0.  1.
</event>
<event>
 5   0  0.2350769E-03  0.1032545E+04  0.7818609E-02  0.9273553E-01
        1   -1    0    0  501    0  0.00000000000E+00  0.00000000000E+00  0.11962490380E+04  0.11962490381E+04  0.50400001928E-02 0.  1.
       -1   -1    0    0    0  501  0.00000000000E+00  0.00000000000E+00 -0.22281089507E+03  0.22281089513E+03  0.50400001928E-02 0. -1.
    10030    2    1    2    0    0  0.00000000000E+00  0.00000000000E+00  0.97343814297E+03  0.14190599332E+04  0.10325450478E+04 0.  0.
        2    1    3    3  502    0 -0.15628488516E+03 -0.40867472327E+03  0.86333957638E+03  0.96788182074E+03  0.25500000920E-02 0.  1.
       -2    1    3    3    0  502  0.15628488516E+03  0.40867472327E+03  0.11009856659E+03  0.45117811244E+03  0.25500000920E-02 0. -1.
</event>
<event>
 5   0  0.2327595E-03  0.9781428E+03  0.7818609E-02  0.9332848E-01
       -1   -1    0    0    0  501  0.00000000000E+00  0.00000000000E+00  0.13988352075E+03  0.13988352084E+03  0.50400001928E-02 0.  1.
        1   -1    0    0  501    0  0.00000000000E+00  0.00000000000E+00 -0.17099286708E+04  0.17099286708E+04  0.50400001928E-02 0. -1.
    10030    2    1    2    0    0  0.00000000000E+00  0.00000000000E+00 -0.15700451500E+04  0.18498121916E+04  0.97814281737E+03 0.  0.
        5    1    3    3  502    0 -0.37325980060E+02  0.42963159848E+03 -0.34885899467E+03  0.55470823625E+03  0.46999998093E+01 0.  1.
       -5    1    3    3    0  502  0.37325980060E+02 -0.42963159848E+03 -0.12211861553E+04  0.12951039554E+04  0.46999998093E+01 0. -1.
</event>
<event>
 5   0  0.3895011E-03  0.1020200E+04  0.7818609E-02  0.9286663E-01
        2   -1    0    0  501    0  0.00000000000E+00  0.00000000000E+00  0.16146272988E+04  0.16146272988E+04  0.25500000920E-02 0. -1.
       -2   -1    0    0    0  501  0.00000000000E+00  0.00000000000E+00 -0.16115304840E+03  0.16115304842E+03  0.25500000920E-02 0.  1.
    10030    2    1    2    0    0  0.00000000000E+00  0.00000000000E+00  0.14534742504E+04  0.17757803472E+04  0.10202001985E+04 0.  0.
        2    1    3    3  502    0 -0.48622498133E+03  0.42256457561E+02  0.98492310635E+03  0.10992151137E+04  0.25500000920E-02 0. -1.
       -2    1    3    3    0  502  0.48622498133E+03 -0.42256457561E+02  0.46855114407E+03  0.67656523358E+03  0.25500000920E-02 0.  1.
</event>
<event>
 5   0  0.4026829E-03  0.9978050E+03  0.7818609E-02  0.9310955E-01
        2   -1    0    0  501    0  0.00000000000E+00  0.00000000000E+00  0.76321668796E+03  0.76321668797E+03  0.25500000920E-02 0. -1.
       -2   -1    0    0    0  501  0.00000000000E+00  0.00000000000E+00 -0.32612457654E+03  0.32612457655E+03  0.25500000920E-02 0.  1.
    10030    2    1    2    0    0  0.00000000000E+00  0.00000000000E+00  0.43709211142E+03  0.10893412645E+04  0.99780502941E+03 0.  0.
        1    1    3    3  502    0  0.33412765129E+03 -0.36944604448E+03  0.24888088431E+03  0.55684231318E+03  0.50400001928E-02 0. -1.
       -1    1    3    3    0  502 -0.33412765129E+03  0.36944604448E+03  0.18821122711E+03  0.53249895134E+03  0.50400001928E-02 0.  1.
</event>
<event>
 5   0  0.4026829E-03  0.9976699E+03  0.7818609E-02  0.9311104E-01
       -2   -1    0    0    0  501  0.00000000000E+00  0.00000000000E+00  0.19656061054E+03  0.19656061056E+03  0.25500000920E-02 0.  1.
        2   -1    0    0  501    0  0.00000000000E+00  0.00000000000E+00 -0.12659520244E+04  0.12659520244E+04  0.25500000920E-02 0. -1.
    10030    2    1    2    0    0  0.00000000000E+00  0.00000000000E+00 -0.10693914139E+04  0.14625126350E+04  0.99766989100E+03 0.  0.
        1    1    3    3  502    0 -0.13688422930E+03 -0.30391259002E+03 -0.10787430929E+04  0.11290645753E+04  0.50400001928E-02 0. -1.
       -1    1    3    3    0  502  0.13688422930E+03  0.30391259002E+03  0.93516790249E+01  0.33344805972E+03  0.50400001928E-02 0.  1.
</event>
<event>
 5   0  0.4140860E-03  0.1008006E+04  0.7818609E-02  0.9299807E-01
        2   -1    0    0  501    0  0.00000000000E+00  0.00000000000E+00  0.52508653112E+03  0.52508653113E+03  0.25500000920E-02 0. -1.
       -2   -1    0    0    0  501  0.00000000000E+00  0.00000000000E+00 -0.48376587445E+03  0.48376587446E+03  0.25500000920E-02 0.  1.
    10030    2    1    2    0    0  0.00000000000E+00  0.00000000000E+00  0.41320656669E+02  0.10088524056E+04  0.10080058430E+04 0.  0.
        3    1    3    3  502    0  0.63416035308E+02  0.24830362957E+03 -0.41368876690E+03  0.48663609818E+03  0.10100000352E+00 0.  1.
       -3    1    3    3    0  502 -0.63416035308E+02 -0.24830362957E+03  0.45500942356E+03  0.52221630741E+03  0.10100000352E+00 0. -1.
</event>
<event>
 5   0  0.2405022E-03  0.1002302E+04  0.7818609E-02  0.9306024E-01
       -1   -1    0    0    0  501  0.00000000000E+00  0.00000000000E+00  0.13783153378E+03  0.13783153387E+03  0.50400001928E-02 0. -1.
        1   -1    0    0  501    0  0.00000000000E+00  0.00000000000E+00 -0.18221690607E+04  0.18221690608E+04  0.50400001928E-02 0.  1.
    10030    2    1    2    0    0  0.00000000000E+00  0.00000000000E+00 -0.16843375270E+04  0.19600005946E+04  0.10023020633E+04 0.  0.
        4    1    3    3  502    0 -0.29535910759E+03 -0.36845694198E+03 -0.51405712181E+03  0.69803571393E+03  0.12699999809E+01 0.  1.
       -4    1    3    3    0  502  0.29535910759E+03  0.36845694198E+03 -0.11702804052E+04  0.12619648807E+04  0.12699999809E+01 0. -1.
</event>
<event>
 5   0  0.4140860E-03  0.9751139E+03  0.7818609E-02  0.9336269E-01
       -2   -1    0    0    0  501  0.00000000000E+00  0.00000000000E+00  0.39982102576E+03  0.39982102577E+03  0.25500000920E-02 0. -1.
        2   -1    0    0  501    0  0.00000000000E+00  0.00000000000E+00 -0.59454550543E+03  0.59454550544E+03  0.25500000920E-02 0.  1.
    10030    2    1    2    0    0  0.00000000000E+00  0.00000000000E+00 -0.19472447967E+03  0.99436653121E+03  0.97511392945E+03 0.  0.
        3    1    3    3  502    0 -0.45018322105E+03  0.14100017746E+03 -0.22294320475E+03  0.52177549320E+03  0.10100000352E+00 0.  1.
       -3    1    3    3    0  502  0.45018322105E+03 -0.14100017746E+03  0.28218725082E+02  0.47259103801E+03  0.10100000352E+00 0. -1.
</event>
<event>
 5   0  0.2350769E-03  0.9832881E+03  0.7818609E-02  0.9327066E-01
       -1   -1    0    0    0  501  0.00000000000E+00  0.00000000000E+00  0.26069944330E+03  0.26069944335E+03  0.50400001928E-02 0. -1.
        1   -1    0    0  501    0  0.00000000000E+00  0.00000000000E+00 -0.92717447052E+03  0.92717447054E+03  0.50400001928E-02 0.  1.
    10030    2    1    2    0    0  0.00000000000E+00  0.00000000000E+00 -0.66647502723E+03  0.11878739139E+04  0.98328809276E+03 0.  0.
        2    1    3    3  502    0 -0.16688965983E+03  0.41895128099E+03 -0.96686775790E+02  0.46121650775E+03  0.25500000920E-02 0.  1.
       -2    1    3    3    0  502  0.16688965983E+03 -0.41895128099E+03 -0.56978825144E+03  0.72665740613E+03  0.25500000920E-02 0. -1.
</event>
<event>
 5   0  0.3873874E-03  0.9891362E+03  0.7818609E-02  0.9320541E-01
       -2   -1    0    0    0  501  0.00000000000E+00  0.00000000000E+00  0.33176792478E+03  0.33176792479E+03  0.25500000920E-02 0. -1.
        2   -1    0    0  501    0  0.00000000000E+00  0.00000000000E+00 -0.73725520125E+03  0.73725520125E+03  0.25500000920E-02 0.  1.
    10030    2    1    2    0    0  0.00000000000E+00  0.00000000000E+00 -0.40548727647E+03  0.10690231260E+04  0.98913624573E+03 0.  0.
        5    1    3    3  502    0 -0.64057778020E+02 -0.41695370185E+03 -0.48170175429E+03  0.64032215212E+03  0.46999998093E+01 0.  1.
       -5    1    3    3    0  502  0.64057778020E+02  0.41695370185E+03  0.76214477817E+02  0.42870097392E+03  0.46999998093E+01 0. -1.
</event>
<event>
 5   0  0.4140860E-03  0.9988379E+03  0.7818609E-02  0.9309820E-01
       -2   -1    0    0    0  501  0.00000000000E+00  0.00000000000E+00  0.24640414308E+03  0.24640414310E+03  0.25500000920E-02 0.  1.
        2   -1    0    0  501    0  0.00000000000E+00  0.00000000000E+00 -0.10122365836E+04  0.10122365837E+04  0.25500000920E-02 0. -1.
    10030    2    1    2    0    0  0.00000000000E+00  0.00000000000E+00 -0.76583244057E+03  0.12586407267E+04  0.99883790076E+03 0.  0.
        3    1    3    3  502    0  0.13031950604E+03 -0.48209993318E+03 -0.37791397296E+03  0.62627669635E+03  0.10100000352E+00 0. -1.
       -3    1    3    3    0  502 -0.13031950604E+03  0.48209993318E+03 -0.38791846761E+03  0.63236403040E+03  0.10100000352E+00 0.  1.
</event>
<event>
 5   0  0.2350769E-03  0.8848160E+03  0.7818609E-02  0.9444764E-01
       -1   -1    0    0    0  501  0.00000000000E+00  0.00000000000E+00  0.51734155895E+03  0.51734155897E+03  0.50400001928E-02 0.  1.
        1   -1    0    0  501    0  0.00000000000E+00  0.00000000000E+00 -0.37832808913E+03  0.37832808916E+03  0.50400001928E-02 0. -1.
    10030    2    1    2    0    0  0.00000000000E+00  0.00000000000E+00  0.13901346982E+03  0.89566964813E+03  0.88481601127E+03 0.  0.
        2    1    3    3  502    0 -0.36807146685E+03 -0.17324279482E+03 -0.10650884542E+03  0.42051611720E+03  0.25500000920E-02 0. -1.
       -2    1    3    3    0  502  0.36807146685E+03  0.17324279482E+03  0.24552231523E+03  0.47515353093E+03  0.25500000920E-02 0.  1.
</event>
<event>
 5   0  0.2350769E-03  0.1014239E+04  0.7818609E-02  0.9293064E-01
        1   -1    0    0  501    0  0.00000000000E+00  0.00000000000E+00  0.10952726781E+04  0.10952726781E+04  0.50400001928E-02 0. -1.
       -1   -1    0    0    0  501  0.00000000000E+00  0.00000000000E+00 -0.23480009623E+03  0.23480009629E+03  0.50400001928E-02 0.  1.
    10030    2    1    2    0    0  0.00000000000E+00  0.00000000000E+00  0.86047258187E+03  0.13300727744E+04  0.10142388876E+04 0.  0.
        2    1    3    3  502    0 -0.35123688068E+03 -0.82026374523E+01  0.90981345996E+03  0.97529234670E+03  0.25500000920E-02 0. -1.
       -2    1    3    3    0  502  0.35123688068E+03  0.82026374523E+01 -0.49340878092E+02  0.35478042769E+03  0.25500000920E-02 0.  1.
</event>
<event>
 5   0  0.2327595E-03  0.9981602E+03  0.7818609E-02  0.9310565E-01
       -1   -1    0    0    0  501  0.00000000000E+00  0.00000000000E+00  0.69253210681E+03  0.69253210683E+03  0.50400001928E-02 0. -1.
        1   -1    0    0  501    0  0.00000000000E+00  0.00000000000E+00 -0.35966701439E+03  0.35966701442E+03  0.50400001928E-02 0.  1.
    10030    2    1    2    0    0  0.00000000000E+00  0.00000000000E+00  0.33286509242E+03  0.10521991212E+04  0.99816021810E+03 0.  0.
        5    1    3    3  502    0 -0.81617160808E+02 -0.49053093449E+03  0.12199705547E+03  0.51204231287E+03  0.46999998093E+01 0. -1.
       -5    1    3    3    0  502  0.81617160808E+02  0.49053093449E+03  0.21086803695E+03  0.54015680837E+03  0.46999998093E+01 0.  1.
</event>
<event>
 5   0  0.3895011E-03  0.1005192E+04  0.7818609E-02  0.9302868E-01
       -2   -1    0    0    0  501  0.00000000000E+00  0.00000000000E+00  0.14620343606E+04  0.14620343606E+04  0.25500000920E-02 0. -1.
        2   -1    0    0  501    0  0.00000000000E+00  0.00000000000E+00 -0.17277492790E+03  0.17277492792E+03  0.25500000920E-02 0.  1.
    10030    2    1    2    0    0  0.00000000000E+00  0.00000000000E+00  0.12892594327E+04  0.16348092885E+04  0.10051922826E+04 0.  0.
        2    1    3    3  502    0  0.38772099931E+03 -0.27253710776E+03  0.91676691806E+03  0.10320201696E+04  0.25500000920E-02 0. -1.
       -2    1    3    3    0  502 -0.38772099931E+03  0.27253710776E+03  0.37249251459E+03  0.60278911888E+03  0.25500000920E-02 0.  1.
</event>
<event>
 5   0  0.3895011E-03  0.9983334E+03  0.7818609E-02  0.9310375E-01
        2   -1    0    0  501    0  0.00000000000E+00  0.00000000000E+00  0.33780853286E+03  0.33780853287E+03  0.25500000920E-02 0. -1.
       -2   -1    0    0    0  501  0.00000000000E+00  0.00000000000E+00 -0.73759949578E+03  0.73759949578E+03  0.25500000920E-02 0.  1.
    10030    2    1    2    0    0  0.00000000000E+00  0.00000000000E+00 -0.39979096292E+03  0.10754080286E+04  0.99833341828E+03 0.  0.
        2    1    3    3  502    0  0.26891375409E+03  0.28399894505E+03  0.13420670870E+03  0.41349903095E+03  0.25500000920E-02 0. -1.
       -2    1    3    3    0  502 -0.26891375409E+03 -0.28399894505E+03 -0.53399767162E+03  0.66190899770E+03  0.25500000920E-02 0.  1.
</event>
<event>
 5   0  0.2313036E-03  0.1031169E+04  0.7818609E-02  0.9275005E-01
        1   -1    0    0  501    0  0.00000000000E+00  0.00000000000E+00  0.57380776295E+03  0.57380776297E+03  0.50400001928E-02 0. -1.
       -1   -1    0    0    0  501  0.00000000000E+00  0.00000000000E+00 -0.46326884841E+03  0.46326884844E+03  0.50400001928E-02 0.  1.
    10030    2    1    2    0    0  0.00000000000E+00  0.00000000000E+00  0.11053891454E+03  0.10370766114E+04  0.10311687768E+04 0.  0.
        3    1    3    3  502    0 -0.13987985143E+03  0.81305422614E+02 -0.43707616449E+03  0.46606064879E+03  0.10100000352E+00 0.  1.
       -3    1    3    3    0  502  0.13987985143E+03 -0.81305422614E+02  0.54761507903E+03  0.57101596262E+03  0.10100000352E+00 0. -1.
</event>
<event>
 5   0  0.3826483E-03  0.1001198E+04  0.7818609E-02  0.9307232E-01
        2   -1    0    0  501    0  0.00000000000E+00  0.00000000000E+00  0.11706972186E+04  0.11706972186E+04  0.25500000920E-02 0.  1.
       -2   -1    0    0    0  501  0.00000000000E+00  0.00000000000E+00 -0.21405988487E+03  0.21405988489E+03  0.25500000920E-02 0. -1.
    10030    2    1    2    0    0  0.00000000000E+00  0.00000000000E+00  0.95663733371E+03  0.13847571035E+04  0.10011979062E+04 0.  0.
        4    1    3    3  502    0 -0.17740672004E+03 -0.25950571305E+03 -0.60525095216E+02  0.32012694275E+03  0.12699999809E+01 0. -1.
       -4    1    3    3    0  502  0.17740672004E+03  0.25950571305E+03  0.10171624289E+04  0.10646301607E+04  0.12699999809E+01 0.  1.
</event>
<event>
 5   0  0.2378609E-03  0.1001263E+04  0.7818609E-02  0.9307161E-01
       -1   -1    0    0    0  501  0.00000000000E+00  0.00000000000E+00  0.45320869734E+03  0.45320869737E+03  0.50400001928E-02 0. -1.
        1   -1    0    0  501    0  0.00000000000E+00  0.00000000000E+00 -0.55301597341E+03  0.55301597343E+03  0.50400001928E-02 0.  1.
    10030    2    1    2    0    0  0.00000000000E+00  0.00000000000E+00 -0.99807276069E+02  0.10062246708E+04  0.10012625009E+04 0.  0.
        1    1    3    3  502    0  0.29391706050E+03  0.40513770733E+03 -0.60340121379E+02  0.50414752863E+03  0.50400001928E-02 0.  1.
       -1    1    3    3    0  502 -0.29391706050E+03 -0.40513770733E+03 -0.39467154690E+02  0.50207714216E+03  0.50400001928E-02 0. -1.
</event>
<event>
 5   0  0.3895011E-03  0.9967220E+03  0.7818609E-02  0.9312147E-01
       -2   -1    0    0    0  501  0.00000000000E+00  0.00000000000E+00  0.38069383103E+03  0.38069383104E+03  0.25500000920E-02 0. -1.
        2   -1    0    0  501    0  0.00000000000E+00  0.00000000000E+00 -0.65239740033E+03  0.65239740033E+03  0.25500000920E-02 0.  1.
    10030    2    1    2    0    0  0.00000000000E+00  0.00000000000E+00 -0.27170356930E+03  0.10330912314E+04  0.99672195860E+03 0.  0.
        2    1    3    3  502    0  0.18350515394E+02 -0.23870640734E+02  0.37975025107E+03  0.38094199309E+03  0.25500000920E-02 0. -1.
       -2    1    3    3    0  502 -0.18350515394E+02  0.23870640734E+02 -0.65145382037E+03  0.65214923828E+03  0.25500000920E-02 0.  1.
</event>
<event>
 5   0  0.2313036E-03  0.1002752E+04  0.7818609E-02  0.9305532E-01
       -1   -1    0    0    0  501  0.00000000000E+00  0.00000000000E+00  0.47581822988E+03  0.47581822991E+03  0.50400001928E-02 0. -1.
        1   -1    0    0  501    0  0.00000000000E+00  0.00000000000E+00 -0.52830623610E+03  0.52830623612E+03  0.50400001928E-02 0.  1.
    10030    2    1    2    0    0  0.00000000000E+00  0.00000000000E+00 -0.52488006216E+02  0.10041244660E+04  0.10027516903E+04 0.  0.
        3    1    3    3  502    0  0.41129343688E+03  0.23248619122E+03 -0.19429988161E+03  0.51084691887E+03  0.10100000352E+00 0. -1.
       -3    1    3    3    0  502 -0.41129343688E+03 -0.23248619122E+03  0.14181187540E+03  0.49327754716E+03  0.10100000352E+00 0.  1.
</event>
<event>
 5   0  0.4026829E-03  0.1000973E+04  0.7818609E-02  0.9307478E-01
        2   -1    0    0  501    0  0.00000000000E+00  0.00000000000E+00  0.14276281175E+04  0.14276281175E+04  0.25500000920E-02 0. -1.
       -2   -1    0    0    0  501  0.00000000000E+00  0.00000000000E+00 -0.17545656880E+03  0.17545656882E+03  0.25500000920E-02 0.  1.
    10030    2    1    2    0    0  0.00000000000E+00  0.00000000000E+00  0.12521715487E+04  0.16030846863E+04  0.10009729887E+04 0.  0.
        1    1    3    3  502    0  0.12893201796E+03 -0.30666517396E+03  0.12249361792E+04  0.12693051789E+04  0.50400001928E-02 0. -1.
       -1    1    3    3    0  502 -0.12893201796E+03  0.30666517396E+03  0.27235369525E+02  0.33377950740E+03  0.50400001928E-02 0.  1.
</event>
<event>
 5   0  0.3873874E-03  0.1000690E+04  0.7818609E-02  0.9307788E-01
       -2   -1    0    0    0  501  0.00000000000E+00  0.00000000000E+00  0.37199426493E+03  0.37199426494E+03  0.25500000920E-02 0.  1.
        2   -1    0    0  501    0  0.00000000000E+00  0.00000000000E+00 -0.67298154131E+03  0.67298154132E+03  0.25500000920E-02 0. -1.
    10030    2    1    2    0    0  0.00000000000E+00  0.00000000000E+00 -0.30098727638E+03  0.10449758063E+04  0.10006903093E+04 0.  0.
        5    1    3    3  502    0 -0.32370762289E+03  0.26565309376E+03  0.13542060595E+03  0.44013523132E+03  0.46999998093E+01 0.  1.
       -5    1    3    3    0  502  0.32370762289E+03 -0.26565309376E+03 -0.43640788232E+03  0.60484057494E+03  0.46999998093E+01 0. -1.
</event>
<event>
 5   0  0.2378609E-03  0.1000649E+04  0.7818609E-02  0.9307834E-01
        1   -1    0    0  501    0  0.00000000000E+00  0.00000000000E+00  0.45323937431E+03  0.45323937434E+03  0.50400001928E-02 0.  1.
       -1   -1    0    0    0  501  0.00000000000E+00  0.00000000000E+00 -0.55230072355E+03  0.55230072357E+03  0.50400001928E-02 0. -1.
    10030    2    1    2    0    0  0.00000000000E+00  0.00000000000E+00 -0.99061349236E+02  0.10055400979E+04  0.10006486584E+04 0.  0.
        1    1    3    3  502    0  0.29611022020E+02  0.19020839040E+03 -0.51359803227E+03  0.54848790614E+03  0.50400001928E-02 0. -1.
       -1    1    3    3    0  502 -0.29611022020E+02 -0.19020839040E+03  0.41453668303E+03  0.45705219178E+03  0.50400001928E-02 0.  1.
</event>
<event>
 5   0  0.2350769E-03  0.9741094E+03  0.7818609E-02  0.9337406E-01
       -1   -1    0    0    0  501  0.00000000000E+00  0.00000000000E+00  0.26928366867E+03  0.26928366872E+03  0.50400001928E-02 0.  1.
        1   -1    0    0  501    0  0.00000000000E+00  0.00000000000E+00 -0.88093817682E+03  0.88093817684E+03  0.50400001928E-02 0. -1.
    10030    2    1    2    0    0  0.00000000000E+00  0.00000000000E+00 -0.61165450815E+03  0.11502218456E+04  0.97410936586E+03 0.  0.
        2    1    3    3  502    0 -0.43164121300E+03 -0.21806687587E+03 -0.37422123653E+03  0.61148085251E+03  0.25500000920E-02 0.  1.
       -2    1    3    3    0  502  0.43164121300E+03  0.21806687587E+03 -0.23743327162E+03  0.53874099305E+03  0.25500000920E-02 0. -1.
</event>
<event>
 5   0  0.2405022E-03  0.9953336E+03  0.7818609E-02  0.9313678E-01
        1   -1    0    0  501    0  0.00000000000E+00  0.00000000000E+00  0.42085060816E+03  0.42085060819E+03  0.50400001928E-02 0.  1.
       -1   -1    0    0    0  501  0.00000000000E+00  0.00000000000E+00 -0.58850395885E+03  0.58850395888E+03  0.50400001928E-02 0. -1.
    10030    2    1    2    0    0  0.00000000000E+00  0.00000000000E+00 -0.16765335069E+03  0.10093545671E+04  0.99533361044E+03 0.  0.
        4    1    3    3  502    0  0.29639874025E+03 -0.16594363622E+03  0.28500145327E+03  0.44341509321E+03  0.12699999809E+01 0.  1.
       -4    1    3    3    0  502 -0.29639874025E+03  0.16594363622E+03 -0.45265480396E+03  0.56593947386E+03  0.12699999809E+01 0. -1.
</event>
<event>
 5   0  0.3895011E-03  0.9597159E+03  0.7818609E-02  0.9353866E-01
        2   -1    0    0  501    0  0.00000000000E+00  0.00000000000E+00  0.13055660680E+04  0.13055660680E+04  0.25500000920E-02 0. -1.
       -2   -1    0    0    0  501  0.00000000000E+00  0.00000000000E+00 -0.17637075027E+03  0.17637075029E+03  0.25500000920E-02 0.  1.
    10030    2    1    2    0    0  0.00000000000E+00  0.00000000000E+00  0.11291953177E+04  0.14819368183E+04  0.95971593079E+03 0.  0.
        2    1    3    3  502    0 -0.41010950353E+03 -0.17156453765E+03  0.84356832731E+03  0.95353642737E+03  0.25500000920E-02 0. -1.
       -2    1    3    3    0  502  0.41010950353E+03  0.17156453765E+03  0.28562699043E+03  0.52840039093E+03  0.25500000920E-02 0.  1.
</event>
<event>
 5   0  0.3895011E-03  0.9903395E+03  0.7818609E-02  0.9319204E-01
       -2   -1    0    0    0  501  0.00000000000E+00  0.00000000000E+00  0.22647543847E+03  0.22647543849E+03  0.25500000920E-02 0.  1.
        2   -1    0    0  501    0  0.00000000000E+00  0.00000000000E+00 -0.10826475058E+04  0.10826475058E+04  0.25500000920E-02 0. -1.
    10030    2    1    2    0    0  0.00000000000E+00  0.00000000000E+00 -0.85617206734E+03  0.13091229443E+04  0.99033947432E+03 0.  0.
        2    1    3    3  502    0  0.26037806646E+03  0.34125597057E+03 -0.10176126329E+03  0.44114366102E+03  0.25500000920E-02 0. -1.
       -2    1    3    3    0  502 -0.26037806646E+03 -0.34125597057E+03 -0.75441080404E+03  0.86797928328E+03  0.25500000920E-02 0.  1.
</event>
<event>
 5   0  0.3826483E-03  0.1015026E+04  0.7818609E-02  0.9292217E-01
        2   -1    0    0  501    0  0.00000000000E+00  0.00000000000E+00  0.90264287936E+03  0.90264287936E+03  0.25500000920E-02 0. -1.
       -2   -1    0    0    0  501  0.00000000000E+00  0.00000000000E+00 -0.28535026481E+03  0.28535026482E+03  0.25500000920E-02 0.  1.
    10030    2    1    2    0    0  0.00000000000E+00  0.00000000000E+00  0.61729261455E+03  0.11879931442E+04  0.10150258808E+04 0.  0.
        4    1    3    3  502    0 -0.24378785878E+03 -0.12552602254E+02  0.82941508439E+03  0.86459301583E+03  0.12699999809E+01 0. -1.
       -4    1    3    3    0  502  0.24378785878E+03  0.12552602254E+02 -0.21212246983E+03  0.32340012836E+03  0.12699999809E+01 0.  1.
</event>
<event>
 5   0  0.3873874E-03  0.1020733E+04  0.7818609E-02  0.9286093E-01
        2   -1    0    0  501    0  0.00000000000E+00  0.00000000000E+00  0.28974881647E+03  0.28974881648E+03  0.25500000920E-02 0. -1.
       -2   -1    0    0    0  501  0.00000000000E+00  0.00000000000E+00 -0.89896416366E+03  0.89896416366E+03  0.25500000920E-02 0.  1.
    10030    2    1    2    0    0  0.00000000000E+00  0.00000000000E+00 -0.60921534718E+03  0.11887129801E+04  0.10207326829E+04 0.  0.
        5    1    3    3  502    0  0.10917106977E+03  0.32980742606E+03 -0.73997630251E+03  0.81748289220E+03  0.46999998093E+01 0.  1.
       -5    1    3    3    0  502 -0.10917106977E+03 -0.32980742606E+03  0.13076095533E+03  0.37123008795E+03  0.46999998093E+01 0. -1.
</event>
<event>
 5   0  0.3895011E-03  0.9934083E+03  0.7818609E-02  0.9315804E-01
       -2   -1    0    0    0  501  0.00000000000E+00  0.00000000000E+00  0.33448857448E+03  0.33448857449E+03  0.25500000920E-02 0. -1.
        2   -1    0    0  501    0  0.00000000000E+00  0.00000000000E+00 -0.73758883170E+03  0.73758883170E+03  0.25500000920E-02 0.  1.
    10030    2    1    2    0    0  0.00000000000E+00  0.00000000000E+00 -0.40310025722E+03  0.10720774062E+04  0.99340834882E+03 0.  0.
        2    1    3    3  502    0 -0.15891922655E+03 -0.43723948615E+03 -0.38934595680E+03  0.60664978604E+03  0.25500000920E-02 0.  1.
       -2    1    3    3    0  502  0.15891922655E+03  0.43723948615E+03 -0.13754300415E+02  0.46542762015E+03  0.25500000920E-02 0. -1.
</event>
<event>
 5   0  0.4026829E-03  0.9980747E+03  0.7818609E-02  0.9310659E-01
       -2   -1    0    0    0  501  0.00000000000E+00  0.00000000000E+00  0.97632462831E+03  0.97632462831E+03  0.25500000920E-02 0. -1.
        2   -1    0    0  501    0  0.00000000000E+00  0.00000000000E+00 -0.25507733473E+03  0.25507733475E+03  0.25500000920E-02 0.  1.
    10030    2    1    2    0    0  0.00000000000E+00  0.00000000000E+00  0.72124729357E+03  0.12314019631E+04  0.99807471471E+03 0.  0.
        1    1    3    3  502    0 -0.41549339906E+03 -0.19959337128E+03  0.59654950762E+03  0.75388566347E+03  0.50400001928E-02 0.  1.
       -1    1    3    3    0  502  0.41549339906E+03  0.19959337128E+03  0.12469778596E+03  0.47751629959E+03  0.50400001928E-02 0. -1.
</event>
<event>
 5   0  0.3826483E-03  0.1005136E+04  0.7818609E-02  0.9302930E-01
       -2   -1    0    0    0  501  0.00000000000E+00  0.00000000000E+00  0.10140880643E+04  0.10140880643E+04  0.25500000920E-02 0. -1.
        2   -1    0    0  501    0  0.00000000000E+00  0.00000000000E+00 -0.24906551142E+03  0.24906551143E+03  0.25500000920E-02 0.  1.
    10030    2    1    2    0    0  0.00000000000E+00  0.00000000000E+00  0.76502255290E+03  0.12631535758E+04  0.10051355379E+04 0.  0.
        4    1    3    3  502    0  0.10593679686E+03 -0.25116707167E+03  0.91310837367E+03  0.95293022713E+03  0.12699999809E+01 0. -1.
       -4    1    3    3    0  502 -0.10593679686E+03  0.25116707167E+03 -0.14808582077E+03  0.31022334863E+03  0.12699999809E+01 0.  1.
</event>
<event>
 5   0  0.3826483E-03  0.1004552E+04  0.7818609E-02  0.9303566E-01
       -2   -1    0    0    0  501  0.00000000000E+00  0.00000000000E+00  0.15652017969E+03  0.15652017971E+03  0.25500000920E-02 0. -1.
        2   -1    0    0  501    0  0.00000000000E+00  0.00000000000E+00 -0.16118139532E+04  0.16118139532E+04  0.25500000920E-02 0.  1.
    10030    2    1    2    0    0  0.00000000000E+00  0.00000000000E+00 -0.14552937735E+04  0.17683341329E+04  0.10045524568E+04 0.  0.
        4    1    3    3  502    0 -0.86422038098E+02  0.17436231012E+03 -0.15427508895E+04  0.15549768178E+04  0.12699999809E+01 0.  1.
       -4    1    3    3    0  502  0.86422038098E+02 -0.17436231012E+03  0.87457116037E+02  0.21335731510E+03  0.12699999809E+01 0. -1.
</event>
<event>
 5   0  0.3873874E-03  0.1005540E+04  0.7818609E-02  0.9302489E-01
        2   -1    0    0  501    0  0.00000000000E+00  0.00000000000E+00  0.57356594659E+03  0.57356594659E+03  0.25500000920E-02 0. -1.
       -2   -1    0    0    0  501  0.00000000000E+00  0.00000000000E+00 -0.44071267586E+03  0.44071267587E+03  0.25500000920E-02 0.  1.
    10030    2    1    2    0    0  0.00000000000E+00  0.00000000000E+00  0.13285327073E+03  0.10142786225E+04  0.10055402192E+04 0.  0.
        5    1    3    3  502    0  0.29328825469E+03  0.15008089542E+03  0.44948121646E+03  0.55731295468E+03  0.46999998093E+01 0. -1.
       -5    1    3    3    0  502 -0.29328825469E+03 -0.15008089542E+03 -0.31662794574E+03  0.45696566778E+03  0.46999998093E+01 0.  1.
</event>
<event>
 5   0  0.2350769E-03  0.1005422E+04  0.7818609E-02  0.9302618E-01
        1   -1    0    0  501    0  0.00000000000E+00  0.00000000000E+00  0.27831010326E+03  0.27831010330E+03  0.50400001928E-02 0. -1.
       -1   -1    0    0    0  501  0.00000000000E+00  0.00000000000E+00 -0.90804536526E+03  0.90804536528E+03  0.50400001928E-02 0.  1.
    10030    2    1    2    0    0  0.00000000000E+00  0.00000000000E+00 -0.62973526201E+03  0.11863554686E+04  0.10054217014E+04 0.  0.
        2    1    3    3  502    0  0.22647586543E+03 -0.95788537606E+01 -0.84431934478E+03  0.87421863858E+03  0.25500000920E-02 0.  1.
       -2    1    3    3    0  502 -0.22647586543E+03  0.95788537606E+01  0.21458408277E+03  0.31213683001E+03  0.25500000920E-02 0. -1.
</event>
<event>
 5   0  0.3873874E-03  0.9896650E+03  0.7818609E-02  0.9319953E-01
       -2   -1    0    0    0  501  0.00000000000E+00  0.00000000000E+00  0.61722181877E+03  0.61722181878E+03  0.25500000920E-02 0.  1.
        2   -1    0    0  501    0  0.00000000000E+00  0.00000000000E+00 -0.39671180549E+03  0.39671180550E+03  0.25500000920E-02 0. -1.
    10030    2    1    2    0    0  0.00000000000E+00  0.00000000000E+00  0.22051001328E+03  0.10139336243E+04  0.98966495769E+03 0.  0.
        5    1    3    3  502    0  0.15428036546E+02 -0.35190668854E+03 -0.24577305843E+03  0.42953792382E+03  0.46999998093E+01 0. -1.
       -5    1    3    3    0  502 -0.15428036546E+02  0.35190668854E+03  0.46628307171E+03  0.58439570046E+03  0.46999998093E+01 0.  1.
</event>
<event>
 5   0  0.4140860E-03  0.9302395E+03  0.7818609E-02  0.9388551E-01
        2   -1    0    0  501    0  0.00000000000E+00  0.00000000000E+00  0.14626947687E+04  0.14626947687E+04  0.25500000920E-02 0.  1.
       -2   -1    0    0    0  501  0.00000000000E+00  0.00000000000E+00 -0.14790260309E+03  0.14790260311E+03  0.25500000920E-02 0. -1.
    10030    2    1    2    0    0  0.00000000000E+00  0.00000000000E+00  0.13147921656E+04  0.16105973718E+04  0.93023946128E+03 0.  0.
        3    1    3    3  502    0 -0.46366386842E+02 -0.92177324658E+02 -0.12783713078E+03  0.16428281473E+03  0.10100000352E+00 0. -1.
       -3    1    3    3    0  502  0.46366386842E+02  0.92177324658E+02  0.14426292964E+04  0.14463145571E+04  0.10100000352E+00 0.  1.
</event>
<event>
 5   0  0.3873874E-03  0.1001738E+04  0.7818609E-02  0.9306641E-01
        2   -1    0    0  501    0  0.00000000000E+00  0.00000000000E+00  0.92547744249E+03  0.92547744249E+03  0.25500000920E-02 0. -1.
       -2   -1    0    0    0  501  0.00000000000E+00  0.00000000000E+00 -0.27107037882E+03  0.27107037884E+03  0.25500000920E-02 0.  1.
    10030    2    1    2    0    0  0.00000000000E+00  0.00000000000E+00  0.65440706366E+03  0.11965478213E+04  0.10017375324E+04 0.  0.
        5    1    3    3  502    0 -0.67226138724E+02 -0.24049998696E+03  0.84578593474E+03  0.88189315388E+03  0.46999998093E+01 0. -1.
       -5    1    3    3    0  502  0.67226138724E+02  0.24049998696E+03 -0.19137887107E+03  0.31465466745E+03  0.46999998093E+01 0.  1.
</event>
<event>
 5   0  0.2378609E-03  0.1003070E+04  0.7818609E-02  0.9305184E-01
       -1   -1    0    0    0  501  0.00000000000E+00  0.00000000000E+00  0.27015573073E+03  0.27015573078E+03  0.50400001928E-02 0.  1.
        1   -1    0    0  501    0  0.00000000000E+00  0.00000000000E+00 -0.93108296074E+03  0.93108296075E+03  0.50400001928E-02 0. -1.
    10030    2    1    2    0    0  0.00000000000E+00  0.00000000000E+00 -0.66092723001E+03  0.12012386915E+04  0.10030700826E+04 0.  0.
        1    1    3    3  502    0  0.50030442334E+03 -0.18122764818E+02 -0.29444810243E+03  0.58080343979E+03  0.50400001928E-02 0.  1.
       -1    1    3    3    0  502 -0.50030442334E+03  0.18122764818E+02 -0.36647912758E+03  0.62043525174E+03  0.50400001928E-02 0. -1.
</event>
<event>
 5   0  0.2327595E-03  0.1001259E+04  0.7818609E-02  0.9307165E-01
       -1   -1    0    0    0  501  0.00000000000E+00  0.00000000000E+00  0.40889118443E+03  0.40889118446E+03  0.50400001928E-02 0. -1.
        1   -1    0    0  501    0  0.00000000000E+00  0.00000000000E+00 -0.61295044669E+03  0.61295044671E+03  0.50400001928E-02 0.  1.
    10030    2    1    2    0    0  0.00000000000E+00  0.00000000000E+00 -0.20405926227E+03  0.10218416312E+04  0.10012592755E+04 0.  0.
        5    1    3    3  502    0  0.24595321069E+03  0.37975822275E+03 -0.32067335614E+03  0.55458343009E+03  0.46999998093E+01 0.  1.
       -5    1    3    3    0  502 -0.24595321069E+03 -0.37975822275E+03  0.11661409388E+03  0.46725820108E+03  0.46999998093E+01 0. -1.
</event>
<event>
 5   0  0.2327595E-03  0.9733916E+03  0.7818609E-02  0.9338220E-01
       -1   -1    0    0    0  501  0.00000000000E+00  0.00000000000E+00  0.26534765497E+03  0.26534765502E+03  0.50400001928E-02 0. -1.
        1   -1    0    0  501    0  0.00000000000E+00  0.00000000000E+00 -0.89268856850E+03  0.89268856851E+03  0.50400001928E-02 0.  1.
    10030    2    1    2    0    0  0.00000000000E+00  0.00000000000E+00 -0.62734091353E+03  0.11580362235E+04  0.97339163404E+03 0.  0.
        5    1    3    3  502    0 -0.42884985167E+03 -0.60479880645E+02 -0.49567633223E+02  0.43594615666E+03  0.46999998093E+01 0. -1.
       -5    1    3    3    0  502  0.42884985167E+03  0.60479880645E+02 -0.57777328031E+03  0.72209006687E+03  0.46999998093E+01 0.  1.
</event>
<event>
 5   0  0.1548000E-03  0.9754168E+03  0.7818609E-02  0.9335926E-01
       -3   -1    0    0    0  501  0.00000000000E+00  0.00000000000E+00  0.15299621347E+03  0.15299624681E+03  0.10100000352E+00 0. -1.
        3   -1    0    0  501    0  0.00000000000E+00  0.00000000000E+00 -0.15546753030E+04  0.15546753063E+04  0.10100000352E+00 0.  1.
    10030    2    1    2    0    0  0.00000000000E+00  0.00000000000E+00 -0.14016790895E+04  0.17076715531E+04  0.97541676386E+03 0.  0.
        3    1    3    3  502    0 -0.23025044422E+03  0.41805937721E+03 -0.87652695058E+03  0.99804229130E+03  0.10100000352E+00 0. -1.
       -3    1    3    3    0  502  0.23025044422E+03 -0.41805937721E+03 -0.52515213893E+03  0.70962926177E+03  0.10100000352E+00 0.  1.
</event>
<event>
 5   0  0.4026829E-03  0.9869404E+03  0.7818609E-02  0.9322985E-01
       -2   -1    0    0    0  501  0.00000000000E+00  0.00000000000E+00  0.14038656483E+03  0.14038656486E+03  0.25500000920E-02 0.  1.
        2   -1    0    0  501    0  0.00000000000E+00  0.00000000000E+00 -0.17345879404E+04  0.17345879404E+04  0.25500000920E-02 0. -1.
    10030    2    1    2    0    0  0.00000000000E+00  0.00000000000E+00 -0.15942013756E+04  0.18749745053E+04  0.98694040829E+03 0.  0.
        1    1    3    3  502    0 -0.10472339337E+03  0.27948879435E+03 -0.15436747497E+04  0.15722635619E+04  0.50400001928E-02 0. -1.
       -1    1    3    3    0  502  0.10472339337E+03 -0.27948879435E+03 -0.50526625912E+02  0.30271094337E+03  0.50400001928E-02 0.  1.
</event>
<event>
 5   0  0.4026829E-03  0.1000297E+04  0.7818609E-02  0.9308219E-01
        2   -1    0    0  501    0  0.00000000000E+00  0.00000000000E+00  0.49930513013E+03  0.49930513014E+03  0.25500000920E-02 0. -1.
       -2   -1    0    0    0  501  0.00000000000E+00  0.00000000000E+00 -0.50099327500E+03  0.50099327501E+03  0.25500000920E-02 0.  1.
    10030    2    1    2    0    0  0.00000000000E+00  0.00000000000E+00 -0.16881448704E+01  0.10002984052E+04  0.10002969807E+04 0.  0.
        1    1    3    3  502    0  0.44524540033E+03  0.39531926681E+02  0.22352708433E+03  0.49977054455E+03  0.50400001928E-02 0. -1.
       -1    1    3    3    0  502 -0.44524540033E+03 -0.39531926681E+02 -0.22521522920E+03  0.50052786060E+03  0.50400001928E-02 0.  1.
</event>
<event>
 5   0  0.2405022E-03  0.1000938E+04  0.7818609E-02  0.9307516E-01
        1   -1    0    0  501    0  0.00000000000E+00  0.00000000000E+00  0.73963527345E+03  0.73963527347E+03  0.50400001928E-02 0. -1.
       -1   -1    0    0    0  501  0.00000000000E+00  0.00000000000E+00 -0.33863895392E+03  0.33863895396E+03  0.50400001928E-02 0.  1.
    10030    2    1    2    0    0  0.00000000000E+00  0.00000000000E+00  0.40099631953E+03  0.10782742274E+04  0.10009381905E+04 0.  0.
        4    1    3    3  502    0 -0.30529828716E+03  0.35483305064E+03  0.97459485813E+01  0.46819881928E+03  0.12699999809E+01 0. -1.
       -4    1    3    3    0  502  0.30529828716E+03 -0.35483305064E+03  0.39125037095E+03  0.61007540815E+03  0.12699999809E+01 0.  1.
</event>
<event>
 5   0  0.3895011E-03  0.1000221E+04  0.7818609E-02  0.9308302E-01
       -2   -1    0    0    0  501  0.00000000000E+00  0.00000000000E+00  0.12727068598E+03  0.12727068601E+03  0.25500000920E-02 0. -1.
        2   -1    0    0  501    0  0.00000000000E+00  0.00000000000E+00 -0.19651870125E+04  0.19651870125E+04  0.25500000920E-02 0.  1.
    10030    2    1    2    0    0  0.00000000000E+00  0.00000000000E+00 -0.18379163266E+04  0.20924576985E+04  0.10002213739E+04 0.  0.
        2    1    3    3  502    0  0.42368738945E+03 -0.88395687585E+02 -0.39476468913E+03  0.58580198135E+03  0.25500000920E-02 0. -1.
       -2    1    3    3    0  502 -0.42368738945E+03  0.88395687585E+02 -0.14431516374E+04  0.15066557172E+04  0.25500000920E-02 0.  1.
</event>
<event>
 5   0  0.1548000E-03  0.9994709E+03  0.7818609E-02  0.9309125E-01
        3   -1    0    0  501    0  0.00000000000E+00  0.00000000000E+00  0.10697659570E+04  0.10697659618E+04  0.10100000352E+00 0. -1.
       -3   -1    0    0    0  501  0.00000000000E+00  0.00000000000E+00 -0.23344874969E+03  0.23344877154E+03  0.10100000352E+00 0.  1.
    10030    2    1    2    0    0  0.00000000000E+00  0.00000000000E+00  0.83631720730E+03  0.13032147333E+04  0.99947094499E+03 0.  0.
        2    1    3    3  502    0 -0.15523463959E+03 -0.31519874555E+03 -0.45209345409E+02  0.35424839794E+03  0.25500000920E-02 0.  1.
       -2    1    3    3    0  502  0.15523463959E+03  0.31519874555E+03  0.88152655271E+03  0.94896633537E+03  0.25500000920E-02 0. -1.
</event>
<event>
 5   0  0.3873874E-03  0.1000847E+04  0.7818609E-02  0.9307617E-01
        2   -1    0    0  501    0  0.00000000000E+00  0.00000000000E+00  0.21166920076E+04  0.21166920076E+04  0.25500000920E-02 0. -1.
       -2   -1    0    0    0  501  0.00000000000E+00  0.00000000000E+00 -0.11830890549E+03  0.11830890552E+03  0.25500000920E-02 0.  1.
    10030    2    1    2    0    0  0.00000000000E+00  0.00000000000E+00  0.19983831021E+04  0.22350009131E+04  0.10008466710E+04 0.  0.
        5    1    3    3  502    0  0.36696298968E+01 -0.42928505994E+03  0.15733323742E+04  0.16308574367E+04  0.46999998093E+01 0. -1.
       -5    1    3    3    0  502 -0.36696298968E+01  0.42928505994E+03  0.42505072784E+03  0.60414347642E+03  0.46999998093E+01 0.  1.
</event>
<event>
 5   0  0.3873874E-03  0.9736691E+03  0.7818609E-02  0.9337905E-01
        2   -1    0    0  501    0  0.00000000000E+00  0.00000000000E+00  0.69246112511E+03  0.69246112511E+03  0.25500000920E-02 0.  1.
       -2   -1    0    0    0  501  0.00000000000E+00  0.00000000000E+00 -0.34226882451E+03  0.34226882452E+03  0.25500000920E-02 0. -1.
    10030    2    1    2    0    0  0.00000000000E+00  0.00000000000E+00  0.35019230059E+03  0.10347299496E+04  0.97366905121E+03 0.  0.
        5    1    3    3  502    0 -0.37283026736E+03 -0.57970479984E+02  0.50199508604E+03  0.62800011243E+03  0.46999998093E+01 0. -1.
       -5    1    3    3    0  502  0.37283026736E+03  0.57970479984E+02 -0.15180278544E+03  0.40672983721E+03  0.46999998093E+01 0.  1.
</event>
<event>
 5   0  0.2378609E-03  0.9997879E+03  0.7818609E-02  0.9308777E-01
       -1   -1    0    0    0  501  0.00000000000E+00  0.00000000000E+00  0.93315270092E+03  0.93315270093E+03  0.50400001928E-02 0.  1.
        1   -1    0    0  501    0  0.00000000000E+00  0.00000000000E+00 -0.26779535510E+03  0.26779535515E+03  0.50400001928E-02 0. -1.
    10030    2    1    2    0    0  0.00000000000E+00  0.00000000000E+00  0.66535734582E+03  0.12009480561E+04  0.99978789539E+03 0.  0.
        1    1    3    3  502    0 -0.40688094793E+03 -0.28737117757E+03  0.28229026231E+03  0.57255750079E+03  0.50400001928E-02 0. -1.
       -1    1    3    3    0  502  0.40688094793E+03  0.28737117757E+03  0.38306708351E+03  0.62839055529E+03  0.50400001928E-02 0.  1.
</event>
<event>
 5   0  0.2405022E-03  0.1074946E+04  0.7818609E-02  0.9229961E-01
        1   -1    0    0  501    0  0.00000000000E+00  0.00000000000E+00  0.55842830810E+03  0.55842830813E+03  0.50400001928E-02 0.  1.
       -1   -1    0    0    0  501  0.00000000000E+00  0.00000000000E+00 -0.51730443517E+03  0.51730443519E+03  0.50400001928E-02 0. -1.
    10030    2    1    2    0    0  0.00000000000E+00  0.00000000000E+00  0.41123872937E+02  0.10757327433E+04  0.10749463996E+04 0.  0.
        4    1    3    3  502    0 -0.14469172016E+03  0.41895043808E+02  0.53687048777E+03  0.55760418051E+03  0.12699999809E+01 0.  1.
       -4    1    3    3    0  502  0.14469172016E+03 -0.41895043808E+02 -0.49574661484E+03  0.51812856281E+03  0.12699999809E+01 0. -1.
</event>
<event>
 5   0  0.4140860E-03  0.1025025E+04  0.7818609E-02  0.9281516E-01
       -2   -1    0    0    0  501  0.00000000000E+00  0.00000000000E+00  0.40309769118E+03  0.40309769119E+03  0.25500000920E-02 0.  1.
        2   -1    0    0  501    0  0.00000000000E+00  0.00000000000E+00 -0.65162625155E+03  0.65162625155E+03  0.25500000920E-02 0. -1.
    10030    2    1    2    0    0  0.00000000000E+00  0.00000000000E+00 -0.24852856037E+03  0.10547239427E+04  0.10250249510E+04 0.  0.
        3    1    3    3  502    0  0.40819460514E+02  0.12729776759E+01  0.40142074038E+03  0.40349283740E+03  0.10100000352E+00 0.  1.
       -3    1    3    3    0  502 -0.40819460514E+02 -0.12729776759E+01 -0.64994930074E+03  0.65123110534E+03  0.10100000352E+00 0. -1.
</event>
<event>
 5   0  0.4026829E-03  0.1000212E+04  0.7818609E-02  0.9308312E-01
        2   -1    0    0  501    0  0.00000000000E+00  0.00000000000E+00  0.42468013939E+03  0.42468013940E+03  0.25500000920E-02 0. -1.
       -2   -1    0    0    0  501  0.00000000000E+00  0.00000000000E+00 -0.58892812925E+03  0.58892812926E+03  0.25500000920E-02 0.  1.
    10030    2    1    2    0    0  0.00000000000E+00  0.00000000000E+00 -0.16424798986E+03  0.10136082687E+04  0.10002121376E+04 0.  0.
        1    1    3    3  502    0  0.34961368418E+02  0.65126148754E+02 -0.58336184641E+03  0.58802615283E+03  0.50400001928E-02 0.  1.
       -1    1    3    3    0  502 -0.34961368418E+02 -0.65126148754E+02  0.41911385655E+03  0.42558211582E+03  0.50400001928E-02 0. -1.
</event>
<event>
 5   0  0.3873874E-03  0.9981433E+03  0.7818609E-02  0.9310584E-01
       -2   -1    0    0    0  501  0.00000000000E+00  0.00000000000E+00  0.50289068544E+03  0.50289068545E+03  0.25500000920E-02 0.  1.
        2   -1    0    0  501    0  0.00000000000E+00  0.00000000000E+00 -0.49528158610E+03  0.49528158610E+03  0.25500000920E-02 0. -1.
    10030    2    1    2    0    0  0.00000000000E+00  0.00000000000E+00  0.76090993437E+01  0.99817227155E+03  0.99814326893E+03 0.  0.
        5    1    3    3  502    0  0.45171536420E+03 -0.21024340129E+03  0.32113468067E+02  0.49930193557E+03  0.46999998093E+01 0.  1.
       -5    1    3    3    0  502 -0.45171536420E+03  0.21024340129E+03 -0.24504368723E+02  0.49887033598E+03  0.46999998093E+01 0. -1.
</event>
<event>
 5   0  0.1548000E-03  0.9992735E+03  0.7818609E-02  0.9309342E-01
       -4   -1    0    0    0  501  0.00000000000E+00  0.00000000000E+00  0.42547447975E+03  0.42547637516E+03  0.12699999809E+01 0.  1.
        4   -1    0    0  501    0  0.00000000000E+00  0.00000000000E+00 -0.58672194842E+03  0.58672332292E+03  0.12699999809E+01 0. -1.
    10030    2    1    2    0    0  0.00000000000E+00  0.00000000000E+00 -0.16124746867E+03  0.10121996981E+04  0.99927347741E+03 0.  0.
        2    1    3    3  502    0  0.31169444950E+03  0.27522532351E+03  0.19996941880E+03  0.46140023517E+03  0.25500000920E-02 0.  1.
       -2    1    3    3    0  502 -0.31169444950E+03 -0.27522532351E+03 -0.36121688747E+03  0.55079946292E+03  0.25500000920E-02 0. -1.
</event>
<event>
 5   0  0.4140860E-03  0.1006883E+04  0.7818609E-02  0.9301027E-01
       -2   -1    0    0    0  501  0.00000000000E+00  0.00000000000E+00  0.44859592987E+03  0.44859592988E+03  0.25500000920E-02 0.  1.
        2   -1    0    0  501    0  0.00000000000E+00  0.00000000000E+00 -0.56499283550E+03  0.56499283550E+03  0.25500000920E-02 0. -1.
    10030    2    1    2    0    0  0.00000000000E+00  0.00000000000E+00 -0.11639690562E+03  0.10135887654E+04  0.10068832830E+04 0.  0.
        3    1    3    3  502    0  0.87297413227E+02 -0.47591998593E+03  0.81769977205E+02  0.49072090921E+03  0.10100000352E+00 0.  1.
       -3    1    3    3    0  502 -0.87297413227E+02  0.47591998593E+03 -0.19816688283E+03  0.52286785617E+03  0.10100000352E+00 0. -1.
</event>
<event>
 5   0  0.3826483E-03  0.9902671E+03  0.7818609E-02  0.9319284E-01
        2   -1    0    0  501    0  0.00000000000E+00  0.00000000000E+00  0.38395119404E+03  0.38395119405E+03  0.25500000920E-02 0. -1.
       -2   -1    0    0    0  501  0.00000000000E+00  0.00000000000E+00 -0.63851150710E+03  0.63851150711E+03  0.25500000920E-02 0.  1.
    10030    2    1    2    0    0  0.00000000000E+00  0.00000000000E+00 -0.25456031307E+03  0.10224627012E+04  0.99026714692E+03 0.  0.
        4    1    3    3  502    0  0.37618230047E+03  0.16010360266E+03 -0.41566235547E+03  0.58302923891E+03  0.12699999809E+01 0.  1.
       -4    1    3    3    0  502 -0.37618230047E+03 -0.16010360266E+03  0.16110204240E+03  0.43943346224E+03  0.12699999809E+01 0. -1.
</event>
<event>
 5   0  0.2327595E-03  0.1001663E+04  0.7818609E-02  0.9306723E-01
       -1   -1    0    0    0  501  0.00000000000E+00  0.00000000000E+00  0.35596377667E+03  0.35596377671E+03  0.50400001928E-02 0. -1.
        1   -1    0    0  501    0  0.00000000000E+00  0.00000000000E+00 -0.70465651280E+03  0.70465651281E+03  0.50400001928E-02 0.  1.
    10030    2    1    2    0    0  0.00000000000E+00  0.00000000000E+00 -0.34869273613E+03  0.10606202895E+04  0.10016630044E+04 0.  0.
        5    1    3    3  502    0  0.34599061332E+03 -0.65371528223E+02 -0.55143586393E+03  0.65428322860E+03  0.46999998093E+01 0.  1.
       -5    1    3    3    0  502 -0.34599061332E+03  0.65371528223E+02  0.20274312781E+03  0.40633706092E+03  0.46999998093E+01 0. -1.
</event>
<event>
 5   0  0.4140860E-03  0.9924136E+03  0.7818609E-02  0.9316905E-01
        2   -1    0    0  501    0  0.00000000000E+00  0.00000000000E+00  0.16331170698E+04  0.16331170698E+04  0.25500000920E-02 0.  1.
       -2   -1    0    0    0  501  0.00000000000E+00  0.00000000000E+00 -0.15076763351E+03  0.15076763353E+03  0.25500000920E-02 0. -1.
    10030    2    1    2    0    0  0.00000000000E+00  0.00000000000E+00  0.14823494363E+04  0.17838847034E+04  0.99241361515E+03 0.  0.
        3    1    3    3  502    0 -0.16903100074E+03 -0.29867843097E+03  0.96967272598E+02  0.35662718137E+03  0.10100000352E+00 0. -1.
       -3    1    3    3    0  502  0.16903100074E+03  0.29867843097E+03  0.13853821637E+04  0.14272575220E+04  0.10100000352E+00 0.  1.
</event>
<event>
 5   0  0.3826483E-03  0.1001504E+04  0.7818609E-02  0.9306897E-01
        2   -1    0    0  501    0  0.00000000000E+00  0.00000000000E+00  0.12051749719E+04  0.12051749719E+04  0.25500000920E-02 0.  1.
       -2   -1    0    0    0  501  0.00000000000E+00  0.00000000000E+00 -0.20806329022E+03  0.20806329024E+03  0.25500000920E-02 0. -1.
    10030    2    1    2    0    0  0.00000000000E+00  0.00000000000E+00  0.99711168170E+03  0.14132382622E+04  0.10015042086E+04 0.  0.
        4    1    3    3  502    0  0.41315092642E+03  0.22412935766E+03  0.25486388935E+03  0.53468202884E+03  0.12699999809E+01 0.  1.
       -4    1    3    3    0  502 -0.41315092642E+03 -0.22412935766E+03  0.74224779234E+03  0.87855623332E+03  0.12699999809E+01 0. -1.
</event>
<event>
 5   0  0.4026829E-03  0.9935587E+03  0.7818609E-02  0.9315638E-01
       -2   -1    0    0    0  501  0.00000000000E+00  0.00000000000E+00  0.38578777795E+03  0.38578777796E+03  0.25500000920E-02 0.  1.
        2   -1    0    0  501    0  0.00000000000E+00  0.00000000000E+00 -0.63970325919E+03  0.63970325919E+03  0.25500000920E-02 0. -1.
    10030    2    1    2    0    0  0.00000000000E+00  0.00000000000E+00 -0.25391548123E+03  0.10254910372E+04  0.99355865236E+03 0.  0.
        1    1    3    3  502    0 -0.18096462585E+02 -0.21344528163E+02 -0.63888913468E+03  0.63950167887E+03  0.50400001928E-02 0. -1.
       -1    1    3    3    0  502  0.18096462585E+02  0.21344528163E+02  0.38497365344E+03  0.38598935829E+03  0.50400001928E-02 0.  1.
</event>
<event>
 5   0  0.2405022E-03  0.9981978E+03  0.7818609E-02  0.9310524E-01
        1   -1    0    0  501    0  0.00000000000E+00  0.00000000000E+00  0.14119741107E+04  0.14119741107E+04  0.50400001928E-02 0. -1.
       -1   -1    0    0    0  501  0.00000000000E+00  0.00000000000E+00 -0.17641944521E+03  0.17641944528E+03  0.50400001928E-02 0.  1.
    10030    2    1    2    0    0  0.00000000000E+00  0.00000000000E+00  0.12355546654E+04  0.15883935559E+04  0.99819775459E+03 0.  0.
        4    1    3    3  502    0 -0.46307027827E+03  0.13731736279E+03  0.41770865221E+03  0.63857049084E+03  0.12699999809E+01 0.  1.
       -4    1    3    3    0  502  0.46307027827E+03 -0.13731736279E+03  0.81784601323E+03  0.94982306510E+03  0.12699999809E+01 0. -1.
</event>
<event>
 5   0  0.4140860E-03  0.1001938E+04  0.7818609E-02  0.9306422E-01
       -2   -1    0    0    0  501  0.00000000000E+00  0.00000000000E+00  0.27641738438E+03  0.27641738439E+03  0.25500000920E-02 0. -1.
        2   -1    0    0  501    0  0.00000000000E+00  0.00000000000E+00 -0.90793830539E+03  0.90793830539E+03  0.25500000920E-02 0.  1.
    10030    2    1    2    0    0  0.00000000000E+00  0.00000000000E+00 -0.63152092101E+03  0.11843556898E+04  0.10019379852E+04 0.  0.
        3    1    3    3  502    0 -0.38453876044E+03 -0.25481229901E+03 -0.84817064211E+02  0.46903444499E+03  0.10100000352E+00 0.  1.
       -3    1    3    3    0  502  0.38453876044E+03  0.25481229901E+03 -0.54670385680E+03  0.71532124479E+03  0.10100000352E+00 0. -1.
</event>
<event>
 5   0  0.3873874E-03  0.9933103E+03  0.7818609E-02  0.9315912E-01
        2   -1    0    0  501    0  0.00000000000E+00  0.00000000000E+00  0.11736985551E+04  0.11736985551E+04  0.25500000920E-02 0.  1.
       -2   -1    0    0    0  501  0.00000000000E+00  0.00000000000E+00 -0.21016159602E+03  0.21016159603E+03  0.25500000920E-02 0. -1.
    10030    2    1    2    0    0  0.00000000000E+00  0.00000000000E+00  0.96353695907E+03  0.13838601511E+04  0.99331034746E+03 0.  0.
        5    1    3    3  502    0 -0.20476001972E+03 -0.36436680376E+03  0.85547961408E+03  0.95213302299E+03  0.46999998093E+01 0. -1.
       -5    1    3    3    0  502  0.20476001972E+03  0.36436680376E+03  0.10805734499E+03  0.43172712813E+03  0.46999998093E+01 0.  1.
</event>
<event>
 5   0  0.2313036E-03  0.9986215E+03  0.7818609E-02  0.9310058E-01
       -1   -1    0    0    0  501  0.00000000000E+00  0.00000000000E+00  0.12212773791E+03  0.12212773801E+03  0.50400001928E-02 0. -1.
        1   -1    0    0  501    0  0.00000000000E+00  0.00000000000E+00 -0.20413971878E+04  0.20413971878E+04  0.50400001928E-02 0.  1.
    10030    2    1    2    0    0  0.00000000000E+00  0.00000000000E+00 -0.19192694498E+04  0.21635249258E+04  0.99862149151E+03 0.  0.
        3    1    3    3  502    0 -0.43666341321E+03  0.23221733136E+03 -0.11083430567E+04  0.12136820700E+04  0.10100000352E+00 0. -1.
       -3    1    3    3    0  502  0.43666341321E+03 -0.23221733136E+03 -0.81092639316E+03  0.94984285582E+03  0.10100000352E+00 0.  1.
</event>
<event>
 5   0  0.1548000E-03  0.9964038E+03  0.7818609E-02  0.9312498E-01
        3   -1    0    0  501    0  0.00000000000E+00  0.00000000000E+00  0.45873044551E+03  0.45873045663E+03  0.10100000352E+00 0. -1.
       -3   -1    0    0    0  501  0.00000000000E+00  0.00000000000E+00 -0.54106962641E+03  0.54106963584E+03  0.10100000352E+00 0.  1.
    10030    2    1    2    0    0  0.00000000000E+00  0.00000000000E+00 -0.82339180898E+02  0.99980009247E+03  0.99640377568E+03 0.  0.
        1    1    3    3  502    0  0.25678804083E+03 -0.14123868303E+03  0.36308908950E+03  0.46660706214E+03  0.50400001928E-02 0.  1.
       -1    1    3    3    0  502 -0.25678804083E+03  0.14123868303E+03 -0.44542827040E+03  0.53319303033E+03  0.50400001928E-02 0. -1.
</event>
<event>
 5   0  0.2405022E-03  0.9914812E+03  0.7818609E-02  0.9317938E-01
       -1   -1    0    0    0  501  0.00000000000E+00  0.00000000000E+00  0.59936231087E+03  0.59936231089E+03  0.50400001928E-02 0. -1.
        1   -1    0    0  501    0  0.00000000000E+00  0.00000000000E+00 -0.41003369644E+03  0.41003369647E+03  0.50400001928E-02 0.  1.
    10030    2    1    2    0    0  0.00000000000E+00  0.00000000000E+00  0.18932861444E+03  0.10093960074E+04  0.99148120276E+03 0.  0.
        4    1    3    3  502    0  0.42149263135E+02 -0.65608464398E+02  0.59307742292E+03  0.59818347809E+03  0.12699999809E+01 0. -1.
       -4    1    3    3    0  502 -0.42149263135E+02  0.65608464398E+02 -0.40374880848E+03  0.41121252927E+03  0.12699999809E+01 0.  1.
</event>
<event>
 5   0  0.3826483E-03  0.9916193E+03  0.7818609E-02  0.9317785E-01
        2   -1    0    0  501    0  0.00000000000E+00  0.00000000000E+00  0.64049171539E+03  0.64049171540E+03  0.25500000920E-02 0.  1.
       -2   -1    0    0    0  501  0.00000000000E+00  0.00000000000E+00 -0.38381015993E+03  0.38381015994E+03  0.25500000920E-02 0. -1.
    10030    2    1    2    0    0  0.00000000000E+00  0.00000000000E+00  0.25668155546E+03  0.10243018753E+04  0.99161933771E+03 0.  0.
        4    1    3    3  502    0  0.25357843622E+03  0.31233354230E+03  0.42766960747E+03  0.58716026008E+03  0.12699999809E+01 0.  1.
       -4    1    3    3    0  502 -0.25357843622E+03 -0.31233354230E+03 -0.17098805201E+03  0.43714161526E+03  0.12699999809E+01 0. -1.
</event>
<event>
 5   0  0.2313036E-03  0.9998038E+03  0.7818609E-02  0.9308760E-01
        1   -1    0    0  501    0  0.00000000000E+00  0.00000000000E+00  0.89215061063E+03  0.89215061064E+03  0.50400001928E-02 0. -1.
       -1   -1    0    0    0  501  0.00000000000E+00  0.00000000000E+00 -0.28011182104E+03  0.28011182108E+03  0.50400001928E-02 0.  1.
    10030    2    1    2    0    0  0.00000000000E+00  0.00000000000E+00  0.61203878959E+03  0.11722624317E+04  0.99980384520E+03 0.  0.
        3    1    3    3  502    0  0.47237513391E+03 -0.16041032275E+03  0.34368877243E+03  0.60579841637E+03  0.10100000352E+00 0. -1.
       -3    1    3    3    0  502 -0.47237513391E+03  0.16041032275E+03  0.26835001716E+03  0.56646401536E+03  0.10100000352E+00 0.  1.
</event>
<event>
 5   0  0.3873874E-03  0.9990520E+03  0.7818609E-02  0.9309585E-01
        2   -1    0    0  501    0  0.00000000000E+00  0.00000000000E+00  0.13069428667E+04  0.13069428667E+04  0.25500000920E-02 0.  1.
       -2   -1    0    0    0  501  0.00000000000E+00  0.00000000000E+00 -0.19092358800E+03  0.19092358802E+03  0.25500000920E-02 0. -1.
    10030    2    1    2    0    0  0.00000000000E+00  0.00000000000E+00  0.11160192787E+04  0.14978664547E+04  0.99905199353E+03 0.  0.
        5    1    3    3  502    0 -0.34911276201E+03 -0.61839523726E+02  0.30481264317E+02  0.35588628066E+03  0.46999998093E+01 0. -1.
       -5    1    3    3    0  502  0.34911276201E+03  0.61839523726E+02  0.10855380144E+04  0.11419801741E+04  0.46999998093E+01 0.  1.
</event>
<event>
 5   0  0.3895011E-03  0.9795239E+03  0.7818609E-02  0.9331292E-01
       -2   -1    0    0    0  501  0.00000000000E+00  0.00000000000E+00  0.33872146390E+03  0.33872146391E+03  0.25500000920E-02 0. -1.
        2   -1    0    0  501    0  0.00000000000E+00  0.00000000000E+00 -0.70815337885E+03  0.70815337885E+03  0.25500000920E-02 0.  1.
    10030    2    1    2    0    0  0.00000000000E+00  0.00000000000E+00 -0.36943191494E+03  0.10468748428E+04  0.97952386221E+03 0.  0.
        2    1    3    3  502    0  0.31283488905E+03  0.27670991770E+03  0.88670610546E+02  0.42696196967E+03  0.25500000920E-02 0. -1.
       -2    1    3    3    0  502 -0.31283488905E+03 -0.27670991770E+03 -0.45810252549E+03  0.61991287309E+03  0.25500000920E-02 0.  1.
</event>
<event>
 5   0  0.3873874E-03  0.9997452E+03  0.7818609E-02  0.9308824E-01
       -2   -1    0    0    0  501  0.00000000000E+00  0.00000000000E+00  0.56340205571E+03  0.56340205572E+03  0.25500000920E-02 0. -1.
        2   -1    0    0  501    0  0.00000000000E+00  0.00000000000E+00 -0.44350678532E+03  0.44350678533E+03  0.25500000920E-02 0.  1.
    10030    2    1    2    0    0  0.00000000000E+00  0.00000000000E+00  0.11989527039E+03  0.10069088410E+04  0.99974523671E+03 0.  0.
        5    1    3    3  502    0 -0.32178045191E+03 -0.36935602182E+03 -0.40183121291E+02  0.49153158935E+03  0.46999998093E+01 0.  1.
       -5    1    3    3    0  502  0.32178045191E+03  0.36935602182E+03  0.16007839168E+03  0.51537725170E+03  0.46999998093E+01 0. -1.
</event>
<event>
 5   0  0.2313036E-03  0.9214597E+03  0.7818609E-02  0.9399146E-01
        1   -1    0    0  501    0  0.00000000000E+00  0.00000000000E+00  0.50492929191E+03  0.50492929193E+03  0.50400001928E-02 0.  1.
       -1   -1    0    0    0  501  0.00000000000E+00  0.00000000000E+00 -0.42039946723E+03  0.42039946726E+03  0.50400001928E-02 0. -1.
    10030    2    1    2    0    0  0.00000000000E+00  0.00000000000E+00  0.84529824674E+02  0.92532875919E+03  0.92145972312E+03 0.  0.
        3    1    3    3  502    0  0.23277915154E+03  0.33079891338E+03  0.26377655891E+03  0.48289971808E+03  0.10100000352E+00 0.  1.
       -3    1    3    3    0  502 -0.23277915154E+03 -0.33079891338E+03 -0.17924673424E+03  0.44242904112E+03  0.10100000352E+00 0. -1.
</event>
<event>
 5   0  0.2350769E-03  0.1000119E+04  0.7818609E-02  0.9308414E-01
       -1   -1    0    0    0  501  0.00000000000E+00  0.00000000000E+00  0.12932355933E+04  0.12932355933E+04  0.50400001928E-02 0.  1.
        1   -1    0    0  501    0  0.00000000000E+00  0.00000000000E+00 -0.19335961289E+03  0.19335961296E+03  0.50400001928E-02 0. -1.
    10030    2    1    2    0    0  0.00000000000E+00  0.00000000000E+00  0.10998759804E+04  0.14865952062E+04  0.10001190604E+04 0.  0.
        2    1    3    3  502    0  0.19804778557E+03  0.29214366606E+03  0.10764924688E+04  0.11328754929E+04  0.25500000920E-02 0.  1.
       -2    1    3    3    0  502 -0.19804778557E+03 -0.29214366606E+03  0.23383511568E+02  0.35371971335E+03  0.25500000920E-02 0. -1.
</event>
<event>
 5   0  0.4140860E-03  0.1003899E+04  0.7818609E-02  0.9304278E-01
        2   -1    0    0  501    0  0.00000000000E+00  0.00000000000E+00  0.11704346484E+04  0.11704346484E+04  0.25500000920E-02 0.  1.
       -2   -1    0    0    0  501  0.00000000000E+00  0.00000000000E+00 -0.21526483747E+03  0.21526483748E+03  0.25500000920E-02 0. -1.
    10030    2    1    2    0    0  0.00000000000E+00  0.00000000000E+00  0.95516981094E+03  0.13856994859E+04  0.10038992467E+04 0.  0.
        3    1    3    3  502    0 -0.25530440866E+03 -0.84114354459E+02  0.10627122121E+04  0.10961810168E+04  0.10100000352E+00 0.  1.
       -3    1    3    3    0  502  0.25530440866E+03  0.84114354459E+02 -0.10754240112E+03  0.28951846910E+03  0.10100000352E+00 0. -1.
</event>
<event>
 5   0  0.2350769E-03  0.9945045E+03  0.7818609E-02  0.9314593E-01
        1   -1    0    0  501    0  0.00000000000E+00  0.00000000000E+00  0.99107717064E+03  0.99107717065E+03  0.50400001928E-02 0. -1.
       -1   -1    0    0    0  501  0.00000000000E+00  0.00000000000E+00 -0.24948592549E+03  0.24948592554E+03  0.50400001928E-02 0.  1.
    10030    2    1    2    0    0  0.00000000000E+00  0.00000000000E+00  0.74159124515E+03  0.12405630962E+04  0.99450451016E+03 0.  0.
        2    1    3    3  502    0 -0.24997790754E+03 -0.10999454978E+03  0.88914564687E+03  0.93014393326E+03  0.25500000920E-02 0. -1.
       -2    1    3    3    0  502  0.24997790754E+03  0.10999454978E+03 -0.14755440171E+03  0.31041916292E+03  0.25500000920E-02 0.  1.
</event>
<event>
 5   0  0.3826483E-03  0.1003331E+04  0.7818609E-02  0.9304899E-01
       -2   -1    0    0    0  501  0.00000000000E+00  0.00000000000E+00  0.52969174119E+03  0.52969174120E+03  0.25500000920E-02 0.  1.
        2   -1    0    0  501    0  0.00000000000E+00  0.00000000000E+00 -0.47512222361E+03  0.47512222362E+03  0.25500000920E-02 0. -1.
    10030    2    1    2    0    0  0.00000000000E+00  0.00000000000E+00  0.54569517584E+02  0.10048139648E+04  0.10033310877E+04 0.  0.
        4    1    3    3  502    0  0.78950629960E+02  0.29990792827E+03 -0.36761863143E+03  0.48096053734E+03  0.12699999809E+01 0. -1.
       -4    1    3    3    0  502 -0.78950629960E+02 -0.29990792827E+03  0.42218814901E+03  0.52385342747E+03  0.12699999809E+01 0.  1.
</event>
<event>
 5   0  0.2405022E-03  0.1025068E+04  0.7818609E-02  0.9281470E-01
        1   -1    0    0  501    0  0.00000000000E+00  0.00000000000E+00  0.87871259873E+03  0.87871259874E+03  0.50400001928E-02 0.  1.
       -1   -1    0    0    0  501  0.00000000000E+00  0.00000000000E+00 -0.29894987707E+03  0.29894987711E+03  0.50400001928E-02 0. -1.
    10030    2    1    2    0    0  0.00000000000E+00  0.00000000000E+00  0.57976272166E+03  0.11776624759E+04  0.10250678483E+04 0.  0.
        4    1    3    3  502    0  0.21344259577E+03  0.64623000053E+02  0.82004836267E+03  0.84983222100E+03  0.12699999809E+01 0.  1.
       -4    1    3    3    0  502 -0.21344259577E+03 -0.64623000053E+02 -0.24028564101E+03  0.32783025486E+03  0.12699999809E+01 0. -1.
</event>
<event>
 5   0  0.2378609E-03  0.9960160E+03  0.7818609E-02  0.9312925E-01
        1   -1    0    0  501    0  0.00000000000E+00  0.00000000000E+00  0.27449366313E+03  0.27449366317E+03  0.50400001928E-02 0.  1.
       -1   -1    0    0    0  501  0.00000000000E+00  0.00000000000E+00 -0.90352537298E+03  0.90352537300E+03  0.50400001928E-02 0. -1.
    10030    2    1    2    0    0  0.00000000000E+00  0.00000000000E+00 -0.62903170986E+03  0.11780190362E+04  0.99601604283E+03 0.  0.
        1    1    3    3  502    0 -0.32308186746E+03  0.53117779355E+02  0.12929769937E+03  0.35202455405E+03  0.50400001928E-02 0.  1.
       -1    1    3    3    0  502  0.32308186746E+03 -0.53117779355E+02 -0.75832940923E+03  0.82599448212E+03  0.50400001928E-02 0. -1.
</event>
<event>
 5   0  0.2327595E-03  0.9895614E+03  0.7818609E-02  0.9320068E-01
       -1   -1    0    0    0  501  0.00000000000E+00  0.00000000000E+00  0.53079479277E+03  0.53079479279E+03  0.50400001928E-02 0. -1.
        1   -1    0    0  501    0  0.00000000000E+00  0.00000000000E+00 -0.46121013587E+03  0.46121013589E+03  0.50400001928E-02 0.  1.
    10030    2    1    2    0    0  0.00000000000E+00  0.00000000000E+00  0.69584656903E+02  0.99200492869E+03  0.98956139479E+03 0.  0.
        5    1    3    3  502    0 -0.43972692247E+03 -0.22617162214E+03  0.18244614193E+02  0.49484171707E+03  0.46999998093E+01 0. -1.
       -5    1    3    3    0  502  0.43972692247E+03  0.22617162214E+03  0.51340042710E+02  0.49716321162E+03  0.46999998093E+01 0.  1.
</event>
<event>
 5   0  0.2313036E-03  0.9025567E+03  0.7818609E-02  0.9422391E-01
        1   -1    0    0  501    0  0.00000000000E+00  0.00000000000E+00  0.46658403781E+03  0.46658403784E+03  0.50400001928E-02 0. -1.
       -1   -1    0    0    0  501  0.00000000000E+00  0.00000000000E+00 -0.43647474308E+03  0.43647474311E+03  0.50400001928E-02 0.  1.
    10030    2    1    2    0    0  0.00000000000E+00  0.00000000000E+00  0.30109294735E+02  0.90305878095E+03  0.90255669751E+03 0.  0.
        3    1    3    3  502    0  0.22760176203E+03 -0.32814146890E+03 -0.19523541795E+03  0.44451801349E+03  0.10100000352E+00 0.  1.
       -3    1    3    3    0  502 -0.22760176203E+03  0.32814146890E+03  0.22534471269E+03  0.45854076746E+03  0.10100000352E+00 0. -1.
</event>
<event>
 5   0  0.3895011E-03  0.9799891E+03  0.7818609E-02  0.9330769E-01
        2   -1    0    0  501    0  0.00000000000E+00  0.00000000000E+00  0.61943287595E+03  0.61943287596E+03  0.25500000920E-02 0.  1.
       -2   -1    0    0    0  501  0.00000000000E+00  0.00000000000E+00 -0.38760397440E+03  0.38760397441E+03  0.25500000920E-02 0. -1.
    10030    2    1    2    0    0  0.00000000000E+00  0.00000000000E+00  0.23182890155E+03  0.10070368504E+04  0.97998907055E+03 0.  0.
        2    1    3    3  502    0  0.32055061456E+03 -0.33785901715E+03 -0.40582100968E+02  0.46749151745E+03  0.25500000920E-02 0.  1.
       -2    1    3    3    0  502 -0.32055061456E+03  0.33785901715E+03  0.27241100252E+03  0.53954533291E+03  0.25500000920E-02 0. -1.
</event>
<event>
 5   0  0.2405022E-03  0.1003931E+04  0.7818609E-02  0.9304243E-01
        1   -1    0    0  501    0  0.00000000000E+00  0.00000000000E+00  0.68521123283E+03  0.68521123285E+03  0.50400001928E-02 0.  1.
       -1   -1    0    0    0  501  0.00000000000E+00  0.00000000000E+00 -0.36772543774E+03  0.36772543777E+03  0.50400001928E-02 0. -1.
    10030    2    1    2    0    0  0.00000000000E+00  0.00000000000E+00  0.31748579509E+03  0.10529366706E+04  0.10039314729E+04 0.  0.
        4    1    3    3  502    0  0.37389934557E+03 -0.15971503662E+03 -0.15000460267E+03  0.43337351933E+03  0.12699999809E+01 0. -1.
       -4    1    3    3    0  502 -0.37389934557E+03  0.15971503662E+03  0.46749039776E+03  0.61956315129E+03  0.12699999809E+01 0.  1.
</event>
<event>
 5   0  0.4140860E-03  0.9848008E+03  0.7818609E-02  0.9325374E-01
       -2   -1    0    0    0  501  0.00000000000E+00  0.00000000000E+00  0.80327932978E+03  0.80327932979E+03  0.25500000920E-02 0. -1.
        2   -1    0    0  501    0  0.00000000000E+00  0.00000000000E+00 -0.30183544595E+03  0.30183544596E+03  0.25500000920E-02 0.  1.
    10030    2    1    2    0    0  0.00000000000E+00  0.00000000000E+00  0.50144388383E+03  0.11051147758E+04  0.98480084228E+03 0.  0.
        3    1    3    3  502    0  0.48984596383E+03 -0.46953347495E+02  0.27030308069E+03  0.56144229512E+03  0.10100000352E+00 0.  1.
       -3    1    3    3    0  502 -0.48984596383E+03  0.46953347495E+02  0.23114080314E+03  0.54367248063E+03  0.10100000352E+00 0. -1.
</event>
<event>
 5   0  0.1548000E-03  0.9983160E+03  0.7818609E-02  0.9310394E-01
       -3   -1    0    0    0  501  0.00000000000E+00  0.00000000000E+00  0.76016899281E+03  0.76016899952E+03  0.10100000352E+00 0.  1.
        3   -1    0    0  501    0  0.00000000000E+00  0.00000000000E+00 -0.32776748163E+03  0.32776749719E+03  0.10100000352E+00 0. -1.
    10030    2    1    2    0    0  0.00000000000E+00  0.00000000000E+00  0.43240151118E+03  0.10879364967E+04  0.99831595901E+03 0.  0.
        1    1    3    3  502    0  0.35950701631E+03  0.32725395602E+03  0.92819335323E+02  0.49493017239E+03  0.50400001928E-02 0. -1.
       -1    1    3    3    0  502 -0.35950701631E+03 -0.32725395602E+03  0.33958217586E+03  0.59300632433E+03  0.50400001928E-02 0.  1.
</event>
<event>
 5   0  0.3826483E-03  0.1015553E+04  0.7818609E-02  0.9291649E-01
       -2   -1    0    0    0  501  0.00000000000E+00  0.00000000000E+00  0.17416546764E+04  0.17416546764E+04  0.25500000920E-02 0.  1.
        2   -1    0    0  501    0  0.00000000000E+00  0.00000000000E+00 -0.14804147758E+03  0.14804147761E+03  0.25500000920E-02 0. -1.
    10030    2    1    2    0    0  0.00000000000E+00  0.00000000000E+00  0.15936131988E+04  0.18896961540E+04  0.10155533108E+04 0.  0.
        4    1    3    3  502    0  0.69502714160E+02  0.81650565497E+02 -0.12673194575E+03  0.16601217153E+03  0.12699999809E+01 0. -1.
       -4    1    3    3    0  502 -0.69502714160E+02 -0.81650565497E+02  0.17203451446E+04  0.17236839825E+04  0.12699999809E+01 0.  1.
</event>
<event>
 5   0  0.2378609E-03  0.1004073E+04  0.7818609E-02  0.9304089E-01
        1   -1    0    0  501    0  0.00000000000E+00  0.00000000000E+00  0.19211475149E+04  0.19211475149E+04  0.50400001928E-02 0.  1.
       -1   -1    0    0    0  501  0.00000000000E+00  0.00000000000E+00 -0.13119283574E+03  0.13119283584E+03  0.50400001928E-02 0. -1.
    10030    2    1    2    0    0  0.00000000000E+00  0.00000000000E+00  0.17899546791E+04  0.20523403507E+04  0.10040732851E+04 0.  0.
        1    1    3    3  502    0  0.12475363913E+03 -0.27606071720E+03  0.76687592049E+02  0.31249636295E+03  0.50400001928E-02 0. -1.
       -1    1    3    3    0  502 -0.12475363913E+03  0.27606071720E+03  0.17132670871E+04  0.17398439878E+04  0.50400001928E-02 0.  1.
</event>
<event>
 5   0  0.3873874E-03  0.9778084E+03  0.7818609E-02  0.9333225E-01
        2   -1    0    0  501    0  0.00000000000E+00  0.00000000000E+00  0.53238485499E+03  0.53238485499E+03  0.25500000920E-02 0.  1.
       -2   -1    0    0    0  501  0.00000000000E+00  0.00000000000E+00 -0.44897466170E+03  0.44897466171E+03  0.25500000920E-02 0. -1.
    10030    2    1    2    0    0  0.00000000000E+00  0.00000000000E+00  0.83410193283E+02  0.98135951670E+03  0.97780838648E+03 0.  0.
        5    1    3    3  502    0 -0.15441738557E+03 -0.42980420276E+03  0.21677724784E+03  0.50555993399E+03  0.46999998093E+01 0.  1.
       -5    1    3    3    0  502  0.15441738557E+03  0.42980420276E+03 -0.13336705455E+03  0.47579958272E+03  0.46999998093E+01 0. -1.
</event>
<event>
 5   0  0.1548000E-03  0.9941689E+03  0.7818609E-02  0.9314963E-01
        3   -1    0    0  501    0  0.00000000000E+00  0.00000000000E+00  0.13605616546E+04  0.13605616583E+04  0.10100000352E+00 0.  1.
       -3   -1    0    0    0  501  0.00000000000E+00  0.00000000000E+00 -0.18161096561E+03  0.18161099369E+03  0.10100000352E+00 0. -1.
    10030    2    1    2    0    0  0.00000000000E+00  0.00000000000E+00  0.11789506890E+04  0.15421726520E+04  0.99416887983E+03 0.  0.
        1    1    3    3  502    0  0.51304332039E+02 -0.44652380426E+03  0.26012981597E+03  0.51931027666E+03  0.50400001928E-02 0. -1.
       -1    1    3    3    0  502 -0.51304332039E+02  0.44652380426E+03  0.91882087301E+03  0.10228623754E+04  0.50400001928E-02 0.  1.
</event>
<event>
 5   0  0.4026829E-03  0.1003036E+04  0.7818609E-02  0.9305221E-01
        2   -1    0    0  501    0  0.00000000000E+00  0.00000000000E+00  0.69413892049E+03  0.69413892049E+03  0.25500000920E-02 0.  1.
       -2   -1    0    0    0  501  0.00000000000E+00  0.00000000000E+00 -0.36234881272E+03  0.36234881272E+03  0.25500000920E-02 0. -1.
    10030    2    1    2    0    0  0.00000000000E+00  0.00000000000E+00  0.33179010777E+03  0.10564877332E+04  0.10030362181E+04 0.  0.
        1    1    3    3  502    0  0.49475852398E+03 -0.59293037928E+02  0.10613766385E+03  0.50947705062E+03  0.50400001928E-02 0. -1.
       -1    1    3    3    0  502 -0.49475852398E+03  0.59293037928E+02  0.22565244392E+03  0.54701068259E+03  0.50400001928E-02 0.  1.
</event>
<event>
 5   0  0.4140860E-03  0.1000712E+04  0.7818609E-02  0.9307764E-01
        2   -1    0    0  501    0  0.00000000000E+00  0.00000000000E+00  0.38158606252E+03  0.38158606253E+03  0.25500000920E-02 0.  1.
       -2   -1    0    0    0  501  0.00000000000E+00  0.00000000000E+00 -0.65609405184E+03  0.65609405184E+03  0.25500000920E-02 0. -1.
    10030    2    1    2    0    0  0.00000000000E+00  0.00000000000E+00 -0.27450798932E+03  0.10376801144E+04  0.10007124380E+04 0.  0.
        3    1    3    3  502    0 -0.47021198554E+03  0.19002030942E+02  0.39013675310E+02  0.47221019216E+03  0.10100000352E+00 0.  1.
       -3    1    3    3    0  502  0.47021198554E+03 -0.19002030942E+02 -0.31352166463E+03  0.56546992220E+03  0.10100000352E+00 0. -1.
</event>
<event>
 5   0  0.2378609E-03  0.1000693E+04  0.7818609E-02  0.9307785E-01
        1   -1    0    0  501    0  0.00000000000E+00  0.00000000000E+00  0.90180885324E+03  0.90180885325E+03  0.50400001928E-02 0.  1.
       -1   -1    0    0    0  501  0.00000000000E+00  0.00000000000E+00 -0.27760520580E+03  0.27760520584E+03  0.50400001928E-02 0. -1.
    10030    2    1    2    0    0  0.00000000000E+00  0.00000000000E+00  0.62420364744E+03  0.11794140591E+04  0.10006934242E+04 0.  0.
        1    1    3    3  502    0  0.34060839896E+03  0.71853687226E+02  0.73569186923E+03  0.81389161459E+03  0.50400001928E-02 0.  1.
       -1    1    3    3    0  502 -0.34060839896E+03 -0.71853687226E+02 -0.11148822179E+03  0.36552244450E+03  0.50400001928E-02 0. -1.
</event>
<event>
 5   0  0.1548000E-03  0.1000881E+04  0.7818609E-02  0.9307579E-01
       -4   -1    0    0    0  501  0.00000000000E+00  0.00000000000E+00  0.52264530236E+03  0.52264684537E+03  0.12699999809E+01 0.  1.
        4   -1    0    0  501    0  0.00000000000E+00  0.00000000000E+00 -0.47917587807E+03  0.47917756106E+03  0.12699999809E+01 0. -1.
    10030    2    1    2    0    0  0.00000000000E+00  0.00000000000E+00  0.43469424289E+02  0.10018244064E+04  0.10008808873E+04 0.  0.
        3    1    3    3  502    0 -0.25957767599E+03 -0.28246537205E+03  0.34339940123E+03  0.51486931861E+03  0.10100000352E+00 0.  1.
       -3    1    3    3    0  502  0.25957767599E+03  0.28246537205E+03 -0.29992997694E+03  0.48695508782E+03  0.10100000352E+00 0. -1.
</event>
<event>
 5   0  0.4026829E-03  0.1004493E+04  0.7818609E-02  0.9303630E-01
        2   -1    0    0  501    0  0.00000000000E+00  0.00000000000E+00  0.87957193755E+03  0.87957193756E+03  0.25500000920E-02 0.  1.
       -2   -1    0    0    0  501  0.00000000000E+00  0.00000000000E+00 -0.28678907086E+03  0.28678907087E+03  0.25500000920E-02 0. -1.
    10030    2    1    2    0    0  0.00000000000E+00  0.00000000000E+00  0.59278286669E+03  0.11663610084E+04  0.10044931433E+04 0.  0.
        1    1    3    3  502    0  0.31459249591E+03  0.38842571119E+03  0.23940485192E+03  0.55421805704E+03  0.50400001928E-02 0.  1.
       -1    1    3    3    0  502 -0.31459249591E+03 -0.38842571119E+03  0.35337801477E+03  0.61214295140E+03  0.50400001928E-02 0. -1.
</event>
<event>
 5   0  0.4140860E-03  0.9965038E+03  0.7818609E-02  0.9312388E-01
        2   -1    0    0  501    0  0.00000000000E+00  0.00000000000E+00  0.17389873966E+04  0.17389873966E+04  0.25500000920E-02 0. -1.
       -2   -1    0    0    0  501  0.00000000000E+00  0.00000000000E+00 -0.14275833215E+03  0.14275833218E+03  0.25500000920E-02 0.  1.
    10030    2    1    2    0    0  0.00000000000E+00  0.00000000000E+00  0.15962290644E+04  0.18817457288E+04  0.99650376898E+03 0.  0.
        3    1    3    3  502    0 -0.22833820997E+03 -0.44115064145E+03  0.87131580951E+03  0.10029673358E+04  0.10100000352E+00 0. -1.
       -3    1    3    3    0  502  0.22833820997E+03  0.44115064145E+03  0.72491325493E+03  0.87877839297E+03  0.10100000352E+00 0.  1.
</event>
<event>
 5   0  0.2327595E-03  0.1011054E+04  0.7818609E-02  0.9296504E-01
       -1   -1    0    0    0  501  0.00000000000E+00  0.00000000000E+00  0.18136061500E+03  0.18136061507E+03  0.50400001928E-02 0.  1.
        1   -1    0    0  501    0  0.00000000000E+00  0.00000000000E+00 -0.14091118155E+04  0.14091118155E+04  0.50400001928E-02 0. -1.
    10030    2    1    2    0    0  0.00000000000E+00  0.00000000000E+00 -0.12277512005E+04  0.15904724306E+04  0.10110536792E+04 0.  0.
        5    1    3    3  502    0  0.27513479178E+02 -0.11162253748E+03  0.16048885257E+03  0.19747238847E+03  0.46999998093E+01 0.  1.
       -5    1    3    3    0  502 -0.27513479178E+02  0.11162253748E+03 -0.13882400531E+04  0.13930000421E+04  0.46999998093E+01 0. -1.
</event>
<event>
 5   0  0.4140860E-03  0.9996692E+03  0.7818609E-02  0.9308908E-01
       -2   -1    0    0    0  501  0.00000000000E+00  0.00000000000E+00  0.24626433783E+03  0.24626433785E+03  0.25500000920E-02 0. -1.
        2   -1    0    0  501    0  0.00000000000E+00  0.00000000000E+00 -0.10144977634E+04  0.10144977634E+04  0.25500000920E-02 0.  1.
    10030    2    1    2    0    0  0.00000000000E+00  0.00000000000E+00 -0.76823342556E+03  0.12607621012E+04  0.99966918517E+03 0.  0.
        3    1    3    3  502    0 -0.20471853236E+03  0.43662470832E+03 -0.54992124979E+03  0.73141247227E+03  0.10100000352E+00 0.  1.
       -3    1    3    3    0  502  0.20471853236E+03 -0.43662470832E+03 -0.21831217576E+03  0.52934962897E+03  0.10100000352E+00 0. -1.
</event>
<event>
 5   0  0.2350769E-03  0.1013583E+04  0.7818609E-02  0.9293771E-01
       -1   -1    0    0    0  501  0.00000000000E+00  0.00000000000E+00  0.29743629234E+03  0.29743629238E+03  0.50400001928E-02 0.  1.
        1   -1    0    0  501    0  0.00000000000E+00  0.00000000000E+00 -0.86350469165E+03  0.86350469167E+03  0.50400001928E-02 0. -1.
    10030    2    1    2    0    0  0.00000000000E+00  0.00000000000E+00 -0.56606839931E+03  0.11609409840E+04  0.10135830187E+04 0.  0.
        2    1    3    3  502    0  0.35854080371E+03 -0.51206526046E+02  0.12299408430E+03  0.38249334767E+03  0.25500000920E-02 0.  1.
       -2    1    3    3    0  502 -0.35854080371E+03  0.51206526046E+02 -0.68906248362E+03  0.77844763637E+03  0.25500000920E-02 0. -1.
</event>
<event>
 5   0  0.2405022E-03  0.9779811E+03  0.7818609E-02  0.9333030E-01
        1   -1    0    0  501    0  0.00000000000E+00  0.00000000000E+00  0.55544595501E+03  0.55544595503E+03  0.50400001928E-02 0. -1.
       -1   -1    0    0    0  501  0.00000000000E+00  0.00000000000E+00 -0.43048610528E+03  0.43048610531E+03  0.50400001928E-02 0.  1.
    10030    2    1    2    0    0  0.00000000000E+00  0.00000000000E+00  0.12495984973E+03  0.98593206034E+03  0.97798111616E+03 0.  0.
        4    1    3    3  502    0  0.21611078905E+03 -0.42318037281E+03  0.17885084183E+03  0.50771521308E+03  0.12699999809E+01 0.  1.
       -4    1    3    3    0  502 -0.21611078905E+03  0.42318037281E+03 -0.53890992093E+02  0.47821684726E+03  0.12699999809E+01 0. -1.
</event>
<event>
 5   0  0.4140860E-03  0.9857306E+03  0.7818609E-02  0.9324335E-01
        2   -1    0    0  501    0  0.00000000000E+00  0.00000000000E+00  0.15026782941E+04  0.15026782941E+04  0.25500000920E-02 0. -1.
       -2   -1    0    0    0  501  0.00000000000E+00  0.00000000000E+00 -0.16165549069E+03  0.16165549071E+03  0.25500000920E-02 0.  1.
    10030    2    1    2    0    0  0.00000000000E+00  0.00000000000E+00  0.13410228034E+04  0.16643337848E+04  0.98573058593E+03 0.  0.
        3    1    3    3  502    0 -0.50043959867E+02 -0.38877027564E+03  0.16604336463E+03  0.42569605857E+03  0.10100000352E+00 0.  1.
       -3    1    3    3    0  502  0.50043959867E+02  0.38877027564E+03  0.11749794388E+04  0.12386377263E+04  0.10100000352E+00 0. -1.
</event>
<event>
 5   0  0.2313036E-03  0.1051416E+04  0.7818609E-02  0.9253884E-01
       -1   -1    0    0    0  501  0.00000000000E+00  0.00000000000E+00  0.15816123734E+03  0.15816123742E+03  0.50400001928E-02 0. -1.
        1   -1    0    0  501    0  0.00000000000E+00  0.00000000000E+00 -0.17473862411E+04  0.17473862411E+04  0.50400001928E-02 0.  1.
    10030    2    1    2    0    0  0.00000000000E+00  0.00000000000E+00 -0.15892250038E+04  0.19055474786E+04  0.10514157505E+04 0.  0.
        3    1    3    3  502    0 -0.27403817437E+02 -0.24445161210E+03  0.47427239255E+02  0.25051329923E+03  0.10100000352E+00 0. -1.
       -3    1    3    3    0  502  0.27403817437E+02  0.24445161210E+03 -0.16366522430E+04  0.16550341793E+04  0.10100000352E+00 0.  1.
</event>
<event>
 5   0  0.2378609E-03  0.1024346E+04  0.7818609E-02  0.9282239E-01
        1   -1    0    0  501    0  0.00000000000E+00  0.00000000000E+00  0.20580542890E+03  0.20580542896E+03  0.50400001928E-02 0.  1.
       -1   -1    0    0    0  501  0.00000000000E+00  0.00000000000E+00 -0.12746069472E+04  0.12746069473E+04  0.50400001928E-02 0. -1.
    10030    2    1    2    0    0  0.00000000000E+00  0.00000000000E+00 -0.10688015183E+04  0.14804123762E+04  0.10243457024E+04 0.  0.
        1    1    3    3  502    0 -0.66478074747E+02 -0.49986069932E+03 -0.40480507180E+03  0.64664302310E+03  0.50400001928E-02 0.  1.
       -1    1    3    3    0  502  0.66478074747E+02  0.49986069932E+03 -0.66399644654E+03  0.83376935312E+03  0.50400001928E-02 0. -1.
</event>
<event>
 5   0  0.2405022E-03  0.1002277E+04  0.7818609E-02  0.9306051E-01
       -1   -1    0    0    0  501  0.00000000000E+00  0.00000000000E+00  0.13179790831E+03  0.13179790841E+03  0.50400001928E-02 0.  1.
        1   -1    0    0  501    0  0.00000000000E+00  0.00000000000E+00 -0.19054899391E+04  0.19054899391E+04  0.50400001928E-02 0. -1.
    10030    2    1    2    0    0  0.00000000000E+00  0.00000000000E+00 -0.17736920308E+04  0.20372878475E+04  0.10022765854E+04 0.  0.
        4    1    3    3  502    0 -0.23092085626E+03 -0.21378189085E+03 -0.16796117812E+04  0.17088371739E+04  0.12699999809E+01 0. -1.
       -4    1    3    3    0  502  0.23092085626E+03  0.21378189085E+03 -0.94080249639E+02  0.32845067360E+03  0.12699999809E+01 0.  1.
</event>
<event>
 5   0  0.3895011E-03  0.1021258E+04  0.7818609E-02  0.9285531E-01
       -2   -1    0    0    0  501  0.00000000000E+00  0.00000000000E+00  0.18272097516E+03  0.18272097518E+03  0.25500000920E-02 0. -1.
        2   -1    0    0  501    0  0.00000000000E+00  0.00000000000E+00 -0.14269966612E+04  0.14269966612E+04  0.25500000920E-02 0.  1.
    10030    2    1    2    0    0  0.00000000000E+00  0.00000000000E+00 -0.12442756860E+04  0.16097176364E+04  0.10212584815E+04 0.  0.
        2    1    3    3  502    0  0.14144358191E+03  0.45317841768E+03 -0.91855438152E+03  0.10339821647E+04  0.25500000920E-02 0. -1.
       -2    1    3    3    0  502 -0.14144358191E+03 -0.45317841768E+03 -0.32572130452E+03  0.57573547167E+03  0.25500000920E-02 0.  1.
</event>
<event>
 5   0  0.3895011E-03  0.9993720E+03  0.7818609E-02  0.9309234E-01
       -2   -1    0    0    0  501  0.00000000000E+00  0.00000000000E+00  0.72835135673E+02  0.72835135717E+02  0.25500000920E-02 0. -1.
        2   -1    0    0  501    0  0.00000000000E+00  0.00000000000E+00 -0.34280995042E+04  0.34280995042E+04  0.25500000920E-02 0.  1.
    10030    2    1    2    0    0  0.00000000000E+00  0.00000000000E+00 -0.33552643685E+04  0.35009346399E+04  0.99937198793E+03 0.  0.
        2    1    3    3  502    0  0.41819704877E+03 -0.60285435377E+02 -0.26121421043E+04  0.26460932483E+04  0.25500000920E-02 0.  1.
       -2    1    3    3    0  502 -0.41819704877E+03  0.60285435377E+02 -0.74312226419E+03  0.85484139164E+03  0.25500000920E-02 0. -1.
</event>
<event>
 5   0  0.3895011E-03  0.9984969E+03  0.7818609E-02  0.9310195E-01
       -2   -1    0    0    0  501  0.00000000000E+00  0.00000000000E+00  0.47760251756E+03  0.47760251757E+03  0.25500000920E-02 0. -1.
        2   -1    0    0  501    0  0.00000000000E+00  0.00000000000E+00 -0.52187543039E+03  0.52187543040E+03  0.25500000920E-02 0.  1.
    10030    2    1    2    0    0  0.00000000000E+00  0.00000000000E+00 -0.44272912828E+02  0.99947794797E+03  0.99849690919E+03 0.  0.
        2    1    3    3  502    0 -0.55231829464E+02  0.39447529051E+03  0.27913718120E+03  0.48639374558E+03  0.25500000920E-02 0. -1.
       -2    1    3    3    0  502  0.55231829464E+02 -0.39447529051E+03 -0.32341009403E+03  0.51308420238E+03  0.25500000920E-02 0.  1.
</event>
<event>
 5   0  0.1548000E-03  0.9962946E+03  0.7818609E-02  0.9312618E-01
       -4   -1    0    0    0  501  0.00000000000E+00  0.00000000000E+00  0.37656996176E+03  0.37657210332E+03  0.12699999809E+01 0. -1.
        4   -1    0    0  501    0  0.00000000000E+00  0.00000000000E+00 -0.65897179946E+03  0.65897302325E+03  0.12699999809E+01 0.  1.
    10030    2    1    2    0    0  0.00000000000E+00  0.00000000000E+00 -0.28240183770E+03  0.10355451266E+04  0.99629459059E+03 0.  0.
        5    1    3    3  502    0  0.45067781903E+03 -0.61867119078E+02  0.69749465131E+02  0.46024462503E+03  0.46999998093E+01 0.  1.
       -5    1    3    3    0  502 -0.45067781903E+03  0.61867119078E+02 -0.35215130283E+03  0.57530050154E+03  0.46999998093E+01 0. -1.
</event>
<event>
 5   0  0.2405022E-03  0.9759827E+03  0.7818609E-02  0.9335286E-01
        1   -1    0    0  501    0  0.00000000000E+00  0.00000000000E+00  0.10679095491E+04  0.10679095491E+04  0.50400001928E-02 0. -1.
       -1   -1    0    0    0  501  0.00000000000E+00  0.00000000000E+00 -0.22299226357E+03  0.22299226363E+03  0.50400001928E-02 0.  1.
    10030    2    1    2    0    0  0.00000000000E+00  0.00000000000E+00  0.84491728548E+03  0.12909018127E+04  0.97598272050E+03 0.  0.
        4    1    3    3  502    0  0.34545283636E+03  0.79628571886E+02 -0.21090345566E+02  0.35514051752E+03  0.12699999809E+01 0.  1.
       -4    1    3    3    0  502 -0.34545283636E+03 -0.79628571886E+02  0.86600763105E+03  0.93576129517E+03  0.12699999809E+01 0. -1.
</event>
<event>
 5   0  0.2313036E-03  0.1004465E+04  0.7818609E-02  0.9303661E-01
        1   -1    0    0  501    0  0.00000000000E+00  0.00000000000E+00  0.13470694778E+04  0.13470694778E+04  0.50400001928E-02 0.  1.
       -1   -1    0    0    0  501  0.00000000000E+00  0.00000000000E+00 -0.18724904995E+03  0.18724905002E+03  0.50400001928E-02 0. -1.
    10030    2    1    2    0    0  0.00000000000E+00  0.00000000000E+00  0.11598204278E+04  0.15343185278E+04  0.10044649919E+04 0.  0.
        3    1    3    3  502    0  0.29818470242E+03 -0.30306571129E+03  0.17153782434E+03  0.45846284200E+03  0.10100000352E+00 0. -1.
       -3    1    3    3    0  502 -0.29818470242E+03  0.30306571129E+03  0.98828260351E+03  0.10758556858E+04  0.10100000352E+00 0.  1.
</event>
<event>
 5   0  0.3873874E-03  0.1013027E+04  0.7818609E-02  0.9294372E-01
       -2   -1    0    0    0  501  0.00000000000E+00  0.00000000000E+00  0.40753811760E+03  0.40753811761E+03  0.25500000920E-02 0. -1.
        2   -1    0    0  501    0  0.00000000000E+00  0.00000000000E+00 -0.62952584274E+03  0.62952584274E+03  0.25500000920E-02 0.  1.
    10030    2    1    2    0    0  0.00000000000E+00  0.00000000000E+00 -0.22198772514E+03  0.10370639604E+04  0.10130267063E+04 0.  0.
        5    1    3    3  502    0  0.19343961099E+03  0.29944012236E+03  0.25733552773E+03  0.43968958802E+03  0.46999998093E+01 0. -1.
       -5    1    3    3    0  502 -0.19343961099E+03 -0.29944012236E+03 -0.47932325287E+03  0.59737437233E+03  0.46999998093E+01 0.  1.
</event>
<event>
 5   0  0.2405022E-03  0.1019760E+04  0.7818609E-02  0.9287134E-01
       -1   -1    0    0    0  501  0.00000000000E+00  0.00000000000E+00  0.14829099541E+03  0.14829099550E+03  0.50400001928E-02 0.  1.
        1   -1    0    0  501    0  0.00000000000E+00  0.00000000000E+00 -0.17531579625E+04  0.17531579625E+04  0.50400001928E-02 0. -1.
    10030    2    1    2    0    0  0.00000000000E+00  0.00000000000E+00 -0.16048669671E+04  0.19014489580E+04  0.10197598530E+04 0.  0.
        4    1    3    3  502    0 -0.66967850593E+02  0.50265510872E+03 -0.90161003646E+03  0.10344317871E+04  0.12699999809E+01 0.  1.
       -4    1    3    3    0  502  0.66967850593E+02 -0.50265510872E+03 -0.70325693060E+03  0.86701717092E+03  0.12699999809E+01 0. -1.
</event>
<event>
 5   0  0.3873874E-03  0.9920467E+03  0.7818609E-02  0.9317311E-01
       -2   -1    0    0    0  501  0.00000000000E+00  0.00000000000E+00  0.19563007460E+03  0.19563007462E+03  0.25500000920E-02 0.  1.
        2   -1    0    0  501    0  0.00000000000E+00  0.00000000000E+00 -0.12576755278E+04  0.12576755278E+04  0.25500000920E-02 0. -1.
    10030    2    1    2    0    0  0.00000000000E+00  0.00000000000E+00 -0.10620454532E+04  0.14533056024E+04  0.99204668710E+03 0.  0.
        5    1    3    3  502    0 -0.18076669974E+03 -0.55516350930E+02 -0.12027632011E+04  0.12175467436E+04  0.46999998093E+01 0. -1.
       -5    1    3    3    0  502  0.18076669974E+03  0.55516350930E+02  0.14071774788E+03  0.23575885884E+03  0.46999998093E+01 0.  1.
</event>
<event>
 5   0  0.2405022E-03  0.9911949E+03  0.7818609E-02  0.9318255E-01
       -1   -1    0    0    0  501  0.00000000000E+00  0.00000000000E+00  0.87234735120E+03  0.87234735121E+03  0.50400001928E-02 0. -1.
        1   -1    0    0  501    0  0.00000000000E+00  0.00000000000E+00 -0.28155849916E+03  0.28155849921E+03  0.50400001928E-02 0.  1.
    10030    2    1    2    0    0  0.00000000000E+00  0.00000000000E+00  0.59078885203E+03  0.11539058504E+04  0.99119485670E+03 0.  0.
        4    1    3    3  502    0 -0.48662059311E+03  0.27658794400E+02  0.39984843758E+03  0.63043238851E+03  0.12699999809E+01 0.  1.
       -4    1    3    3    0  502  0.48662059311E+03 -0.27658794400E+02  0.19094041445E+03  0.52347346191E+03  0.12699999809E+01 0. -1.
</event>
<event>
 5   0  0.2327595E-03  0.1003222E+04  0.7818609E-02  0.9305018E-01
       -1   -1    0    0    0  501  0.00000000000E+00  0.00000000000E+00  0.43387884449E+03  0.43387884452E+03  0.50400001928E-02 0.  1.
        1   -1    0    0  501    0  0.00000000000E+00  0.00000000000E+00 -0.57991679494E+03  0.57991679496E+03  0.50400001928E-02 0. -1.
    10030    2    1    2    0    0  0.00000000000E+00  0.00000000000E+00 -0.14603795045E+03  0.10137956395E+04  0.10032220670E+04 0.  0.
        5    1    3    3  502    0 -0.30329327152E+03 -0.34453564212E+03 -0.27738776855E+03  0.53633728323E+03  0.46999998093E+01 0. -1.
       -5    1    3    3    0  502  0.30329327152E+03  0.34453564212E+03  0.13134981810E+03  0.47745835625E+03  0.46999998093E+01 0.  1.
</event>
<event>
 5   0  0.2313036E-03  0.9999704E+03  0.7818609E-02  0.9308577E-01
        1   -1    0    0  501    0  0.00000000000E+00  0.00000000000E+00  0.44624886684E+03  0.44624886687E+03  0.50400001928E-02 0. -1.
       -1   -1    0    0    0  501  0.00000000000E+00  0.00000000000E+00 -0.56019235726E+03  0.56019235728E+03  0.50400001928E-02 0.  1.
    10030    2    1    2    0    0  0.00000000000E+00  0.00000000000E+00 -0.11394349042E+03  0.10064412241E+04  0.99997040889E+03 0.  0.
        3    1    3    3  502    0  0.30799818098E+03  0.14332870410E+03  0.31225252093E+03  0.46141916295E+03  0.10100000352E+00 0. -1.
       -3    1    3    3    0  502 -0.30799818098E+03 -0.14332870410E+03 -0.42619601135E+03  0.54502206120E+03  0.10100000352E+00 0.  1.
</event>
<event>
 5   0  0.2378609E-03  0.1001202E+04  0.7818609E-02  0.9307228E-01
       -1   -1    0    0    0  501  0.00000000000E+00  0.00000000000E+00  0.56040361933E+03  0.56040361935E+03  0.50400001928E-02 0. -1.
        1   -1    0    0  501    0  0.00000000000E+00  0.00000000000E+00 -0.44717973756E+03  0.44717973759E+03  0.50400001928E-02 0.  1.
    10030    2    1    2    0    0  0.00000000000E+00  0.00000000000E+00  0.11322388177E+03  0.10075833569E+04  0.10012015650E+04 0.  0.
        1    1    3    3  502    0 -0.28151296341E+02  0.34950927730E+03  0.41617339598E+03  0.54419622009E+03  0.50400001928E-02 0. -1.
       -1    1    3    3    0  502  0.28151296341E+02 -0.34950927730E+03 -0.30294951422E+03  0.46338713685E+03  0.50400001928E-02 0.  1.
</event>
<event>
 5   0  0.3826483E-03  0.9953912E+03  0.7818609E-02  0.9313614E-01
        2   -1    0    0  501    0  0.00000000000E+00  0.00000000000E+00  0.34998660016E+03  0.34998660017E+03  0.25500000920E-02 0.  1.
       -2   -1    0    0    0  501  0.00000000000E+00  0.00000000000E+00 -0.70774400705E+03  0.70774400706E+03  0.25500000920E-02 0. -1.
    10030    2    1    2    0    0  0.00000000000E+00  0.00000000000E+00 -0.35775740689E+03  0.10577306072E+04  0.99539121720E+03 0.  0.
        4    1    3    3  502    0  0.47986457651E+03 -0.99152727800E+02 -0.27150446448E+03  0.56019421842E+03  0.12699999809E+01 0. -1.
       -4    1    3    3    0  502 -0.47986457651E+03  0.99152727800E+02 -0.86252942414E+02  0.49753638881E+03  0.12699999809E+01 0.  1.
</event>
<event>
 5   0  0.3895011E-03  0.9971364E+03  0.7818609E-02  0.9311691E-01
       -2   -1    0    0    0  501  0.00000000000E+00  0.00000000000E+00  0.47181977574E+03  0.47181977575E+03  0.25500000920E-02 0. -1.
        2   -1    0    0  501    0  0.00000000000E+00  0.00000000000E+00 -0.52683300353E+03  0.52683300354E+03  0.25500000920E-02 0.  1.
    10030    2    1    2    0    0  0.00000000000E+00  0.00000000000E+00 -0.55013227786E+02  0.99865277929E+03  0.99713635895E+03 0.  0.
        2    1    3    3  502    0  0.42037487951E+03 -0.16876525603E+03  0.18107311080E+03  0.48783626601E+03  0.25500000920E-02 0. -1.
       -2    1    3    3    0  502 -0.42037487951E+03  0.16876525603E+03 -0.23608633859E+03  0.51081651328E+03  0.25500000920E-02 0.  1.
</event>
<event>
 5   0  0.2313036E-03  0.9994252E+03  0.7818609E-02  0.9309175E-01
        1   -1    0    0  501    0  0.00000000000E+00  0.00000000000E+00  0.81788782792E+03  0.81788782794E+03  0.50400001928E-02 0.  1.
       -1   -1    0    0    0  501  0.00000000000E+00  0.00000000000E+00 -0.30531408507E+03  0.30531408511E+03  0.50400001928E-02 0. -1.
    10030    2    1    2    0    0  0.00000000000E+00  0.00000000000E+00  0.51257374285E+03  0.11232019130E+04  0.99942518260E+03 0.  0.
        3    1    3    3  502    0  0.22475676981E+03 -0.28517032061E+03 -0.12956294713E+03  0.38551820295E+03  0.10100000352E+00 0. -1.
       -3    1    3    3    0  502 -0.22475676981E+03  0.28517032061E+03  0.64213668998E+03  0.73768371010E+03  0.10100000352E+00 0.  1.
</event>
<event>
 5   0  0.4140860E-03  0.1021241E+04  0.7818609E-02  0.9285550E-01
       -2   -1    0    0    0  501  0.00000000000E+00  0.00000000000E+00  0.19049728481E+03  0.19049728483E+03  0.25500000920E-02 0. -1.
        2   -1    0    0  501    0  0.00000000000E+00  0.00000000000E+00 -0.13686985374E+04  0.13686985374E+04  0.25500000920E-02 0.  1.
    10030    2    1    2    0    0  0.00000000000E+00  0.00000000000E+00 -0.11782012526E+04  0.15591958222E+04  0.10212411177E+04 0.  0.
        3    1    3    3  502    0  0.45715594079E+03  0.16652064268E+03 -0.35251270813E+03  0.60082102013E+03  0.10100000352E+00 0. -1.
       -3    1    3    3    0  502 -0.45715594079E+03 -0.16652064268E+03 -0.82568854445E+03  0.95837480209E+03  0.10100000352E+00 0.  1.
</event>
<event>
 5   0  0.2378609E-03  0.9984444E+03  0.7818609E-02  0.9310253E-01
        1   -1    0    0  501    0  0.00000000000E+00  0.00000000000E+00  0.77517397940E+03  0.77517397942E+03  0.50400001928E-02 0. -1.
       -1   -1    0    0    0  501  0.00000000000E+00  0.00000000000E+00 -0.32150565407E+03  0.32150565411E+03  0.50400001928E-02 0.  1.
    10030    2    1    2    0    0  0.00000000000E+00  0.00000000000E+00  0.45366832533E+03  0.10966796335E+04  0.99844442469E+03 0.  0.
        1    1    3    3  502    0 -0.62633530142E+02 -0.49110250683E+03  0.15634718996E+03  0.51918115831E+03  0.50400001928E-02 0.  1.
       -1    1    3    3    0  502  0.62633530142E+02  0.49110250683E+03  0.29732113537E+03  0.57749847522E+03  0.50400001928E-02 0. -1.
</event>
<event>
 5   0  0.2405022E-03  0.9965345E+03  0.7818609E-02  0.9312354E-01
       -1   -1    0    0    0  501  0.00000000000E+00  0.00000000000E+00  0.46784605418E+03  0.46784605421E+03  0.50400001928E-02 0.  1.
        1   -1    0    0  501    0  0.00000000000E+00  0.00000000000E+00 -0.53066659165E+03  0.53066659168E+03  0.50400001928E-02 0. -1.
    10030    2    1    2    0    0  0.00000000000E+00  0.00000000000E+00 -0.62820537473E+02  0.99851264589E+03  0.99653453732E+03 0.  0.
        4    1    3    3  502    0 -0.38837445747E+03 -0.72482320620E+02  0.27280440644E+03  0.48011692648E+03  0.12699999809E+01 0.  1.
       -4    1    3    3    0  502  0.38837445747E+03  0.72482320620E+02 -0.33562494391E+03  0.51839571941E+03  0.12699999809E+01 0. -1.
</event>
<event>
 5   0  0.2327595E-03  0.9689733E+03  0.7818609E-02  0.9343245E-01
       -1   -1    0    0    0  501  0.00000000000E+00  0.00000000000E+00  0.24826824653E+03  0.24826824659E+03  0.50400001928E-02 0. -1.
        1   -1    0    0  501    0  0.00000000000E+00  0.00000000000E+00 -0.94545850762E+03  0.94545850763E+03  0.50400001928E-02 0.  1.
    10030    2    1    2    0    0  0.00000000000E+00  0.00000000000E+00 -0.69719026109E+03  0.11937267542E+04  0.96897332450E+03 0.  0.
        5    1    3    3  502    0 -0.48162294405E+03  0.39886504985E+02 -0.30675156265E+03  0.57242484633E+03  0.46999998093E+01 0.  1.
       -5    1    3    3    0  502  0.48162294405E+03 -0.39886504985E+02 -0.39043869844E+03  0.62130190789E+03  0.46999998093E+01 0. -1.
</event>
<event>
 5   0  0.4140860E-03  0.9768881E+03  0.7818609E-02  0.9334263E-01
        2   -1    0    0  501    0  0.00000000000E+00  0.00000000000E+00  0.94919462258E+03  0.94919462259E+03  0.25500000920E-02 0. -1.
       -2   -1    0    0    0  501  0.00000000000E+00  0.00000000000E+00 -0.25134740026E+03  0.25134740027E+03  0.25500000920E-02 0.  1.
    10030    2    1    2    0    0  0.00000000000E+00  0.00000000000E+00  0.69784722232E+03  0.12005420229E+04  0.97688812202E+03 0.  0.
        3    1    3    3  502    0  0.10502277315E+03 -0.19087186359E+03 -0.18833175845E+03  0.28797693073E+03  0.10100000352E+00 0.  1.
       -3    1    3    3    0  502 -0.10502277315E+03  0.19087186359E+03  0.88617898078E+03  0.91256509213E+03  0.10100000352E+00 0. -1.
</event>
<event>
 5   0  0.2378609E-03  0.9996101E+03  0.7818609E-02  0.9308973E-01
       -1   -1    0    0    0  501  0.00000000000E+00  0.00000000000E+00  0.80416740658E+03  0.80416740659E+03  0.50400001928E-02 0.  1.
        1   -1    0    0  501    0  0.00000000000E+00  0.00000000000E+00 -0.31063816701E+03  0.31063816705E+03  0.50400001928E-02 0. -1.
    10030    2    1    2    0    0  0.00000000000E+00  0.00000000000E+00  0.49352923956E+03  0.11148055736E+04  0.99961010235E+03 0.  0.
        1    1    3    3  502    0  0.47354081572E+03  0.14509814092E+03  0.32166623184E+03  0.59056205380E+03  0.50400001928E-02 0.  1.
       -1    1    3    3    0  502 -0.47354081572E+03 -0.14509814092E+03  0.17186300772E+03  0.52424351985E+03  0.50400001928E-02 0. -1.
</event>
<event>
 5   0  0.4026829E-03  0.9997931E+03  0.7818609E-02  0.9308772E-01
        2   -1    0    0  501    0  0.00000000000E+00  0.00000000000E+00  0.49170225461E+03  0.49170225462E+03  0.25500000920E-02 0. -1.
       -2   -1    0    0    0  501  0.00000000000E+00  0.00000000000E+00 -0.50822742033E+03  0.50822742034E+03  0.25500000920E-02 0.  1.
    10030    2    1    2    0    0  0.00000000000E+00  0.00000000000E+00 -0.16525165718E+02  0.99992967495E+03  0.99979311547E+03 0.  0.
        1    1    3    3  502    0  0.47478934333E+03 -0.15743973829E+02  0.14739856500E+03  0.49739233030E+03  0.50400001928E-02 0. -1.
       -1    1    3    3    0  502 -0.47478934333E+03  0.15743973829E+02 -0.16392373072E+03  0.50253734465E+03  0.50400001928E-02 0.  1.
</event>
<event>
 5   0  0.2405022E-03  0.9909266E+03  0.7818609E-02  0.9318553E-01
        1   -1    0    0  501    0  0.00000000000E+00  0.00000000000E+00  0.20061014822E+04  0.20061014822E+04  0.50400001928E-02 0.  1.
       -1   -1    0    0    0  501  0.00000000000E+00  0.00000000000E+00 -0.12236863445E+03  0.12236863455E+03  0.50400001928E-02 0. -1.
    10030    2    1    2    0    0  0.00000000000E+00  0.00000000000E+00  0.18837328478E+04  0.21284701168E+04  0.99092663514E+03 0.  0.
        4    1    3    3  502    0  0.36458728987E+03  0.32208119285E+03  0.11436157206E+04  0.12427866736E+04  0.12699999809E+01 0. -1.
       -4    1    3    3    0  502 -0.36458728987E+03 -0.32208119285E+03  0.74011712715E+03  0.88568344318E+03  0.12699999809E+01 0.  1.
</event>
<event>
 5   0  0.2327595E-03  0.9987774E+03  0.7818609E-02  0.9309887E-01
        1   -1    0    0  501    0  0.00000000000E+00  0.00000000000E+00  0.66588482068E+03  0.66588482070E+03  0.50400001928E-02 0. -1.
       -1   -1    0    0    0  501  0.00000000000E+00  0.00000000000E+00 -0.37452284096E+03  0.37452284100E+03  0.50400001928E-02 0.  1.
    10030    2    1    2    0    0  0.00000000000E+00  0.00000000000E+00  0.29136197972E+03  0.10404076617E+04  0.99877740228E+03 0.  0.
        5    1    3    3  502    0 -0.50264141004E+02  0.32172126364E+03  0.54005870589E+03  0.63064772350E+03  0.46999998093E+01 0. -1.
       -5    1    3    3    0  502  0.50264141004E+02 -0.32172126364E+03 -0.24869672617E+03  0.40975993820E+03  0.46999998093E+01 0.  1.
</event>
<event>
 5   0  0.2350769E-03  0.9986018E+03  0.7818609E-02  0.9310080E-01
        1   -1    0    0  501    0  0.00000000000E+00  0.00000000000E+00  0.84685643329E+03  0.84685643331E+03  0.50400001928E-02 0. -1.
       -1   -1    0    0    0  501  0.00000000000E+00  0.00000000000E+00 -0.29438446452E+03  0.29438446456E+03  0.50400001928E-02 0.  1.
    10030    2    1    2    0    0  0.00000000000E+00  0.00000000000E+00  0.55247196878E+03  0.11412408979E+04  0.99860177783E+03 0.  0.
        2    1    3    3  502    0 -0.13386535084E+03 -0.47494618090E+03  0.36332878306E+03  0.61278186291E+03  0.25500000920E-02 0. -1.
       -2    1    3    3    0  502  0.13386535084E+03  0.47494618090E+03  0.18914318572E+03  0.52845903495E+03  0.25500000920E-02 0.  1.
</event>
<event>
 5   0  0.2350769E-03  0.1001314E+04  0.7818609E-02  0.9307105E-01
        1   -1    0    0  501    0  0.00000000000E+00  0.00000000000E+00  0.23582465584E+03  0.23582465590E+03  0.50400001928E-02 0.  1.
       -1   -1    0    0    0  501  0.00000000000E+00  0.00000000000E+00 -0.10628966195E+04  0.10628966195E+04  0.50400001928E-02 0. -1.
    10030    2    1    2    0    0  0.00000000000E+00  0.00000000000E+00 -0.82707196369E+03  0.12987212754E+04  0.10013135963E+04 0.  0.
        2    1    3    3  502    0  0.10548052486E+03 -0.47671900920E+03 -0.55720709108E+03  0.74085551710E+03  0.25500000920E-02 0.  1.
       -2    1    3    3    0  502 -0.10548052486E+03  0.47671900920E+03 -0.26986487260E+03  0.55786575834E+03  0.25500000920E-02 0. -1.
</event>
<event>
 5   0  0.2327595E-03  0.1004895E+04  0.7818609E-02  0.9303192E-01
        1   -1    0    0  501    0  0.00000000000E+00  0.00000000000E+00  0.40865328681E+03  0.40865328685E+03  0.50400001928E-02 0.  1.
       -1   -1    0    0    0  501  0.00000000000E+00  0.00000000000E+00 -0.61776990975E+03  0.61776990977E+03  0.50400001928E-02 0. -1.
    10030    2    1    2    0    0  0.00000000000E+00  0.00000000000E+00 -0.20911662294E+03  0.10264231966E+04  0.10048954257E+04 0.  0.
        5    1    3    3  502    0 -0.46907807712E+03 -0.69173995112E+02 -0.27428772767E+03  0.54779113864E+03  0.46999998093E+01 0. -1.
       -5    1    3    3    0  502  0.46907807712E+03  0.69173995112E+02  0.65171104731E+02  0.47863205797E+03  0.46999998093E+01 0.  1.
</event>
<event>
 5   0  0.3895011E-03  0.1003227E+04  0.7818609E-02  0.9305013E-01
       -2   -1    0    0    0  501  0.00000000000E+00  0.00000000000E+00  0.26573455515E+03  0.26573455516E+03  0.25500000920E-02 0.  1.
        2   -1    0    0  501    0  0.00000000000E+00  0.00000000000E+00 -0.94686946376E+03  0.94686946377E+03  0.25500000920E-02 0. -1.
    10030    2    1    2    0    0  0.00000000000E+00  0.00000000000E+00 -0.68113490862E+03  0.12126040189E+04  0.10032266658E+04 0.  0.
        2    1    3    3  502    0  0.30015234123E+03 -0.17006334700E+03  0.99578338425E+02  0.35906658913E+03  0.25500000920E-02 0.  1.
       -2    1    3    3    0  502 -0.30015234123E+03  0.17006334700E+03 -0.78071324704E+03  0.85353742979E+03  0.25500000920E-02 0. -1.
</event>
<event>
 5   0  0.2405022E-03  0.1009551E+04  0.7818609E-02  0.9298131E-01
        1   -1    0    0  501    0  0.00000000000E+00  0.00000000000E+00  0.11440556317E+04  0.11440556317E+04  0.50400001928E-02 0. -1.
       -1   -1    0    0    0  501  0.00000000000E+00  0.00000000000E+00 -0.22271505307E+03  0.22271505313E+03  0.50400001928E-02 0.  1.
    10030    2    1    2    0    0  0.00000000000E+00  0.00000000000E+00  0.92134057865E+03  0.13667706849E+04  0.10095512088E+04 0.  0.
        4    1    3    3  502    0  0.49836078918E+03  0.78999374139E+02  0.44189039895E+03  0.67072581201E+03  0.12699999809E+01 0.  1.
       -4    1    3    3    0  502 -0.49836078918E+03 -0.78999374139E+02  0.47945017970E+03  0.69604487285E+03  0.12699999809E+01 0. -1.
</event>
<event>
 5   0  0.2378609E-03  0.1003368E+04  0.7818609E-02  0.9304859E-01
        1   -1    0    0  501    0  0.00000000000E+00  0.00000000000E+00  0.15516308789E+04  0.15516308789E+04  0.50400001928E-02 0.  1.
       -1   -1    0    0    0  501  0.00000000000E+00  0.00000000000E+00 -0.16220777041E+03  0.16220777049E+03  0.50400001928E-02 0. -1.
    10030    2    1    2    0    0  0.00000000000E+00  0.00000000000E+00  0.13894231084E+04  0.17138386494E+04  0.10033675008E+04 0.  0.
        1    1    3    3  502    0  0.30703371765E+03 -0.15289200339E+03  0.69353716258E+02  0.34993657491E+03  0.50400001928E-02 0. -1.
       -1    1    3    3    0  502 -0.30703371765E+03  0.15289200339E+03  0.13200693922E+04  0.13639020744E+04  0.50400001928E-02 0.  1.
</event>
<event>
 5   0  0.2378609E-03  0.1005304E+04  0.7818609E-02  0.9302747E-01
       -1   -1    0    0    0  501  0.00000000000E+00  0.00000000000E+00  0.50699025752E+03  0.50699025755E+03  0.50400001928E-02 0.  1.
        1   -1    0    0  501    0  0.00000000000E+00  0.00000000000E+00 -0.49835069657E+03  0.49835069660E+03  0.50400001928E-02 0. -1.
    10030    2    1    2    0    0  0.00000000000E+00  0.00000000000E+00  0.86395609531E+01  0.10053409541E+04  0.10053038307E+04 0.  0.
        1    1    3    3  502    0  0.49952870784E+03 -0.38426831380E+02  0.44983262647E+02  0.50301992532E+03  0.50400001928E-02 0.  1.
       -1    1    3    3    0  502 -0.49952870784E+03  0.38426831380E+02 -0.36343701694E+02  0.50232102883E+03  0.50400001928E-02 0. -1.
</event>
<event>
 5   0  0.1548000E-03  0.9992379E+03  0.7818609E-02  0.9309381E-01
       -3   -1    0    0    0  501  0.00000000000E+00  0.00000000000E+00  0.31002581410E+03  0.31002583055E+03  0.10100000352E+00 0.  1.
        3   -1    0    0  501    0  0.00000000000E+00  0.00000000000E+00 -0.80515572801E+03  0.80515573434E+03  0.10100000352E+00 0. -1.
    10030    2    1    2    0    0  0.00000000000E+00  0.00000000000E+00 -0.49512991391E+03  0.11151815649E+04  0.99923785508E+03 0.  0.
        3    1    3    3  502    0 -0.79746495291E+02  0.59150763677E+02  0.29890431156E+03  0.31496367096E+03  0.10100000352E+00 0.  1.
       -3    1    3    3    0  502  0.79746495291E+02 -0.59150763677E+02 -0.79403422547E+03  0.80021789393E+03  0.10100000352E+00 0. -1.
</event>
<event>
 5   0  0.3826483E-03  0.1001508E+04  0.7818609E-02  0.9306893E-01
        2   -1    0    0  501    0  0.00000000000E+00  0.00000000000E+00  0.18509374264E+04  0.18509374264E+04  0.25500000920E-02 0. -1.
       -2   -1    0    0    0  501  0.00000000000E+00  0.00000000000E+00 -0.13547430012E+03  0.13547430015E+03  0.25500000920E-02 0.  1.
    10030    2    1    2    0    0  0.00000000000E+00  0.00000000000E+00  0.17154631262E+04  0.19864117265E+04  0.10015077682E+04 0.  0.
        4    1    3    3  502    0 -0.19303423733E+03 -0.22981550857E+03  0.16527729134E+04  0.16798027566E+04  0.12699999809E+01 0. -1.
       -4    1    3    3    0  502  0.19303423733E+03  0.22981550857E+03  0.62690212826E+02  0.30660896994E+03  0.12699999809E+01 0.  1.
</event>
<event>
 5   0  0.2313036E-03  0.9977142E+03  0.7818609E-02  0.9311055E-01
        1   -1    0    0  501    0  0.00000000000E+00  0.00000000000E+00  0.48632622956E+03  0.48632622959E+03  0.50400001928E-02 0.  1.
       -1   -1    0    0    0  501  0.00000000000E+00  0.00000000000E+00 -0.51171082976E+03  0.51171082978E+03  0.50400001928E-02 0. -1.
    10030    2    1    2    0    0  0.00000000000E+00  0.00000000000E+00 -0.25384600194E+02  0.99803705937E+03  0.99771418450E+03 0.  0.
        3    1    3    3  502    0  0.11149121314E+03 -0.21877684108E+03 -0.44707330321E+03  0.51006680489E+03  0.10100000352E+00 0. -1.
       -3    1    3    3    0  502 -0.11149121314E+03  0.21877684108E+03  0.42168870302E+03  0.48797025448E+03  0.10100000352E+00 0.  1.
</event>
<event>
 5   0  0.3826483E-03  0.1042328E+04  0.7818609E-02  0.9263301E-01
       -2   -1    0    0    0  501  0.00000000000E+00  0.00000000000E+00  0.63381233611E+03  0.63381233611E+03  0.25500000920E-02 0. -1.
        2   -1    0    0  501    0  0.00000000000E+00  0.00000000000E+00 -0.42853687660E+03  0.42853687661E+03  0.25500000920E-02 0.  1.
    10030    2    1    2    0    0  0.00000000000E+00  0.00000000000E+00  0.20527545951E+03  0.10623492127E+04  0.10423280844E+04 0.  0.
        4    1    3    3  502    0 -0.36762616019E+02  0.18437428089E+03  0.59804518550E+03  0.62690112633E+03  0.12699999809E+01 0. -1.
       -4    1    3    3    0  502  0.36762616019E+02 -0.18437428089E+03 -0.39276972599E+03  0.43544808640E+03  0.12699999809E+01 0.  1.
</event>
<event>
 5   0  0.4140860E-03  0.1005753E+04  0.7818609E-02  0.9302257E-01
        2   -1    0    0  501    0  0.00000000000E+00  0.00000000000E+00  0.12384373030E+04  0.12384373030E+04  0.25500000920E-02 0. -1.
       -2   -1    0    0    0  501  0.00000000000E+00  0.00000000000E+00 -0.20419683889E+03  0.20419683891E+03  0.25500000920E-02 0.  1.
    10030    2    1    2    0    0  0.00000000000E+00  0.00000000000E+00  0.10342404641E+04  0.14426341419E+04  0.10057534140E+04 0.  0.
        3    1    3    3  502    0  0.99237182104E+02  0.43874346812E+03  0.19465185270E+03  0.49013590268E+03  0.10100000352E+00 0.  1.
       -3    1    3    3    0  502 -0.99237182104E+02 -0.43874346812E+03  0.83958861137E+03  0.95249823920E+03  0.10100000352E+00 0. -1.
</event>
<event>
 5   0  0.4026829E-03  0.9976020E+03  0.7818609E-02  0.9311179E-01
       -2   -1    0    0    0  501  0.00000000000E+00  0.00000000000E+00  0.29974539016E+03  0.29974539017E+03  0.25500000920E-02 0. -1.
        2   -1    0    0  501    0  0.00000000000E+00  0.00000000000E+00 -0.83004590694E+03  0.83004590694E+03  0.25500000920E-02 0.  1.
    10030    2    1    2    0    0  0.00000000000E+00  0.00000000000E+00 -0.53030051678E+03  0.11297912971E+04  0.99760199325E+03 0.  0.
        1    1    3    3  502    0 -0.13225737180E+03  0.26606988684E+03  0.18858419184E+03  0.35192214269E+03  0.50400001928E-02 0. -1.
       -1    1    3    3    0  502  0.13225737180E+03 -0.26606988684E+03 -0.71888470862E+03  0.77786915442E+03  0.50400001928E-02 0.  1.
</event>
<event>
 5   0  0.3826483E-03  0.9885233E+03  0.7818609E-02  0.9321223E-01
       -2   -1    0    0    0  501  0.00000000000E+00  0.00000000000E+00  0.57357180617E+03  0.57357180617E+03  0.25500000920E-02 0. -1.
        2   -1    0    0  501    0  0.00000000000E+00  0.00000000000E+00 -0.42591804444E+03  0.42591804445E+03  0.25500000920E-02 0.  1.
    10030    2    1    2    0    0  0.00000000000E+00  0.00000000000E+00  0.14765376173E+03  0.99948985062E+03  0.98852330683E+03 0.  0.
        4    1    3    3  502    0 -0.47878514785E+03  0.22759692714E+02 -0.48091703303E+02  0.48173399947E+03  0.12699999809E+01 0. -1.
       -4    1    3    3    0  502  0.47878514785E+03 -0.22759692714E+02  0.19574546503E+03  0.51775585115E+03  0.12699999809E+01 0.  1.
</event>
<event>
 5   0  0.2378609E-03  0.9848628E+03  0.7818609E-02  0.9325305E-01
        1   -1    0    0  501    0  0.00000000000E+00  0.00000000000E+00  0.19155846469E+04  0.19155846469E+04  0.50400001928E-02 0.  1.
       -1   -1    0    0    0  501  0.00000000000E+00  0.00000000000E+00 -0.12658729726E+03  0.12658729736E+03  0.50400001928E-02 0. -1.
    10030    2    1    2    0    0  0.00000000000E+00  0.00000000000E+00  0.17889973496E+04  0.20421719442E+04  0.98486279902E+03 0.  0.
        1    1    3    3  502    0  0.13112059540E+03 -0.45129055964E+03  0.58951683630E+03  0.75391370863E+03  0.50400001928E-02 0. -1.
       -1    1    3    3    0  502 -0.13112059540E+03  0.45129055964E+03  0.11994805133E+04  0.12882582356E+04  0.50400001928E-02 0.  1.
</event>
<event>
 5   0  0.4140860E-03  0.9991357E+03  0.7818609E-02  0.9309493E-01
       -2   -1    0    0    0  501  0.00000000000E+00  0.00000000000E+00  0.13943420356E+03  0.13943420358E+03  0.25500000920E-02 0. -1.
        2   -1    0    0  501    0  0.00000000000E+00  0.00000000000E+00 -0.17898624043E+04  0.17898624043E+04  0.25500000920E-02 0.  1.
    10030    2    1    2    0    0  0.00000000000E+00  0.00000000000E+00 -0.16504282007E+04  0.19292966079E+04  0.99913570419E+03 0.  0.
        3    1    3    3  502    0  0.93404180452E+02 -0.70870103663E+02 -0.17629183132E+04  0.17668129221E+04  0.10100000352E+00 0.  1.
       -3    1    3    3    0  502 -0.93404180452E+02  0.70870103663E+02  0.11249011250E+03  0.16248368574E+03  0.10100000352E+00 0. -1.
</event>
<event>
 5   0  0.2378609E-03  0.1006491E+04  0.7818609E-02  0.9301454E-01
       -1   -1    0    0    0  501  0.00000000000E+00  0.00000000000E+00  0.20282993280E+03  0.20282993286E+03  0.50400001928E-02 0. -1.
        1   -1    0    0  501    0  0.00000000000E+00  0.00000000000E+00 -0.12486128742E+04  0.12486128743E+04  0.50400001928E-02 0.  1.
    10030    2    1    2    0    0  0.00000000000E+00  0.00000000000E+00 -0.10457829414E+04  0.14514428071E+04  0.10064910639E+04 0.  0.
        1    1    3    3  502    0 -0.19815164863E+03  0.37335806959E+03 -0.12902680475E+03  0.44193691897E+03  0.50400001928E-02 0. -1.
       -1    1    3    3    0  502  0.19815164863E+03 -0.37335806959E+03 -0.91675613670E+03  0.10095058881E+04  0.50400001928E-02 0.  1.
</event>
<event>
 5   0  0.3826483E-03  0.9992555E+03  0.7818609E-02  0.9309362E-01
        2   -1    0    0  501    0  0.00000000000E+00  0.00000000000E+00  0.35698184486E+03  0.35698184487E+03  0.25500000920E-02 0.  1.
       -2   -1    0    0    0  501  0.00000000000E+00  0.00000000000E+00 -0.69927328426E+03  0.69927328426E+03  0.25500000920E-02 0. -1.
    10030    2    1    2    0    0  0.00000000000E+00  0.00000000000E+00 -0.34229143940E+03  0.10562551291E+04  0.99925545699E+03 0.  0.
        4    1    3    3  502    0  0.36224169084E+03  0.34409500713E+03 -0.17369966776E+03  0.52895520036E+03  0.12699999809E+01 0. -1.
       -4    1    3    3    0  502 -0.36224169084E+03 -0.34409500713E+03 -0.16859177164E+03  0.52729992877E+03  0.12699999809E+01 0.  1.
</event>
<event>
 5   0  0.3895011E-03  0.1011477E+04  0.7818609E-02  0.9296045E-01
       -2   -1    0    0    0  501  0.00000000000E+00  0.00000000000E+00  0.32658035314E+03  0.32658035315E+03  0.25500000920E-02 0. -1.
        2   -1    0    0  501    0  0.00000000000E+00  0.00000000000E+00 -0.78318123137E+03  0.78318123137E+03  0.25500000920E-02 0.  1.
    10030    2    1    2    0    0  0.00000000000E+00  0.00000000000E+00 -0.45660087822E+03  0.11097615845E+04  0.10114773416E+04 0.  0.
        2    1    3    3  502    0  0.43446963019E+03  0.24893218756E+03 -0.15040522956E+03  0.52283154710E+03  0.25500000920E-02 0. -1.
       -2    1    3    3    0  502 -0.43446963019E+03 -0.24893218756E+03 -0.30619564867E+03  0.58693003742E+03  0.25500000920E-02 0.  1.
</event>
<event>
 5   0  0.4026829E-03  0.1005232E+04  0.7818609E-02  0.9302824E-01
        2   -1    0    0  501    0  0.00000000000E+00  0.00000000000E+00  0.85514692387E+03  0.85514692387E+03  0.25500000920E-02 0.  1.
       -2   -1    0    0    0  501  0.00000000000E+00  0.00000000000E+00 -0.29541481219E+03  0.29541481220E+03  0.25500000920E-02 0. -1.
    10030    2    1    2    0    0  0.00000000000E+00  0.00000000000E+00  0.55973211168E+03  0.11505617361E+04  0.10052324466E+04 0.  0.
        1    1    3    3  502    0  0.31745934949E+03 -0.30708331334E+03  0.53057999659E+01  0.44171116292E+03  0.50400001928E-02 0. -1.
       -1    1    3    3    0  502 -0.31745934949E+03  0.30708331334E+03  0.55442631171E+03  0.70885057315E+03  0.50400001928E-02 0.  1.
</event>
<event>
 5   0  0.4140860E-03  0.1010048E+04  0.7818609E-02  0.9297592E-01
       -2   -1    0    0    0  501  0.00000000000E+00  0.00000000000E+00  0.16939262710E+03  0.16939262712E+03  0.25500000920E-02 0.  1.
        2   -1    0    0  501    0  0.00000000000E+00  0.00000000000E+00 -0.15056691337E+04  0.15056691337E+04  0.25500000920E-02 0. -1.
    10030    2    1    2    0    0  0.00000000000E+00  0.00000000000E+00 -0.13362765066E+04  0.16750617608E+04  0.10100480189E+04 0.  0.
        3    1    3    3  502    0  0.48595551159E+03 -0.11440361231E+03 -0.54174813947E+03  0.73670346991E+03  0.10100000352E+00 0.  1.
       -3    1    3    3    0  502 -0.48595551159E+03  0.11440361231E+03 -0.79452836714E+03  0.93835829092E+03  0.10100000352E+00 0. -1.
</event>
<event>
 5   0  0.1548000E-03  0.1003966E+04  0.7818609E-02  0.9304205E-01
        3   -1    0    0  501    0  0.00000000000E+00  0.00000000000E+00  0.41383627181E+03  0.41383628414E+03  0.10100000352E+00 0.  1.
       -3   -1    0    0    0  501  0.00000000000E+00  0.00000000000E+00 -0.60890535920E+03  0.60890536758E+03  0.10100000352E+00 0. -1.
    10030    2    1    2    0    0  0.00000000000E+00  0.00000000000E+00 -0.19506908739E+03  0.10227416517E+04  0.10039664025E+04 0.  0.
        3    1    3    3  502    0  0.24475117787E+03 -0.33274647698E+03 -0.38811224761E+03  0.56679315800E+03  0.10100000352E+00 0. -1.
       -3    1    3    3    0  502 -0.24475117787E+03  0.33274647698E+03  0.19304316022E+03  0.45594849372E+03  0.10100000352E+00 0.  1.
</event>
<event>
 5   0  0.3895011E-03  0.1016373E+04  0.7818609E-02  0.9290767E-01
        2   -1    0    0  501    0  0.00000000000E+00  0.00000000000E+00  0.12915791542E+04  0.12915791542E+04  0.25500000920E-02 0.  1.
       -2   -1    0    0    0  501  0.00000000000E+00  0.00000000000E+00 -0.19995171566E+03  0.19995171568E+03  0.25500000920E-02 0. -1.
    10030    2    1    2    0    0  0.00000000000E+00  0.00000000000E+00  0.10916274386E+04  0.14915308699E+04  0.10163728997E+04 0.  0.
        2    1    3    3  502    0 -0.28657397322E+03 -0.36150715677E+03  0.85864129374E+03  0.97471890196E+03  0.25500000920E-02 0. -1.
       -2    1    3    3    0  502  0.28657397322E+03  0.36150715677E+03  0.23298614482E+03  0.51681196794E+03  0.25500000920E-02 0.  1.
</event>
<event>
 5   0  0.2350769E-03  0.9774295E+03  0.7818609E-02  0.9333652E-01
       -1   -1    0    0    0  501  0.00000000000E+00  0.00000000000E+00  0.46199487473E+03  0.46199487476E+03  0.50400001928E-02 0. -1.
        1   -1    0    0  501    0  0.00000000000E+00  0.00000000000E+00 -0.51697994235E+03  0.51697994238E+03  0.50400001928E-02 0.  1.
    10030    2    1    2    0    0  0.00000000000E+00  0.00000000000E+00 -0.54985067627E+02  0.97897481713E+03  0.97742945266E+03 0.  0.
        2    1    3    3  502    0  0.34179446737E+03  0.17262694736E+03 -0.33164775341E+03  0.50657058070E+03  0.25500000920E-02 0.  1.
       -2    1    3    3    0  502 -0.34179446737E+03 -0.17262694736E+03  0.27666268579E+03  0.47240423643E+03  0.25500000920E-02 0. -1.
</event>
<event>
 5   0  0.2350769E-03  0.1000467E+04  0.7818609E-02  0.9308033E-01
       -1   -1    0    0    0  501  0.00000000000E+00  0.00000000000E+00  0.95235684122E+02  0.95235684255E+02  0.50400001928E-02 0. -1.
        1   -1    0    0  501    0  0.00000000000E+00  0.00000000000E+00 -0.26275176313E+04  0.26275176313E+04  0.50400001928E-02 0.  1.
    10030    2    1    2    0    0  0.00000000000E+00  0.00000000000E+00 -0.25322819472E+04  0.27227533156E+04  0.10004667698E+04 0.  0.
        2    1    3    3  502    0 -0.12574191309E+03 -0.25358555517E+03 -0.14365945244E+03  0.31741880974E+03  0.25500000920E-02 0. -1.
       -2    1    3    3    0  502  0.12574191309E+03  0.25358555517E+03 -0.23886224948E+04  0.24053345058E+04  0.25500000920E-02 0.  1.
</event>
<event>
 5   0  0.2405022E-03  0.1020442E+04  0.7818609E-02  0.9286405E-01
       -1   -1    0    0    0  501  0.00000000000E+00  0.00000000000E+00  0.68953906594E+03  0.68953906596E+03  0.50400001928E-02 0.  1.
        1   -1    0    0  501    0  0.00000000000E+00  0.00000000000E+00 -0.37753521894E+03  0.37753521898E+03  0.50400001928E-02 0. -1.
    10030    2    1    2    0    0  0.00000000000E+00  0.00000000000E+00  0.31200384700E+03  0.10670742849E+04  0.10204416343E+04 0.  0.
        4    1    3    3  502    0 -0.34514711692E+03  0.35987823370E+03  0.26903798413E+03  0.56658796776E+03  0.12699999809E+01 0. -1.
       -4    1    3    3    0  502  0.34514711692E+03 -0.35987823370E+03  0.42965862861E+02  0.50048631717E+03  0.12699999809E+01 0.  1.
</event>
<event>
 5   0  0.2327595E-03  0.9983140E+03  0.7818609E-02  0.9310396E-01
       -1   -1    0    0    0  501  0.00000000000E+00  0.00000000000E+00  0.27147364497E+03  0.27147364502E+03  0.50400001928E-02 0. -1.
        1   -1    0    0  501    0  0.00000000000E+00  0.00000000000E+00 -0.91779702944E+03  0.91779702945E+03  0.50400001928E-02 0.  1.
    10030    2    1    2    0    0  0.00000000000E+00  0.00000000000E+00 -0.64632338447E+03  0.11892706745E+04  0.99831398861E+03 0.  0.
        5    1    3    3  502    0 -0.33967973294E+03 -0.20144291619E+03  0.40469416094E+02  0.39701565849E+03  0.46999998093E+01 0. -1.
       -5    1    3    3    0  502  0.33967973294E+03  0.20144291619E+03 -0.68679280056E+03  0.79225501598E+03  0.46999998093E+01 0.  1.
</event>
<event>
 5   0  0.2327595E-03  0.1005705E+04  0.7818609E-02  0.9302309E-01
        1   -1    0    0  501    0  0.00000000000E+00  0.00000000000E+00  0.15604013318E+04  0.15604013318E+04  0.50400001928E-02 0. -1.
       -1   -1    0    0    0  501  0.00000000000E+00  0.00000000000E+00 -0.16204852306E+03  0.16204852313E+03  0.50400001928E-02 0.  1.
    10030    2    1    2    0    0  0.00000000000E+00  0.00000000000E+00  0.13983528087E+04  0.17224498549E+04  0.10057051879E+04 0.  0.
        5    1    3    3  502    0  0.67071887865E+02 -0.27444391512E+03 -0.13224938024E+02  0.28286938624E+03  0.46999998093E+01 0. -1.
       -5    1    3    3    0  502 -0.67071887865E+02  0.27444391512E+03  0.14115777468E+04  0.14395804687E+04  0.46999998093E+01 0.  1.
</event>
<event>
 5   0  0.4140860E-03  0.1042278E+04  0.7818609E-02  0.9263353E-01
       -2   -1    0    0    0  501  0.00000000000E+00  0.00000000000E+00  0.25885943546E+03  0.25885943547E+03  0.25500000920E-02 0. -1.
        2   -1    0    0  501    0  0.00000000000E+00  0.00000000000E+00 -0.10491640599E+04  0.10491640599E+04  0.25500000920E-02 0.  1.
    10030    2    1    2    0    0  0.00000000000E+00  0.00000000000E+00 -0.79030462443E+03  0.13080234954E+04  0.10422783050E+04 0.  0.
        3    1    3    3  502    0 -0.12957883133E+03 -0.43643783236E+03 -0.76882152824E+02  0.46171368907E+03  0.10100000352E+00 0. -1.
       -3    1    3    3    0  502  0.12957883133E+03  0.43643783236E+03 -0.71342247161E+03  0.84630980631E+03  0.10100000352E+00 0.  1.
</event>
<event>
 5   0  0.4140860E-03  0.1001574E+04  0.7818609E-02  0.9306820E-01
       -2   -1    0    0    0  501  0.00000000000E+00  0.00000000000E+00  0.13216647245E+03  0.13216647247E+03  0.25500000920E-02 0. -1.
        2   -1    0    0  501    0  0.00000000000E+00  0.00000000000E+00 -0.18975130733E+04  0.18975130733E+04  0.25500000920E-02 0.  1.
    10030    2    1    2    0    0  0.00000000000E+00  0.00000000000E+00 -0.17653466008E+04  0.20296795457E+04  0.10015739800E+04 0.  0.
        3    1    3    3  502    0 -0.56058377113E+02 -0.14429858748E+03 -0.18478080730E+04  0.18542813457E+04  0.10100000352E+00 0.  1.
       -3    1    3    3    0  502  0.56058377113E+02  0.14429858748E+03  0.82461472193E+02  0.17539820007E+03  0.10100000352E+00 0. -1.
</event>
<event>
 5   0  0.2327595E-03  0.1004710E+04  0.7818609E-02  0.9303394E-01
        1   -1    0    0  501    0  0.00000000000E+00  0.00000000000E+00  0.66793800784E+03  0.66793800786E+03  0.50400001928E-02 0. -1.
       -1   -1    0    0    0  501  0.00000000000E+00  0.00000000000E+00 -0.37782011542E+03  0.37782011545E+03  0.50400001928E-02 0.  1.
    10030    2    1    2    0    0  0.00000000000E+00  0.00000000000E+00  0.29011789242E+03  0.10457581233E+04  0.10047097397E+04 0.  0.
        5    1    3    3  502    0  0.23389829858E+03  0.44391351562E+03  0.12019355703E+03  0.51598081804E+03  0.46999998093E+01 0.  1.
       -5    1    3    3    0  502 -0.23389829858E+03 -0.44391351562E+03  0.16992433539E+03  0.52977730528E+03  0.46999998093E+01 0. -1.
</event>
<event>
 5   0  0.4026829E-03  0.1015585E+04  0.7818609E-02  0.9291614E-01
        2   -1    0    0  501    0  0.00000000000E+00  0.00000000000E+00  0.78638478001E+03  0.78638478001E+03  0.25500000920E-02 0. -1.
       -2   -1    0    0    0  501  0.00000000000E+00  0.00000000000E+00 -0.32789732390E+03  0.32789732391E+03  0.25500000920E-02 0.  1.
    10030    2    1    2    0    0  0.00000000000E+00  0.00000000000E+00  0.45848745611E+03  0.11142821039E+04  0.10155854763E+04 0.  0.
        1    1    3    3  502    0  0.19550742358E+03  0.34066913610E+03 -0.12386287151E+03  0.41185024454E+03  0.50400001928E-02 0.  1.
       -1    1    3    3    0  502 -0.19550742358E+03 -0.34066913610E+03  0.58235032762E+03  0.70243185938E+03  0.50400001928E-02 0. -1.
</event>
<event>
 5   0  0.2350769E-03  0.9977701E+03  0.7818609E-02  0.9310994E-01
       -1   -1    0    0    0  501  0.00000000000E+00  0.00000000000E+00  0.57874432379E+03  0.57874432381E+03  0.50400001928E-02 0. -1.
        1   -1    0    0  501    0  0.00000000000E+00  0.00000000000E+00 -0.43004528965E+03  0.43004528968E+03  0.50400001928E-02 0.  1.
    10030    2    1    2    0    0  0.00000000000E+00  0.00000000000E+00  0.14869903414E+03  0.10087896135E+04  0.99777005444E+03 0.  0.
        2    1    3    3  502    0  0.29144275560E+03  0.11687487894E+03 -0.31760149306E+03  0.44661988930E+03  0.25500000920E-02 0.  1.
       -2    1    3    3    0  502 -0.29144275560E+03 -0.11687487894E+03  0.46630052720E+03  0.56216972419E+03  0.25500000920E-02 0. -1.
</event>
<event>
 5   0  0.4140860E-03  0.9968693E+03  0.7818609E-02  0.9311985E-01
        2   -1    0    0  501    0  0.00000000000E+00  0.00000000000E+00  0.25801372574E+03  0.25801372575E+03  0.25500000920E-02 0. -1.
       -2   -1    0    0    0  501  0.00000000000E+00  0.00000000000E+00 -0.96288323475E+03  0.96288323476E+03  0.25500000920E-02 0.  1.
    10030    2    1    2    0    0  0.00000000000E+00  0.00000000000E+00 -0.70486950901E+03  0.12208969605E+04  0.99686928102E+03 0.  0.
        3    1    3    3  502    0 -0.35178028178E+03  0.35868711919E+02  0.77794959618E+02  0.36206076436E+03  0.10100000352E+00 0. -1.
       -3    1    3    3    0  502  0.35178028178E+03 -0.35868711919E+02 -0.78266446863E+03  0.85883619614E+03  0.10100000352E+00 0.  1.
</event>
<event>
 5   0  0.3826483E-03  0.1006046E+04  0.7818609E-02  0.9301938E-01
        2   -1    0    0  501    0  0.00000000000E+00  0.00000000000E+00  0.39922489091E+03  0.39922489092E+03  0.25500000920E-02 0. -1.
       -2   -1    0    0    0  501  0.00000000000E+00  0.00000000000E+00 -0.63380908462E+03  0.63380908462E+03  0.25500000920E-02 0.  1.
    10030    2    1    2    0    0  0.00000000000E+00  0.00000000000E+00 -0.23458419371E+03  0.10330339755E+04  0.10060464456E+04 0.  0.
        4    1    3    3  502    0  0.25609135968E+03  0.28429660765E+03 -0.45258383045E+03  0.59265595594E+03  0.12699999809E+01 0.  1.
       -4    1    3    3    0  502 -0.25609135968E+03 -0.28429660765E+03  0.21799963675E+03  0.44037801960E+03  0.12699999809E+01 0. -1.
</event>
<event>
 5   0  0.3873874E-03  0.1000463E+04  0.7818609E-02  0.9308038E-01
        2   -1    0    0  501    0  0.00000000000E+00  0.00000000000E+00  0.66154108148E+03  0.66154108149E+03  0.25500000920E-02 0. -1.
       -2   -1    0    0    0  501  0.00000000000E+00  0.00000000000E+00 -0.37825520009E+03  0.37825520009E+03  0.25500000920E-02 0.  1.
    10030    2    1    2    0    0  0.00000000000E+00  0.00000000000E+00  0.28328588140E+03  0.10397962816E+04  0.10004626013E+04 0.  0.
        5    1    3    3  502    0  0.19166359676E+03 -0.31879260099E+02  0.62069640955E+03  0.65041321049E+03  0.46999998093E+01 0. -1.
       -5    1    3    3    0  502 -0.19166359676E+03  0.31879260099E+02 -0.33741052815E+03  0.38938307110E+03  0.46999998093E+01 0.  1.
</event>
<event>
 5   0  0.2378609E-03  0.8884095E+03  0.7818609E-02  0.9440187E-01
       -1   -1    0    0    0  501  0.00000000000E+00  0.00000000000E+00  0.26891425280E+03  0.26891425285E+03  0.50400001928E-02 0. -1.
        1   -1    0    0  501    0  0.00000000000E+00  0.00000000000E+00 -0.73375747199E+03  0.73375747201E+03  0.50400001928E-02 0.  1.
    10030    2    1    2    0    0  0.00000000000E+00  0.00000000000E+00 -0.46484321920E+03  0.10026717249E+04  0.88840946044E+03 0.  0.
        1    1    3    3  502    0 -0.14498992289E+03  0.31942717670E+03 -0.53998103509E+03  0.64392182541E+03  0.50400001928E-02 0.  1.
       -1    1    3    3    0  502  0.14498992289E+03 -0.31942717670E+03  0.75137815898E+02  0.35874989945E+03  0.50400001928E-02 0. -1.
</event>
<event>
 5   0  0.2313036E-03  0.1020883E+04  0.7818609E-02  0.9285932E-01
        1   -1    0    0  501    0  0.00000000000E+00  0.00000000000E+00  0.30121597403E+03  0.30121597407E+03  0.50400001928E-02 0. -1.
       -1   -1    0    0    0  501  0.00000000000E+00  0.00000000000E+00 -0.86499645485E+03  0.86499645487E+03  0.50400001928E-02 0.  1.
    10030    2    1    2    0    0  0.00000000000E+00  0.00000000000E+00 -0.56378048082E+03  0.11662124289E+04  0.10208834404E+04 0.  0.
        3    1    3    3  502    0  0.70785187656E+02  0.15719053981E+03  0.26695371327E+03  0.31777933197E+03  0.10100000352E+00 0. -1.
       -3    1    3    3    0  502 -0.70785187656E+02 -0.15719053981E+03 -0.83073419409E+03  0.84843309697E+03  0.10100000352E+00 0.  1.
</event>
<event>
 5   0  0.2405022E-03  0.9956077E+03  0.7818609E-02  0.9313375E-01
        1   -1    0    0  501    0  0.00000000000E+00  0.00000000000E+00  0.74517660524E+03  0.74517660525E+03  0.50400001928E-02 0.  1.
       -1   -1    0    0    0  501  0.00000000000E+00  0.00000000000E+00 -0.33255024570E+03  0.33255024574E+03  0.50400001928E-02 0. -1.
    10030    2    1    2    0    0  0.00000000000E+00  0.00000000000E+00  0.41262635953E+03  0.10777268510E+04  0.99560768015E+03 0.  0.
        4    1    3    3  502    0 -0.22153261633E+03  0.10622748612E+03  0.67497398720E+03  0.71829831909E+03  0.12699999809E+01 0.  1.
       -4    1    3    3    0  502  0.22153261633E+03 -0.10622748612E+03 -0.26234762767E+03  0.35942853191E+03  0.12699999809E+01 0. -1.
</event>
<event>
 5   0  0.2327595E-03  0.9981516E+03  0.7818609E-02  0.9310574E-01
        1   -1    0    0  501    0  0.00000000000E+00  0.00000000000E+00  0.92887526222E+03  0.92887526224E+03  0.50400001928E-02 0.  1.
       -1   -1    0    0    0  501  0.00000000000E+00  0.00000000000E+00 -0.26814864929E+03  0.26814864933E+03  0.50400001928E-02 0. -1.
    10030    2    1    2    0    0  0.00000000000E+00  0.00000000000E+00  0.66072661294E+03  0.11970239116E+04  0.99815158560E+03 0.  0.
        5    1    3    3  502    0 -0.18768888441E+03 -0.35321183681E+03  0.68826950346E+03  0.79606703134E+03  0.46999998093E+01 0.  1.
       -5    1    3    3    0  502  0.18768888441E+03  0.35321183681E+03 -0.27542890520E+02  0.40095688024E+03  0.46999998093E+01 0. -1.
</event>
<event>
 5   0  0.4140860E-03  0.9947707E+03  0.7818609E-02  0.9314299E-01
        2   -1    0    0  501    0  0.00000000000E+00  0.00000000000E+00  0.82566186422E+03  0.82566186422E+03  0.25500000920E-02 0. -1.
       -2   -1    0    0    0  501  0.00000000000E+00  0.00000000000E+00 -0.29962892598E+03  0.29962892599E+03  0.25500000920E-02 0.  1.
    10030    2    1    2    0    0  0.00000000000E+00  0.00000000000E+00  0.52603293824E+03  0.11252907902E+04  0.99477068233E+03 0.  0.
        3    1    3    3  502    0 -0.24419020373E+03 -0.16104565266E+03  0.71807587619E+03  0.77536928751E+03  0.10100000352E+00 0. -1.
       -3    1    3    3    0  502  0.24419020373E+03  0.16104565266E+03 -0.19204293795E+03  0.34992150270E+03  0.10100000352E+00 0.  1.
</event>
<event>
 5   0  0.2350769E-03  0.1008405E+04  0.7818609E-02  0.9299374E-01
        1   -1    0    0  501    0  0.00000000000E+00  0.00000000000E+00  0.88458198095E+03  0.88458198097E+03  0.50400001928E-02 0.  1.
       -1   -1    0    0    0  501  0.00000000000E+00  0.00000000000E+00 -0.28738999015E+03  0.28738999019E+03  0.50400001928E-02 0. -1.
    10030    2    1    2    0    0  0.00000000000E+00  0.00000000000E+00  0.59719199081E+03  0.11719719712E+04  0.10084046942E+04 0.  0.
        2    1    3    3  502    0 -0.35409291267E+03 -0.42998719905E+02 -0.11556192932E+03  0.37494698323E+03  0.25500000920E-02 0. -1.
       -2    1    3    3    0  502  0.35409291267E+03  0.42998719905E+02  0.71275392013E+03  0.79702498793E+03  0.25500000920E-02 0.  1.
</event>
<event>
 5   0  0.2405022E-03  0.9985532E+03  0.7818609E-02  0.9310133E-01
        1   -1    0    0  501    0  0.00000000000E+00  0.00000000000E+00  0.19532598805E+04  0.19532598806E+04  0.50400001928E-02 0.  1.
       -1   -1    0    0    0  501  0.00000000000E+00  0.00000000000E+00 -0.12762108349E+03  0.12762108359E+03  0.50400001928E-02 0. -1.
    10030    2    1    2    0    0  0.00000000000E+00  0.00000000000E+00  0.18256387971E+04  0.20808809641E+04  0.99855323825E+03 0.  0.
        4    1    3    3  502    0 -0.11111283233E+03 -0.91753385664E+02 -0.83341207650E+02  0.16646956203E+03  0.12699999809E+01 0. -1.
       -4    1    3    3    0  502  0.11111283233E+03  0.91753385664E+02  0.19089800047E+04  0.19144114021E+04  0.12699999809E+01 0.  1.
</event>
<event>
 5   0  0.2313036E-03  0.9987680E+03  0.7818609E-02  0.9309897E-01
       -1   -1    0    0    0  501  0.00000000000E+00  0.00000000000E+00  0.20417725141E+03  0.20417725147E+03  0.50400001928E-02 0. -1.
        1   -1    0    0  501    0  0.00000000000E+00  0.00000000000E+00 -0.12214110754E+04  0.12214110754E+04  0.50400001928E-02 0.  1.
    10030    2    1    2    0    0  0.00000000000E+00  0.00000000000E+00 -0.10172338240E+04  0.14255883269E+04  0.99876795355E+03 0.  0.
        3    1    3    3  502    0 -0.68638068319E+02  0.34045338136E+03 -0.10208031070E+04  0.10782665175E+04  0.10100000352E+00 0.  1.
       -3    1    3    3    0  502  0.68638068319E+02 -0.34045338136E+03  0.35692829783E+01  0.34732180940E+03  0.10100000352E+00 0. -1.
</event>
<event>
 5   0  0.2405022E-03  0.1001646E+04  0.7818609E-02  0.9306742E-01
       -1   -1    0    0    0  501  0.00000000000E+00  0.00000000000E+00  0.78686570145E+03  0.78686570147E+03  0.50400001928E-02 0.  1.
        1   -1    0    0  501    0  0.00000000000E+00  0.00000000000E+00 -0.31876277172E+03  0.31876277176E+03  0.50400001928E-02 0. -1.
    10030    2    1    2    0    0  0.00000000000E+00  0.00000000000E+00  0.46810292974E+03  0.11056284732E+04  0.10016456299E+04 0.  0.
        4    1    3    3  502    0 -0.33143306894E+03 -0.34128704668E+03  0.61287600583E+02  0.47966916756E+03  0.12699999809E+01 0. -1.
       -4    1    3    3    0  502  0.33143306894E+03  0.34128704668E+03  0.40681532915E+03  0.62595930567E+03  0.12699999809E+01 0.  1.
</event>
<event>
 5   0  0.3895011E-03  0.1002182E+04  0.7818609E-02  0.9306155E-01
        2   -1    0    0  501    0  0.00000000000E+00  0.00000000000E+00  0.14160286613E+04  0.14160286613E+04  0.25500000920E-02 0.  1.
       -2   -1    0    0    0  501  0.00000000000E+00  0.00000000000E+00 -0.17732132518E+03  0.17732132520E+03  0.25500000920E-02 0. -1.
    10030    2    1    2    0    0  0.00000000000E+00  0.00000000000E+00  0.12387073362E+04  0.15933499865E+04  0.10021817774E+04 0.  0.
        2    1    3    3  502    0 -0.55443788697E+02 -0.49029103558E+02 -0.16858320700E+03  0.18411454150E+03  0.25500000920E-02 0. -1.
       -2    1    3    3    0  502  0.55443788697E+02  0.49029103558E+02  0.14072905432E+04  0.14092354450E+04  0.25500000920E-02 0.  1.
</event>
<event>
 5   0  0.3873874E-03  0.1003442E+04  0.7818609E-02  0.9304777E-01
        2   -1    0    0  501    0  0.00000000000E+00  0.00000000000E+00  0.39233608832E+03  0.39233608833E+03  0.25500000920E-02 0. -1.
       -2   -1    0    0    0  501  0.00000000000E+00  0.00000000000E+00 -0.64160334135E+03  0.64160334135E+03  0.25500000920E-02 0.  1.
    10030    2    1    2    0    0  0.00000000000E+00  0.00000000000E+00 -0.24926725303E+03  0.10339394297E+04  0.10034423655E+04 0.  0.
        5    1    3    3  502    0  0.24242970141E+03  0.13560188207E+02  0.32773801312E+03  0.40790971314E+03  0.46999998093E+01 0. -1.
       -5    1    3    3    0  502 -0.24242970141E+03 -0.13560188207E+02 -0.57700526615E+03  0.62602971654E+03  0.46999998093E+01 0.  1.
</event>
<event>
 5   0  0.4140860E-03  0.9991971E+03  0.7818609E-02  0.9309426E-01
       -2   -1    0    0    0  501  0.00000000000E+00  0.00000000000E+00  0.20735403216E+03  0.20735403218E+03  0.25500000920E-02 0.  1.
        2   -1    0    0  501    0  0.00000000000E+00  0.00000000000E+00 -0.12037321960E+04  0.12037321960E+04  0.25500000920E-02 0. -1.
    10030    2    1    2    0    0  0.00000000000E+00  0.00000000000E+00 -0.99637816384E+03  0.14110862282E+04  0.99919712669E+03 0.  0.
        3    1    3    3  502    0  0.47821844577E+03  0.27907448870E+02 -0.29783787059E+03  0.56407367864E+03  0.10100000352E+00 0.  1.
       -3    1    3    3    0  502 -0.47821844577E+03 -0.27907448870E+02 -0.69854029325E+03  0.84701254954E+03  0.10100000352E+00 0. -1.
</event>
<event>
 5   0  0.3873874E-03  0.9995972E+03  0.7818609E-02  0.9308987E-01
        2   -1    0    0  501    0  0.00000000000E+00  0.00000000000E+00  0.70712255679E+03  0.70712255679E+03  0.25500000920E-02 0. -1.
       -2   -1    0    0    0  501  0.00000000000E+00  0.00000000000E+00 -0.35326071926E+03  0.35326071927E+03  0.25500000920E-02 0.  1.
    10030    2    1    2    0    0  0.00000000000E+00  0.00000000000E+00  0.35386183753E+03  0.10603832761E+04  0.99959716491E+03 0.  0.
        5    1    3    3  502    0 -0.68582439920E+02 -0.20819123132E+03 -0.29952469130E+03  0.37119303679E+03  0.46999998093E+01 0.  1.
       -5    1    3    3    0  502  0.68582439920E+02  0.20819123132E+03  0.65338652883E+03  0.68919023928E+03  0.46999998093E+01 0. -1.
</event>
<event>
 5   0  0.2405022E-03  0.1001047E+04  0.7818609E-02  0.9307397E-01
       -1   -1    0    0    0  501  0.00000000000E+00  0.00000000000E+00  0.25168258287E+03  0.25168258292E+03  0.50400001928E-02 0. -1.
        1   -1    0    0  501    0  0.00000000000E+00  0.00000000000E+00 -0.99539633484E+03  0.99539633485E+03  0.50400001928E-02 0.  1.
    10030    2    1    2    0    0  0.00000000000E+00  0.00000000000E+00 -0.74371375197E+03  0.12470789178E+04  0.10010472927E+04 0.  0.
        4    1    3    3  502    0  0.66741978274E+02 -0.38802946464E+02  0.24421865706E+03  0.25613380424E+03  0.12699999809E+01 0. -1.
       -4    1    3    3    0  502 -0.66741978274E+02  0.38802946464E+02 -0.98793240903E+03  0.99094511353E+03  0.12699999809E+01 0.  1.
</event>
<event>
 5   0  0.2313036E-03  0.1001300E+04  0.7818609E-02  0.9307120E-01
        1   -1    0    0  501    0  0.00000000000E+00  0.00000000000E+00  0.63163352147E+03  0.63163352149E+03  0.50400001928E-02 0. -1.
       -1   -1    0    0    0  501  0.00000000000E+00  0.00000000000E+00 -0.39682910353E+03  0.39682910356E+03  0.50400001928E-02 0.  1.
    10030    2    1    2    0    0  0.00000000000E+00  0.00000000000E+00  0.23480441793E+03  0.10284626250E+04  0.10013002829E+04 0.  0.
        3    1    3    3  502    0  0.19508706046E+03 -0.44680171331E+03  0.23433160022E+03  0.54092702026E+03  0.10100000352E+00 0. -1.
       -3    1    3    3    0  502 -0.19508706046E+03  0.44680171331E+03  0.47281771082E+00  0.48753560479E+03  0.10100000352E+00 0.  1.
</event>
<event>
 5   0  0.2313036E-03  0.1003372E+04  0.7818609E-02  0.9304854E-01
       -1   -1    0    0    0  501  0.00000000000E+00  0.00000000000E+00  0.13534529284E+03  0.13534529293E+03  0.50400001928E-02 0.  1.
        1   -1    0    0  501    0  0.00000000000E+00  0.00000000000E+00 -0.18596062956E+04  0.18596062956E+04  0.50400001928E-02 0. -1.
    10030    2    1    2    0    0  0.00000000000E+00  0.00000000000E+00 -0.17242610027E+04  0.19949515885E+04  0.10033722315E+04 0.  0.
        3    1    3    3  502    0 -0.36710601000E+03  0.24307133318E+03 -0.38396458387E+03  0.58419115661E+03  0.10100000352E+00 0.  1.
       -3    1    3    3    0  502  0.36710601000E+03 -0.24307133318E+03 -0.13402964189E+04  0.14107604319E+04  0.10100000352E+00 0. -1.
</event>
<event>
 5   0  0.2327595E-03  0.1000717E+04  0.7818609E-02  0.9307759E-01
        1   -1    0    0  501    0  0.00000000000E+00  0.00000000000E+00  0.38299414513E+03  0.38299414517E+03  0.50400001928E-02 0.  1.
       -1   -1    0    0    0  501  0.00000000000E+00  0.00000000000E+00 -0.65368795251E+03  0.65368795253E+03  0.50400001928E-02 0. -1.
    10030    2    1    2    0    0  0.00000000000E+00  0.00000000000E+00 -0.27069380738E+03  0.10366820977E+04  0.10007170601E+04 0.  0.
        5    1    3    3  502    0 -0.32738334240E+03  0.22054902459E+03 -0.45382847324E+03  0.60150153636E+03  0.46999998093E+01 0. -1.
       -5    1    3    3    0  502  0.32738334240E+03 -0.22054902459E+03  0.18313466586E+03  0.43518056134E+03  0.46999998093E+01 0.  1.
</event>
<event>
 5   0  0.3895011E-03  0.9978475E+03  0.7818609E-02  0.9310909E-01
       -2   -1    0    0    0  501  0.00000000000E+00  0.00000000000E+00  0.17768706861E+03  0.17768706863E+03  0.25500000920E-02 0.  1.
        2   -1    0    0  501    0  0.00000000000E+00  0.00000000000E+00 -0.14009174809E+04  0.14009174809E+04  0.25500000920E-02 0. -1.
    10030    2    1    2    0    0  0.00000000000E+00  0.00000000000E+00 -0.12232304122E+04  0.15786045495E+04  0.99784752453E+03 0.  0.
        2    1    3    3  502    0 -0.89709541302E+02  0.41616165304E+02  0.16202674634E+03  0.18982195223E+03  0.25500000920E-02 0.  1.
       -2    1    3    3    0  502  0.89709541302E+02 -0.41616165304E+02 -0.13852571586E+04  0.13887825973E+04  0.25500000920E-02 0. -1.
</event>
<event>
 5   0  0.4140860E-03  0.1001336E+04  0.7818609E-02  0.9307080E-01
        2   -1    0    0  501    0  0.00000000000E+00  0.00000000000E+00  0.98537992416E+03  0.98537992416E+03  0.25500000920E-02 0. -1.
       -2   -1    0    0    0  501  0.00000000000E+00  0.00000000000E+00 -0.25438783746E+03  0.25438783747E+03  0.25500000920E-02 0.  1.
    10030    2    1    2    0    0  0.00000000000E+00  0.00000000000E+00  0.73099208670E+03  0.12397677616E+04  0.10013364429E+04 0.  0.
        3    1    3    3  502    0  0.12644396295E+03 -0.45824664995E+03  0.17094836650E+03  0.50517464521E+03  0.10100000352E+00 0.  1.
       -3    1    3    3    0  502 -0.12644396295E+03  0.45824664995E+03  0.56004372020E+03  0.73459311642E+03  0.10100000352E+00 0. -1.
</event>
<event>
 5   0  0.4140860E-03  0.1017764E+04  0.7818609E-02  0.9289273E-01
       -2   -1    0    0    0  501  0.00000000000E+00  0.00000000000E+00  0.11898244190E+04  0.11898244190E+04  0.25500000920E-02 0. -1.
        2   -1    0    0  501    0  0.00000000000E+00  0.00000000000E+00 -0.21764629311E+03  0.21764629313E+03  0.25500000920E-02 0.  1.
    10030    2    1    2    0    0  0.00000000000E+00  0.00000000000E+00  0.97217812591E+03  0.14074707122E+04  0.10177639692E+04 0.  0.
        3    1    3    3  502    0 -0.48172697568E+03  0.61666384559E+01  0.71274188127E+03  0.86029059395E+03  0.10100000352E+00 0. -1.
       -3    1    3    3    0  502  0.48172697568E+03 -0.61666384559E+01  0.25943624465E+03  0.54718011821E+03  0.10100000352E+00 0.  1.
</event>
<event>
 5   0  0.2350769E-03  0.1002955E+04  0.7818609E-02  0.9305310E-01
       -1   -1    0    0    0  501  0.00000000000E+00  0.00000000000E+00  0.27415464027E+03  0.27415464032E+03  0.50400001928E-02 0. -1.
        1   -1    0    0  501    0  0.00000000000E+00  0.00000000000E+00 -0.91729130084E+03  0.91729130085E+03  0.50400001928E-02 0.  1.
    10030    2    1    2    0    0  0.00000000000E+00  0.00000000000E+00 -0.64313666057E+03  0.11914459412E+04  0.10029549674E+04 0.  0.
        2    1    3    3  502    0 -0.17238839093E+03 -0.43668984250E+03 -0.11219525423E+03  0.48270441364E+03  0.25500000920E-02 0. -1.
       -2    1    3    3    0  502  0.17238839093E+03  0.43668984250E+03 -0.53094140634E+03  0.70874152753E+03  0.25500000920E-02 0.  1.
</event>
<event>
 5   0  0.3826483E-03  0.9996175E+03  0.7818609E-02  0.9308964E-01
        2   -1    0    0  501    0  0.00000000000E+00  0.00000000000E+00  0.16770574780E+04  0.16770574780E+04  0.25500000920E-02 0. -1.
       -2   -1    0    0    0  501  0.00000000000E+00  0.00000000000E+00 -0.14895661429E+03  0.14895661431E+03  0.25500000920E-02 0.  1.
    10030    2    1    2    0    0  0.00000000000E+00  0.00000000000E+00  0.15281008637E+04  0.18260140923E+04  0.99961753468E+03 0.  0.
        4    1    3    3  502    0  0.48353090689E+03 -0.11906506259E+03  0.68593706864E+03  0.84763783663E+03  0.12699999809E+01 0. -1.
       -4    1    3    3    0  502 -0.48353090689E+03  0.11906506259E+03  0.84216379509E+03  0.97837625570E+03  0.12699999809E+01 0.  1.
</event>
<event>
 5   0  0.4140860E-03  0.9948389E+03  0.7818609E-02  0.9314224E-01
        2   -1    0    0  501    0  0.00000000000E+00  0.00000000000E+00  0.46224205446E+03  0.46224205447E+03  0.25500000920E-02 0. -1.
       -2   -1    0    0    0  501  0.00000000000E+00  0.00000000000E+00 -0.53527385484E+03  0.53527385485E+03  0.25500000920E-02 0.  1.
    10030    2    1    2    0    0  0.00000000000E+00  0.00000000000E+00 -0.73031800380E+02  0.99751590932E+03  0.99483885402E+03 0.  0.
        3    1    3    3  502    0 -0.67040679021E+01 -0.47961262194E+03  0.95568850368E+02  0.48908754535E+03  0.10100000352E+00 0.  1.
       -3    1    3    3    0  502  0.67040679021E+01  0.47961262194E+03 -0.16860065075E+03  0.50842836397E+03  0.10100000352E+00 0. -1.
</event>
<event>
 5   0  0.4140860E-03  0.1002368E+04  0.7818609E-02  0.9305952E-01
       -2   -1    0    0    0  501  0.00000000000E+00  0.00000000000E+00  0.22340526198E+03  0.22340526200E+03  0.25500000920E-02 0.  1.
        2   -1    0    0  501    0  0.00000000000E+00  0.00000000000E+00 -0.11243477443E+04  0.11243477443E+04  0.25500000920E-02 0. -1.
    10030    2    1    2    0    0  0.00000000000E+00  0.00000000000E+00 -0.90094248230E+03  0.13477530063E+04  0.10023676020E+04 0.  0.
        3    1    3    3  502    0  0.46599699819E+03 -0.59475058501E+02 -0.21567263067E+03  0.51691892859E+03  0.10100000352E+00 0.  1.
       -3    1    3    3    0  502 -0.46599699819E+03  0.59475058501E+02 -0.68526985163E+03  0.83083407770E+03  0.10100000352E+00 0. -1.
</event>
<event>
 5   0  0.1548000E-03  0.9926476E+03  0.7818609E-02  0.9316646E-01
        3   -1    0    0  501    0  0.00000000000E+00  0.00000000000E+00  0.16691937604E+04  0.16691937634E+04  0.10100000352E+00 0.  1.
       -3   -1    0    0    0  501  0.00000000000E+00  0.00000000000E+00 -0.14757859193E+03  0.14757862649E+03  0.10100000352E+00 0. -1.
    10030    2    1    2    0    0  0.00000000000E+00  0.00000000000E+00  0.15216151685E+04  0.18167723899E+04  0.99264756884E+03 0.  0.
        3    1    3    3  502    0  0.13075719374E+03 -0.47861412239E+03  0.73705921363E+03  0.88849604190E+03  0.10100000352E+00 0.  1.
       -3    1    3    3    0  502 -0.13075719374E+03  0.47861412239E+03  0.78455595482E+03  0.92827634803E+03  0.10100000352E+00 0. -1.
</event>
<event>
 5   0  0.4140860E-03  0.1001150E+04  0.7818609E-02  0.9307284E-01
        2   -1    0    0  501    0  0.00000000000E+00  0.00000000000E+00  0.46761213559E+03  0.46761213560E+03  0.25500000920E-02 0. -1.
       -2   -1    0    0    0  501  0.00000000000E+00  0.00000000000E+00 -0.53586153224E+03  0.53586153225E+03  0.25500000920E-02 0.  1.
    10030    2    1    2    0    0  0.00000000000E+00  0.00000000000E+00 -0.68249396651E+02  0.10034736679E+04  0.10011500497E+04 0.  0.
        3    1    3    3  502    0  0.18969665503E+03 -0.35101704159E+01  0.43017629141E+03  0.47015826497E+03  0.10100000352E+00 0. -1.
       -3    1    3    3    0  502 -0.18969665503E+03  0.35101704159E+01 -0.49842568806E+03  0.53331540288E+03  0.10100000352E+00 0.  1.
</event>
<event>
 5   0  0.3873874E-03  0.1003994E+04  0.7818609E-02  0.9304175E-01
        2   -1    0    0  501    0  0.00000000000E+00  0.00000000000E+00  0.10114706406E+04  0.10114706406E+04  0.25500000920E-02 0. -1.
       -2   -1    0    0    0  501  0.00000000000E+00  0.00000000000E+00 -0.24914308401E+03  0.24914308403E+03  0.25500000920E-02 0.  1.
    10030    2    1    2    0    0  0.00000000000E+00  0.00000000000E+00  0.76232755657E+03  0.12606137246E+04  0.10039938542E+04 0.  0.
        5    1    3    3  502    0  0.21229534837E+03  0.43914957739E+03  0.53003122793E+03  0.72033107585E+03  0.46999998093E+01 0.  1.
       -5    1    3    3    0  502 -0.21229534837E+03 -0.43914957739E+03  0.23229632864E+03  0.54028264877E+03  0.46999998093E+01 0. -1.
</event>
<event>
 5   0  0.2313036E-03  0.1000689E+04  0.7818609E-02  0.9307789E-01
       -1   -1    0    0    0  501  0.00000000000E+00  0.00000000000E+00  0.26349234855E+03  0.26349234860E+03  0.50400001928E-02 0. -1.
        1   -1    0    0  501    0  0.00000000000E+00  0.00000000000E+00 -0.95010228324E+03  0.95010228326E+03  0.50400001928E-02 0.  1.
    10030    2    1    2    0    0  0.00000000000E+00  0.00000000000E+00 -0.68660993469E+03  0.12135946319E+04  0.10006891266E+04 0.  0.
        3    1    3    3  502    0 -0.48505074346E+02 -0.22943641903E+03  0.19271643276E+03  0.30353491771E+03  0.10100000352E+00 0. -1.
       -3    1    3    3    0  502  0.48505074346E+02  0.22943641903E+03 -0.87932636745E+03  0.91005971414E+03  0.10100000352E+00 0.  1.
</event>
<event>
 5   0  0.1548000E-03  0.1001892E+04  0.7818609E-02  0.9306472E-01
       -3   -1    0    0    0  501  0.00000000000E+00  0.00000000000E+00  0.95008000556E+03  0.95008001092E+03  0.10100000352E+00 0. -1.
        3   -1    0    0  501    0  0.00000000000E+00  0.00000000000E+00 -0.26413246636E+03  0.26413248567E+03  0.10100000352E+00 0.  1.
    10030    2    1    2    0    0  0.00000000000E+00  0.00000000000E+00  0.68594753920E+03  0.12142124966E+04  0.10018921900E+04 0.  0.
        3    1    3    3  502    0 -0.22539795153E+03  0.38969329054E+03  0.76677057026E+02  0.45666670398E+03  0.10100000352E+00 0. -1.
       -3    1    3    3    0  502  0.22539795153E+03 -0.38969329054E+03  0.60927048217E+03  0.75754579261E+03  0.10100000352E+00 0.  1.
</event>
<event>
 5   0  0.2350769E-03  0.1001925E+04  0.7818609E-02  0.9306436E-01
        1   -1    0    0  501    0  0.00000000000E+00  0.00000000000E+00  0.72975403517E+03  0.72975403519E+03  0.50400001928E-02 0.  1.
       -1   -1    0    0    0  501  0.00000000000E+00  0.00000000000E+00 -0.34390157091E+03  0.34390157095E+03  0.50400001928E-02 0. -1.
    10030    2    1    2    0    0  0.00000000000E+00  0.00000000000E+00  0.38585246425E+03  0.10736556061E+04  0.10019252649E+04 0.  0.
        2    1    3    3  502    0 -0.29850873047E+03 -0.80497418456E+02 -0.22947191395E+03  0.38502552622E+03  0.25500000920E-02 0. -1.
       -2    1    3    3    0  502  0.29850873047E+03  0.80497418456E+02  0.61532437820E+03  0.68863007991E+03  0.25500000920E-02 0.  1.
</event>
<event>
 5   0  0.2405022E-03  0.1005193E+04  0.7818609E-02  0.9302868E-01
        1   -1    0    0  501    0  0.00000000000E+00  0.00000000000E+00  0.81448107423E+03  0.81448107425E+03  0.50400001928E-02 0. -1.
       -1   -1    0    0    0  501  0.00000000000E+00  0.00000000000E+00 -0.31014004239E+03  0.31014004243E+03  0.50400001928E-02 0.  1.
    10030    2    1    2    0    0  0.00000000000E+00  0.00000000000E+00  0.50434103184E+03  0.11246211167E+04  0.10051929067E+04 0.  0.
        4    1    3    3  502    0  0.46827253635E+03  0.18239280441E+03  0.26048883195E+03  0.56604094186E+03  0.12699999809E+01 0. -1.
       -4    1    3    3    0  502 -0.46827253635E+03 -0.18239280441E+03  0.24385219989E+03  0.55858017481E+03  0.12699999809E+01 0.  1.
</event>
<event>
 5   0  0.4140860E-03  0.1003168E+04  0.7818609E-02  0.9305077E-01
       -2   -1    0    0    0  501  0.00000000000E+00  0.00000000000E+00  0.36712543720E+03  0.36712543721E+03  0.25500000920E-02 0.  1.
        2   -1    0    0  501    0  0.00000000000E+00  0.00000000000E+00 -0.68528805497E+03  0.68528805497E+03  0.25500000920E-02 0. -1.
    10030    2    1    2    0    0  0.00000000000E+00  0.00000000000E+00 -0.31816261777E+03  0.10524134922E+04  0.10031683344E+04 0.  0.
        3    1    3    3  502    0  0.11062652660E+03  0.40845721076E+03  0.12341642884E+03  0.44080284314E+03  0.10100000352E+00 0.  1.
       -3    1    3    3    0  502 -0.11062652660E+03 -0.40845721076E+03 -0.44157904661E+03  0.61161064904E+03  0.10100000352E+00 0. -1.
</event>
<event>
 5   0  0.4140860E-03  0.9977067E+03  0.7818609E-02  0.9311064E-01
       -2   -1    0    0    0  501  0.00000000000E+00  0.00000000000E+00  0.34872763570E+03  0.34872763571E+03  0.25500000920E-02 0. -1.
        2   -1    0    0  501    0  0.00000000000E+00  0.00000000000E+00 -0.71360759314E+03  0.71360759315E+03  0.25500000920E-02 0.  1.
    10030    2    1    2    0    0  0.00000000000E+00  0.00000000000E+00 -0.36487995744E+03  0.10623352289E+04  0.99770674806E+03 0.  0.
        3    1    3    3  502    0  0.33615011127E+03  0.79004446472E+02 -0.56578348720E+03  0.66283449251E+03  0.10100000352E+00 0.  1.
       -3    1    3    3    0  502 -0.33615011127E+03 -0.79004446472E+02  0.20090352976E+03  0.39950073635E+03  0.10100000352E+00 0. -1.
</event>
<event>
 5   0  0.4026829E-03  0.9736857E+03  0.7818609E-02  0.9337886E-01
       -2   -1    0    0    0  501  0.00000000000E+00  0.00000000000E+00  0.17625734863E+03  0.17625734864E+03  0.25500000920E-02 0. -1.
        2   -1    0    0  501    0  0.00000000000E+00  0.00000000000E+00 -0.13447153087E+04  0.13447153087E+04  0.25500000920E-02 0.  1.
    10030    2    1    2    0    0  0.00000000000E+00  0.00000000000E+00 -0.11684579601E+04  0.15209726573E+04  0.97368568847E+03 0.  0.
        1    1    3    3  502    0  0.15797599546E+03  0.64964176246E+02 -0.12963705646E+04  0.13075753899E+04  0.50400001928E-02 0.  1.
       -1    1    3    3    0  502 -0.15797599546E+03 -0.64964176246E+02  0.12791260455E+03  0.21339726748E+03  0.50400001928E-02 0. -1.
</event>
<event>
 5   0  0.2378609E-03  0.1004886E+04  0.7818609E-02  0.9303203E-01
       -1   -1    0    0    0  501  0.00000000000E+00  0.00000000000E+00  0.89444508844E+02  0.89444508986E+02  0.50400001928E-02 0.  1.
        1   -1    0    0  501    0  0.00000000000E+00  0.00000000000E+00 -0.28224060225E+04  0.28224060225E+04  0.50400001928E-02 0. -1.
    10030    2    1    2    0    0  0.00000000000E+00  0.00000000000E+00 -0.27329615137E+04  0.29118505315E+04  0.10048855072E+04 0.  0.
        1    1    3    3  502    0 -0.30791049994E+03 -0.14315142245E+03 -0.29336525891E+03  0.44873642696E+03  0.50400001928E-02 0.  1.
       -1    1    3    3    0  502  0.30791049994E+03  0.14315142245E+03 -0.24395962548E+04  0.24631141046E+04  0.50400001928E-02 0. -1.
</event>
<event>
 5   0  0.3895011E-03  0.9974393E+03  0.7818609E-02  0.9311358E-01
        2   -1    0    0  501    0  0.00000000000E+00  0.00000000000E+00  0.31034466608E+03  0.31034466609E+03  0.25500000920E-02 0. -1.
       -2   -1    0    0    0  501  0.00000000000E+00  0.00000000000E+00 -0.80143567409E+03  0.80143567410E+03  0.25500000920E-02 0.  1.
    10030    2    1    2    0    0  0.00000000000E+00  0.00000000000E+00 -0.49109100801E+03  0.11117803402E+04  0.99743929473E+03 0.  0.
        2    1    3    3  502    0 -0.21681959791E+03  0.23094816899E+03 -0.67489472115E+03  0.74554052837E+03  0.25500000920E-02 0.  1.
       -2    1    3    3    0  502  0.21681959791E+03 -0.23094816899E+03  0.18380371313E+03  0.36623981182E+03  0.25500000920E-02 0. -1.
</event>
<event>
 5   0  0.4140860E-03  0.1006371E+04  0.7818609E-02  0.9301585E-01
        2   -1    0    0  501    0  0.00000000000E+00  0.00000000000E+00  0.13556358859E+04  0.13556358859E+04  0.25500000920E-02 0. -1.
       -2   -1    0    0    0  501  0.00000000000E+00  0.00000000000E+00 -0.18677259066E+03  0.18677259067E+03  0.25500000920E-02 0.  1.
    10030    2    1    2    0    0  0.00000000000E+00  0.00000000000E+00  0.11688632953E+04  0.15424084766E+04  0.10063709583E+04 0.  0.
        3    1    3    3  502    0  0.42566993537E+03 -0.23306227441E+03  0.38062629779E+03  0.61675708865E+03  0.10100000352E+00 0.  1.
       -3    1    3    3    0  502 -0.42566993537E+03  0.23306227441E+03  0.78823699746E+03  0.92565138794E+03  0.10100000352E+00 0. -1.
</event>
<event>
 5   0  0.2378609E-03  0.1003535E+04  0.7818609E-02  0.9304676E-01
       -1   -1    0    0    0  501  0.00000000000E+00  0.00000000000E+00  0.26314669713E+03  0.26314669718E+03  0.50400001928E-02 0.  1.
        1   -1    0    0  501    0  0.00000000000E+00  0.00000000000E+00 -0.95676984028E+03  0.95676984029E+03  0.50400001928E-02 0. -1.
    10030    2    1    2    0    0  0.00000000000E+00  0.00000000000E+00 -0.69362314315E+03  0.12199165375E+04  0.10035353973E+04 0.  0.
        1    1    3    3  502    0  0.13834965667E+03  0.48622772151E+02  0.23651579549E+03  0.27828856069E+03  0.50400001928E-02 0.  1.
       -1    1    3    3    0  502 -0.13834965667E+03 -0.48622772151E+02 -0.93013893863E+03  0.94162797678E+03  0.50400001928E-02 0. -1.
</event>
<event>
 5   0  0.3826483E-03  0.9945951E+03  0.7818609E-02  0.9314493E-01
       -2   -1    0    0    0  501  0.00000000000E+00  0.00000000000E+00  0.51283078081E+03  0.51283078081E+03  0.25500000920E-02 0.  1.
        2   -1    0    0  501    0  0.00000000000E+00  0.00000000000E+00 -0.48223480408E+03  0.48223480409E+03  0.25500000920E-02 0. -1.
    10030    2    1    2    0    0  0.00000000000E+00  0.00000000000E+00  0.30595976727E+02  0.99506558490E+03  0.99459509574E+03 0.  0.
        4    1    3    3  502    0  0.18162247307E+03 -0.38756343362E+03  0.26861946346E+03  0.50532184482E+03  0.12699999809E+01 0.  1.
       -4    1    3    3    0  502 -0.18162247307E+03  0.38756343362E+03 -0.23802348674E+03  0.48974374008E+03  0.12699999809E+01 0. -1.
</event>
<event>
 5   0  0.2327595E-03  0.9941499E+03  0.7818609E-02  0.9314984E-01
       -1   -1    0    0    0  501  0.00000000000E+00  0.00000000000E+00  0.84160563801E+02  0.84160563952E+02  0.50400001928E-02 0. -1.
        1   -1    0    0  501    0  0.00000000000E+00  0.00000000000E+00 -0.29358587252E+04  0.29358587252E+04  0.50400001928E-02 0.  1.
    10030    2    1    2    0    0  0.00000000000E+00  0.00000000000E+00 -0.28516981614E+04  0.30200192892E+04  0.99414993998E+03 0.  0.
        5    1    3    3  502    0 -0.17251848062E+03  0.29643121007E+03 -0.25187249865E+04  0.25419739841E+04  0.46999998093E+01 0.  1.
       -5    1    3    3    0  502  0.17251848062E+03 -0.29643121007E+03 -0.33297317495E+03  0.47804530506E+03  0.46999998093E+01 0. -1.
</event>
<event>
 5   0  0.3873874E-03  0.1016088E+04  0.7818609E-02  0.9291074E-01
       -2   -1    0    0    0  501  0.00000000000E+00  0.00000000000E+00  0.10301304713E+03  0.10301304716E+03  0.25500000920E-02 0. -1.
        2   -1    0    0  501    0  0.00000000000E+00  0.00000000000E+00 -0.25055903572E+04  0.25055903572E+04  0.25500000920E-02 0.  1.
    10030    2    1    2    0    0  0.00000000000E+00  0.00000000000E+00 -0.24025773100E+04  0.26086034043E+04  0.10160875899E+04 0.  0.
        5    1    3    3  502    0 -0.92809458771E+02 -0.49794708111E+03 -0.13014304159E+04  0.13965343206E+04  0.46999998093E+01 0. -1.
       -5    1    3    3    0  502  0.92809458771E+02  0.49794708111E+03 -0.11011468941E+04  0.12120690837E+04  0.46999998093E+01 0.  1.
</event>
<event>
 5   0  0.3826483E-03  0.1003996E+04  0.7818609E-02  0.9304173E-01
        2   -1    0    0  501    0  0.00000000000E+00  0.00000000000E+00  0.11902932201E+04  0.11902932201E+04  0.25500000920E-02 0.  1.
       -2   -1    0    0    0  501  0.00000000000E+00  0.00000000000E+00 -0.21171425422E+03  0.21171425423E+03  0.25500000920E-02 0. -1.
    10030    2    1    2    0    0  0.00000000000E+00  0.00000000000E+00  0.97857896586E+03  0.14020074743E+04  0.10039960984E+04 0.  0.
        4    1    3    3  502    0 -0.11227531992E+03 -0.48879740416E+03  0.51962053535E+03  0.72217433036E+03  0.12699999809E+01 0.  1.
       -4    1    3    3    0  502  0.11227531992E+03  0.48879740416E+03  0.45895843051E+03  0.67983314395E+03  0.12699999809E+01 0. -1.
</event>
<event>
 5   0  0.4140860E-03  0.9959663E+03  0.7818609E-02  0.9312980E-01
       -2   -1    0    0    0  501  0.00000000000E+00  0.00000000000E+00  0.10439767277E+04  0.10439767277E+04  0.25500000920E-02 0. -1.
        2   -1    0    0  501    0  0.00000000000E+00  0.00000000000E+00 -0.23754093574E+03  0.23754093575E+03  0.25500000920E-02 0.  1.
    10030    2    1    2    0    0  0.00000000000E+00  0.00000000000E+00  0.80643579193E+03  0.12815176634E+04  0.99596628214E+03 0.  0.
        3    1    3    3  502    0 -0.49064615719E+02 -0.46284185687E+03  0.17536784189E+03  0.49737693067E+03  0.10100000352E+00 0. -1.
       -3    1    3    3    0  502  0.49064615719E+02  0.46284185687E+03  0.63106795004E+03  0.78414073275E+03  0.10100000352E+00 0.  1.
</event>
<event>
 5   0  0.4140860E-03  0.1007244E+04  0.7818609E-02  0.9300635E-01
       -2   -1    0    0    0  501  0.00000000000E+00  0.00000000000E+00  0.74299836806E+03  0.74299836806E+03  0.25500000920E-02 0. -1.
        2   -1    0    0  501    0  0.00000000000E+00  0.00000000000E+00 -0.34136721660E+03  0.34136721661E+03  0.25500000920E-02 0.  1.
    10030    2    1    2    0    0  0.00000000000E+00  0.00000000000E+00  0.40163115146E+03  0.10843655847E+04  0.10072443295E+04 0.  0.
        3    1    3    3  502    0  0.20817095378E+02 -0.45862158878E+03  0.42371468015E+03  0.62474094914E+03  0.10100000352E+00 0. -1.
       -3    1    3    3    0  502 -0.20817095378E+02  0.45862158878E+03 -0.22083528692E+02  0.45962463554E+03  0.10100000352E+00 0.  1.
</event>
<event>
 5   0  0.3826483E-03  0.9991608E+03  0.7818609E-02  0.9309466E-01
       -2   -1    0    0    0  501  0.00000000000E+00  0.00000000000E+00  0.25094300924E+03  0.25094300925E+03  0.25500000920E-02 0.  1.
        2   -1    0    0  501    0  0.00000000000E+00  0.00000000000E+00 -0.99457067086E+03  0.99457067086E+03  0.25500000920E-02 0. -1.
    10030    2    1    2    0    0  0.00000000000E+00  0.00000000000E+00 -0.74362766162E+03  0.12455136801E+04  0.99916076195E+03 0.  0.
        4    1    3    3  502    0 -0.39065786282E+02  0.55224881112E+02 -0.98883327639E+03  0.99114518843E+03  0.12699999809E+01 0. -1.
       -4    1    3    3    0  502  0.39065786282E+02 -0.55224881112E+02  0.24520561476E+03  0.25436849169E+03  0.12699999809E+01 0.  1.
</event>
<event>
 5   0  0.4140860E-03  0.1009715E+04  0.7818609E-02  0.9297953E-01
        2   -1    0    0  501    0  0.00000000000E+00  0.00000000000E+00  0.89599930659E+03  0.89599930660E+03  0.25500000920E-02 0.  1.
       -2   -1    0    0    0  501  0.00000000000E+00  0.00000000000E+00 -0.28446597299E+03  0.28446597300E+03  0.25500000920E-02 0. -1.
    10030    2    1    2    0    0  0.00000000000E+00  0.00000000000E+00  0.61153333360E+03  0.11804652796E+04  0.10097154343E+04 0.  0.
        3    1    3    3  502    0  0.45255522602E+03 -0.19428907410E+03  0.43556821767E+03  0.65747559601E+03  0.10100000352E+00 0.  1.
       -3    1    3    3    0  502 -0.45255522602E+03  0.19428907410E+03  0.17596511594E+03  0.52298968359E+03  0.10100000352E+00 0. -1.
</event>
<event>
 5   0  0.1548000E-03  0.9998455E+03  0.7818609E-02  0.9308714E-01
        3   -1    0    0  501    0  0.00000000000E+00  0.00000000000E+00  0.61608304459E+03  0.61608305287E+03  0.10100000352E+00 0.  1.
       -3   -1    0    0    0  501  0.00000000000E+00  0.00000000000E+00 -0.40566405246E+03  0.40566406503E+03  0.10100000352E+00 0. -1.
    10030    2    1    2    0    0  0.00000000000E+00  0.00000000000E+00  0.21041899213E+03  0.10217471179E+04  0.99984549842E+03 0.  0.
        3    1    3    3  502    0  0.28690991798E+03  0.33192926628E+03  0.35010110651E+03  0.56130663084E+03  0.10100000352E+00 0. -1.
       -3    1    3    3    0  502 -0.28690991798E+03 -0.33192926628E+03 -0.13968211437E+03  0.46044048706E+03  0.10100000352E+00 0.  1.
</event>
<event>
 5   0  0.2327595E-03  0.1003628E+04  0.7818609E-02  0.9304574E-01
       -1   -1    0    0    0  501  0.00000000000E+00  0.00000000000E+00  0.55999276929E+03  0.55999276932E+03  0.50400001928E-02 0. -1.
        1   -1    0    0  501    0  0.00000000000E+00  0.00000000000E+00 -0.44967988785E+03  0.44967988788E+03  0.50400001928E-02 0.  1.
    10030    2    1    2    0    0  0.00000000000E+00  0.00000000000E+00  0.11031288145E+03  0.10096726572E+04  0.10036283888E+04 0.  0.
        5    1    3    3  502    0 -0.13340965660E+03  0.27874138729E+03  0.45288597276E+03  0.54829070007E+03  0.46999998093E+01 0. -1.
       -5    1    3    3    0  502  0.13340965660E+03 -0.27874138729E+03 -0.34257309132E+03  0.46138195712E+03  0.46999998093E+01 0.  1.
</event>
<event>
 5   0  0.4026829E-03  0.9979601E+03  0.7818609E-02  0.9310785E-01
        2   -1    0    0  501    0  0.00000000000E+00  0.00000000000E+00  0.63113640049E+03  0.63113640050E+03  0.25500000920E-02 0.  1.
       -2   -1    0    0    0  501  0.00000000000E+00  0.00000000000E+00 -0.39449649605E+03  0.39449649606E+03  0.25500000920E-02 0. -1.
    10030    2    1    2    0    0  0.00000000000E+00  0.00000000000E+00  0.23663990444E+03  0.10256328966E+04  0.99796011650E+03 0.  0.
        1    1    3    3  502    0 -0.13109060875E+03 -0.26635610892E+03  0.53050319786E+03  0.60791773080E+03  0.50400001928E-02 0.  1.
       -1    1    3    3    0  502  0.13109060875E+03  0.26635610892E+03 -0.29386329341E+03  0.41771516576E+03  0.50400001928E-02 0. -1.
</event>
<event>
 5   0  0.2378609E-03  0.9982667E+03  0.7818609E-02  0.9310448E-01
       -1   -1    0    0    0  501  0.00000000000E+00  0.00000000000E+00  0.32294287271E+03  0.32294287275E+03  0.50400001928E-02 0. -1.
        1   -1    0    0  501    0  0.00000000000E+00  0.00000000000E+00 -0.77144941718E+03  0.77144941719E+03  0.50400001928E-02 0.  1.
    10030    2    1    2    0    0  0.00000000000E+00  0.00000000000E+00 -0.44850654447E+03  0.10943922899E+04  0.99826667973E+03 0.  0.
        1    1    3    3  502    0  0.64025393704E+02  0.12782877855E+03 -0.74852259429E+03  0.76205349016E+03  0.50400001928E-02 0.  1.
       -1    1    3    3    0  502 -0.64025393704E+02 -0.12782877855E+03  0.30001604983E+03  0.33233879979E+03  0.50400001928E-02 0. -1.
</event>
<event>
 5   0  0.3826483E-03  0.9975632E+03  0.7818609E-02  0.9311222E-01
       -2   -1    0    0    0  501  0.00000000000E+00  0.00000000000E+00  0.24916658330E+03  0.24916658331E+03  0.25500000920E-02 0. -1.
        2   -1    0    0  501    0  0.00000000000E+00  0.00000000000E+00 -0.99846082331E+03  0.99846082331E+03  0.25500000920E-02 0.  1.
    10030    2    1    2    0    0  0.00000000000E+00  0.00000000000E+00 -0.74929424001E+03  0.12476274066E+04  0.99756317476E+03 0.  0.
        4    1    3    3  502    0 -0.33591103138E+03  0.54835084425E+02  0.81357919403E+02  0.34994832681E+03  0.12699999809E+01 0. -1.
       -4    1    3    3    0  502  0.33591103138E+03 -0.54835084425E+02 -0.83065215941E+03  0.89767907981E+03  0.12699999809E+01 0.  1.
</event>
<event>
 5   0  0.3826483E-03  0.9418801E+03  0.7818609E-02  0.9374692E-01
       -2   -1    0    0    0  501  0.00000000000E+00  0.00000000000E+00  0.24780443108E+03  0.24780443110E+03  0.25500000920E-02 0. -1.
        2   -1    0    0  501    0  0.00000000000E+00  0.00000000000E+00 -0.89499816003E+03  0.89499816003E+03  0.25500000920E-02 0.  1.
    10030    2    1    2    0    0  0.00000000000E+00  0.00000000000E+00 -0.64719372894E+03  0.11428025911E+04  0.94188005580E+03 0.  0.
        4    1    3    3  502    0  0.11427621689E+03  0.96911488141E+02  0.21810974556E+03  0.26462117128E+03  0.12699999809E+01 0. -1.
       -4    1    3    3    0  502 -0.11427621689E+03 -0.96911488141E+02 -0.86530347450E+03  0.87818141985E+03  0.12699999809E+01 0.  1.
</event>
<event>
 5   0  0.1548000E-03  0.9994853E+03  0.7818609E-02  0.9309109E-01
       -3   -1    0    0    0  501  0.00000000000E+00  0.00000000000E+00  0.43284813751E+03  0.43284814929E+03  0.10100000352E+00 0.  1.
        3   -1    0    0  501    0  0.00000000000E+00  0.00000000000E+00 -0.57697535685E+03  0.57697536569E+03  0.10100000352E+00 0. -1.
    10030    2    1    2    0    0  0.00000000000E+00  0.00000000000E+00 -0.14412721934E+03  0.10098235150E+04  0.99948530557E+03 0.  0.
        2    1    3    3  502    0  0.37507037290E+03 -0.38482967220E+02  0.25932906245E+03  0.45761368646E+03  0.25500000920E-02 0.  1.
       -2    1    3    3    0  502 -0.37507037290E+03  0.38482967220E+02 -0.40345628179E+03  0.55220982853E+03  0.25500000920E-02 0. -1.
</event>
<event>
 5   0  0.3826483E-03  0.1000267E+04  0.7818609E-02  0.9308252E-01
       -2   -1    0    0    0  501  0.00000000000E+00  0.00000000000E+00  0.27019857645E+03  0.27019857646E+03  0.25500000920E-02 0. -1.
        2   -1    0    0  501    0  0.00000000000E+00  0.00000000000E+00 -0.92573953009E+03  0.92573953010E+03  0.25500000920E-02 0.  1.
    10030    2    1    2    0    0  0.00000000000E+00  0.00000000000E+00 -0.65554095364E+03  0.11959381066E+04  0.10002669708E+04 0.  0.
        4    1    3    3  502    0  0.17084600335E+03  0.34142461381E+03  0.58495426251E+02  0.38624144207E+03  0.12699999809E+01 0. -1.
       -4    1    3    3    0  502 -0.17084600335E+03 -0.34142461381E+03 -0.71403637989E+03  0.80969666449E+03  0.12699999809E+01 0.  1.
</event>
<event>
 5   0  0.4026829E-03  0.9850804E+03  0.7818609E-02  0.9325061E-01
       -2   -1    0    0    0  501  0.00000000000E+00  0.00000000000E+00  0.14975423753E+03  0.14975423755E+03  0.25500000920E-02 0.  1.
        2   -1    0    0  501    0  0.00000000000E+00  0.00000000000E+00 -0.16199598916E+04  0.16199598916E+04  0.25500000920E-02 0. -1.
    10030    2    1    2    0    0  0.00000000000E+00  0.00000000000E+00 -0.14702056540E+04  0.17697141291E+04  0.98508041988E+03 0.  0.
        1    1    3    3  502    0  0.23406727852E+03  0.23029798873E+03 -0.75579766637E+02  0.33695245308E+03  0.50400001928E-02 0.  1.
       -1    1    3    3    0  502 -0.23406727852E+03 -0.23029798873E+03 -0.13946258874E+04  0.14327616760E+04  0.50400001928E-02 0. -1.
</event>
<event>
 5   0  0.2405022E-03  0.9969614E+03  0.7818609E-02  0.9311884E-01
       -1   -1    0    0    0  501  0.00000000000E+00  0.00000000000E+00  0.59392857747E+03  0.59392857749E+03  0.50400001928E-02 0.  1.
        1   -1    0    0  501    0  0.00000000000E+00  0.00000000000E+00 -0.41837188536E+03  0.41837188539E+03  0.50400001928E-02 0. -1.
    10030    2    1    2    0    0  0.00000000000E+00  0.00000000000E+00  0.17555669211E+03  0.10123004629E+04  0.99696142102E+03 0.  0.
        4    1    3    3  502    0 -0.42139289052E+03  0.98489773904E+02 -0.16343311050E+03  0.46258426071E+03  0.12699999809E+01 0.  1.
       -4    1    3    3    0  502  0.42139289052E+03 -0.98489773904E+02  0.33898980262E+03  0.54971620217E+03  0.12699999809E+01 0. -1.
</event>
<event>
 5   0  0.1548000E-03  0.1007300E+04  0.7818609E-02  0.9300575E-01
       -3   -1    0    0    0  501  0.00000000000E+00  0.00000000000E+00  0.27835193998E+03  0.27835195831E+03  0.10100000352E+00 0.  1.
        3   -1    0    0  501    0  0.00000000000E+00  0.00000000000E+00 -0.91130364509E+03  0.91130365069E+03  0.10100000352E+00 0. -1.
    10030    2    1    2    0    0  0.00000000000E+00  0.00000000000E+00 -0.63295170511E+03  0.11896556090E+04  0.10072996610E+04 0.  0.
        4    1    3    3  502    0  0.16147322759E+03  0.38894541759E+03 -0.64272664995E+03  0.76840829026E+03  0.12699999809E+01 0. -1.
       -4    1    3    3    0  502 -0.16147322759E+03 -0.38894541759E+03  0.97749448410E+01  0.42124731873E+03  0.12699999809E+01 0.  1.
</event>
<event>
 5   0  0.2327595E-03  0.9944527E+03  0.7818609E-02  0.9314650E-01
       -1   -1    0    0    0  501  0.00000000000E+00  0.00000000000E+00  0.29308168593E+03  0.29308168597E+03  0.50400001928E-02 0.  1.
        1   -1    0    0  501    0  0.00000000000E+00  0.00000000000E+00 -0.84356704297E+03  0.84356704298E+03  0.50400001928E-02 0. -1.
    10030    2    1    2    0    0  0.00000000000E+00  0.00000000000E+00 -0.55048535703E+03  0.11366487290E+04  0.99445271618E+03 0.  0.
        5    1    3    3  502    0  0.19315379822E+03  0.31811150361E+03  0.10161222362E+03  0.38581142088E+03  0.46999998093E+01 0.  1.
       -5    1    3    3    0  502 -0.19315379822E+03 -0.31811150361E+03 -0.65209758066E+03  0.75083730807E+03  0.46999998093E+01 0. -1.
</event>
<event>
 5   0  0.3826483E-03  0.1004752E+04  0.7818609E-02  0.9303348E-01
       -2   -1    0    0    0  501  0.00000000000E+00  0.00000000000E+00  0.23232515893E+03  0.23232515895E+03  0.25500000920E-02 0.  1.
        2   -1    0    0  501    0  0.00000000000E+00  0.00000000000E+00 -0.10863302501E+04  0.10863302501E+04  0.25500000920E-02 0. -1.
    10030    2    1    2    0    0  0.00000000000E+00  0.00000000000E+00 -0.85400509114E+03  0.13186554090E+04  0.10047524034E+04 0.  0.
        4    1    3    3  502    0 -0.19983664304E+03 -0.61706451264E+02  0.17246935633E+03  0.27108976706E+03  0.12699999809E+01 0.  1.
       -4    1    3    3    0  502  0.19983664304E+03  0.61706451264E+02 -0.10264744475E+04  0.10475656420E+04  0.12699999809E+01 0. -1.
</event>
<event>
 5   0  0.4026829E-03  0.1004416E+04  0.7818609E-02  0.9303714E-01
       -2   -1    0    0    0  501  0.00000000000E+00  0.00000000000E+00  0.61564840066E+03  0.61564840066E+03  0.25500000920E-02 0.  1.
        2   -1    0    0  501    0  0.00000000000E+00  0.00000000000E+00 -0.40967048831E+03  0.40967048832E+03  0.25500000920E-02 0. -1.
    10030    2    1    2    0    0  0.00000000000E+00  0.00000000000E+00  0.20597791235E+03  0.10253188890E+04  0.10044162104E+04 0.  0.
        1    1    3    3  502    0  0.24846036531E+03 -0.43554346698E+03  0.13154094668E+03  0.51839529844E+03  0.50400001928E-02 0.  1.
       -1    1    3    3    0  502 -0.24846036531E+03  0.43554346698E+03  0.74436965663E+02  0.50692359054E+03  0.50400001928E-02 0. -1.
</event>
<event>
 5   0  0.3895011E-03  0.1000657E+04  0.7818609E-02  0.9307825E-01
       -2   -1    0    0    0  501  0.00000000000E+00  0.00000000000E+00  0.16989501062E+03  0.16989501064E+03  0.25500000920E-02 0.  1.
        2   -1    0    0  501    0  0.00000000000E+00  0.00000000000E+00 -0.14734298976E+04  0.14734298976E+04  0.25500000920E-02 0. -1.
    10030    2    1    2    0    0  0.00000000000E+00  0.00000000000E+00 -0.13035348870E+04  0.16433249083E+04  0.10006565607E+04 0.  0.
        2    1    3    3  502    0  0.93931938613E+01  0.21832197281E+03 -0.13909165142E+04  0.14079777930E+04  0.25500000920E-02 0. -1.
       -2    1    3    3    0  502 -0.93931938613E+01 -0.21832197281E+03  0.87381627221E+02  0.23534711531E+03  0.25500000920E-02 0.  1.
</event>
<event>
 5   0  0.3873874E-03  0.9952198E+03  0.7818609E-02  0.9313803E-01
       -2   -1    0    0    0  501  0.00000000000E+00  0.00000000000E+00  0.25055441297E+03  0.25055441298E+03  0.25500000920E-02 0. -1.
        2   -1    0    0  501    0  0.00000000000E+00  0.00000000000E+00 -0.98827082050E+03  0.98827082050E+03  0.25500000920E-02 0.  1.
    10030    2    1    2    0    0  0.00000000000E+00  0.00000000000E+00 -0.73771640753E+03  0.12388252335E+04  0.99521980545E+03 0.  0.
        5    1    3    3  502    0  0.14830058387E+03 -0.32436985024E+03 -0.80075164838E+03  0.87660376186E+03  0.46999998093E+01 0.  1.
       -5    1    3    3    0  502 -0.14830058387E+03  0.32436985024E+03  0.63035240846E+02  0.36222147163E+03  0.46999998093E+01 0. -1.
</event>
<event>
 5   0  0.3895011E-03  0.1019332E+04  0.7818609E-02  0.9287592E-01
        2   -1    0    0  501    0  0.00000000000E+00  0.00000000000E+00  0.26411869369E+04  0.26411869369E+04  0.25500000920E-02 0. -1.
       -2   -1    0    0    0  501  0.00000000000E+00  0.00000000000E+00 -0.98349537841E+02  0.98349537874E+02  0.25500000920E-02 0.  1.
    10030    2    1    2    0    0  0.00000000000E+00  0.00000000000E+00  0.25428373991E+04  0.27395364748E+04  0.10193321630E+04 0.  0.
        2    1    3    3  502    0  0.17999707720E+03  0.37472162604E+02  0.25489562863E+04  0.25555784590E+04  0.25500000920E-02 0. -1.
       -2    1    3    3    0  502 -0.17999707720E+03 -0.37472162604E+02 -0.61188872367E+01  0.18395801575E+03  0.25500000920E-02 0.  1.
</event>
<event>
 5   0  0.2313036E-03  0.1004372E+04  0.7818609E-02  0.9303763E-01
       -1   -1    0    0    0  501  0.00000000000E+00  0.00000000000E+00  0.14277312647E+03  0.14277312656E+03  0.50400001928E-02 0.  1.
        1   -1    0    0  501    0  0.00000000000E+00  0.00000000000E+00 -0.17663745756E+04  0.17663745756E+04  0.50400001928E-02 0. -1.
    10030    2    1    2    0    0  0.00000000000E+00  0.00000000000E+00 -0.16236014491E+04  0.19091477022E+04  0.10043720840E+04 0.  0.
        3    1    3    3  502    0  0.26228734073E+03 -0.20080994560E+03 -0.15307884935E+04  0.15660244906E+04  0.10100000352E+00 0. -1.
       -3    1    3    3    0  502 -0.26228734073E+03  0.20080994560E+03 -0.92812955671E+02  0.34312321154E+03  0.10100000352E+00 0.  1.
</event>
<event>
 5   0  0.4026829E-03  0.9804875E+03  0.7818609E-02  0.9330209E-01
        2   -1    0    0  501    0  0.00000000000E+00  0.00000000000E+00  0.90251644083E+03  0.90251644084E+03  0.25500000920E-02 0. -1.
       -2   -1    0    0    0  501  0.00000000000E+00  0.00000000000E+00 -0.26629866635E+03  0.26629866636E+03  0.25500000920E-02 0.  1.
    10030    2    1    2    0    0  0.00000000000E+00  0.00000000000E+00  0.63621777449E+03  0.11688151072E+04  0.98048747990E+03 0.  0.
        1    1    3    3  502    0 -0.48543164010E+03 -0.20703492578E+02  0.39597261579E+03  0.62679089360E+03  0.50400001928E-02 0. -1.
       -1    1    3    3    0  502  0.48543164010E+03  0.20703492578E+02  0.24024515869E+03  0.54202421359E+03  0.50400001928E-02 0.  1.
</event>
<event>
 5   0  0.2350769E-03  0.9998510E+03  0.7818609E-02  0.9308708E-01
        1   -1    0    0  501    0  0.00000000000E+00  0.00000000000E+00  0.26492263509E+03  0.26492263513E+03  0.50400001928E-02 0. -1.
       -1   -1    0    0    0  501  0.00000000000E+00  0.00000000000E+00 -0.94339057566E+03  0.94339057568E+03  0.50400001928E-02 0.  1.
    10030    2    1    2    0    0  0.00000000000E+00  0.00000000000E+00 -0.67846794058E+03  0.12083132108E+04  0.99985102342E+03 0.  0.
        2    1    3    3  502    0 -0.32810648074E+03  0.77719767498E+02  0.10681512873E+03  0.35370000946E+03  0.25500000920E-02 0.  1.
       -2    1    3    3    0  502  0.32810648074E+03 -0.77719767498E+02 -0.78528306931E+03  0.85461320135E+03  0.25500000920E-02 0. -1.
</event>
<event>
 5   0  0.2405022E-03  0.9638532E+03  0.7818609E-02  0.9349103E-01
        1   -1    0    0  501    0  0.00000000000E+00  0.00000000000E+00  0.41368387114E+03  0.41368387117E+03  0.50400001928E-02 0.  1.
       -1   -1    0    0    0  501  0.00000000000E+00  0.00000000000E+00 -0.56142692845E+03  0.56142692847E+03  0.50400001928E-02 0. -1.
    10030    2    1    2    0    0  0.00000000000E+00  0.00000000000E+00 -0.14774305731E+03  0.97511079964E+03  0.96385323603E+03 0.  0.
        4    1    3    3  502    0  0.41023379901E+03  0.25097174664E+03 -0.10542985302E+03  0.49233693165E+03  0.12699999809E+01 0.  1.
       -4    1    3    3    0  502 -0.41023379901E+03 -0.25097174664E+03 -0.42313204285E+02  0.48277386799E+03  0.12699999809E+01 0. -1.
</event>
<event>
 5   0  0.4140860E-03  0.1001574E+04  0.7818609E-02  0.9306821E-01
        2   -1    0    0  501    0  0.00000000000E+00  0.00000000000E+00  0.63935455862E+03  0.63935455862E+03  0.25500000920E-02 0.  1.
       -2   -1    0    0    0  501  0.00000000000E+00  0.00000000000E+00 -0.39225098632E+03  0.39225098633E+03  0.25500000920E-02 0. -1.
    10030    2    1    2    0    0  0.00000000000E+00  0.00000000000E+00  0.24710357230E+03  0.10316055450E+04  0.10015736742E+04 0.  0.
        3    1    3    3  502    0  0.12492311100E+03 -0.30435803120E+03  0.51242775357E+03  0.60895140007E+03  0.10100000352E+00 0.  1.
       -3    1    3    3    0  502 -0.12492311100E+03  0.30435803120E+03 -0.26532418127E+03  0.42265414488E+03  0.10100000352E+00 0. -1.
</event>
<event>
 5   0  0.3873874E-03  0.1001029E+04  0.7818609E-02  0.9307417E-01
        2   -1    0    0  501    0  0.00000000000E+00  0.00000000000E+00  0.92052257011E+03  0.92052257011E+03  0.25500000920E-02 0.  1.
       -2   -1    0    0    0  501  0.00000000000E+00  0.00000000000E+00 -0.27214418309E+03  0.27214418310E+03  0.25500000920E-02 0. -1.
    10030    2    1    2    0    0  0.00000000000E+00  0.00000000000E+00  0.64837838702E+03  0.11926667532E+04  0.10010291961E+04 0.  0.
        5    1    3    3  502    0  0.54842644446E+02 -0.49747734196E+03  0.32280411911E+03  0.59558039821E+03  0.46999998093E+01 0.  1.
       -5    1    3    3    0  502 -0.54842644446E+02  0.49747734196E+03  0.32557426790E+03  0.59708635501E+03  0.46999998093E+01 0. -1.
</event>
<event>
 5   0  0.1548000E-03  0.9819676E+03  0.7818609E-02  0.9328547E-01
        3   -1    0    0  501    0  0.00000000000E+00  0.00000000000E+00  0.56736278128E+03  0.56736279027E+03  0.10100000352E+00 0. -1.
       -3   -1    0    0    0  501  0.00000000000E+00  0.00000000000E+00 -0.42488700241E+03  0.42488701441E+03  0.10100000352E+00 0.  1.
    10030    2    1    2    0    0  0.00000000000E+00  0.00000000000E+00  0.14247577887E+03  0.99224980469E+03  0.98196757957E+03 0.  0.
        3    1    3    3  502    0  0.20314976002E+03  0.26920063368E+03  0.43180231303E+03  0.54789784988E+03  0.10100000352E+00 0. -1.
       -3    1    3    3    0  502 -0.20314976002E+03 -0.26920063368E+03 -0.28932653416E+03  0.44435195480E+03  0.10100000352E+00 0.  1.
</event>
<event>
 5   0  0.1548000E-03  0.9688930E+03  0.7818609E-02  0.9343336E-01
        3   -1    0    0  501    0  0.00000000000E+00  0.00000000000E+00  0.12233083978E+04  0.12233084020E+04  0.10100000352E+00 0.  1.
       -3   -1    0    0    0  501  0.00000000000E+00  0.00000000000E+00 -0.19184728099E+03  0.19184730757E+03  0.10100000352E+00 0. -1.
    10030    2    1    2    0    0  0.00000000000E+00  0.00000000000E+00  0.10314611168E+04  0.14151557095E+04  0.96889300067E+03 0.  0.
        4    1    3    3  502    0  0.41992662184E+03  0.56365678345E+02  0.85880248454E+03  0.95763185921E+03  0.12699999809E+01 0.  1.
       -4    1    3    3    0  502 -0.41992662184E+03 -0.56365678345E+02  0.17265863228E+03  0.45752385033E+03  0.12699999809E+01 0. -1.
</event>
<event>
 5   0  0.3873874E-03  0.1003662E+04  0.7818609E-02  0.9304538E-01
        2   -1    0    0  501    0  0.00000000000E+00  0.00000000000E+00  0.78269235533E+03  0.78269235533E+03  0.25500000920E-02 0. -1.
       -2   -1    0    0    0  501  0.00000000000E+00  0.00000000000E+00 -0.32175375485E+03  0.32175375486E+03  0.25500000920E-02 0.  1.
    10030    2    1    2    0    0  0.00000000000E+00  0.00000000000E+00  0.46093860048E+03  0.11044461102E+04  0.10036617044E+04 0.  0.
        5    1    3    3  502    0  0.15376215224E+02  0.45332493844E+03  0.46666750248E+03  0.65079995058E+03  0.46999998093E+01 0. -1.
       -5    1    3    3    0  502 -0.15376215224E+02 -0.45332493844E+03 -0.57289020071E+01  0.45364615961E+03  0.46999998093E+01 0.  1.
</event>
<event>
 5   0  0.4026829E-03  0.9951271E+03  0.7818609E-02  0.9313905E-01
       -2   -1    0    0    0  501  0.00000000000E+00  0.00000000000E+00  0.43561761265E+03  0.43561761266E+03  0.25500000920E-02 0. -1.
        2   -1    0    0  501    0  0.00000000000E+00  0.00000000000E+00 -0.56831837551E+03  0.56831837552E+03  0.25500000920E-02 0.  1.
    10030    2    1    2    0    0  0.00000000000E+00  0.00000000000E+00 -0.13270076286E+03  0.10039359882E+04  0.99512711544E+03 0.  0.
        1    1    3    3  502    0  0.12412810769E+02 -0.10497397428E+03  0.42415910936E+03  0.43713220338E+03  0.50400001928E-02 0. -1.
       -1    1    3    3    0  502 -0.12412810769E+02  0.10497397428E+03 -0.55685987222E+03  0.56680378480E+03  0.50400001928E-02 0.  1.
</event>
<event>
 5   0  0.2405022E-03  0.9991943E+03  0.7818609E-02  0.9309429E-01
        1   -1    0    0  501    0  0.00000000000E+00  0.00000000000E+00  0.19611403685E+04  0.19611403685E+04  0.50400001928E-02 0.  1.
       -1   -1    0    0    0  501  0.00000000000E+00  0.00000000000E+00 -0.12727151660E+03  0.12727151670E+03  0.50400001928E-02 0. -1.
    10030    2    1    2    0    0  0.00000000000E+00  0.00000000000E+00  0.18338688519E+04  0.20884118852E+04  0.99919429356E+03 0.  0.
        4    1    3    3  502    0  0.34020757112E+03 -0.22994013758E+03  0.32214866689E+03  0.52191477733E+03  0.12699999809E+01 0. -1.
       -4    1    3    3    0  502 -0.34020757112E+03  0.22994013758E+03  0.15117201850E+04  0.15664971078E+04  0.12699999809E+01 0.  1.
</event>
<event>
 5   0  0.2327595E-03  0.9385705E+03  0.7818609E-02  0.9378611E-01
       -1   -1    0    0    0  501  0.00000000000E+00  0.00000000000E+00  0.40686724576E+03  0.40686724579E+03  0.50400001928E-02 0. -1.
        1   -1    0    0  501    0  0.00000000000E+00  0.00000000000E+00 -0.54127887042E+03  0.54127887044E+03  0.50400001928E-02 0.  1.
    10030    2    1    2    0    0  0.00000000000E+00  0.00000000000E+00 -0.13441162465E+03  0.94814611624E+03  0.93857049436E+03 0.  0.
        5    1    3    3  502    0 -0.13843572069E+03 -0.31125084054E+03 -0.39324463881E+03  0.52029315818E+03  0.46999998093E+01 0.  1.
       -5    1    3    3    0  502  0.13843572069E+03  0.31125084054E+03  0.25883301416E+03  0.42785295805E+03  0.46999998093E+01 0. -1.
</event>
<event>
 5   0  0.3873874E-03  0.9969100E+03  0.7818609E-02  0.9311940E-01
       -2   -1    0    0    0  501  0.00000000000E+00  0.00000000000E+00  0.21721160563E+03  0.21721160565E+03  0.25500000920E-02 0.  1.
        2   -1    0    0  501    0  0.00000000000E+00  0.00000000000E+00 -0.11438494223E+04  0.11438494223E+04  0.25500000920E-02 0. -1.
    10030    2    1    2    0    0  0.00000000000E+00  0.00000000000E+00 -0.92663781665E+03  0.13610610279E+04  0.99690996510E+03 0.  0.
        5    1    3    3  502    0  0.20281148810E+03 -0.32791349425E+03 -0.32064386376E+02  0.38692373188E+03  0.46999998093E+01 0.  1.
       -5    1    3    3    0  502 -0.20281148810E+03  0.32791349425E+03 -0.89457343028E+03  0.97413729606E+03  0.46999998093E+01 0. -1.
</event>
<event>
 5   0  0.3895011E-03  0.9963586E+03  0.7818609E-02  0.9312548E-01
        2   -1    0    0  501    0  0.00000000000E+00  0.00000000000E+00  0.93857432762E+03  0.93857432762E+03  0.25500000920E-02 0. -1.
       -2   -1    0    0    0  501  0.00000000000E+00  0.00000000000E+00 -0.26442511728E+03  0.26442511729E+03  0.25500000920E-02 0.  1.
    10030    2    1    2    0    0  0.00000000000E+00  0.00000000000E+00  0.67414921034E+03  0.12029994449E+04  0.99635862351E+03 0.  0.
        2    1    3    3  502    0  0.40063187735E+03 -0.22825033256E+03  0.56481686637E+03  0.72912427473E+03  0.25500000920E-02 0. -1.
       -2    1    3    3    0  502 -0.40063187735E+03  0.22825033256E+03  0.10933234397E+03  0.47387517018E+03  0.25500000920E-02 0.  1.
</event>
<event>
 5   0  0.4140860E-03  0.1001720E+04  0.7818609E-02  0.9306661E-01
        2   -1    0    0  501    0  0.00000000000E+00  0.00000000000E+00  0.10391333786E+04  0.10391333786E+04  0.25500000920E-02 0.  1.
       -2   -1    0    0    0  501  0.00000000000E+00  0.00000000000E+00 -0.24141332113E+03  0.24141332115E+03  0.25500000920E-02 0. -1.
    10030    2    1    2    0    0  0.00000000000E+00  0.00000000000E+00  0.79772005744E+03  0.12805466997E+04  0.10017198012E+04 0.  0.
        3    1    3    3  502    0  0.25500887970E+03 -0.38919384347E+03  0.63581783534E+03  0.78788686146E+03  0.10100000352E+00 0.  1.
       -3    1    3    3    0  502 -0.25500887970E+03  0.38919384347E+03  0.16190222210E+03  0.49265983827E+03  0.10100000352E+00 0. -1.
</event>
<event>
 5   0  0.2378609E-03  0.1003202E+04  0.7818609E-02  0.9305039E-01
        1   -1    0    0  501    0  0.00000000000E+00  0.00000000000E+00  0.11289073709E+04  0.11289073709E+04  0.50400001928E-02 0. -1.
       -1   -1    0    0    0  501  0.00000000000E+00  0.00000000000E+00 -0.22287373947E+03  0.22287373953E+03  0.50400001928E-02 0.  1.
    10030    2    1    2    0    0  0.00000000000E+00  0.00000000000E+00  0.90603363140E+03  0.13517811104E+04  0.10032024867E+04 0.  0.
        1    1    3    3  502    0  0.20938063345E+03 -0.31022049739E+02  0.10657822940E+04  0.10865976787E+04  0.50400001928E-02 0. -1.
       -1    1    3    3    0  502 -0.20938063345E+03  0.31022049739E+02 -0.15974866256E+03  0.26518343170E+03  0.50400001928E-02 0.  1.
</event>
<event>
 5   0  0.4140860E-03  0.9867295E+03  0.7818609E-02  0.9323221E-01
       -2   -1    0    0    0  501  0.00000000000E+00  0.00000000000E+00  0.20347113197E+03  0.20347113199E+03  0.25500000920E-02 0. -1.
        2   -1    0    0  501    0  0.00000000000E+00  0.00000000000E+00 -0.11962815655E+04  0.11962815655E+04  0.25500000920E-02 0.  1.
    10030    2    1    2    0    0  0.00000000000E+00  0.00000000000E+00 -0.99281043350E+03  0.13997526975E+04  0.98672947518E+03 0.  0.
        3    1    3    3  502    0 -0.17032910718E+03 -0.40547743616E+03 -0.17924976379E+03  0.47492572473E+03  0.10100000352E+00 0. -1.
       -3    1    3    3    0  502  0.17032910718E+03  0.40547743616E+03 -0.81356066972E+03  0.92482697274E+03  0.10100000352E+00 0.  1.
</event>
<event>
 5   0  0.3873874E-03  0.1005776E+04  0.7818609E-02  0.9302233E-01
       -2   -1    0    0    0  501  0.00000000000E+00  0.00000000000E+00  0.11996357584E+03  0.11996357587E+03  0.25500000920E-02 0. -1.
        2   -1    0    0  501    0  0.00000000000E+00  0.00000000000E+00 -0.21081080785E+04  0.21081080785E+04  0.25500000920E-02 0.  1.
    10030    2    1    2    0    0  0.00000000000E+00  0.00000000000E+00 -0.19881445026E+04  0.22280716544E+04  0.10057756875E+04 0.  0.
        5    1    3    3  502    0  0.24238008903E+01  0.33732720634E+03 -0.18202207834E+04  0.18512215722E+04  0.46999998093E+01 0.  1.
       -5    1    3    3    0  502 -0.24238008903E+01 -0.33732720634E+03 -0.16792371922E+03  0.37685008216E+03  0.46999998093E+01 0. -1.
</event>
<event>
 5   0  0.2378609E-03  0.1001432E+04  0.7818609E-02  0.9306976E-01
       -1   -1    0    0    0  501  0.00000000000E+00  0.00000000000E+00  0.50562626104E+03  0.50562626107E+03  0.50400001928E-02 0.  1.
        1   -1    0    0  501    0  0.00000000000E+00  0.00000000000E+00 -0.49585340142E+03  0.49585340145E+03  0.50400001928E-02 0. -1.
    10030    2    1    2    0    0  0.00000000000E+00  0.00000000000E+00  0.97728596212E+01  0.10014796625E+04  0.10014319775E+04 0.  0.
        1    1    3    3  502    0 -0.48923701281E+03 -0.10660021922E+03  0.50863093208E+01  0.50074178176E+03  0.50400001928E-02 0.  1.
       -1    1    3    3    0  502  0.48923701281E+03  0.10660021922E+03  0.46865503004E+01  0.50073788075E+03  0.50400001928E-02 0. -1.
</event>
<event>
 5   0  0.2350769E-03  0.9959315E+03  0.7818609E-02  0.9313018E-01
        1   -1    0    0  501    0  0.00000000000E+00  0.00000000000E+00  0.29116419981E+04  0.29116419981E+04  0.50400001928E-02 0. -1.
       -1   -1    0    0    0  501  0.00000000000E+00  0.00000000000E+00 -0.85164968404E+02  0.85164968553E+02  0.50400001928E-02 0.  1.
    10030    2    1    2    0    0  0.00000000000E+00  0.00000000000E+00  0.28264770297E+04  0.29968069667E+04  0.99593152175E+03 0.  0.
        2    1    3    3  502    0 -0.46213583667E+03 -0.35096933265E+02  0.86522321522E+03  0.98153580598E+03  0.25500000920E-02 0.  1.
       -2    1    3    3    0  502  0.46213583667E+03  0.35096933265E+02  0.19612538145E+04  0.20152711607E+04  0.25500000920E-02 0. -1.
</event>
<event>
 5   0  0.3826483E-03  0.1045624E+04  0.7818609E-02  0.9259874E-01
        2   -1    0    0  501    0  0.00000000000E+00  0.00000000000E+00  0.72033400847E+03  0.72033400848E+03  0.25500000920E-02 0.  1.
       -2   -1    0    0    0  501  0.00000000000E+00  0.00000000000E+00 -0.37945230206E+03  0.37945230207E+03  0.25500000920E-02 0. -1.
    10030    2    1    2    0    0  0.00000000000E+00  0.00000000000E+00  0.34088170642E+03  0.10997863105E+04  0.10456240200E+04 0.  0.
        4    1    3    3  502    0 -0.39497192524E+03 -0.11725595101E+03  0.50894861083E+03  0.65481453950E+03  0.12699999809E+01 0.  1.
       -4    1    3    3    0  502  0.39497192524E+03  0.11725595101E+03 -0.16806690441E+03  0.44497177105E+03  0.12699999809E+01 0. -1.
</event>
<event>
 5   0  0.3826483E-03  0.1006672E+04  0.7818609E-02  0.9301257E-01
       -2   -1    0    0    0  501  0.00000000000E+00  0.00000000000E+00  0.22996163150E+03  0.22996163151E+03  0.25500000920E-02 0.  1.
        2   -1    0    0  501    0  0.00000000000E+00  0.00000000000E+00 -0.11016936561E+04  0.11016936561E+04  0.25500000920E-02 0. -1.
    10030    2    1    2    0    0  0.00000000000E+00  0.00000000000E+00 -0.87173202457E+03  0.13316552876E+04  0.10066722815E+04 0.  0.
        4    1    3    3  502    0  0.82434460577E+01 -0.40878975080E+03 -0.82417579681E+03  0.92002411474E+03  0.12699999809E+01 0. -1.
       -4    1    3    3    0  502 -0.82434460577E+01  0.40878975080E+03 -0.47556227759E+02  0.41163117284E+03  0.12699999809E+01 0.  1.
</event>
<event>
 5   0  0.3895011E-03  0.1004777E+04  0.7818609E-02  0.9303321E-01
       -2   -1    0    0    0  501  0.00000000000E+00  0.00000000000E+00  0.17272791850E+03  0.17272791852E+03  0.25500000920E-02 0.  1.
        2   -1    0    0  501    0  0.00000000000E+00  0.00000000000E+00 -0.14612250297E+04  0.14612250297E+04  0.25500000920E-02 0. -1.
    10030    2    1    2    0    0  0.00000000000E+00  0.00000000000E+00 -0.12884971112E+04  0.16339529482E+04  0.10047773044E+04 0.  0.
        2    1    3    3  502    0 -0.18368214420E+03 -0.24392004930E+03  0.45117800646E+01  0.30537923425E+03  0.25500000920E-02 0.  1.
       -2    1    3    3    0  502  0.18368214420E+03  0.24392004930E+03 -0.12930088912E+04  0.13285737139E+04  0.25500000920E-02 0. -1.
</event>
<event>
 5   0  0.4026829E-03  0.9862151E+03  0.7818609E-02  0.9323794E-01
        2   -1    0    0  501    0  0.00000000000E+00  0.00000000000E+00  0.57196860503E+03  0.57196860504E+03  0.25500000920E-02 0.  1.
       -2   -1    0    0    0  501  0.00000000000E+00  0.00000000000E+00 -0.42511955909E+03  0.42511955910E+03  0.25500000920E-02 0. -1.
    10030    2    1    2    0    0  0.00000000000E+00  0.00000000000E+00  0.14684904594E+03  0.99708816414E+03  0.98621507024E+03 0.  0.
        1    1    3    3  502    0 -0.47832907041E+03 -0.10249986405E+03  0.13615795212E+03  0.50778332946E+03  0.50400001928E-02 0.  1.
       -1    1    3    3    0  502  0.47832907041E+03  0.10249986405E+03  0.10691093816E+02  0.48930483468E+03  0.50400001928E-02 0. -1.
</event>
<event>
 5   0  0.3826483E-03  0.9983238E+03  0.7818609E-02  0.9310385E-01
        2   -1    0    0  501    0  0.00000000000E+00  0.00000000000E+00  0.14623362066E+04  0.14623362066E+04  0.25500000920E-02 0.  1.
       -2   -1    0    0    0  501  0.00000000000E+00  0.00000000000E+00 -0.17038666637E+03  0.17038666638E+03  0.25500000920E-02 0. -1.
    10030    2    1    2    0    0  0.00000000000E+00  0.00000000000E+00  0.12919495403E+04  0.16327228730E+04  0.99832377788E+03 0.  0.
        4    1    3    3  502    0 -0.40753273940E+03  0.23611308719E+03  0.37560994444E+03  0.60242573558E+03  0.12699999809E+01 0. -1.
       -4    1    3    3    0  502  0.40753273940E+03 -0.23611308719E+03  0.91633959582E+03  0.10302971374E+04  0.12699999809E+01 0.  1.
</event>
<event>
 5   0  0.4140860E-03  0.1021299E+04  0.7818609E-02  0.9285488E-01
        2   -1    0    0  501    0  0.00000000000E+00  0.00000000000E+00  0.18996384143E+04  0.18996384143E+04  0.25500000920E-02 0.  1.
       -2   -1    0    0    0  501  0.00000000000E+00  0.00000000000E+00 -0.13726981136E+03  0.13726981139E+03  0.25500000920E-02 0. -1.
    10030    2    1    2    0    0  0.00000000000E+00  0.00000000000E+00  0.17623686029E+04  0.20369082257E+04  0.10212991860E+04 0.  0.
        3    1    3    3  502    0 -0.26763683443E+03  0.10173907030E+03  0.17244825562E+04  0.17480905041E+04  0.10100000352E+00 0.  1.
       -3    1    3    3    0  502  0.26763683443E+03 -0.10173907030E+03  0.37886046702E+02  0.28881772159E+03  0.10100000352E+00 0. -1.
</event>
<event>
 5   0  0.2378609E-03  0.9967962E+03  0.7818609E-02  0.9312066E-01
       -1   -1    0    0    0  501  0.00000000000E+00  0.00000000000E+00  0.30903192220E+03  0.30903192224E+03  0.50400001928E-02 0.  1.
        1   -1    0    0  501    0  0.00000000000E+00  0.00000000000E+00 -0.80380264526E+03  0.80380264527E+03  0.50400001928E-02 0. -1.
    10030    2    1    2    0    0  0.00000000000E+00  0.00000000000E+00 -0.49477072306E+03  0.11128345675E+04  0.99679622103E+03 0.  0.
        1    1    3    3  502    0 -0.25481462285E+03  0.10263744763E+03  0.21688034103E+03  0.35000288574E+03  0.50400001928E-02 0.  1.
       -1    1    3    3    0  502  0.25481462285E+03 -0.10263744763E+03 -0.71165106409E+03  0.76283168177E+03  0.50400001928E-02 0. -1.
</event>
<event>
 5   0  0.2313036E-03  0.1000892E+04  0.7818609E-02  0.9307567E-01
        1   -1    0    0  501    0  0.00000000000E+00  0.00000000000E+00  0.45359039056E+03  0.45359039058E+03  0.50400001928E-02 0. -1.
       -1   -1    0    0    0  501  0.00000000000E+00  0.00000000000E+00 -0.55214197707E+03  0.55214197710E+03  0.50400001928E-02 0.  1.
    10030    2    1    2    0    0  0.00000000000E+00  0.00000000000E+00 -0.98551586516E+02  0.10057323677E+04  0.10008921921E+04 0.  0.
        3    1    3    3  502    0 -0.31456241347E+01 -0.46008279330E+03  0.14855240909E+03  0.48348102351E+03  0.10100000352E+00 0. -1.
       -3    1    3    3    0  502  0.31456241347E+01  0.46008279330E+03 -0.24710399561E+03  0.52225134417E+03  0.10100000352E+00 0.  1.
</event>
<event>
 5   0  0.2405022E-03  0.9900939E+03  0.7818609E-02  0.9319477E-01
        1   -1    0    0  501    0  0.00000000000E+00  0.00000000000E+00  0.12554177882E+04  0.12554177882E+04  0.50400001928E-02 0. -1.
       -1   -1    0    0    0  501  0.00000000000E+00  0.00000000000E+00 -0.19521110752E+03  0.19521110759E+03  0.50400001928E-02 0.  1.
    10030    2    1    2    0    0  0.00000000000E+00  0.00000000000E+00  0.10602066807E+04  0.14506288958E+04  0.99009392868E+03 0.  0.
        4    1    3    3  502    0  0.46815387201E+03  0.11433408591E+03  0.69605656208E+03  0.84660302480E+03  0.12699999809E+01 0.  1.
       -4    1    3    3    0  502 -0.46815387201E+03 -0.11433408591E+03  0.36415011863E+03  0.60402587103E+03  0.12699999809E+01 0. -1.
</event>
<event>
 5   0  0.2378609E-03  0.9603833E+03  0.7818609E-02  0.9353096E-01
        1   -1    0    0  501    0  0.00000000000E+00  0.00000000000E+00  0.44349033448E+03  0.44349033451E+03  0.50400001928E-02 0. -1.
       -1   -1    0    0    0  501  0.00000000000E+00  0.00000000000E+00 -0.51993019373E+03  0.51993019376E+03  0.50400001928E-02 0.  1.
    10030    2    1    2    0    0  0.00000000000E+00  0.00000000000E+00 -0.76439859254E+02  0.96342052826E+03  0.96038328921E+03 0.  0.
        1    1    3    3  502    0 -0.22309004280E+03  0.36307792980E+03 -0.26025509585E+03  0.49932701233E+03  0.50400001928E-02 0.  1.
       -1    1    3    3    0  502  0.22309004280E+03 -0.36307792980E+03  0.18381523659E+03  0.46409351593E+03  0.50400001928E-02 0. -1.
</event>
<event>
 5   0  0.4026829E-03  0.1000340E+04  0.7818609E-02  0.9308172E-01
        2   -1    0    0  501    0  0.00000000000E+00  0.00000000000E+00  0.14339602589E+04  0.14339602589E+04  0.25500000920E-02 0.  1.
       -2   -1    0    0    0  501  0.00000000000E+00  0.00000000000E+00 -0.17446083278E+03  0.17446083280E+03  0.25500000920E-02 0. -1.
    10030    2    1    2    0    0  0.00000000000E+00  0.00000000000E+00  0.12594994261E+04  0.16084210917E+04  0.10003397442E+04 0.  0.
        1    1    3    3  502    0  0.44131058776E+03 -0.10817361013E+03  0.29357951368E+03  0.54096718539E+03  0.50400001928E-02 0. -1.
       -1    1    3    3    0  502 -0.44131058776E+03  0.10817361013E+03  0.96591991244E+03  0.10674539063E+04  0.50400001928E-02 0.  1.
</event>
<event>
 5   0  0.3826483E-03  0.1007215E+04  0.7818609E-02  0.9300667E-01
        2   -1    0    0  501    0  0.00000000000E+00  0.00000000000E+00  0.72741171641E+03  0.72741171642E+03  0.25500000920E-02 0. -1.
       -2   -1    0    0    0  501  0.00000000000E+00  0.00000000000E+00 -0.34866146648E+03  0.34866146649E+03  0.25500000920E-02 0.  1.
    10030    2    1    2    0    0  0.00000000000E+00  0.00000000000E+00  0.37875024994E+03  0.10760731829E+04  0.10072148446E+04 0.  0.
        4    1    3    3  502    0 -0.28719841227E+02 -0.48918216993E+03  0.31348401403E+03  0.58171974749E+03  0.12699999809E+01 0. -1.
       -4    1    3    3    0  502  0.28719841227E+02  0.48918216993E+03  0.65266235901E+02  0.49435343542E+03  0.12699999809E+01 0.  1.
</event>
<event>
 5   0  0.3895011E-03  0.1005858E+04  0.7818609E-02  0.9302143E-01
       -2   -1    0    0    0  501  0.00000000000E+00  0.00000000000E+00  0.14787746205E+03  0.14787746207E+03  0.25500000920E-02 0.  1.
        2   -1    0    0  501    0  0.00000000000E+00  0.00000000000E+00 -0.17104541489E+04  0.17104541489E+04  0.25500000920E-02 0. -1.
    10030    2    1    2    0    0  0.00000000000E+00  0.00000000000E+00 -0.15625766868E+04  0.18583316109E+04  0.10058580785E+04 0.  0.
        2    1    3    3  502    0  0.89209129215E+02  0.51079057456E+02  0.12826083978E+03  0.16437208362E+03  0.25500000920E-02 0.  1.
       -2    1    3    3    0  502 -0.89209129215E+02 -0.51079057456E+02 -0.16908375266E+04  0.16939595273E+04  0.25500000920E-02 0. -1.
</event>
<event>
 5   0  0.2327595E-03  0.1001800E+04  0.7818609E-02  0.9306572E-01
       -1   -1    0    0    0  501  0.00000000000E+00  0.00000000000E+00  0.21401216273E+03  0.21401216279E+03  0.50400001928E-02 0. -1.
        1   -1    0    0  501    0  0.00000000000E+00  0.00000000000E+00 -0.11723679564E+04  0.11723679564E+04  0.50400001928E-02 0.  1.
    10030    2    1    2    0    0  0.00000000000E+00  0.00000000000E+00 -0.95835579370E+03  0.13863801192E+04  0.10018003831E+04 0.  0.
        5    1    3    3  502    0  0.34295538152E+03  0.12101326317E+03 -0.25567248596E+01  0.36371861434E+03  0.46999998093E+01 0. -1.
       -5    1    3    3    0  502 -0.34295538152E+03 -0.12101326317E+03 -0.95579906884E+03  0.10226615049E+04  0.46999998093E+01 0.  1.
</event>
<event>
 5   0  0.2313036E-03  0.9984956E+03  0.7818609E-02  0.9310196E-01
        1   -1    0    0  501    0  0.00000000000E+00  0.00000000000E+00  0.36132270610E+03  0.36132270614E+03  0.50400001928E-02 0.  1.
       -1   -1    0    0    0  501  0.00000000000E+00  0.00000000000E+00 -0.68982202167E+03  0.68982202169E+03  0.50400001928E-02 0. -1.
    10030    2    1    2    0    0  0.00000000000E+00  0.00000000000E+00 -0.32849931557E+03  0.10511447278E+04  0.99849558762E+03 0.  0.
        3    1    3    3  502    0  0.26242098738E+03  0.30545920939E+03  0.14640023147E+03  0.42848937115E+03  0.10100000352E+00 0.  1.
       -3    1    3    3    0  502 -0.26242098738E+03 -0.30545920939E+03 -0.47489954704E+03  0.62265535667E+03  0.10100000352E+00 0. -1.
</event>
<event>
 5   0  0.4026829E-03  0.9955193E+03  0.7818609E-02  0.9313473E-01
        2   -1    0    0  501    0  0.00000000000E+00  0.00000000000E+00  0.31560772004E+03  0.31560772005E+03  0.25500000920E-02 0. -1.
       -2   -1    0    0    0  501  0.00000000000E+00  0.00000000000E+00 -0.78504001782E+03  0.78504001783E+03  0.25500000920E-02 0.  1.
    10030    2    1    2    0    0  0.00000000000E+00  0.00000000000E+00 -0.46943229779E+03  0.11006477379E+04  0.99551934219E+03 0.  0.
        1    1    3    3  502    0  0.30538769510E+03 -0.35942394658E+03 -0.41063355628E+03  0.62535360818E+03  0.50400001928E-02 0.  1.
       -1    1    3    3    0  502 -0.30538769510E+03  0.35942394658E+03 -0.58798741510E+02  0.47529412970E+03  0.50400001928E-02 0. -1.
</event>
<event>
 5   0  0.2405022E-03  0.9976977E+03  0.7818609E-02  0.9311073E-01
        1   -1    0    0  501    0  0.00000000000E+00  0.00000000000E+00  0.59532084859E+03  0.59532084861E+03  0.50400001928E-02 0.  1.
       -1   -1    0    0    0  501  0.00000000000E+00  0.00000000000E+00 -0.41801021090E+03  0.41801021093E+03  0.50400001928E-02 0. -1.
    10030    2    1    2    0    0  0.00000000000E+00  0.00000000000E+00  0.17731063769E+03  0.10133310595E+04  0.99769773679E+03 0.  0.
        4    1    3    3  502    0  0.10851625015E+02 -0.14486550636E+03  0.57335932552E+03  0.59147806532E+03  0.12699999809E+01 0.  1.
       -4    1    3    3    0  502 -0.10851625015E+02  0.14486550636E+03 -0.39604868783E+03  0.42185299422E+03  0.12699999809E+01 0. -1.
</event>
<event>
 5   0  0.2313036E-03  0.1006024E+04  0.7818609E-02  0.9301962E-01
        1   -1    0    0  501    0  0.00000000000E+00  0.00000000000E+00  0.12112699443E+04  0.12112699443E+04  0.50400001928E-02 0.  1.
       -1   -1    0    0    0  501  0.00000000000E+00  0.00000000000E+00 -0.20888926301E+03  0.20888926307E+03  0.50400001928E-02 0. -1.
    10030    2    1    2    0    0  0.00000000000E+00  0.00000000000E+00  0.10023806813E+04  0.14201592074E+04  0.10060244252E+04 0.  0.
        3    1    3    3  502    0 -0.44398115371E+01 -0.50174960924E+03  0.45130290107E+03  0.67486791375E+03  0.10100000352E+00 0. -1.
       -3    1    3    3    0  502  0.44398115371E+01  0.50174960924E+03  0.55107778020E+03  0.74529129361E+03  0.10100000352E+00 0.  1.
</event>
<event>
 5   0  0.2378609E-03  0.9834241E+03  0.7818609E-02  0.9326914E-01
        1   -1    0    0  501    0  0.00000000000E+00  0.00000000000E+00  0.11757280246E+04  0.11757280246E+04  0.50400001928E-02 0.  1.
       -1   -1    0    0    0  501  0.00000000000E+00  0.00000000000E+00 -0.20564342159E+03  0.20564342166E+03  0.50400001928E-02 0. -1.
    10030    2    1    2    0    0  0.00000000000E+00  0.00000000000E+00  0.97008460298E+03  0.13813714462E+04  0.98342408733E+03 0.  0.
        1    1    3    3  502    0 -0.27035898498E+03 -0.28788344753E+03  0.89651238499E+03  0.97964550557E+03  0.50400001928E-02 0.  1.
       -1    1    3    3    0  502  0.27035898498E+03  0.28788344753E+03  0.73572217992E+02  0.40172594067E+03  0.50400001928E-02 0. -1.
</event>
<event>
 5   0  0.1548000E-03  0.9888092E+03  0.7818609E-02  0.9320904E-01
       -3   -1    0    0    0  501  0.00000000000E+00  0.00000000000E+00  0.34206204593E+03  0.34206206084E+03  0.10100000352E+00 0.  1.
        3   -1    0    0  501    0  0.00000000000E+00  0.00000000000E+00 -0.71459527228E+03  0.71459527942E+03  0.10100000352E+00 0. -1.
    10030    2    1    2    0    0  0.00000000000E+00  0.00000000000E+00 -0.37253322636E+03  0.10566573403E+04  0.98880924854E+03 0.  0.
        3    1    3    3  502    0  0.19420531111E+03 -0.58259058115E+02  0.29559044120E+03  0.35844600688E+03  0.10100000352E+00 0.  1.
       -3    1    3    3    0  502 -0.19420531111E+03  0.58259058115E+02 -0.66812366756E+03  0.69821133338E+03  0.10100000352E+00 0. -1.
</event>
<event>
 5   0  0.2327595E-03  0.9938207E+03  0.7818609E-02  0.9315348E-01
       -1   -1    0    0    0  501  0.00000000000E+00  0.00000000000E+00  0.90455118811E+03  0.90455118812E+03  0.50400001928E-02 0.  1.
        1   -1    0    0  501    0  0.00000000000E+00  0.00000000000E+00 -0.27297505964E+03  0.27297505969E+03  0.50400001928E-02 0. -1.
    10030    2    1    2    0    0  0.00000000000E+00  0.00000000000E+00  0.63157612847E+03  0.11775262478E+04  0.99382073747E+03 0.  0.
        5    1    3    3  502    0  0.25122450918E+01 -0.86918793028E+02  0.89543979071E+03  0.89966421333E+03  0.46999998093E+01 0.  1.
       -5    1    3    3    0  502 -0.25122450918E+01  0.86918793028E+02 -0.26386366224E+03  0.27786203448E+03  0.46999998093E+01 0. -1.
</event>
<event>
 5   0  0.2313036E-03  0.9832718E+03  0.7818609E-02  0.9327085E-01
        1   -1    0    0  501    0  0.00000000000E+00  0.00000000000E+00  0.30081262071E+03  0.30081262075E+03  0.50400001928E-02 0. -1.
       -1   -1    0    0    0  501  0.00000000000E+00  0.00000000000E+00 -0.80350964503E+03  0.80350964504E+03  0.50400001928E-02 0.  1.
    10030    2    1    2    0    0  0.00000000000E+00  0.00000000000E+00 -0.50269702432E+03  0.11043222658E+04  0.98327176736E+03 0.  0.
        3    1    3    3  502    0  0.29005246922E+03  0.12991388782E+03  0.16992667461E+03  0.36039303280E+03  0.10100000352E+00 0. -1.
       -3    1    3    3    0  502 -0.29005246922E+03 -0.12991388782E+03 -0.67262369892E+03  0.74392923299E+03  0.10100000352E+00 0.  1.
</event>
<event>
 5   0  0.3826483E-03  0.1012087E+04  0.7818609E-02  0.9295386E-01
        2   -1    0    0  501    0  0.00000000000E+00  0.00000000000E+00  0.20353577804E+04  0.20353577804E+04  0.25500000920E-02 0. -1.
       -2   -1    0    0    0  501  0.00000000000E+00  0.00000000000E+00 -0.12581583667E+03  0.12581583669E+03  0.25500000920E-02 0.  1.
    10030    2    1    2    0    0  0.00000000000E+00  0.00000000000E+00  0.19095419437E+04  0.21611736171E+04  0.10120874312E+04 0.  0.
        4    1    3    3  502    0  0.40060116082E+03  0.26056784930E+03  0.13101772631E+04  0.13946121209E+04  0.12699999809E+01 0. -1.
       -4    1    3    3    0  502 -0.40060116082E+03 -0.26056784930E+03  0.59936468061E+03  0.76656149617E+03  0.12699999809E+01 0.  1.
</event>
<event>
 5   0  0.4026829E-03  0.1004350E+04  0.7818609E-02  0.9303787E-01
       -2   -1    0    0    0  501  0.00000000000E+00  0.00000000000E+00  0.16513943134E+03  0.16513943136E+03  0.25500000920E-02 0.  1.
        2   -1    0    0  501    0  0.00000000000E+00  0.00000000000E+00 -0.15270716686E+04  0.15270716686E+04  0.25500000920E-02 0. -1.
    10030    2    1    2    0    0  0.00000000000E+00  0.00000000000E+00 -0.13619322373E+04  0.16922111000E+04  0.10043500326E+04 0.  0.
        1    1    3    3  502    0 -0.25916947810E+03  0.11338118345E+02  0.43498529503E+02  0.26303895795E+03  0.50400001928E-02 0.  1.
       -1    1    3    3    0  502  0.25916947810E+03 -0.11338118345E+02 -0.14054307668E+04  0.14291721421E+04  0.50400001928E-02 0. -1.
</event>
<event>
 5   0  0.2405022E-03  0.1003235E+04  0.7818609E-02  0.9305004E-01
       -1   -1    0    0    0  501  0.00000000000E+00  0.00000000000E+00  0.47655376692E+03  0.47655376695E+03  0.50400001928E-02 0.  1.
        1   -1    0    0  501    0  0.00000000000E+00  0.00000000000E+00 -0.52799895999E+03  0.52799896001E+03  0.50400001928E-02 0. -1.
    10030    2    1    2    0    0  0.00000000000E+00  0.00000000000E+00 -0.51445193069E+02  0.10045527270E+04  0.10032345555E+04 0.  0.
        4    1    3    3  502    0 -0.20359896116E+03  0.14233741285E+03 -0.46207701080E+03  0.52462296260E+03  0.12699999809E+01 0. -1.
       -4    1    3    3    0  502  0.20359896116E+03 -0.14233741285E+03  0.41063181773E+03  0.47992976436E+03  0.12699999809E+01 0.  1.
</event>
<event>
 5   0  0.3873874E-03  0.1005817E+04  0.7818609E-02  0.9302188E-01
        2   -1    0    0  501    0  0.00000000000E+00  0.00000000000E+00  0.13779326806E+04  0.13779326806E+04  0.25500000920E-02 0. -1.
       -2   -1    0    0    0  501  0.00000000000E+00  0.00000000000E+00 -0.18354806754E+03  0.18354806755E+03  0.25500000920E-02 0.  1.
    10030    2    1    2    0    0  0.00000000000E+00  0.00000000000E+00  0.11943846130E+04  0.15614807481E+04  0.10058168436E+04 0.  0.
        5    1    3    3  502    0 -0.14075944792E+03  0.34497101751E+03  0.72848733791E+02  0.37966729266E+03  0.46999998093E+01 0.  1.
       -5    1    3    3    0  502  0.14075944792E+03 -0.34497101751E+03  0.11215358792E+04  0.11818134555E+04  0.46999998093E+01 0. -1.
</event>
<event>
 5   0  0.2405022E-03  0.1001371E+04  0.7818609E-02  0.9307043E-01
        1   -1    0    0  501    0  0.00000000000E+00  0.00000000000E+00  0.89506127842E+03  0.89506127844E+03  0.50400001928E-02 0. -1.
       -1   -1    0    0    0  501  0.00000000000E+00  0.00000000000E+00 -0.28007667786E+03  0.28007667790E+03  0.50400001928E-02 0.  1.
    10030    2    1    2    0    0  0.00000000000E+00  0.00000000000E+00  0.61498460057E+03  0.11751379563E+04  0.10013706394E+04 0.  0.
        4    1    3    3  502    0 -0.10849517708E+03 -0.46195308619E+03  0.12004941085E+03  0.48947454605E+03  0.12699999809E+01 0. -1.
       -4    1    3    3    0  502  0.10849517708E+03  0.46195308619E+03  0.49493518971E+03  0.68566341028E+03  0.12699999809E+01 0.  1.
</event>
<event>
 5   0  0.2378609E-03  0.1000766E+04  0.7818609E-02  0.9307705E-01
        1   -1    0    0  501    0  0.00000000000E+00  0.00000000000E+00  0.75253425409E+03  0.75253425411E+03  0.50400001928E-02 0.  1.
       -1   -1    0    0    0  501  0.00000000000E+00  0.00000000000E+00 -0.33272015596E+03  0.33272015600E+03  0.50400001928E-02 0. -1.
    10030    2    1    2    0    0  0.00000000000E+00  0.00000000000E+00  0.41981409814E+03  0.10852544101E+04  0.10007663352E+04 0.  0.
        1    1    3    3  502    0  0.66491653895E+01 -0.12530939677E+03 -0.31538013354E+03  0.33942787891E+03  0.50400001928E-02 0. -1.
       -1    1    3    3    0  502 -0.66491653895E+01  0.12530939677E+03  0.73519423168E+03  0.74582653120E+03  0.50400001928E-02 0.  1.
</event>
<event>
 5   0  0.2378609E-03  0.9628169E+03  0.7818609E-02  0.9350294E-01
        1   -1    0    0  501    0  0.00000000000E+00  0.00000000000E+00  0.53988486184E+03  0.53988486187E+03  0.50400001928E-02 0.  1.
       -1   -1    0    0    0  501  0.00000000000E+00  0.00000000000E+00 -0.42926578157E+03  0.42926578160E+03  0.50400001928E-02 0. -1.
    10030    2    1    2    0    0  0.00000000000E+00  0.00000000000E+00  0.11061908027E+03  0.96915064347E+03  0.96281690306E+03 0.  0.
        1    1    3    3  502    0  0.20645810935E+03  0.43279058252E+03  0.98268836259E+02  0.48947870581E+03  0.50400001928E-02 0.  1.
       -1    1    3    3    0  502 -0.20645810935E+03 -0.43279058252E+03  0.12350244009E+02  0.47967193767E+03  0.50400001928E-02 0. -1.
</event>
<event>
 5   0  0.2313036E-03  0.9780533E+03  0.7818609E-02  0.9332949E-01
        1   -1    0    0  501    0  0.00000000000E+00  0.00000000000E+00  0.60873713791E+03  0.60873713793E+03  0.50400001928E-02 0.  1.
       -1   -1    0    0    0  501  0.00000000000E+00  0.00000000000E+00 -0.39285769612E+03  0.39285769615E+03  0.50400001928E-02 0. -1.
    10030    2    1    2    0    0  0.00000000000E+00  0.00000000000E+00  0.21587944179E+03  0.10015948341E+04  0.97805331055E+03 0.  0.
        3    1    3    3  502    0 -0.14983498422E+02  0.36333056859E+03  0.44278619076E+03  0.57296878468E+03  0.10100000352E+00 0.  1.
       -3    1    3    3    0  502  0.14983498422E+02 -0.36333056859E+03 -0.22690674897E+03  0.42862604940E+03  0.10100000352E+00 0. -1.
</event>
<event>
 5   0  0.3873874E-03  0.9971054E+03  0.7818609E-02  0.9311725E-01
        2   -1    0    0  501    0  0.00000000000E+00  0.00000000000E+00  0.10345172830E+04  0.10345172830E+04  0.25500000920E-02 0. -1.
       -2   -1    0    0    0  501  0.00000000000E+00  0.00000000000E+00 -0.24026160482E+03  0.24026160483E+03  0.25500000920E-02 0.  1.
    10030    2    1    2    0    0  0.00000000000E+00  0.00000000000E+00  0.79425567821E+03  0.12747788879E+04  0.99710537585E+03 0.  0.
        5    1    3    3  502    0 -0.13078751958E+03 -0.34714314109E+03 -0.28663372286E+02  0.37209866244E+03  0.46999998093E+01 0.  1.
       -5    1    3    3    0  502  0.13078751958E+03  0.34714314109E+03  0.82291905049E+03  0.90268022541E+03  0.46999998093E+01 0. -1.
</event>
<event>
 5   0  0.4026829E-03  0.9974188E+03  0.7818609E-02  0.9311380E-01
        2   -1    0    0  501    0  0.00000000000E+00  0.00000000000E+00  0.17973784771E+04  0.17973784771E+04  0.25500000920E-02 0. -1.
       -2   -1    0    0    0  501  0.00000000000E+00  0.00000000000E+00 -0.13837434468E+03  0.13837434470E+03  0.25500000920E-02 0.  1.
    10030    2    1    2    0    0  0.00000000000E+00  0.00000000000E+00  0.16590041324E+04  0.19357528218E+04  0.99741880659E+03 0.  0.
        1    1    3    3  502    0 -0.36614343435E+03  0.71073579602E+02  0.14720046122E+04  0.15185223234E+04  0.50400001928E-02 0. -1.
       -1    1    3    3    0  502  0.36614343435E+03 -0.71073579602E+02  0.18699952022E+03  0.41723049843E+03  0.50400001928E-02 0.  1.
</event>
<event>
 5   0  0.2405022E-03  0.1035266E+04  0.7818609E-02  0.9270689E-01
       -1   -1    0    0    0  501  0.00000000000E+00  0.00000000000E+00  0.13705928765E+03  0.13705928774E+03  0.50400001928E-02 0.  1.
        1   -1    0    0  501    0  0.00000000000E+00  0.00000000000E+00 -0.19549506147E+04  0.19549506147E+04  0.50400001928E-02 0. -1.
    10030    2    1    2    0    0  0.00000000000E+00  0.00000000000E+00 -0.18178913271E+04  0.20920099025E+04  0.10352664174E+04 0.  0.
        4    1    3    3  502    0 -0.28467694642E+03 -0.37122135970E+03 -0.46119541774E+03  0.65692395904E+03  0.12699999809E+01 0.  1.
       -4    1    3    3    0  502  0.28467694642E+03  0.37122135970E+03 -0.13566959093E+04  0.14350859434E+04  0.12699999809E+01 0. -1.
</event>
<event>
 5   0  0.2313036E-03  0.1006553E+04  0.7818609E-02  0.9301387E-01
        1   -1    0    0  501    0  0.00000000000E+00  0.00000000000E+00  0.66952598445E+03  0.66952598447E+03  0.50400001928E-02 0.  1.
       -1   -1    0    0    0  501  0.00000000000E+00  0.00000000000E+00 -0.37830832032E+03  0.37830832035E+03  0.50400001928E-02 0. -1.
    10030    2    1    2    0    0  0.00000000000E+00  0.00000000000E+00  0.29121766413E+03  0.10478343048E+04  0.10065530301E+04 0.  0.
        3    1    3    3  502    0 -0.35697613953E+03  0.20034594833E+03  0.45039051937E+03  0.60862311273E+03  0.10100000352E+00 0.  1.
       -3    1    3    3    0  502  0.35697613953E+03 -0.20034594833E+03 -0.15917285524E+03  0.43921119209E+03  0.10100000352E+00 0. -1.
</event>
<event>
 5   0  0.3873874E-03  0.9980969E+03  0.7818609E-02  0.9310635E-01
       -2   -1    0    0    0  501  0.00000000000E+00  0.00000000000E+00  0.34856820306E+03  0.34856820307E+03  0.25500000920E-02 0. -1.
        2   -1    0    0  501    0  0.00000000000E+00  0.00000000000E+00 -0.71449250638E+03  0.71449250638E+03  0.25500000920E-02 0.  1.
    10030    2    1    2    0    0  0.00000000000E+00  0.00000000000E+00 -0.36592430332E+03  0.10630607095E+04  0.99809692727E+03 0.  0.
        5    1    3    3  502    0 -0.39638545761E+03  0.23670075768E+03  0.18782991732E+02  0.46208610720E+03  0.46999998093E+01 0. -1.
       -5    1    3    3    0  502  0.39638545761E+03 -0.23670075768E+03 -0.38470729505E+03  0.60097460225E+03  0.46999998093E+01 0.  1.
</event>
<event>
 5   0  0.2313036E-03  0.9997876E+03  0.7818609E-02  0.9308778E-01
       -1   -1    0    0    0  501  0.00000000000E+00  0.00000000000E+00  0.25220826467E+03  0.25220826472E+03  0.50400001928E-02 0. -1.
        1   -1    0    0  501    0  0.00000000000E+00  0.00000000000E+00 -0.99082333666E+03  0.99082333668E+03  0.50400001928E-02 0.  1.
    10030    2    1    2    0    0  0.00000000000E+00  0.00000000000E+00 -0.73861507199E+03  0.12430316014E+04  0.99978764620E+03 0.  0.
        3    1    3    3  502    0  0.71536651104E+02  0.49390248833E+03 -0.33334503574E+03  0.60014671830E+03  0.10100000352E+00 0.  1.
       -3    1    3    3    0  502 -0.71536651104E+02 -0.49390248833E+03 -0.40527003625E+03  0.64288488310E+03  0.10100000352E+00 0. -1.
</event>
<event>
 5   0  0.2378609E-03  0.1007323E+04  0.7818609E-02  0.9300550E-01
        1   -1    0    0  501    0  0.00000000000E+00  0.00000000000E+00  0.72658016090E+03  0.72658016092E+03  0.50400001928E-02 0.  1.
       -1   -1    0    0    0  501  0.00000000000E+00  0.00000000000E+00 -0.34913525382E+03  0.34913525385E+03  0.50400001928E-02 0. -1.
    10030    2    1    2    0    0  0.00000000000E+00  0.00000000000E+00  0.37744490708E+03  0.10757154148E+04  0.10073226870E+04 0.  0.
        1    1    3    3  502    0 -0.13396400266E+03  0.18132891137E+03 -0.29224354805E+03  0.36909730358E+03  0.50400001928E-02 0. -1.
       -1    1    3    3    0  502  0.13396400266E+03 -0.18132891137E+03  0.66968845513E+03  0.70661811119E+03  0.50400001928E-02 0.  1.
</event>
<event>
 5   0  0.3826483E-03  0.1000306E+04  0.7818609E-02  0.9308209E-01
       -2   -1    0    0    0  501  0.00000000000E+00  0.00000000000E+00  0.10923728733E+03  0.10923728736E+03  0.25500000920E-02 0. -1.
        2   -1    0    0  501    0  0.00000000000E+00  0.00000000000E+00 -0.22899972848E+04  0.22899972848E+04  0.25500000920E-02 0.  1.
    10030    2    1    2    0    0  0.00000000000E+00  0.00000000000E+00 -0.21807599975E+04  0.23992345722E+04  0.10003061360E+04 0.  0.
        4    1    3    3  502    0  0.15347876976E+03 -0.47583638974E+03 -0.11221522943E+04  0.12284963928E+04  0.12699999809E+01 0.  1.
       -4    1    3    3    0  502 -0.15347876976E+03  0.47583638974E+03 -0.10586077032E+04  0.11707381794E+04  0.12699999809E+01 0. -1.
</event>
<event>
 5   0  0.3895011E-03  0.9986096E+03  0.7818609E-02  0.9310071E-01
       -2   -1    0    0    0  501  0.00000000000E+00  0.00000000000E+00  0.15331960363E+03  0.15331960366E+03  0.25500000920E-02 0.  1.
        2   -1    0    0  501    0  0.00000000000E+00  0.00000000000E+00 -0.16260494906E+04  0.16260494906E+04  0.25500000920E-02 0. -1.
    10030    2    1    2    0    0  0.00000000000E+00  0.00000000000E+00 -0.14727298870E+04  0.17793690943E+04  0.99860956017E+03 0.  0.
        2    1    3    3  502    0 -0.37900683375E+03 -0.27546499934E+03 -0.10438464098E+04  0.11441776405E+04  0.25500000920E-02 0. -1.
       -2    1    3    3    0  502  0.37900683375E+03  0.27546499934E+03 -0.42888347724E+03  0.63519145377E+03  0.25500000920E-02 0.  1.
</event>
<event>
 5   0  0.2350769E-03  0.9945239E+03  0.7818609E-02  0.9314571E-01
        1   -1    0    0  501    0  0.00000000000E+00  0.00000000000E+00  0.35146859596E+03  0.35146859599E+03  0.50400001928E-02 0. -1.
       -1   -1    0    0    0  501  0.00000000000E+00  0.00000000000E+00 -0.70353207227E+03  0.70353207229E+03  0.50400001928E-02 0.  1.
    10030    2    1    2    0    0  0.00000000000E+00  0.00000000000E+00 -0.35206347632E+03  0.10550006683E+04  0.99452386534E+03 0.  0.
        2    1    3    3  502    0 -0.13119704596E+03 -0.23558315542E+03 -0.61923871186E+03  0.67540259864E+03  0.25500000920E-02 0.  1.
       -2    1    3    3    0  502  0.13119704596E+03  0.23558315542E+03  0.26717523554E+03  0.37959806964E+03  0.25500000920E-02 0. -1.
</event>
<event>
 5   0  0.3895011E-03  0.9882692E+03  0.7818609E-02  0.9321505E-01
       -2   -1    0    0    0  501  0.00000000000E+00  0.00000000000E+00  0.98809612433E+03  0.98809612433E+03  0.25500000920E-02 0. -1.
        2   -1    0    0  501    0  0.00000000000E+00  0.00000000000E+00 -0.24711055603E+03  0.24711055604E+03  0.25500000920E-02 0.  1.
    10030    2    1    2    0    0  0.00000000000E+00  0.00000000000E+00  0.74098556830E+03  0.12352066804E+04  0.98826915910E+03 0.  0.
        2    1    3    3  502    0  0.30312222716E+03 -0.21518652237E+03 -0.36397852922E+02  0.37351456158E+03  0.25500000920E-02 0.  1.
       -2    1    3    3    0  502 -0.30312222716E+03  0.21518652237E+03  0.77738342122E+03  0.86169211880E+03  0.25500000920E-02 0. -1.
</event>
<event>
 5   0  0.2350769E-03  0.9979796E+03  0.7818609E-02  0.9310763E-01
        1   -1    0    0  501    0  0.00000000000E+00  0.00000000000E+00  0.39043156462E+03  0.39043156465E+03  0.50400001928E-02 0.  1.
       -1   -1    0    0    0  501  0.00000000000E+00  0.00000000000E+00 -0.63773234199E+03  0.63773234201E+03  0.50400001928E-02 0. -1.
    10030    2    1    2    0    0  0.00000000000E+00  0.00000000000E+00 -0.24730077737E+03  0.10281639067E+04  0.99797963130E+03 0.  0.
        2    1    3    3  502    0  0.41526582810E+03  0.27335035325E+03 -0.16765902385E+03  0.52466720109E+03  0.25500000920E-02 0.  1.
       -2    1    3    3    0  502 -0.41526582810E+03 -0.27335035325E+03 -0.79641753516E+02  0.50349670558E+03  0.25500000920E-02 0. -1.
</event>
<event>
 5   0  0.1548000E-03  0.9961422E+03  0.7818609E-02  0.9312786E-01
        3   -1    0    0  501    0  0.00000000000E+00  0.00000000000E+00  0.15186107687E+03  0.15186111045E+03  0.10100000352E+00 0. -1.
       -3   -1    0    0    0  501  0.00000000000E+00  0.00000000000E+00 -0.16335638758E+04  0.16335638789E+04  0.10100000352E+00 0.  1.
    10030    2    1    2    0    0  0.00000000000E+00  0.00000000000E+00 -0.14817027990E+04  0.17854249894E+04  0.99614216271E+03 0.  0.
        2    1    3    3  502    0  0.38384685489E+03  0.60181241582E+02 -0.12994020691E+04  0.13562470007E+04  0.25500000920E-02 0.  1.
       -2    1    3    3    0  502 -0.38384685489E+03 -0.60181241582E+02 -0.18230072990E+03  0.42917798870E+03  0.25500000920E-02 0. -1.
</event>
<event>
 5   0  0.2378609E-03  0.1003237E+04  0.7818609E-02  0.9305001E-01
        1   -1    0    0  501    0  0.00000000000E+00  0.00000000000E+00  0.72043695374E+03  0.72043695376E+03  0.50400001928E-02 0.  1.
       -1   -1    0    0    0  501  0.00000000000E+00  0.00000000000E+00 -0.34926190724E+03  0.34926190728E+03  0.50400001928E-02 0. -1.
    10030    2    1    2    0    0  0.00000000000E+00  0.00000000000E+00  0.37117504650E+03  0.10696988610E+04  0.10032371296E+04 0.  0.
        1    1    3    3  502    0 -0.18858733956E+03  0.44198176371E+03  0.32151166673E+02  0.48160851491E+03  0.50400001928E-02 0. -1.
       -1    1    3    3    0  502  0.18858733956E+03 -0.44198176371E+03  0.33902387982E+03  0.58809034613E+03  0.50400001928E-02 0.  1.
</event>
<event>
 5   0  0.3895011E-03  0.9924825E+03  0.7818609E-02  0.9316828E-01
       -2   -1    0    0    0  501  0.00000000000E+00  0.00000000000E+00  0.23185440831E+03  0.23185440832E+03  0.25500000920E-02 0. -1.
        2   -1    0    0  501    0  0.00000000000E+00  0.00000000000E+00 -0.10621121926E+04  0.10621121926E+04  0.25500000920E-02 0.  1.
    10030    2    1    2    0    0  0.00000000000E+00  0.00000000000E+00 -0.83025778433E+03  0.12939666010E+04  0.99248253182E+03 0.  0.
        2    1    3    3  502    0 -0.44934692754E+03 -0.16550606950E+03 -0.58487159539E+03  0.75589662219E+03  0.25500000920E-02 0.  1.
       -2    1    3    3    0  502  0.44934692754E+03  0.16550606950E+03 -0.24538618893E+03  0.53806997877E+03  0.25500000920E-02 0. -1.
</event>
<event>
 5   0  0.3826483E-03  0.9952391E+03  0.7818609E-02  0.9313782E-01
        2   -1    0    0  501    0  0.00000000000E+00  0.00000000000E+00  0.11123272218E+04  0.11123272218E+04  0.25500000920E-02 0. -1.
       -2   -1    0    0    0  501  0.00000000000E+00  0.00000000000E+00 -0.22261902365E+03  0.22261902366E+03  0.25500000920E-02 0.  1.
    10030    2    1    2    0    0  0.00000000000E+00  0.00000000000E+00  0.88970819818E+03  0.13349462455E+04  0.99523906699E+03 0.  0.
        4    1    3    3  502    0  0.10067143857E+03 -0.43611468830E+03  0.73655246888E+03  0.86188277173E+03  0.12699999809E+01 0. -1.
       -4    1    3    3    0  502 -0.10067143857E+03  0.43611468830E+03  0.15315572930E+03  0.47306347377E+03  0.12699999809E+01 0.  1.
</event>
<event>
 5   0  0.4026829E-03  0.1023644E+04  0.7818609E-02  0.9282986E-01
        2   -1    0    0  501    0  0.00000000000E+00  0.00000000000E+00  0.56453241671E+03  0.56453241671E+03  0.25500000920E-02 0.  1.
       -2   -1    0    0    0  501  0.00000000000E+00  0.00000000000E+00 -0.46403313118E+03  0.46403313118E+03  0.25500000920E-02 0. -1.
    10030    2    1    2    0    0  0.00000000000E+00  0.00000000000E+00  0.10049928553E+03  0.10285655479E+04  0.10236439713E+04 0.  0.
        1    1    3    3  502    0  0.25448809308E+03  0.29531321337E+03 -0.28298874487E+03  0.48172265181E+03  0.50400001928E-02 0. -1.
       -1    1    3    3    0  502 -0.25448809308E+03 -0.29531321337E+03  0.38348803040E+03  0.54684289609E+03  0.50400001928E-02 0.  1.
</event>
<event>
 5   0  0.4026829E-03  0.1001081E+04  0.7818609E-02  0.9307360E-01
       -2   -1    0    0    0  501  0.00000000000E+00  0.00000000000E+00  0.23906225435E+03  0.23906225436E+03  0.25500000920E-02 0. -1.
        2   -1    0    0  501    0  0.00000000000E+00  0.00000000000E+00 -0.10480154731E+04  0.10480154731E+04  0.25500000920E-02 0.  1.
    10030    2    1    2    0    0  0.00000000000E+00  0.00000000000E+00 -0.80895321872E+03  0.12870777274E+04  0.10010812986E+04 0.  0.
        1    1    3    3  502    0 -0.64049930852E+02  0.47842784748E+03 -0.23417594034E+03  0.53650160293E+03  0.50400001928E-02 0.  1.
       -1    1    3    3    0  502  0.64049930852E+02 -0.47842784748E+03 -0.57477727838E+03  0.75057612449E+03  0.50400001928E-02 0. -1.
</event>
<event>
 5   0  0.2350769E-03  0.1001011E+04  0.7818609E-02  0.9307437E-01
        1   -1    0    0  501    0  0.00000000000E+00  0.00000000000E+00  0.11389510115E+04  0.11389510115E+04  0.50400001928E-02 0.  1.
       -1   -1    0    0    0  501  0.00000000000E+00  0.00000000000E+00 -0.21994413450E+03  0.21994413456E+03  0.50400001928E-02 0. -1.
    10030    2    1    2    0    0  0.00000000000E+00  0.00000000000E+00  0.91900687700E+03  0.13588951461E+04  0.10010106783E+04 0.  0.
        2    1    3    3  502    0 -0.13837161964E+03 -0.42025107894E+03  0.77714041184E+03  0.89426220663E+03  0.25500000920E-02 0.  1.
       -2    1    3    3    0  502  0.13837161964E+03  0.42025107894E+03  0.14186646516E+03  0.46463293945E+03  0.25500000920E-02 0. -1.
</event>
<event>
 5   0  0.1548000E-03  0.1010606E+04  0.7818609E-02  0.9296989E-01
       -4   -1    0    0    0  501  0.00000000000E+00  0.00000000000E+00  0.80176011639E+03  0.80176112224E+03  0.12699999809E+01 0. -1.
        4   -1    0    0  501    0  0.00000000000E+00  0.00000000000E+00 -0.31846052586E+03  0.31846305819E+03  0.12699999809E+01 0.  1.
    10030    2    1    2    0    0  0.00000000000E+00  0.00000000000E+00  0.48329959052E+03  0.11202241804E+04  0.10106056205E+04 0.  0.
        2    1    3    3  502    0  0.15081945034E+03 -0.48521597342E+02 -0.29021869741E+03  0.33064746232E+03  0.25500000920E-02 0.  1.
       -2    1    3    3    0  502 -0.15081945034E+03  0.48521597342E+02  0.77351828793E+03  0.78957671811E+03  0.25500000920E-02 0. -1.
</event>
<event>
 5   0  0.4026829E-03  0.9778347E+03  0.7818609E-02  0.9333195E-01
       -2   -1    0    0    0  501  0.00000000000E+00  0.00000000000E+00  0.38711802100E+03  0.38711802101E+03  0.25500000920E-02 0.  1.
        2   -1    0    0  501    0  0.00000000000E+00  0.00000000000E+00 -0.61748651202E+03  0.61748651202E+03  0.25500000920E-02 0. -1.
    10030    2    1    2    0    0  0.00000000000E+00  0.00000000000E+00 -0.23036849101E+03  0.10046045330E+04  0.97783466197E+03 0.  0.
        1    1    3    3  502    0  0.26269503564E+03 -0.41205016835E+03 -0.13130239163E+03  0.50599836073E+03  0.50400001928E-02 0. -1.
       -1    1    3    3    0  502 -0.26269503564E+03  0.41205016835E+03 -0.99066099384E+02  0.49860617230E+03  0.50400001928E-02 0.  1.
</event>
<event>
 5   0  0.3873874E-03  0.9990926E+03  0.7818609E-02  0.9309541E-01
        2   -1    0    0  501    0  0.00000000000E+00  0.00000000000E+00  0.25072847525E+03  0.25072847526E+03  0.25500000920E-02 0. -1.
       -2   -1    0    0    0  501  0.00000000000E+00  0.00000000000E+00 -0.99528585810E+03  0.99528585810E+03  0.25500000920E-02 0.  1.
    10030    2    1    2    0    0  0.00000000000E+00  0.00000000000E+00 -0.74455738285E+03  0.12460143334E+04  0.99909259961E+03 0.  0.
        5    1    3    3  502    0  0.34436774239E+03  0.26149124190E+03 -0.68420883821E+03  0.80940140590E+03  0.46999998093E+01 0.  1.
       -5    1    3    3    0  502 -0.34436774239E+03 -0.26149124190E+03 -0.60348544641E+02  0.43661292746E+03  0.46999998093E+01 0. -1.
</event>
<event>
 5   0  0.3826483E-03  0.9487691E+03  0.7818609E-02  0.9366590E-01
        2   -1    0    0  501    0  0.00000000000E+00  0.00000000000E+00  0.12463282189E+04  0.12463282190E+04  0.25500000920E-02 0.  1.
       -2   -1    0    0    0  501  0.00000000000E+00  0.00000000000E+00 -0.18056294973E+03  0.18056294974E+03  0.25500000920E-02 0. -1.
    10030    2    1    2    0    0  0.00000000000E+00  0.00000000000E+00  0.10657652692E+04  0.14268911687E+04  0.94876909637E+03 0.  0.
        4    1    3    3  502    0  0.11921684724E+03 -0.33178420548E+03  0.55525391543E+02  0.35690068321E+03  0.12699999809E+01 0. -1.
       -4    1    3    3    0  502 -0.11921684724E+03  0.33178420548E+03  0.10102398777E+04  0.10699904855E+04  0.12699999809E+01 0.  1.
</event>
<event>
 5   0  0.2378609E-03  0.1002177E+04  0.7818609E-02  0.9306160E-01
        1   -1    0    0  501    0  0.00000000000E+00  0.00000000000E+00  0.12106496269E+04  0.12106496269E+04  0.50400001928E-02 0. -1.
       -1   -1    0    0    0  501  0.00000000000E+00  0.00000000000E+00 -0.20740077941E+03  0.20740077948E+03  0.50400001928E-02 0.  1.
    10030    2    1    2    0    0  0.00000000000E+00  0.00000000000E+00  0.10032488475E+04  0.14180504064E+04  0.10021769829E+04 0.  0.
        1    1    3    3  502    0  0.45307180970E+03  0.21128268178E+03  0.45311674381E+03  0.67470676587E+03  0.50400001928E-02 0. -1.
       -1    1    3    3    0  502 -0.45307180970E+03 -0.21128268178E+03  0.55013210365E+03  0.74334364049E+03  0.50400001928E-02 0.  1.
</event>
<event>
 5   0  0.4140860E-03  0.9229161E+03  0.7818609E-02  0.9397380E-01
        2   -1    0    0  501    0  0.00000000000E+00  0.00000000000E+00  0.35006841108E+03  0.35006841109E+03  0.25500000920E-02 0. -1.
       -2   -1    0    0    0  501  0.00000000000E+00  0.00000000000E+00 -0.60829118041E+03  0.60829118041E+03  0.25500000920E-02 0.  1.
    10030    2    1    2    0    0  0.00000000000E+00  0.00000000000E+00 -0.25822276933E+03  0.95835959150E+03  0.92291608937E+03 0.  0.
        3    1    3    3  502    0 -0.35183299475E+03 -0.62628571039E+02 -0.43227323760E+03  0.56086447227E+03  0.10100000352E+00 0.  1.
       -3    1    3    3    0  502  0.35183299475E+03  0.62628571039E+02  0.17405046827E+03  0.39749511923E+03  0.10100000352E+00 0. -1.
</event>
<event>
 5   0  0.4026829E-03  0.1013549E+04  0.7818609E-02  0.9293808E-01
       -2   -1    0    0    0  501  0.00000000000E+00  0.00000000000E+00  0.30442228756E+03  0.30442228757E+03  0.25500000920E-02 0. -1.
        2   -1    0    0  501    0  0.00000000000E+00  0.00000000000E+00 -0.84363153936E+03  0.84363153936E+03  0.25500000920E-02 0.  1.
    10030    2    1    2    0    0  0.00000000000E+00  0.00000000000E+00 -0.53920925180E+03  0.11480538269E+04  0.10135487025E+04 0.  0.
        1    1    3    3  502    0 -0.14497407747E+03 -0.23100085645E+03  0.21421032420E+03  0.34679236128E+03  0.50400001928E-02 0. -1.
       -1    1    3    3    0  502  0.14497407747E+03  0.23100085645E+03 -0.75341957600E+03  0.80126146565E+03  0.50400001928E-02 0.  1.
</event>
<event>
 5   0  0.2405022E-03  0.9968554E+03  0.7818609E-02  0.9312000E-01
        1   -1    0    0  501    0  0.00000000000E+00  0.00000000000E+00  0.36625993683E+03  0.36625993687E+03  0.50400001928E-02 0. -1.
       -1   -1    0    0    0  501  0.00000000000E+00  0.00000000000E+00 -0.67828920608E+03  0.67828920610E+03  0.50400001928E-02 0.  1.
    10030    2    1    2    0    0  0.00000000000E+00  0.00000000000E+00 -0.31202926925E+03  0.10445491430E+04  0.99685537928E+03 0.  0.
        4    1    3    3  502    0 -0.11488367695E+03 -0.37426136253E+03  0.16722233094E+03  0.42571674571E+03  0.12699999809E+01 0. -1.
       -4    1    3    3    0  502  0.11488367695E+03  0.37426136253E+03 -0.47925160019E+03  0.61883239726E+03  0.12699999809E+01 0.  1.
</event>
<event>
 5   0  0.4140860E-03  0.1000390E+04  0.7818609E-02  0.9308117E-01
       -2   -1    0    0    0  501  0.00000000000E+00  0.00000000000E+00  0.16763382434E+03  0.16763382436E+03  0.25500000920E-02 0. -1.
        2   -1    0    0  501    0  0.00000000000E+00  0.00000000000E+00 -0.14925090366E+04  0.14925090366E+04  0.25500000920E-02 0.  1.
    10030    2    1    2    0    0  0.00000000000E+00  0.00000000000E+00 -0.13248752122E+04  0.16601428609E+04  0.10003899193E+04 0.  0.
        3    1    3    3  502    0 -0.34770327225E+03 -0.15542146866E+03 -0.12005381407E+04  0.12595019793E+04  0.10100000352E+00 0.  1.
       -3    1    3    3    0  502  0.34770327225E+03  0.15542146866E+03 -0.12433707152E+03  0.40064088160E+03  0.10100000352E+00 0. -1.
</event>
<event>
 5   0  0.4026829E-03  0.9979561E+03  0.7818609E-02  0.9310789E-01
       -2   -1    0    0    0  501  0.00000000000E+00  0.00000000000E+00  0.19983285074E+03  0.19983285075E+03  0.25500000920E-02 0. -1.
        2   -1    0    0  501    0  0.00000000000E+00  0.00000000000E+00 -0.12459367037E+04  0.12459367037E+04  0.25500000920E-02 0.  1.
    10030    2    1    2    0    0  0.00000000000E+00  0.00000000000E+00 -0.10461038529E+04  0.14457695544E+04  0.99795607789E+03 0.  0.
        1    1    3    3  502    0  0.19196634273E+03  0.81723503270E+02 -0.11797110076E+04  0.11980183092E+04  0.50400001928E-02 0.  1.
       -1    1    3    3    0  502 -0.19196634273E+03 -0.81723503270E+02  0.13360715464E+03  0.24775124525E+03  0.50400001928E-02 0. -1.
</event>
<event>
 5   0  0.2350769E-03  0.9987030E+03  0.7818609E-02  0.9309968E-01
       -1   -1    0    0    0  501  0.00000000000E+00  0.00000000000E+00  0.76109928991E+03  0.76109928993E+03  0.50400001928E-02 0.  1.
        1   -1    0    0  501    0  0.00000000000E+00  0.00000000000E+00 -0.32762077613E+03  0.32762077617E+03  0.50400001928E-02 0. -1.
    10030    2    1    2    0    0  0.00000000000E+00  0.00000000000E+00  0.43347851378E+03  0.10887200661E+04  0.99870303916E+03 0.  0.
        2    1    3    3  502    0  0.39946912549E+03  0.28958363307E+03  0.30059938019E+03  0.57774929696E+03  0.25500000920E-02 0.  1.
       -2    1    3    3    0  502 -0.39946912549E+03 -0.28958363307E+03  0.13287913359E+03  0.51097076914E+03  0.25500000920E-02 0. -1.
</event>
<event>
 5   0  0.3873874E-03  0.9977460E+03  0.7818609E-02  0.9311020E-01
        2   -1    0    0  501    0  0.00000000000E+00  0.00000000000E+00  0.27090250698E+04  0.27090250698E+04  0.25500000920E-02 0.  1.
       -2   -1    0    0    0  501  0.00000000000E+00  0.00000000000E+00 -0.91868582239E+02  0.91868582275E+02  0.25500000920E-02 0. -1.
    10030    2    1    2    0    0  0.00000000000E+00  0.00000000000E+00  0.26171564875E+04  0.28008936521E+04  0.99774604477E+03 0.  0.
        5    1    3    3  502    0  0.24108213856E+03  0.43591852527E+03  0.13832019853E+04  0.14701752890E+04  0.46999998093E+01 0. -1.
       -5    1    3    3    0  502 -0.24108213856E+03 -0.43591852527E+03  0.12339545022E+04  0.13307183631E+04  0.46999998093E+01 0.  1.
</event>
<event>
 5   0  0.2378609E-03  0.9955854E+03  0.7818609E-02  0.9313400E-01
        1   -1    0    0  501    0  0.00000000000E+00  0.00000000000E+00  0.18085876372E+04  0.18085876372E+04  0.50400001928E-02 0. -1.
       -1   -1    0    0    0  501  0.00000000000E+00  0.00000000000E+00 -0.13701164486E+03  0.13701164495E+03  0.50400001928E-02 0.  1.
    10030    2    1    2    0    0  0.00000000000E+00  0.00000000000E+00  0.16715759923E+04  0.19455992821E+04  0.99558538989E+03 0.  0.
        1    1    3    3  502    0 -0.46169392366E+03 -0.95618671590E+02  0.52376370755E+03  0.70472166908E+03  0.50400001928E-02 0.  1.
       -1    1    3    3    0  502  0.46169392366E+03  0.95618671590E+02  0.11478122848E+04  0.12408776131E+04  0.50400001928E-02 0. -1.
</event>
<event>
 5   0  0.4026829E-03  0.1005419E+04  0.7818609E-02  0.9302622E-01
       -2   -1    0    0    0  501  0.00000000000E+00  0.00000000000E+00  0.46751716158E+03  0.46751716158E+03  0.25500000920E-02 0.  1.
        2   -1    0    0  501    0  0.00000000000E+00  0.00000000000E+00 -0.54055049677E+03  0.54055049678E+03  0.25500000920E-02 0. -1.
    10030    2    1    2    0    0  0.00000000000E+00  0.00000000000E+00 -0.73033335198E+02  0.10080676584E+04  0.10054185873E+04 0.  0.
        1    1    3    3  502    0  0.13067845567E+03  0.44864115943E+03 -0.22237196472E+03  0.51749883036E+03  0.50400001928E-02 0. -1.
       -1    1    3    3    0  502 -0.13067845567E+03 -0.44864115943E+03  0.14933862952E+03  0.49056882800E+03  0.50400001928E-02 0.  1.
</event>
<event>
 5   0  0.3895011E-03  0.9975781E+03  0.7818609E-02  0.9311205E-01
        2   -1    0    0  501    0  0.00000000000E+00  0.00000000000E+00  0.11530478122E+04  0.11530478122E+04  0.25500000920E-02 0.  1.
       -2   -1    0    0    0  501  0.00000000000E+00  0.00000000000E+00 -0.21576771647E+03  0.21576771649E+03  0.25500000920E-02 0. -1.
    10030    2    1    2    0    0  0.00000000000E+00  0.00000000000E+00  0.93728009572E+03  0.13688155287E+04  0.99757805395E+03 0.  0.
        2    1    3    3  502    0  0.14647830718E+03  0.42476366220E+03  0.76582905773E+03  0.88790439174E+03  0.25500000920E-02 0.  1.
       -2    1    3    3    0  502 -0.14647830718E+03 -0.42476366220E+03  0.17145103799E+03  0.48091113694E+03  0.25500000920E-02 0. -1.
</event>
<event>
 5   0  0.2327595E-03  0.9912222E+03  0.7818609E-02  0.9318225E-01
        1   -1    0    0  501    0  0.00000000000E+00  0.00000000000E+00  0.12222575447E+04  0.12222575447E+04  0.50400001928E-02 0. -1.
       -1   -1    0    0    0  501  0.00000000000E+00  0.00000000000E+00 -0.20096448096E+03  0.20096448102E+03  0.50400001928E-02 0.  1.
    10030    2    1    2    0    0  0.00000000000E+00  0.00000000000E+00  0.10212930637E+04  0.14232220257E+04  0.99122218117E+03 0.  0.
        5    1    3    3  502    0 -0.31156338573E+03 -0.21034045516E+03  0.97433904491E+03  0.10443531562E+04  0.46999998093E+01 0. -1.
       -5    1    3    3    0  502  0.31156338573E+03  0.21034045516E+03  0.46954018799E+02  0.37886886951E+03  0.46999998093E+01 0.  1.
</event>
<event>
 5   0  0.2313036E-03  0.9975694E+03  0.7818609E-02  0.9311215E-01
       -1   -1    0    0    0  501  0.00000000000E+00  0.00000000000E+00  0.19908066587E+03  0.19908066593E+03  0.50400001928E-02 0.  1.
        1   -1    0    0  501    0  0.00000000000E+00  0.00000000000E+00 -0.12496752429E+04  0.12496752430E+04  0.50400001928E-02 0. -1.
    10030    2    1    2    0    0  0.00000000000E+00  0.00000000000E+00 -0.10505945771E+04  0.14487559089E+04  0.99756940518E+03 0.  0.
        3    1    3    3  502    0  0.69435456209E+02 -0.13619240720E+03  0.16421969015E+03  0.22436080583E+03  0.10100000352E+00 0.  1.
       -3    1    3    3    0  502 -0.69435456209E+02  0.13619240720E+03 -0.12148142672E+04  0.12243951031E+04  0.10100000352E+00 0. -1.
</event>
<event>
 5   0  0.4140860E-03  0.1003011E+04  0.7818609E-02  0.9305248E-01
        2   -1    0    0  501    0  0.00000000000E+00  0.00000000000E+00  0.69764672239E+03  0.69764672239E+03  0.25500000920E-02 0. -1.
       -2   -1    0    0    0  501  0.00000000000E+00  0.00000000000E+00 -0.36050900596E+03  0.36050900597E+03  0.25500000920E-02 0.  1.
    10030    2    1    2    0    0  0.00000000000E+00  0.00000000000E+00  0.33713771643E+03  0.10581557284E+04  0.10030113188E+04 0.  0.
        3    1    3    3  502    0  0.30979727764E+01 -0.40593925913E+03 -0.14208907254E+03  0.43009951671E+03  0.10100000352E+00 0.  1.
       -3    1    3    3    0  502 -0.30979727764E+01  0.40593925913E+03  0.47922678897E+03  0.62805621166E+03  0.10100000352E+00 0. -1.
</event>
<event>
 5   0  0.3873874E-03  0.1001999E+04  0.7818609E-02  0.9306355E-01
       -2   -1    0    0    0  501  0.00000000000E+00  0.00000000000E+00  0.19728147272E+03  0.19728147273E+03  0.25500000920E-02 0.  1.
        2   -1    0    0  501    0  0.00000000000E+00  0.00000000000E+00 -0.12722974945E+04  0.12722974945E+04  0.25500000920E-02 0. -1.
    10030    2    1    2    0    0  0.00000000000E+00  0.00000000000E+00 -0.10750160218E+04  0.14695789672E+04  0.10019994480E+04 0.  0.
        5    1    3    3  502    0  0.11208328073E+03 -0.36563313780E+02 -0.12516294581E+04  0.12571785586E+04  0.46999998093E+01 0. -1.
       -5    1    3    3    0  502 -0.11208328073E+03  0.36563313780E+02  0.17661343630E+03  0.21240040869E+03  0.46999998093E+01 0.  1.
</event>
<event>
 5   0  0.2327595E-03  0.1000584E+04  0.7818609E-02  0.9307905E-01
        1   -1    0    0  501    0  0.00000000000E+00  0.00000000000E+00  0.51011796222E+03  0.51011796224E+03  0.50400001928E-02 0. -1.
       -1   -1    0    0    0  501  0.00000000000E+00  0.00000000000E+00 -0.49065496262E+03  0.49065496265E+03  0.50400001928E-02 0.  1.
    10030    2    1    2    0    0  0.00000000000E+00  0.00000000000E+00  0.19462999595E+02  0.10007729249E+04  0.10005836491E+04 0.  0.
        5    1    3    3  502    0  0.42353866517E+03  0.12309802179E+03  0.24585177183E+03  0.50497852189E+03  0.46999998093E+01 0. -1.
       -5    1    3    3    0  502 -0.42353866517E+03 -0.12309802179E+03 -0.22638877223E+03  0.49579440300E+03  0.46999998093E+01 0.  1.
</event>
<event>
 5   0  0.4026829E-03  0.9495341E+03  0.7818609E-02  0.9365695E-01
        2   -1    0    0  501    0  0.00000000000E+00  0.00000000000E+00  0.25624107891E+03  0.25624107892E+03  0.25500000920E-02 0. -1.
       -2   -1    0    0    0  501  0.00000000000E+00  0.00000000000E+00 -0.87965499951E+03  0.87965499952E+03  0.25500000920E-02 0.  1.
    10030    2    1    2    0    0  0.00000000000E+00  0.00000000000E+00 -0.62341392060E+03  0.11358960784E+04  0.94953408817E+03 0.  0.
        1    1    3    3  502    0  0.24043146303E+03 -0.11611470974E+02 -0.80124415936E+03  0.83662077288E+03  0.50400001928E-02 0.  1.
       -1    1    3    3    0  502 -0.24043146303E+03  0.11611470974E+02  0.17783023876E+03  0.29927530556E+03  0.50400001928E-02 0. -1.
</event>
<event>
 5   0  0.2405022E-03  0.9939683E+03  0.7818609E-02  0.9315185E-01
        1   -1    0    0  501    0  0.00000000000E+00  0.00000000000E+00  0.10386532969E+04  0.10386532969E+04  0.50400001928E-02 0.  1.
       -1   -1    0    0    0  501  0.00000000000E+00  0.00000000000E+00 -0.23780141963E+03  0.23780141969E+03  0.50400001928E-02 0. -1.
    10030    2    1    2    0    0  0.00000000000E+00  0.00000000000E+00  0.80085187725E+03  0.12764547166E+04  0.99396826618E+03 0.  0.
        4    1    3    3  502    0  0.25883139812E+02  0.23159628678E+03  0.96413714056E+03  0.99190161593E+03  0.12699999809E+01 0.  1.
       -4    1    3    3    0  502 -0.25883139812E+02 -0.23159628678E+03 -0.16328526331E+03  0.28455310065E+03  0.12699999809E+01 0. -1.
</event>
<event>
 5   0  0.4140860E-03  0.1022496E+04  0.7818609E-02  0.9284210E-01
        2   -1    0    0  501    0  0.00000000000E+00  0.00000000000E+00  0.10599572515E+04  0.10599572515E+04  0.25500000920E-02 0.  1.
       -2   -1    0    0    0  501  0.00000000000E+00  0.00000000000E+00 -0.24658975684E+03  0.24658975685E+03  0.25500000920E-02 0. -1.
    10030    2    1    2    0    0  0.00000000000E+00  0.00000000000E+00  0.81336749464E+03  0.13065470083E+04  0.10224961631E+04 0.  0.
        3    1    3    3  502    0  0.11314309701E+03  0.29567079333E+03 -0.10627355803E+03  0.33394109925E+03  0.10100000352E+00 0. -1.
       -3    1    3    3    0  502 -0.11314309701E+03 -0.29567079333E+03  0.91964105267E+03  0.97260590908E+03  0.10100000352E+00 0.  1.
</event>
<event>
 5   0  0.3826483E-03  0.9946855E+03  0.7818609E-02  0.9314393E-01
       -2   -1    0    0    0  501  0.00000000000E+00  0.00000000000E+00  0.52862316944E+03  0.52862316945E+03  0.25500000920E-02 0. -1.
        2   -1    0    0  501    0  0.00000000000E+00  0.00000000000E+00 -0.46791330621E+03  0.46791330621E+03  0.25500000920E-02 0.  1.
    10030    2    1    2    0    0  0.00000000000E+00  0.00000000000E+00  0.60709863237E+02  0.99653647566E+03  0.99468550800E+03 0.  0.
        4    1    3    3  502    0  0.34698668832E+02 -0.19094225060E+03 -0.42841121372E+03  0.47031980782E+03  0.12699999809E+01 0.  1.
       -4    1    3    3    0  502 -0.34698668832E+02  0.19094225060E+03  0.48912107696E+03  0.52621666784E+03  0.12699999809E+01 0. -1.
</event>
<event>
 5   0  0.3895011E-03  0.1010743E+04  0.7818609E-02  0.9296840E-01
       -2   -1    0    0    0  501  0.00000000000E+00  0.00000000000E+00  0.65672817905E+03  0.65672817906E+03  0.25500000920E-02 0. -1.
        2   -1    0    0  501    0  0.00000000000E+00  0.00000000000E+00 -0.38889790935E+03  0.38889790936E+03  0.25500000920E-02 0.  1.
    10030    2    1    2    0    0  0.00000000000E+00  0.00000000000E+00  0.26783026971E+03  0.10456260884E+04  0.10107427286E+04 0.  0.
        2    1    3    3  502    0 -0.39461117189E+03 -0.31116752693E+03  0.18921086442E+03  0.53697668294E+03  0.25500000920E-02 0. -1.
       -2    1    3    3    0  502  0.39461117189E+03  0.31116752693E+03  0.78619405286E+02  0.50864940548E+03  0.25500000920E-02 0.  1.
</event>
<event>
 5   0  0.3895011E-03  0.1007031E+04  0.7818609E-02  0.9300867E-01
        2   -1    0    0  501    0  0.00000000000E+00  0.00000000000E+00  0.19042553921E+04  0.19042553921E+04  0.25500000920E-02 0. -1.
       -2   -1    0    0    0  501  0.00000000000E+00  0.00000000000E+00 -0.13313751249E+03  0.13313751252E+03  0.25500000920E-02 0.  1.
    10030    2    1    2    0    0  0.00000000000E+00  0.00000000000E+00  0.17711178796E+04  0.20373929046E+04  0.10070309351E+04 0.  0.
        2    1    3    3  502    0 -0.58020873635E+02  0.13276396629E+03 -0.90051114021E+02  0.17059277730E+03  0.25500000920E-02 0.  1.
       -2    1    3    3    0  502  0.58020873635E+02 -0.13276396629E+03  0.18611689936E+04  0.18668001273E+04  0.25500000920E-02 0. -1.
</event>
<event>
 5   0  0.4026829E-03  0.9887942E+03  0.7818609E-02  0.9320921E-01
        2   -1    0    0  501    0  0.00000000000E+00  0.00000000000E+00  0.67600180549E+03  0.67600180549E+03  0.25500000920E-02 0.  1.
       -2   -1    0    0    0  501  0.00000000000E+00  0.00000000000E+00 -0.36157967573E+03  0.36157967574E+03  0.25500000920E-02 0. -1.
    10030    2    1    2    0    0  0.00000000000E+00  0.00000000000E+00  0.31442212976E+03  0.10375814812E+04  0.98879424276E+03 0.  0.
        1    1    3    3  502    0  0.51661067455E+02 -0.19570915542E+03  0.63052927534E+03  0.66222209755E+03  0.50400001928E-02 0.  1.
       -1    1    3    3    0  502 -0.51661067455E+02  0.19570915542E+03 -0.31610714558E+03  0.37535938368E+03  0.50400001928E-02 0. -1.
</event>
<event>
 5   0  0.2327595E-03  0.9974456E+03  0.7818609E-02  0.9311351E-01
        1   -1    0    0  501    0  0.00000000000E+00  0.00000000000E+00  0.86554003867E+03  0.86554003868E+03  0.50400001928E-02 0.  1.
       -1   -1    0    0    0  501  0.00000000000E+00  0.00000000000E+00 -0.28736327059E+03  0.28736327064E+03  0.50400001928E-02 0. -1.
    10030    2    1    2    0    0  0.00000000000E+00  0.00000000000E+00  0.57817676807E+03  0.11529033093E+04  0.99744557020E+03 0.  0.
        5    1    3    3  502    0 -0.95928735431E+02 -0.47590533395E+02  0.85206867857E+03  0.85878420116E+03  0.46999998093E+01 0.  1.
       -5    1    3    3    0  502  0.95928735431E+02  0.47590533395E+02 -0.27389191050E+03  0.29411910816E+03  0.46999998093E+01 0. -1.
</event>
<event>
 5   0  0.2378609E-03  0.1030044E+04  0.7818609E-02  0.9276194E-01
       -1   -1    0    0    0  501  0.00000000000E+00  0.00000000000E+00  0.27677451982E+03  0.27677451986E+03  0.50400001928E-02 0.  1.
        1   -1    0    0  501    0  0.00000000000E+00  0.00000000000E+00 -0.95835219456E+03  0.95835219457E+03  0.50400001928E-02 0. -1.
    10030    2    1    2    0    0  0.00000000000E+00  0.00000000000E+00 -0.68157767474E+03  0.12351267144E+04  0.10300436272E+04 0.  0.
        1    1    3    3  502    0  0.21716778796E+03  0.43428625067E+03 -0.54667517930E+03  0.73117723388E+03  0.50400001928E-02 0. -1.
       -1    1    3    3    0  502 -0.21716778796E+03 -0.43428625067E+03 -0.13490249544E+03  0.50394948056E+03  0.50400001928E-02 0.  1.
</event>
<event>
 5   0  0.4026829E-03  0.9898255E+03  0.7818609E-02  0.9319775E-01
       -2   -1    0    0    0  501  0.00000000000E+00  0.00000000000E+00  0.32684494782E+03  0.32684494783E+03  0.25500000920E-02 0.  1.
        2   -1    0    0  501    0  0.00000000000E+00  0.00000000000E+00 -0.74940320097E+03  0.74940320097E+03  0.25500000920E-02 0. -1.
    10030    2    1    2    0    0  0.00000000000E+00  0.00000000000E+00 -0.42255825315E+03  0.10762481488E+04  0.98982554043E+03 0.  0.
        1    1    3    3  502    0 -0.12713912185E+03  0.42559954292E+03  0.26042082176E+02  0.44494664546E+03  0.50400001928E-02 0. -1.
       -1    1    3    3    0  502  0.12713912185E+03 -0.42559954292E+03 -0.44860033533E+03  0.63130150334E+03  0.50400001928E-02 0.  1.
</event>
<event>
 5   0  0.2350769E-03  0.9978587E+03  0.7818609E-02  0.9310896E-01
        1   -1    0    0  501    0  0.00000000000E+00  0.00000000000E+00  0.30105345404E+03  0.30105345408E+03  0.50400001928E-02 0. -1.
       -1   -1    0    0    0  501  0.00000000000E+00  0.00000000000E+00 -0.82686481773E+03  0.82686481774E+03  0.50400001928E-02 0.  1.
    10030    2    1    2    0    0  0.00000000000E+00  0.00000000000E+00 -0.52581136369E+03  0.11279182718E+04  0.99785872634E+03 0.  0.
        2    1    3    3  502    0  0.42886152197E+03  0.24307812156E+03 -0.17592591287E+03  0.52341102877E+03  0.25500000920E-02 0. -1.
       -2    1    3    3    0  502 -0.42886152197E+03 -0.24307812156E+03 -0.34988545082E+03  0.60450724306E+03  0.25500000920E-02 0.  1.
</event>
<event>
 5   0  0.2313036E-03  0.1005013E+04  0.7818609E-02  0.9303063E-01
        1   -1    0    0  501    0  0.00000000000E+00  0.00000000000E+00  0.11555364835E+04  0.11555364835E+04  0.50400001928E-02 0. -1.
       -1   -1    0    0    0  501  0.00000000000E+00  0.00000000000E+00 -0.21852447647E+03  0.21852447653E+03  0.50400001928E-02 0.  1.
    10030    2    1    2    0    0  0.00000000000E+00  0.00000000000E+00  0.93701200700E+03  0.13740609600E+04  0.10050134430E+04 0.  0.
        3    1    3    3  502    0  0.51805938867E+02  0.41235271294E+03  0.82298878750E+02  0.42366464428E+03  0.10100000352E+00 0.  1.
       -3    1    3    3    0  502 -0.51805938867E+02 -0.41235271294E+03  0.85471312825E+03  0.95039631574E+03  0.10100000352E+00 0. -1.
</event>
<event>
 5   0  0.2405022E-03  0.1005860E+04  0.7818609E-02  0.9302141E-01
        1   -1    0    0  501    0  0.00000000000E+00  0.00000000000E+00  0.76191681785E+03  0.76191681786E+03  0.50400001928E-02 0. -1.
       -1   -1    0    0    0  501  0.00000000000E+00  0.00000000000E+00 -0.33197638186E+03  0.33197638190E+03  0.50400001928E-02 0.  1.
    10030    2    1    2    0    0  0.00000000000E+00  0.00000000000E+00  0.42994043599E+03  0.10938931998E+04  0.10058596095E+04 0.  0.
        4    1    3    3  502    0  0.26567138572E+03 -0.20600121562E+03 -0.19182504151E+03  0.38706103586E+03  0.12699999809E+01 0.  1.
       -4    1    3    3    0  502 -0.26567138572E+03  0.20600121562E+03  0.62176547750E+03  0.70683216391E+03  0.12699999809E+01 0. -1.
</event>
<event>
 5   0  0.4026829E-03  0.1003229E+04  0.7818609E-02  0.9305011E-01
        2   -1    0    0  501    0  0.00000000000E+00  0.00000000000E+00  0.79580389514E+03  0.79580389514E+03  0.25500000920E-02 0.  1.
       -2   -1    0    0    0  501  0.00000000000E+00  0.00000000000E+00 -0.31617947866E+03  0.31617947867E+03  0.25500000920E-02 0. -1.
    10030    2    1    2    0    0  0.00000000000E+00  0.00000000000E+00  0.47962441647E+03  0.11119833738E+04  0.10032285097E+04 0.  0.
        1    1    3    3  502    0 -0.42015726467E+03  0.27223851790E+03  0.27434970201E+03  0.57088851512E+03  0.50400001928E-02 0.  1.
       -1    1    3    3    0  502  0.42015726467E+03 -0.27223851790E+03  0.20527471446E+03  0.54109485869E+03  0.50400001928E-02 0. -1.
</event>
<event>
 5   0  0.2350769E-03  0.1003892E+04  0.7818609E-02  0.9304287E-01
        1   -1    0    0  501    0  0.00000000000E+00  0.00000000000E+00  0.12250392313E+04  0.12250392313E+04  0.50400001928E-02 0.  1.
       -1   -1    0    0    0  501  0.00000000000E+00  0.00000000000E+00 -0.20566659875E+03  0.20566659881E+03  0.50400001928E-02 0. -1.
    10030    2    1    2    0    0  0.00000000000E+00  0.00000000000E+00  0.10193726326E+04  0.14307058301E+04  0.10038917314E+04 0.  0.
        2    1    3    3  502    0  0.45127077865E+03  0.13468876611E+03  0.26217064568E+03  0.53899891173E+03  0.25500000920E-02 0. -1.
       -2    1    3    3    0  502 -0.45127077865E+03 -0.13468876611E+03  0.75720198690E+03  0.89170691842E+03  0.25500000920E-02 0.  1.
</event>
<event>
 5   0  0.2313036E-03  0.1009389E+04  0.7818609E-02  0.9298307E-01
       -1   -1    0    0    0  501  0.00000000000E+00  0.00000000000E+00  0.34513922745E+03  0.34513922748E+03  0.50400001928E-02 0. -1.
        1   -1    0    0  501    0  0.00000000000E+00  0.00000000000E+00 -0.73801080876E+03  0.73801080877E+03  0.50400001928E-02 0.  1.
    10030    2    1    2    0    0  0.00000000000E+00  0.00000000000E+00 -0.39287158131E+03  0.10831500363E+04  0.10093888852E+04 0.  0.
        3    1    3    3  502    0  0.36110171059E+03  0.32037652226E+03 -0.38431514142E+02  0.48426496145E+03  0.10100000352E+00 0. -1.
       -3    1    3    3    0  502 -0.36110171059E+03 -0.32037652226E+03 -0.35444006717E+03  0.59888507481E+03  0.10100000352E+00 0.  1.
</event>
<event>
 5   0  0.2327595E-03  0.1005770E+04  0.7818609E-02  0.9302238E-01
        1   -1    0    0  501    0  0.00000000000E+00  0.00000000000E+00  0.66880076342E+03  0.66880076344E+03  0.50400001928E-02 0. -1.
       -1   -1    0    0    0  501  0.00000000000E+00  0.00000000000E+00 -0.37812983500E+03  0.37812983503E+03  0.50400001928E-02 0.  1.
    10030    2    1    2    0    0  0.00000000000E+00  0.00000000000E+00  0.29067092841E+03  0.10469305985E+04  0.10057703960E+04 0.  0.
        5    1    3    3  502    0 -0.29381676464E+03 -0.28454519471E+03  0.44984297796E+03  0.60800909026E+03  0.46999998093E+01 0. -1.
       -5    1    3    3    0  502  0.29381676464E+03  0.28454519471E+03 -0.15917204954E+03  0.43892150821E+03  0.46999998093E+01 0.  1.
</event>
<event>
 5   0  0.4026829E-03  0.9954034E+03  0.7818609E-02  0.9313601E-01
       -2   -1    0    0    0  501  0.00000000000E+00  0.00000000000E+00  0.60625585376E+03  0.60625585376E+03  0.25500000920E-02 0. -1.
        2   -1    0    0  501    0  0.00000000000E+00  0.00000000000E+00 -0.40858491648E+03  0.40858491649E+03  0.25500000920E-02 0.  1.
    10030    2    1    2    0    0  0.00000000000E+00  0.00000000000E+00  0.19767093728E+03  0.10148407703E+04  0.99540343054E+03 0.  0.
        1    1    3    3  502    0  0.21470732582E+03  0.41770871577E+03 -0.69084050010E+02  0.47471297958E+03  0.50400001928E-02 0. -1.
       -1    1    3    3    0  502 -0.21470732582E+03 -0.41770871577E+03  0.26675498729E+03  0.54012779067E+03  0.50400001928E-02 0.  1.
</event>
<event>
 5   0  0.1548000E-03  0.9743795E+03  0.7818609E-02  0.9337100E-01
        3   -1    0    0  501    0  0.00000000000E+00  0.00000000000E+00  0.52115419343E+03  0.52115420322E+03  0.10100000352E+00 0.  1.
       -3   -1    0    0    0  501  0.00000000000E+00  0.00000000000E+00 -0.45543877558E+03  0.45543878678E+03  0.10100000352E+00 0. -1.
    10030    2    1    2    0    0  0.00000000000E+00  0.00000000000E+00  0.65715417854E+02  0.97659299000E+03  0.97437947021E+03 0.  0.
        1    1    3    3  502    0  0.12007644050E+03 -0.13433877228E+03 -0.42081677575E+03  0.45776851801E+03  0.50400001928E-02 0. -1.
       -1    1    3    3    0  502 -0.12007644050E+03  0.13433877228E+03  0.48653219360E+03  0.51882447199E+03  0.50400001928E-02 0.  1.
</event>
<event>
 5   0  0.2327595E-03  0.9991634E+03  0.7818609E-02  0.9309463E-01
        1   -1    0    0  501    0  0.00000000000E+00  0.00000000000E+00  0.61178876288E+03  0.61178876290E+03  0.50400001928E-02 0.  1.
       -1   -1    0    0    0  501  0.00000000000E+00  0.00000000000E+00 -0.40795433423E+03  0.40795433426E+03  0.50400001928E-02 0. -1.
    10030    2    1    2    0    0  0.00000000000E+00  0.00000000000E+00  0.20383442865E+03  0.10197430972E+04  0.99916340500E+03 0.  0.
        5    1    3    3  502    0  0.45239413750E+03 -0.13757377019E+03  0.26639738706E+03  0.54274916464E+03  0.46999998093E+01 0.  1.
       -5    1    3    3    0  502 -0.45239413750E+03  0.13757377019E+03 -0.62562958410E+02  0.47699393251E+03  0.46999998093E+01 0. -1.
</event>
<event>
 5   0  0.3895011E-03  0.1001046E+04  0.7818609E-02  0.9307399E-01
        2   -1    0    0  501    0  0.00000000000E+00  0.00000000000E+00  0.12173950935E+04  0.12173950935E+04  0.25500000920E-02 0. -1.
       -2   -1    0    0    0  501  0.00000000000E+00  0.00000000000E+00 -0.20578624883E+03  0.20578624885E+03  0.25500000920E-02 0.  1.
    10030    2    1    2    0    0  0.00000000000E+00  0.00000000000E+00  0.10116088447E+04  0.14231813424E+04  0.10010457925E+04 0.  0.
        2    1    3    3  502    0  0.84766366939E+02 -0.17564363991E+02 -0.19506261988E+03  0.21340869131E+03  0.25500000920E-02 0.  1.
       -2    1    3    3    0  502 -0.84766366939E+02  0.17564363991E+02  0.12066714646E+04  0.12097726510E+04  0.25500000920E-02 0. -1.
</event>
<event>
 5   0  0.2350769E-03  0.1000493E+04  0.7818609E-02  0.9308005E-01
        1   -1    0    0  501    0  0.00000000000E+00  0.00000000000E+00  0.10078826174E+04  0.10078826174E+04  0.50400001928E-02 0.  1.
       -1   -1    0    0    0  501  0.00000000000E+00  0.00000000000E+00 -0.24828916973E+03  0.24828916978E+03  0.50400001928E-02 0. -1.
    10030    2    1    2    0    0  0.00000000000E+00  0.00000000000E+00  0.75959344768E+03  0.12561717872E+04  0.10004925553E+04 0.  0.
        2    1    3    3  502    0 -0.23053188175E+03 -0.31016963682E+03 -0.19019253882E+02  0.38692619985E+03  0.25500000920E-02 0. -1.
       -2    1    3    3    0  502  0.23053188175E+03  0.31016963682E+03  0.77861270156E+03  0.86924558736E+03  0.25500000920E-02 0.  1.
</event>
<event>
 5   0  0.3873874E-03  0.9976804E+03  0.7818609E-02  0.9311093E-01
       -2   -1    0    0    0  501  0.00000000000E+00  0.00000000000E+00  0.45473388109E+03  0.45473388109E+03  0.25500000920E-02 0.  1.
        2   -1    0    0  501    0  0.00000000000E+00  0.00000000000E+00 -0.54722460854E+03  0.54722460854E+03  0.25500000920E-02 0. -1.
    10030    2    1    2    0    0  0.00000000000E+00  0.00000000000E+00 -0.92490727450E+02  0.10019584896E+04  0.99768044999E+03 0.  0.
        5    1    3    3  502    0 -0.48397219646E+03 -0.12070784483E+03 -0.41753004187E+02  0.50056455538E+03  0.46999998093E+01 0. -1.
       -5    1    3    3    0  502  0.48397219646E+03  0.12070784483E+03 -0.50737723263E+02  0.50139393426E+03  0.46999998093E+01 0.  1.
</event>
<event>
 5   0  0.3826483E-03  0.1004927E+04  0.7818609E-02  0.9303158E-01
        2   -1    0    0  501    0  0.00000000000E+00  0.00000000000E+00  0.11831315863E+04  0.11831315863E+04  0.25500000920E-02 0. -1.
       -2   -1    0    0    0  501  0.00000000000E+00  0.00000000000E+00 -0.21339086143E+03  0.21339086145E+03  0.25500000920E-02 0.  1.
    10030    2    1    2    0    0  0.00000000000E+00  0.00000000000E+00  0.96974072485E+03  0.13965224477E+04  0.10049268001E+04 0.  0.
        4    1    3    3  502    0 -0.15654782899E+03  0.35080008418E+03  0.34778564000E+02  0.38571891740E+03  0.12699999809E+01 0.  1.
       -4    1    3    3    0  502  0.15654782899E+03 -0.35080008418E+03  0.93496216085E+03  0.10108035303E+04  0.12699999809E+01 0. -1.
</event>
<event>
 5   0  0.3826483E-03  0.9985582E+03  0.7818609E-02  0.9310128E-01
       -2   -1    0    0    0  501  0.00000000000E+00  0.00000000000E+00  0.18012919171E+03  0.18012919172E+03  0.25500000920E-02 0.  1.
        2   -1    0    0  501    0  0.00000000000E+00  0.00000000000E+00 -0.13838934363E+04  0.13838934363E+04  0.25500000920E-02 0. -1.
    10030    2    1    2    0    0  0.00000000000E+00  0.00000000000E+00 -0.12037642446E+04  0.15640226281E+04  0.99855817279E+03 0.  0.
        4    1    3    3  502    0 -0.16865191767E+03 -0.39217334339E+03 -0.19635570695E+03  0.46989421911E+03  0.12699999809E+01 0.  1.
       -4    1    3    3    0  502  0.16865191767E+03  0.39217334339E+03 -0.10074085377E+04  0.10941284090E+04  0.12699999809E+01 0. -1.
</event>
<event>
 5   0  0.2327595E-03  0.9982032E+03  0.7818609E-02  0.9310518E-01
       -1   -1    0    0    0  501  0.00000000000E+00  0.00000000000E+00  0.87780203257E+03  0.87780203258E+03  0.50400001928E-02 0. -1.
        1   -1    0    0  501    0  0.00000000000E+00  0.00000000000E+00 -0.28377970215E+03  0.28377970219E+03  0.50400001928E-02 0.  1.
    10030    2    1    2    0    0  0.00000000000E+00  0.00000000000E+00  0.59402233042E+03  0.11615817348E+04  0.99820318449E+03 0.  0.
        5    1    3    3  502    0 -0.40163846881E+03  0.94661998342E+02  0.62368198605E+03  0.74784735293E+03  0.46999998093E+01 0. -1.
       -5    1    3    3    0  502  0.40163846881E+03 -0.94661998342E+02 -0.29659655633E+02  0.41373438185E+03  0.46999998093E+01 0.  1.
</event>
<event>
 5   0  0.2327595E-03  0.9857934E+03  0.7818609E-02  0.9324265E-01
       -1   -1    0    0    0  501  0.00000000000E+00  0.00000000000E+00  0.56709301315E+03  0.56709301318E+03  0.50400001928E-02 0. -1.
        1   -1    0    0  501    0  0.00000000000E+00  0.00000000000E+00 -0.42840795893E+03  0.42840795896E+03  0.50400001928E-02 0.  1.
    10030    2    1    2    0    0  0.00000000000E+00  0.00000000000E+00  0.13868505422E+03  0.99550097214E+03  0.98579340699E+03 0.  0.
        5    1    3    3  502    0  0.21183604204E+03  0.38262578809E+03  0.29884259537E+03  0.52972255873E+03  0.46999998093E+01 0. -1.
       -5    1    3    3    0  502 -0.21183604204E+03 -0.38262578809E+03 -0.16015754115E+03  0.46577841341E+03  0.46999998093E+01 0.  1.
</event>
<event>
 5   0  0.2327595E-03  0.1044089E+04  0.7818609E-02  0.9261469E-01
       -1   -1    0    0    0  501  0.00000000000E+00  0.00000000000E+00  0.64831433323E+03  0.64831433325E+03  0.50400001928E-02 0.  1.
        1   -1    0    0  501    0  0.00000000000E+00  0.00000000000E+00 -0.42036747574E+03  0.42036747577E+03  0.50400001928E-02 0. -1.
    10030    2    1    2    0    0  0.00000000000E+00  0.00000000000E+00  0.22794685750E+03  0.10686818090E+04  0.10440886165E+04 0.  0.
        5    1    3    3  502    0 -0.31770506110E+03  0.88327112283E+02  0.52819070735E+03  0.62269229796E+03  0.46999998093E+01 0.  1.
       -5    1    3    3    0  502  0.31770506110E+03 -0.88327112283E+02 -0.30024384985E+03  0.44598951106E+03  0.46999998093E+01 0. -1.
</event>
<event>
 5   0  0.3826483E-03  0.9828323E+03  0.7818609E-02  0.9327577E-01
        2   -1    0    0  501    0  0.00000000000E+00  0.00000000000E+00  0.23786809113E+03  0.23786809115E+03  0.25500000920E-02 0. -1.
       -2   -1    0    0    0  501  0.00000000000E+00  0.00000000000E+00 -0.10152259230E+04  0.10152259230E+04  0.25500000920E-02 0.  1.
    10030    2    1    2    0    0  0.00000000000E+00  0.00000000000E+00 -0.77735783187E+03  0.12530940141E+04  0.98283234050E+03 0.  0.
        4    1    3    3  502    0 -0.47699870360E+03 -0.11654690228E+03 -0.41344430822E+03  0.64191023715E+03  0.12699999809E+01 0.  1.
       -4    1    3    3    0  502  0.47699870360E+03  0.11654690228E+03 -0.36391352365E+03  0.61118377699E+03  0.12699999809E+01 0. -1.
</event>
<event>
 5   0  0.3873874E-03  0.1002952E+04  0.7818609E-02  0.9305313E-01
       -2   -1    0    0    0  501  0.00000000000E+00  0.00000000000E+00  0.28122928050E+03  0.28122928051E+03  0.25500000920E-02 0. -1.
        2   -1    0    0  501    0  0.00000000000E+00  0.00000000000E+00 -0.89421058074E+03  0.89421058075E+03  0.25500000920E-02 0.  1.
    10030    2    1    2    0    0  0.00000000000E+00  0.00000000000E+00 -0.61298130025E+03  0.11754398613E+04  0.10029520392E+04 0.  0.
        5    1    3    3  502    0  0.47568777556E+03  0.65819156914E+02 -0.13728217773E+03  0.49947923636E+03  0.46999998093E+01 0.  1.
       -5    1    3    3    0  502 -0.47568777556E+03 -0.65819156914E+02 -0.47569912252E+03  0.67596062489E+03  0.46999998093E+01 0. -1.
</event>
<event>
 5   0  0.2313036E-03  0.1006717E+04  0.7818609E-02  0.9301209E-01
       -1   -1    0    0    0  501  0.00000000000E+00  0.00000000000E+00  0.33563152312E+03  0.33563152316E+03  0.50400001928E-02 0. -1.
        1   -1    0    0  501    0  0.00000000000E+00  0.00000000000E+00 -0.75490402697E+03  0.75490402698E+03  0.50400001928E-02 0.  1.
    10030    2    1    2    0    0  0.00000000000E+00  0.00000000000E+00 -0.41927250385E+03  0.10905355501E+04  0.10067166203E+04 0.  0.
        3    1    3    3  502    0 -0.11786597405E+03 -0.30185655140E+03 -0.62688085434E+03  0.70568362685E+03  0.10100000352E+00 0.  1.
       -3    1    3    3    0  502  0.11786597405E+03  0.30185655140E+03  0.20760835050E+03  0.38485192329E+03  0.10100000352E+00 0. -1.
</event>
<event>
 5   0  0.3826483E-03  0.1005059E+04  0.7818609E-02  0.9303014E-01
        2   -1    0    0  501    0  0.00000000000E+00  0.00000000000E+00  0.16971287666E+04  0.16971287666E+04  0.25500000920E-02 0. -1.
       -2   -1    0    0    0  501  0.00000000000E+00  0.00000000000E+00 -0.14880176752E+03  0.14880176755E+03  0.25500000920E-02 0.  1.
    10030    2    1    2    0    0  0.00000000000E+00  0.00000000000E+00  0.15483269991E+04  0.18459305341E+04  0.10050587251E+04 0.  0.
        4    1    3    3  502    0 -0.14608301420E+03  0.50503875997E+02 -0.10405608194E+03  0.18633349032E+03  0.12699999809E+01 0.  1.
       -4    1    3    3    0  502  0.14608301420E+03 -0.50503875997E+02  0.16523830810E+04  0.16595970438E+04  0.12699999809E+01 0. -1.
</event>
<event>
 5   0  0.4026829E-03  0.9971811E+03  0.7818609E-02  0.9311642E-01
       -2   -1    0    0    0  501  0.00000000000E+00  0.00000000000E+00  0.20817124850E+03  0.20817124851E+03  0.25500000920E-02 0.  1.
        2   -1    0    0  501    0  0.00000000000E+00  0.00000000000E+00 -0.11941732401E+04  0.11941732401E+04  0.25500000920E-02 0. -1.
    10030    2    1    2    0    0  0.00000000000E+00  0.00000000000E+00 -0.98600199159E+03  0.14023444886E+04  0.99718109553E+03 0.  0.
        1    1    3    3  502    0 -0.36143410579E+03  0.29764757576E+03 -0.25201760242E+03  0.53173448650E+03  0.50400001928E-02 0.  1.
       -1    1    3    3    0  502  0.36143410579E+03 -0.29764757576E+03 -0.73398438917E+03  0.87061000210E+03  0.50400001928E-02 0. -1.
</event>
<event>
 5   0  0.2378609E-03  0.9996319E+03  0.7818609E-02  0.9308949E-01
       -1   -1    0    0    0  501  0.00000000000E+00  0.00000000000E+00  0.18460712420E+04  0.18460712420E+04  0.50400001928E-02 0. -1.
        1   -1    0    0  501    0  0.00000000000E+00  0.00000000000E+00 -0.13532305378E+03  0.13532305388E+03  0.50400001928E-02 0.  1.
    10030    2    1    2    0    0  0.00000000000E+00  0.00000000000E+00  0.17107481882E+04  0.19813942959E+04  0.99963192839E+03 0.  0.
        1    1    3    3  502    0  0.65659221447E+02  0.80750766178E+02  0.18243553238E+04  0.18273215829E+04  0.50400001928E-02 0. -1.
       -1    1    3    3    0  502 -0.65659221447E+02 -0.80750766178E+02 -0.11360713563E+03  0.15407271300E+03  0.50400001928E-02 0.  1.
</event>
<event>
 5   0  0.4140860E-03  0.1001928E+04  0.7818609E-02  0.9306432E-01
        2   -1    0    0  501    0  0.00000000000E+00  0.00000000000E+00  0.24630176599E+04  0.24630176599E+04  0.25500000920E-02 0. -1.
       -2   -1    0    0    0  501  0.00000000000E+00  0.00000000000E+00 -0.10189334863E+03  0.10189334866E+03  0.25500000920E-02 0.  1.
    10030    2    1    2    0    0  0.00000000000E+00  0.00000000000E+00  0.23611243113E+04  0.25649110086E+04  0.10019283750E+04 0.  0.
        3    1    3    3  502    0  0.20150479875E+03  0.40356171482E+03  0.17384889811E+04  0.17960540608E+04  0.10100000352E+00 0. -1.
       -3    1    3    3    0  502 -0.20150479875E+03 -0.40356171482E+03  0.62263533018E+03  0.76885694780E+03  0.10100000352E+00 0.  1.
</event>
<event>
 5   0  0.2313036E-03  0.1025075E+04  0.7818609E-02  0.9281462E-01
        1   -1    0    0  501    0  0.00000000000E+00  0.00000000000E+00  0.84117442097E+03  0.84117442098E+03  0.50400001928E-02 0. -1.
       -1   -1    0    0    0  501  0.00000000000E+00  0.00000000000E+00 -0.31229541298E+03  0.31229541302E+03  0.50400001928E-02 0.  1.
    10030    2    1    2    0    0  0.00000000000E+00  0.00000000000E+00  0.52887900799E+03  0.11534698340E+04  0.10250754376E+04 0.  0.
        3    1    3    3  502    0 -0.33602128409E+02  0.50939630889E+03  0.31577377177E+03  0.60027226129E+03  0.10100000352E+00 0. -1.
       -3    1    3    3    0  502  0.33602128409E+02 -0.50939630889E+03  0.21310523623E+03  0.55319757271E+03  0.10100000352E+00 0.  1.
</event>
<event>
 5   0  0.2327595E-03  0.9970393E+03  0.7818609E-02  0.9311798E-01
        1   -1    0    0  501    0  0.00000000000E+00  0.00000000000E+00  0.96859164290E+03  0.96859164292E+03  0.50400001928E-02 0.  1.
       -1   -1    0    0    0  501  0.00000000000E+00  0.00000000000E+00 -0.25658064172E+03  0.25658064177E+03  0.50400001928E-02 0. -1.
    10030    2    1    2    0    0  0.00000000000E+00  0.00000000000E+00  0.71201100118E+03  0.12251722847E+04  0.99703934795E+03 0.  0.
        5    1    3    3  502    0 -0.20121810379E+03  0.44416670756E+03  0.48327481995E+03  0.68654892833E+03  0.46999998093E+01 0.  1.
       -5    1    3    3    0  502  0.20121810379E+03 -0.44416670756E+03  0.22873618123E+03  0.53862335635E+03  0.46999998093E+01 0. -1.
</event>
<event>
 5   0  0.2378609E-03  0.9971583E+03  0.7818609E-02  0.9311667E-01
        1   -1    0    0  501    0  0.00000000000E+00  0.00000000000E+00  0.65951619767E+03  0.65951619769E+03  0.50400001928E-02 0.  1.
       -1   -1    0    0    0  501  0.00000000000E+00  0.00000000000E+00 -0.37691443996E+03  0.37691444000E+03  0.50400001928E-02 0. -1.
    10030    2    1    2    0    0  0.00000000000E+00  0.00000000000E+00  0.28260175771E+03  0.10364306377E+04  0.99715831906E+03 0.  0.
        1    1    3    3  502    0 -0.18298648244E+03  0.45675112530E+03  0.22494086573E+03  0.54102129008E+03  0.50400001928E-02 0.  1.
       -1    1    3    3    0  502  0.18298648244E+03 -0.45675112530E+03  0.57660891978E+02  0.49540934761E+03  0.50400001928E-02 0. -1.
</event>
<event>
 5   0  0.2378609E-03  0.1023468E+04  0.7818609E-02  0.9283174E-01
       -1   -1    0    0    0  501  0.00000000000E+00  0.00000000000E+00  0.75425495233E+03  0.75425495235E+03  0.50400001928E-02 0.  1.
        1   -1    0    0  501    0  0.00000000000E+00  0.00000000000E+00 -0.34719251387E+03  0.34719251391E+03  0.50400001928E-02 0. -1.
    10030    2    1    2    0    0  0.00000000000E+00  0.00000000000E+00  0.40706243846E+03  0.11014474663E+04  0.10234679732E+04 0.  0.
        1    1    3    3  502    0 -0.42758117230E+03  0.16765049979E+03 -0.39362407682E+02  0.46095742553E+03  0.50400001928E-02 0. -1.
       -1    1    3    3    0  502  0.42758117230E+03 -0.16765049979E+03  0.44642484614E+03  0.64049004072E+03  0.50400001928E-02 0.  1.
</event>
<event>
 5   0  0.4140860E-03  0.9919700E+03  0.7818609E-02  0.9317396E-01
       -2   -1    0    0    0  501  0.00000000000E+00  0.00000000000E+00  0.13808161857E+03  0.13808161859E+03  0.25500000920E-02 0. -1.
        2   -1    0    0  501    0  0.00000000000E+00  0.00000000000E+00 -0.17815630835E+04  0.17815630835E+04  0.25500000920E-02 0.  1.
    10030    2    1    2    0    0  0.00000000000E+00  0.00000000000E+00 -0.16434814650E+04  0.19196447021E+04  0.99196998781E+03 0.  0.
        3    1    3    3  502    0  0.43875787452E+03  0.23126384416E+03 -0.82775723001E+03  0.96497330538E+03  0.10100000352E+00 0. -1.
       -3    1    3    3    0  502 -0.43875787452E+03 -0.23126384416E+03 -0.81572423495E+03  0.95467139674E+03  0.10100000352E+00 0.  1.
</event>
<event>
 5   0  0.2378609E-03  0.9982272E+03  0.7818609E-02  0.9310491E-01
        1   -1    0    0  501    0  0.00000000000E+00  0.00000000000E+00  0.13379458912E+04  0.13379458912E+04  0.50400001928E-02 0.  1.
       -1   -1    0    0    0  501  0.00000000000E+00  0.00000000000E+00 -0.18619167199E+03  0.18619167206E+03  0.50400001928E-02 0. -1.
    10030    2    1    2    0    0  0.00000000000E+00  0.00000000000E+00  0.11517542192E+04  0.15241375633E+04  0.99822719373E+03 0.  0.
        1    1    3    3  502    0 -0.18642612483E+03 -0.81767988653E+02 -0.11992461005E+03  0.23626810218E+03  0.50400001928E-02 0. -1.
       -1    1    3    3    0  502  0.18642612483E+03  0.81767988653E+02  0.12716788293E+04  0.12878694611E+04  0.50400001928E-02 0.  1.
</event>
<event>
 5   0  0.2350769E-03  0.1000381E+04  0.7818609E-02  0.9308128E-01
        1   -1    0    0  501    0  0.00000000000E+00  0.00000000000E+00  0.60937705955E+03  0.60937705957E+03  0.50400001928E-02 0. -1.
       -1   -1    0    0    0  501  0.00000000000E+00  0.00000000000E+00 -0.41056731155E+03  0.41056731158E+03  0.50400001928E-02 0.  1.
    10030    2    1    2    0    0  0.00000000000E+00  0.00000000000E+00  0.19880974800E+03  0.10199443712E+04  0.10003805298E+04 0.  0.
        2    1    3    3  502    0 -0.23958159248E+03  0.43881876600E+03  0.83974426616E+02  0.50696444962E+03  0.25500000920E-02 0. -1.
       -2    1    3    3    0  502  0.23958159248E+03 -0.43881876600E+03  0.11483532139E+03  0.51297992153E+03  0.25500000920E-02 0.  1.
</event>
<event>
 5   0  0.2327595E-03  0.9993554E+03  0.7818609E-02  0.9309252E-01
       -1   -1    0    0    0  501  0.00000000000E+00  0.00000000000E+00  0.19494735298E+03  0.19494735305E+03  0.50400001928E-02 0. -1.
        1   -1    0    0  501    0  0.00000000000E+00  0.00000000000E+00 -0.12807448063E+04  0.12807448063E+04  0.50400001928E-02 0.  1.
    10030    2    1    2    0    0  0.00000000000E+00  0.00000000000E+00 -0.10857974533E+04  0.14756921593E+04  0.99935541203E+03 0.  0.
        5    1    3    3  502    0  0.37324074506E+03 -0.13289991290E+03 -0.93346889538E+02  0.40707096728E+03  0.46999998093E+01 0. -1.
       -5    1    3    3    0  502 -0.37324074506E+03  0.13289991290E+03 -0.99245056377E+03  0.10686211921E+04  0.46999998093E+01 0.  1.
</event>
<event>
 5   0  0.3826483E-03  0.1001102E+04  0.7818609E-02  0.9307337E-01
        2   -1    0    0  501    0  0.00000000000E+00  0.00000000000E+00  0.95918178927E+03  0.95918178928E+03  0.25500000920E-02 0. -1.
       -2   -1    0    0    0  501  0.00000000000E+00  0.00000000000E+00 -0.26121343580E+03  0.26121343582E+03  0.25500000920E-02 0.  1.
    10030    2    1    2    0    0  0.00000000000E+00  0.00000000000E+00  0.69796835347E+03  0.12203952251E+04  0.10011017346E+04 0.  0.
        4    1    3    3  502    0  0.25595351980E+03 -0.73788764595E+02 -0.16763017955E+03  0.31473556532E+03  0.12699999809E+01 0.  1.
       -4    1    3    3    0  502 -0.25595351980E+03  0.73788764595E+02  0.86559853302E+03  0.90565965978E+03  0.12699999809E+01 0. -1.
</event>
<event>
 5   0  0.4140860E-03  0.1004888E+04  0.7818609E-02  0.9303200E-01
        2   -1    0    0  501    0  0.00000000000E+00  0.00000000000E+00  0.39520113496E+03  0.39520113497E+03  0.25500000920E-02 0.  1.
       -2   -1    0    0    0  501  0.00000000000E+00  0.00000000000E+00 -0.63878826133E+03  0.63878826134E+03  0.25500000920E-02 0. -1.
    10030    2    1    2    0    0  0.00000000000E+00  0.00000000000E+00 -0.24358712637E+03  0.10339893963E+04  0.10048877467E+04 0.  0.
        3    1    3    3  502    0 -0.28321340462E+03  0.17858905624E+02  0.30484791739E+03  0.41648653761E+03  0.10100000352E+00 0.  1.
       -3    1    3    3    0  502  0.28321340462E+03 -0.17858905624E+02 -0.54843504377E+03  0.61750285870E+03  0.10100000352E+00 0. -1.
</event>
<event>
 5   0  0.2405022E-03  0.1001509E+04  0.7818609E-02  0.9306891E-01
       -1   -1    0    0    0  501  0.00000000000E+00  0.00000000000E+00  0.20132154436E+03  0.20132154442E+03  0.50400001928E-02 0.  1.
        1   -1    0    0  501    0  0.00000000000E+00  0.00000000000E+00 -0.12455447657E+04  0.12455447657E+04  0.50400001928E-02 0. -1.
    10030    2    1    2    0    0  0.00000000000E+00  0.00000000000E+00 -0.10442232214E+04  0.14468663102E+04  0.10015088534E+04 0.  0.
        4    1    3    3  502    0 -0.80138775697E+02 -0.97466076049E+02 -0.12221982821E+04  0.12286952889E+04  0.12699999809E+01 0. -1.
       -4    1    3    3    0  502  0.80138775697E+02  0.97466076049E+02  0.17797506075E+03  0.21817102122E+03  0.12699999809E+01 0.  1.
</event>
<event>
 5   0  0.2350769E-03  0.1002042E+04  0.7818609E-02  0.9306307E-01
       -1   -1    0    0    0  501  0.00000000000E+00  0.00000000000E+00  0.23795027196E+03  0.23795027201E+03  0.50400001928E-02 0.  1.
        1   -1    0    0  501    0  0.00000000000E+00  0.00000000000E+00 -0.10549358698E+04  0.10549358698E+04  0.50400001928E-02 0. -1.
    10030    2    1    2    0    0  0.00000000000E+00  0.00000000000E+00 -0.81698559783E+03  0.12928861418E+04  0.10020424685E+04 0.  0.
        2    1    3    3  502    0  0.37527042736E+02  0.33145368373E+03  0.73847860934E+02  0.34164796204E+03  0.25500000920E-02 0.  1.
       -2    1    3    3    0  502 -0.37527042736E+02 -0.33145368373E+03 -0.89083345877E+03  0.95123817977E+03  0.25500000920E-02 0. -1.
</event>
<event>
 5   0  0.2405022E-03  0.9941187E+03  0.7818609E-02  0.9315019E-01
       -1   -1    0    0    0  501  0.00000000000E+00  0.00000000000E+00  0.82023316688E+03  0.82023316689E+03  0.50400001928E-02 0.  1.
        1   -1    0    0  501    0  0.00000000000E+00  0.00000000000E+00 -0.30121680450E+03  0.30121680454E+03  0.50400001928E-02 0. -1.
    10030    2    1    2    0    0  0.00000000000E+00  0.00000000000E+00  0.51901636238E+03  0.11214499714E+04  0.99411873236E+03 0.  0.
        4    1    3    3  502    0  0.36376276271E+03 -0.30516247168E+03  0.42537466323E+03  0.63748937142E+03  0.12699999809E+01 0.  1.
       -4    1    3    3    0  502 -0.36376276271E+03  0.30516247168E+03  0.93641699151E+02  0.48396060002E+03  0.12699999809E+01 0. -1.
</event>
<event>
 5   0  0.2378609E-03  0.9992706E+03  0.7818609E-02  0.9309345E-01
       -1   -1    0    0    0  501  0.00000000000E+00  0.00000000000E+00  0.54503913422E+03  0.54503913424E+03  0.50400001928E-02 0. -1.
        1   -1    0    0  501    0  0.00000000000E+00  0.00000000000E+00 -0.45801380811E+03  0.45801380814E+03  0.50400001928E-02 0.  1.
    10030    2    1    2    0    0  0.00000000000E+00  0.00000000000E+00  0.87025326104E+02  0.10030529424E+04  0.99927063293E+03 0.  0.
        1    1    3    3  502    0  0.49117803946E+01 -0.48852124469E+03 -0.61565547500E+02  0.49240983820E+03  0.50400001928E-02 0.  1.
       -1    1    3    3    0  502 -0.49117803946E+01  0.48852124469E+03  0.14859087360E+03  0.51064310417E+03  0.50400001928E-02 0. -1.
</event>
<event>
 5   0  0.1548000E-03  0.9982364E+03  0.7818609E-02  0.9310481E-01
       -3   -1    0    0    0  501  0.00000000000E+00  0.00000000000E+00  0.59781217123E+03  0.59781217976E+03  0.10100000352E+00 0.  1.
        3   -1    0    0  501    0  0.00000000000E+00  0.00000000000E+00 -0.41671777912E+03  0.41671779136E+03  0.10100000352E+00 0. -1.
    10030    2    1    2    0    0  0.00000000000E+00  0.00000000000E+00  0.18109439211E+03  0.10145299711E+04  0.99823638657E+03 0.  0.
        2    1    3    3  502    0  0.99316496948E+01 -0.27699028151E+02  0.59692985258E+03  0.59765468520E+03  0.25500000920E-02 0.  1.
       -2    1    3    3    0  502 -0.99316496948E+01  0.27699028151E+02 -0.41583546047E+03  0.41687528593E+03  0.25500000920E-02 0. -1.
</event>
<event>
 5   0  0.2405022E-03  0.1000539E+04  0.7818609E-02  0.9307954E-01
        1   -1    0    0  501    0  0.00000000000E+00  0.00000000000E+00  0.49792372555E+03  0.49792372557E+03  0.50400001928E-02 0.  1.
       -1   -1    0    0    0  501  0.00000000000E+00  0.00000000000E+00 -0.50262635296E+03  0.50262635298E+03  0.50400001928E-02 0. -1.
    10030    2    1    2    0    0  0.00000000000E+00  0.00000000000E+00 -0.47026274102E+01  0.10005500786E+04  0.10005390272E+04 0.  0.
        4    1    3    3  502    0  0.15116745670E+03  0.76108010113E+02  0.46842340954E+03  0.49806237830E+03  0.12699999809E+01 0.  1.
       -4    1    3    3    0  502 -0.15116745670E+03 -0.76108010113E+02 -0.47312603695E+03  0.50248770026E+03  0.12699999809E+01 0. -1.
</event>
<event>
 5   0  0.3826483E-03  0.9968740E+03  0.7818609E-02  0.9311980E-01
        2   -1    0    0  501    0  0.00000000000E+00  0.00000000000E+00  0.83380445069E+03  0.83380445069E+03  0.25500000920E-02 0.  1.
       -2   -1    0    0    0  501  0.00000000000E+00  0.00000000000E+00 -0.29795890411E+03  0.29795890412E+03  0.25500000920E-02 0. -1.
    10030    2    1    2    0    0  0.00000000000E+00  0.00000000000E+00  0.53584554657E+03  0.11317633548E+04  0.99687403492E+03 0.  0.
        4    1    3    3  502    0  0.36202587808E+03  0.38460842230E+02  0.65442262565E+03  0.74887419413E+03  0.12699999809E+01 0.  1.
       -4    1    3    3    0  502 -0.36202587808E+03 -0.38460842230E+02 -0.11857707907E+03  0.38288916068E+03  0.12699999809E+01 0. -1.
</event>
<event>
 5   0  0.1548000E-03  0.1001387E+04  0.7818609E-02  0.9307025E-01
        3   -1    0    0  501    0  0.00000000000E+00  0.00000000000E+00  0.60361257557E+03  0.60361258402E+03  0.10100000352E+00 0.  1.
       -3   -1    0    0    0  501  0.00000000000E+00  0.00000000000E+00 -0.41532290132E+03  0.41532291360E+03  0.10100000352E+00 0. -1.
    10030    2    1    2    0    0  0.00000000000E+00  0.00000000000E+00  0.18828967425E+03  0.10189354976E+04  0.10013873111E+04 0.  0.
        3    1    3    3  502    0 -0.37322131316E+03 -0.40983738161E+02 -0.24290034509E+03  0.44718497653E+03  0.10100000352E+00 0. -1.
       -3    1    3    3    0  502  0.37322131316E+03  0.40983738161E+02  0.43119001934E+03  0.57175052109E+03  0.10100000352E+00 0.  1.
</event>
<event>
 5   0  0.3826483E-03  0.9958377E+03  0.7818609E-02  0.9313122E-01
       -2   -1    0    0    0  501  0.00000000000E+00  0.00000000000E+00  0.45690060248E+03  0.45690060249E+03  0.25500000920E-02 0.  1.
        2   -1    0    0  501    0  0.00000000000E+00  0.00000000000E+00 -0.54261952799E+03  0.54261952800E+03  0.25500000920E-02 0. -1.
    10030    2    1    2    0    0  0.00000000000E+00  0.00000000000E+00 -0.85718925510E+02  0.99952013049E+03  0.99583771623E+03 0.  0.
        4    1    3    3  502    0 -0.25917979763E+03  0.39522401046E+03 -0.20010848251E+03  0.51324575362E+03  0.12699999809E+01 0. -1.
       -4    1    3    3    0  502  0.25917979763E+03 -0.39522401046E+03  0.11438955700E+03  0.48627437686E+03  0.12699999809E+01 0.  1.
</event>
<event>
 5   0  0.2378609E-03  0.9905050E+03  0.7818609E-02  0.9319021E-01
       -1   -1    0    0    0  501  0.00000000000E+00  0.00000000000E+00  0.27722738572E+03  0.27722738577E+03  0.50400001928E-02 0. -1.
        1   -1    0    0  501    0  0.00000000000E+00  0.00000000000E+00 -0.88474311332E+03  0.88474311333E+03  0.50400001928E-02 0.  1.
    10030    2    1    2    0    0  0.00000000000E+00  0.00000000000E+00 -0.60751572760E+03  0.11619704991E+04  0.99050496289E+03 0.  0.
        1    1    3    3  502    0  0.27743091024E+03  0.32241578312E+03 -0.60135598003E+03  0.73657916201E+03  0.50400001928E-02 0.  1.
       -1    1    3    3    0  502 -0.27743091024E+03 -0.32241578312E+03 -0.61597475651E+01  0.42539133709E+03  0.50400001928E-02 0. -1.
</event>
<event>
 5   0  0.2405022E-03  0.1016319E+04  0.7818609E-02  0.9290825E-01
        1   -1    0    0  501    0  0.00000000000E+00  0.00000000000E+00  0.98842603523E+03  0.98842603525E+03  0.50400001928E-02 0. -1.
       -1   -1    0    0    0  501  0.00000000000E+00  0.00000000000E+00 -0.26124985886E+03  0.26124985891E+03  0.50400001928E-02 0.  1.
    10030    2    1    2    0    0  0.00000000000E+00  0.00000000000E+00  0.72717617637E+03  0.12496758942E+04  0.10163191669E+04 0.  0.
        4    1    3    3  502    0 -0.19766632441E+03  0.31965428861E+03  0.78413205546E+03  0.86954904021E+03  0.12699999809E+01 0. -1.
       -4    1    3    3    0  502  0.19766632441E+03 -0.31965428861E+03 -0.56955879084E+02  0.38012685395E+03  0.12699999809E+01 0.  1.
</event>
<event>
 5   0  0.3826483E-03  0.9777796E+03  0.7818609E-02  0.9333257E-01
        2   -1    0    0  501    0  0.00000000000E+00  0.00000000000E+00  0.45501666966E+03  0.45501666967E+03  0.25500000920E-02 0. -1.
       -2   -1    0    0    0  501  0.00000000000E+00  0.00000000000E+00 -0.52528455795E+03  0.52528455796E+03  0.25500000920E-02 0.  1.
    10030    2    1    2    0    0  0.00000000000E+00  0.00000000000E+00 -0.70267888292E+02  0.98030122763E+03  0.97777958700E+03 0.  0.
        4    1    3    3  502    0  0.31695159158E+03 -0.37059359969E+03 -0.70061839981E+02  0.49265424169E+03  0.12699999809E+01 0. -1.
       -4    1    3    3    0  502 -0.31695159158E+03  0.37059359969E+03 -0.20604831040E+00  0.48764698593E+03  0.12699999809E+01 0.  1.
</event>
<event>
 5   0  0.3826483E-03  0.1000603E+04  0.7818609E-02  0.9307884E-01
       -2   -1    0    0    0  501  0.00000000000E+00  0.00000000000E+00  0.27816645312E+03  0.27816645313E+03  0.25500000920E-02 0. -1.
        2   -1    0    0  501    0  0.00000000000E+00  0.00000000000E+00 -0.89982676419E+03  0.89982676419E+03  0.25500000920E-02 0.  1.
    10030    2    1    2    0    0  0.00000000000E+00  0.00000000000E+00 -0.62166031107E+03  0.11779932173E+04  0.10006030570E+04 0.  0.
        4    1    3    3  502    0  0.31670300475E+03  0.35745265691E+03 -0.13531301032E+03  0.49637125099E+03  0.12699999809E+01 0. -1.
       -4    1    3    3    0  502 -0.31670300475E+03 -0.35745265691E+03 -0.48634730075E+03  0.68162196634E+03  0.12699999809E+01 0.  1.
</event>
<event>
 5   0  0.3873874E-03  0.1008024E+04  0.7818609E-02  0.9299788E-01
       -2   -1    0    0    0  501  0.00000000000E+00  0.00000000000E+00  0.61453404754E+03  0.61453404754E+03  0.25500000920E-02 0. -1.
        2   -1    0    0  501    0  0.00000000000E+00  0.00000000000E+00 -0.41336713791E+03  0.41336713791E+03  0.25500000920E-02 0.  1.
    10030    2    1    2    0    0  0.00000000000E+00  0.00000000000E+00  0.20116690963E+03  0.10279011855E+04  0.10080241671E+04 0.  0.
        5    1    3    3  502    0  0.23494580393E+03  0.33840115056E+03 -0.19547099614E+03  0.45601082204E+03  0.46999998093E+01 0.  1.
       -5    1    3    3    0  502 -0.23494580393E+03 -0.33840115056E+03  0.39663790577E+03  0.57189036342E+03  0.46999998093E+01 0. -1.
</event>
<event>
 5   0  0.4026829E-03  0.1035200E+04  0.7818609E-02  0.9270759E-01
       -2   -1    0    0    0  501  0.00000000000E+00  0.00000000000E+00  0.17672128837E+03  0.17672128839E+03  0.25500000920E-02 0.  1.
        2   -1    0    0  501    0  0.00000000000E+00  0.00000000000E+00 -0.15160019946E+04  0.15160019946E+04  0.25500000920E-02 0. -1.
    10030    2    1    2    0    0  0.00000000000E+00  0.00000000000E+00 -0.13392807063E+04  0.16927232830E+04  0.10352001269E+04 0.  0.
        1    1    3    3  502    0 -0.43234664719E+03 -0.28392182101E+03 -0.63799232745E+03  0.82132176015E+03  0.50400001928E-02 0.  1.
       -1    1    3    3    0  502  0.43234664719E+03  0.28392182101E+03 -0.70128837882E+03  0.87140152288E+03  0.50400001928E-02 0. -1.
</event>
<event>
 5   0  0.2327595E-03  0.1007636E+04  0.7818609E-02  0.9300209E-01
       -1   -1    0    0    0  501  0.00000000000E+00  0.00000000000E+00  0.25823545415E+03  0.25823545420E+03  0.50400001928E-02 0.  1.
        1   -1    0    0  501    0  0.00000000000E+00  0.00000000000E+00 -0.98295051627E+03  0.98295051629E+03  0.50400001928E-02 0. -1.
    10030    2    1    2    0    0  0.00000000000E+00  0.00000000000E+00 -0.72471506213E+03  0.12411859705E+04  0.10076361903E+04 0.  0.
        5    1    3    3  502    0  0.27962808053E+03 -0.10337087223E+03  0.13789249517E+03  0.32850240618E+03  0.46999998093E+01 0.  1.
       -5    1    3    3    0  502 -0.27962808053E+03  0.10337087223E+03 -0.86260755729E+03  0.91268356430E+03  0.46999998093E+01 0. -1.
</event>
<event>
 5   0  0.3873874E-03  0.1008325E+04  0.7818609E-02  0.9299461E-01
        2   -1    0    0  501    0  0.00000000000E+00  0.00000000000E+00  0.12790108844E+04  0.12790108844E+04  0.25500000920E-02 0.  1.
       -2   -1    0    0    0  501  0.00000000000E+00  0.00000000000E+00 -0.19873161172E+03  0.19873161173E+03  0.25500000920E-02 0. -1.
    10030    2    1    2    0    0  0.00000000000E+00  0.00000000000E+00  0.10802792727E+04  0.14777424961E+04  0.10083251350E+04 0.  0.
        5    1    3    3  502    0  0.10769603362E+03  0.28933510735E+03  0.11242357931E+04  0.11658651073E+04  0.46999998093E+01 0.  1.
       -5    1    3    3    0  502 -0.10769603362E+03 -0.28933510735E+03 -0.43956520364E+02  0.31187738886E+03  0.46999998093E+01 0. -1.
</event>
<event>
 5   0  0.1548000E-03  0.1002284E+04  0.7818609E-02  0.9306044E-01
       -4   -1    0    0    0  501  0.00000000000E+00  0.00000000000E+00  0.10194567294E+04  0.10194575205E+04  0.12699999809E+01 0.  1.
        4   -1    0    0  501    0  0.00000000000E+00  0.00000000000E+00 -0.24634749145E+03  0.24635076506E+03  0.12699999809E+01 0. -1.
    10030    2    1    2    0    0  0.00000000000E+00  0.00000000000E+00  0.77310923799E+03  0.12658082856E+04  0.10022837532E+04 0.  0.
        3    1    3    3  502    0  0.26407637491E+03 -0.99729608361E+02 -0.13639484443E+03  0.31350580594E+03  0.10100000352E+00 0. -1.
       -3    1    3    3    0  502 -0.26407637491E+03  0.99729608361E+02  0.90950408242E+03  0.95230247963E+03  0.10100000352E+00 0.  1.
</event>
<event>
 5   0  0.3873874E-03  0.9960979E+03  0.7818609E-02  0.9312835E-01
        2   -1    0    0  501    0  0.00000000000E+00  0.00000000000E+00  0.11438559470E+04  0.11438559470E+04  0.25500000920E-02 0. -1.
       -2   -1    0    0    0  501  0.00000000000E+00  0.00000000000E+00 -0.21685662015E+03  0.21685662016E+03  0.25500000920E-02 0.  1.
    10030    2    1    2    0    0  0.00000000000E+00  0.00000000000E+00  0.92699932685E+03  0.13607125672E+04  0.99609785586E+03 0.  0.
        5    1    3    3  502    0 -0.23670138842E+03  0.57120924063E+02 -0.12996751863E+03  0.27605070756E+03  0.46999998093E+01 0.  1.
       -5    1    3    3    0  502  0.23670138842E+03 -0.57120924063E+02  0.10569668455E+04  0.10846618596E+04  0.46999998093E+01 0. -1.
</event>
<event>
 5   0  0.2313036E-03  0.9975188E+03  0.7818609E-02  0.9311270E-01
        1   -1    0    0  501    0  0.00000000000E+00  0.00000000000E+00  0.99131005930E+02  0.99131006058E+02  0.50400001928E-02 0. -1.
       -1   -1    0    0    0  501  0.00000000000E+00  0.00000000000E+00 -0.25094161350E+04  0.25094161350E+04  0.50400001928E-02 0.  1.
    10030    2    1    2    0    0  0.00000000000E+00  0.00000000000E+00 -0.24102851291E+04  0.26085471411E+04  0.99751881373E+03 0.  0.
        3    1    3    3  502    0  0.17692680803E+03  0.46488912347E+03 -0.13007235699E+04  0.13925899640E+04  0.10100000352E+00 0. -1.
       -3    1    3    3    0  502 -0.17692680803E+03 -0.46488912347E+03 -0.11095615592E+04  0.12159571771E+04  0.10100000352E+00 0.  1.
</event>
<event>
 5   0  0.2350769E-03  0.9992905E+03  0.7818609E-02  0.9309323E-01
       -1   -1    0    0    0  501  0.00000000000E+00  0.00000000000E+00  0.16905856780E+03  0.16905856787E+03  0.50400001928E-02 0.  1.
        1   -1    0    0  501    0  0.00000000000E+00  0.00000000000E+00 -0.14766798327E+04  0.14766798327E+04  0.50400001928E-02 0. -1.
    10030    2    1    2    0    0  0.00000000000E+00  0.00000000000E+00 -0.13076212649E+04  0.16457384006E+04  0.99929050368E+03 0.  0.
        2    1    3    3  502    0  0.20661685188E+03  0.43647067696E+03 -0.86502733715E+03  0.99069140974E+03  0.25500000920E-02 0. -1.
       -2    1    3    3    0  502 -0.20661685188E+03 -0.43647067696E+03 -0.44259392778E+03  0.65504699086E+03  0.25500000920E-02 0.  1.
</event>
<event>
 5   0  0.2313036E-03  0.9455625E+03  0.7818609E-02  0.9370352E-01
       -1   -1    0    0    0  501  0.00000000000E+00  0.00000000000E+00  0.23755480704E+03  0.23755480710E+03  0.50400001928E-02 0. -1.
        1   -1    0    0  501    0  0.00000000000E+00  0.00000000000E+00 -0.94092858542E+03  0.94092858543E+03  0.50400001928E-02 0.  1.
    10030    2    1    2    0    0  0.00000000000E+00  0.00000000000E+00 -0.70337377837E+03  0.11784833925E+04  0.94556249627E+03 0.  0.
        3    1    3    3  502    0 -0.36986220099E+03  0.26257397645E+03 -0.51786980504E+03  0.68842740067E+03  0.10100000352E+00 0.  1.
       -3    1    3    3    0  502  0.36986220099E+03 -0.26257397645E+03 -0.18550397334E+03  0.49005599185E+03  0.10100000352E+00 0. -1.
</event>
<event>
 5   0  0.2313036E-03  0.9997781E+03  0.7818609E-02  0.9308788E-01
        1   -1    0    0  501    0  0.00000000000E+00  0.00000000000E+00  0.12558997544E+04  0.12558997544E+04  0.50400001928E-02 0. -1.
       -1   -1    0    0    0  501  0.00000000000E+00  0.00000000000E+00 -0.19897215423E+03  0.19897215429E+03  0.50400001928E-02 0.  1.
    10030    2    1    2    0    0  0.00000000000E+00  0.00000000000E+00  0.10569276001E+04  0.14548719087E+04  0.99977813474E+03 0.  0.
        3    1    3    3  502    0 -0.45061052486E+03 -0.75883495908E+01  0.84320880849E+03  0.95609023271E+03  0.10100000352E+00 0. -1.
       -3    1    3    3    0  502  0.45061052486E+03  0.75883495908E+01  0.21371879163E+03  0.49878167595E+03  0.10100000352E+00 0.  1.
</event>
<event>
 5   0  0.3895011E-03  0.9812685E+03  0.7818609E-02  0.9329331E-01
        2   -1    0    0  501    0  0.00000000000E+00  0.00000000000E+00  0.62443764873E+03  0.62443764873E+03  0.25500000920E-02 0.  1.
       -2   -1    0    0    0  501  0.00000000000E+00  0.00000000000E+00 -0.38550203965E+03  0.38550203965E+03  0.25500000920E-02 0. -1.
    10030    2    1    2    0    0  0.00000000000E+00  0.00000000000E+00  0.23893560908E+03  0.10099396884E+04  0.98126854066E+03 0.  0.
        2    1    3    3  502    0  0.13022546549E+03  0.37170109251E+03 -0.18165839170E+03  0.43372819290E+03  0.25500000920E-02 0. -1.
       -2    1    3    3    0  502 -0.13022546549E+03 -0.37170109251E+03  0.42059400078E+03  0.57621149549E+03  0.25500000920E-02 0.  1.
</event>
<event>
 5   0  0.2327595E-03  0.9961644E+03  0.7818609E-02  0.9312762E-01
       -1   -1    0    0    0  501  0.00000000000E+00  0.00000000000E+00  0.37509018530E+03  0.37509018533E+03  0.50400001928E-02 0. -1.
        1   -1    0    0  501    0  0.00000000000E+00  0.00000000000E+00 -0.66140329180E+03  0.66140329182E+03  0.50400001928E-02 0.  1.
    10030    2    1    2    0    0  0.00000000000E+00  0.00000000000E+00 -0.28631310650E+03  0.10364934772E+04  0.99616441074E+03 0.  0.
        5    1    3    3  502    0  0.58343638019E+02  0.43163401780E+02  0.36953595533E+03  0.37662444375E+03  0.46999998093E+01 0. -1.
       -5    1    3    3    0  502 -0.58343638019E+02 -0.43163401780E+02 -0.65584906183E+03  0.65986903341E+03  0.46999998093E+01 0.  1.
</event>
<event>
 5   0  0.2350769E-03  0.9894896E+03  0.7818609E-02  0.9320148E-01
       -1   -1    0    0    0  501  0.00000000000E+00  0.00000000000E+00  0.28144594719E+03  0.28144594724E+03  0.50400001928E-02 0.  1.
        1   -1    0    0  501    0  0.00000000000E+00  0.00000000000E+00 -0.86969596023E+03  0.86969596024E+03  0.50400001928E-02 0. -1.
    10030    2    1    2    0    0  0.00000000000E+00  0.00000000000E+00 -0.58825001303E+03  0.11511419075E+04  0.98948957211E+03 0.  0.
        2    1    3    3  502    0 -0.13827759847E+03  0.35440906196E+03 -0.66209918718E+03  0.76361103391E+03  0.25500000920E-02 0. -1.
       -2    1    3    3    0  502  0.13827759847E+03 -0.35440906196E+03  0.73849174143E+02  0.38753087357E+03  0.25500000920E-02 0.  1.
</event>
<event>
 5   0  0.2313036E-03  0.9337257E+03  0.7818609E-02  0.9384378E-01
        1   -1    0    0  501    0  0.00000000000E+00  0.00000000000E+00  0.94298932661E+03  0.94298932662E+03  0.50400001928E-02 0. -1.
       -1   -1    0    0    0  501  0.00000000000E+00  0.00000000000E+00 -0.23113825289E+03  0.23113825294E+03  0.50400001928E-02 0.  1.
    10030    2    1    2    0    0  0.00000000000E+00  0.00000000000E+00  0.71185107372E+03  0.11741275796E+04  0.93372566739E+03 0.  0.
        3    1    3    3  502    0  0.10556790041E+03 -0.27360806353E+03 -0.10085629405E+03  0.31012571044E+03  0.10100000352E+00 0.  1.
       -3    1    3    3    0  502 -0.10556790041E+03  0.27360806353E+03  0.81270736777E+03  0.86400186913E+03  0.10100000352E+00 0. -1.
</event>
<event>
 5   0  0.4026829E-03  0.9973172E+03  0.7818609E-02  0.9311492E-01
        2   -1    0    0  501    0  0.00000000000E+00  0.00000000000E+00  0.11484019885E+04  0.11484019885E+04  0.25500000920E-02 0.  1.
       -2   -1    0    0    0  501  0.00000000000E+00  0.00000000000E+00 -0.21652731842E+03  0.21652731844E+03  0.25500000920E-02 0. -1.
    10030    2    1    2    0    0  0.00000000000E+00  0.00000000000E+00  0.93187467009E+03  0.13649293070E+04  0.99731720742E+03 0.  0.
        1    1    3    3  502    0 -0.48594119706E+03  0.77814685254E+02  0.57599217924E+03  0.75760211378E+03  0.50400001928E-02 0. -1.
       -1    1    3    3    0  502  0.48594119706E+03 -0.77814685254E+02  0.35588249086E+03  0.60732719317E+03  0.50400001928E-02 0.  1.
</event>
<event>
 5   0  0.3895011E-03  0.1052416E+04  0.7818609E-02  0.9252853E-01
        2   -1    0    0  501    0  0.00000000000E+00  0.00000000000E+00  0.30163868828E+03  0.30163868829E+03  0.25500000920E-02 0.  1.
       -2   -1    0    0    0  501  0.00000000000E+00  0.00000000000E+00 -0.91796878781E+03  0.91796878781E+03  0.25500000920E-02 0. -1.
    10030    2    1    2    0    0  0.00000000000E+00  0.00000000000E+00 -0.61633009953E+03  0.12196074761E+04  0.10524160794E+04 0.  0.
        2    1    3    3  502    0 -0.31160833088E+03  0.28767698317E+03 -0.66916032111E+03  0.79223313101E+03  0.25500000920E-02 0. -1.
       -2    1    3    3    0  502  0.31160833088E+03 -0.28767698317E+03  0.52830221584E+02  0.42737434509E+03  0.25500000920E-02 0.  1.
</event>
<event>
 5   0  0.2313036E-03  0.1000492E+04  0.7818609E-02  0.9308005E-01
        1   -1    0    0  501    0  0.00000000000E+00  0.00000000000E+00  0.13177167253E+04  0.13177167253E+04  0.50400001928E-02 0. -1.
       -1   -1    0    0    0  501  0.00000000000E+00  0.00000000000E+00 -0.18990888904E+03  0.18990888911E+03  0.50400001928E-02 0.  1.
    10030    2    1    2    0    0  0.00000000000E+00  0.00000000000E+00  0.11278078363E+04  0.15076256144E+04  0.10004921178E+04 0.  0.
        3    1    3    3  502    0  0.23398168375E+03  0.22101201937E+03  0.11409684423E+04  0.11854968315E+04  0.10100000352E+00 0. -1.
       -3    1    3    3    0  502 -0.23398168375E+03 -0.22101201937E+03 -0.13160606016E+02  0.32212878292E+03  0.10100000352E+00 0.  1.
</event>
<event>
 5   0  0.4026829E-03  0.1006861E+04  0.7818609E-02  0.9301052E-01
       -2   -1    0    0    0  501  0.00000000000E+00  0.00000000000E+00  0.18217789201E+03  0.18217789203E+03  0.25500000920E-02 0.  1.
        2   -1    0    0  501    0  0.00000000000E+00  0.00000000000E+00 -0.13911804816E+04  0.13911804816E+04  0.25500000920E-02 0. -1.
    10030    2    1    2    0    0  0.00000000000E+00  0.00000000000E+00 -0.12090025896E+04  0.15733583737E+04  0.10068611177E+04 0.  0.
        1    1    3    3  502    0 -0.32581811060E+03  0.93644586026E+02 -0.11860785254E+04  0.12335757043E+04  0.50400001928E-02 0. -1.
       -1    1    3    3    0  502  0.32581811060E+03 -0.93644586026E+02 -0.22924064224E+02  0.33978266942E+03  0.50400001928E-02 0.  1.
</event>
<event>
 5   0  0.2378609E-03  0.1000782E+04  0.7818609E-02  0.9307688E-01
        1   -1    0    0  501    0  0.00000000000E+00  0.00000000000E+00  0.15968714768E+04  0.15968714768E+04  0.50400001928E-02 0. -1.
       -1   -1    0    0    0  501  0.00000000000E+00  0.00000000000E+00 -0.15680094256E+03  0.15680094264E+03  0.50400001928E-02 0.  1.
    10030    2    1    2    0    0  0.00000000000E+00  0.00000000000E+00  0.14400705342E+04  0.17536724194E+04  0.10007816001E+04 0.  0.
        1    1    3    3  502    0  0.43358851334E+03 -0.28433014272E+02  0.11548872006E+04  0.12339253954E+04  0.50400001928E-02 0. -1.
       -1    1    3    3    0  502 -0.43358851334E+03  0.28433014272E+02  0.28518333359E+03  0.51974702403E+03  0.50400001928E-02 0.  1.
</event>
<event>
 5   0  0.2313036E-03  0.9956618E+03  0.7818609E-02  0.9313316E-01
       -1   -1    0    0    0  501  0.00000000000E+00  0.00000000000E+00  0.26129874050E+03  0.26129874055E+03  0.50400001928E-02 0. -1.
        1   -1    0    0  501    0  0.00000000000E+00  0.00000000000E+00 -0.94847612173E+03  0.94847612174E+03  0.50400001928E-02 0.  1.
    10030    2    1    2    0    0  0.00000000000E+00  0.00000000000E+00 -0.68717738123E+03  0.12097748623E+04  0.99566182219E+03 0.  0.
        3    1    3    3  502    0 -0.49409114787E+03  0.33663495411E+02 -0.40526125017E+03  0.63991873266E+03  0.10100000352E+00 0. -1.
       -3    1    3    3    0  502  0.49409114787E+03 -0.33663495411E+02 -0.28191613106E+03  0.56985612963E+03  0.10100000352E+00 0.  1.
</event>
<event>
 5   0  0.3826483E-03  0.1011269E+04  0.7818609E-02  0.9296270E-01
        2   -1    0    0  501    0  0.00000000000E+00  0.00000000000E+00  0.12868094864E+04  0.12868094864E+04  0.25500000920E-02 0.  1.
       -2   -1    0    0    0  501  0.00000000000E+00  0.00000000000E+00 -0.19868241640E+03  0.19868241642E+03  0.25500000920E-02 0. -1.
    10030    2    1    2    0    0  0.00000000000E+00  0.00000000000E+00  0.10881270700E+04  0.14854919029E+04  0.10112693375E+04 0.  0.
        4    1    3    3  502    0 -0.14604199327E+03  0.84087120496E+02 -0.15621463146E+03  0.22979019042E+03  0.12699999809E+01 0. -1.
       -4    1    3    3    0  502  0.14604199327E+03 -0.84087120496E+02  0.12443417015E+04  0.12557017124E+04  0.12699999809E+01 0.  1.
</event>
<event>
 5   0  0.3873874E-03  0.9978071E+03  0.7818609E-02  0.9310953E-01
       -2   -1    0    0    0  501  0.00000000000E+00  0.00000000000E+00  0.35266695142E+03  0.35266695143E+03  0.25500000920E-02 0. -1.
        2   -1    0    0  501    0  0.00000000000E+00  0.00000000000E+00 -0.70577853476E+03  0.70577853477E+03  0.25500000920E-02 0.  1.
    10030    2    1    2    0    0  0.00000000000E+00  0.00000000000E+00 -0.35311158334E+03  0.10584454862E+04  0.99780712413E+03 0.  0.
        5    1    3    3  502    0  0.25705468316E+03  0.42752517379E+03 -0.17096381620E+03  0.52735718522E+03  0.46999998093E+01 0. -1.
       -5    1    3    3    0  502 -0.25705468316E+03 -0.42752517379E+03 -0.18214776714E+03  0.53108830097E+03  0.46999998093E+01 0.  1.
</event>
<event>
 5   0  0.1548000E-03  0.1008543E+04  0.7818609E-02  0.9299224E-01
       -3   -1    0    0    0  501  0.00000000000E+00  0.00000000000E+00  0.57725283934E+03  0.57725284818E+03  0.10100000352E+00 0. -1.
        3   -1    0    0  501    0  0.00000000000E+00  0.00000000000E+00 -0.44051734199E+03  0.44051735357E+03  0.10100000352E+00 0.  1.
    10030    2    1    2    0    0  0.00000000000E+00  0.00000000000E+00  0.13673549735E+03  0.10177702017E+04  0.10085432997E+04 0.  0.
        4    1    3    3  502    0 -0.42765359585E+03  0.11651305522E+03  0.31103685050E+03  0.54148723471E+03  0.12699999809E+01 0. -1.
       -4    1    3    3    0  502  0.42765359585E+03 -0.11651305522E+03 -0.17430135315E+03  0.47628296704E+03  0.12699999809E+01 0.  1.
</event>
<event>
 5   0  0.4026829E-03  0.1001294E+04  0.7818609E-02  0.9307126E-01
        2   -1    0    0  501    0  0.00000000000E+00  0.00000000000E+00  0.92382326492E+03  0.92382326493E+03  0.25500000920E-02 0. -1.
       -2   -1    0    0    0  501  0.00000000000E+00  0.00000000000E+00 -0.27131558818E+03  0.27131558819E+03  0.25500000920E-02 0.  1.
    10030    2    1    2    0    0  0.00000000000E+00  0.00000000000E+00  0.65250767674E+03  0.11951388531E+04  0.10012944672E+04 0.  0.
        1    1    3    3  502    0  0.49989774730E+03  0.25356800060E+02  0.33859627997E+03  0.60430800583E+03  0.50400001928E-02 0. -1.
       -1    1    3    3    0  502 -0.49989774730E+03 -0.25356800060E+02  0.31391139677E+03  0.59083084730E+03  0.50400001928E-02 0.  1.
</event>
<event>
 5   0  0.3873874E-03  0.1056822E+04  0.7818609E-02  0.9248329E-01
        2   -1    0    0  501    0  0.00000000000E+00  0.00000000000E+00  0.27075924410E+03  0.27075924411E+03  0.25500000920E-02 0. -1.
       -2   -1    0    0    0  501  0.00000000000E+00  0.00000000000E+00 -0.10312412455E+04  0.10312412455E+04  0.25500000920E-02 0.  1.
    10030    2    1    2    0    0  0.00000000000E+00  0.00000000000E+00 -0.76048200138E+03  0.13020004896E+04  0.10568218395E+04 0.  0.
        5    1    3    3  502    0 -0.31618887864E+03  0.42129608615E+03 -0.32899512783E+03  0.62106817928E+03  0.46999998093E+01 0.  1.
       -5    1    3    3    0  502  0.31618887864E+03 -0.42129608615E+03 -0.43148687355E+03  0.68093231031E+03  0.46999998093E+01 0. -1.
</event>
<event>
 5   0  0.3826483E-03  0.9991005E+03  0.7818609E-02  0.9309532E-01
        2   -1    0    0  501    0  0.00000000000E+00  0.00000000000E+00  0.14888380766E+04  0.14888380766E+04  0.25500000920E-02 0.  1.
       -2   -1    0    0    0  501  0.00000000000E+00  0.00000000000E+00 -0.16761423317E+03  0.16761423319E+03  0.25500000920E-02 0. -1.
    10030    2    1    2    0    0  0.00000000000E+00  0.00000000000E+00  0.13212238435E+04  0.16564523098E+04  0.99910050055E+03 0.  0.
        4    1    3    3  502    0 -0.22857456740E+03 -0.39583280287E+03  0.99475604988E+03  0.10947470723E+04  0.12699999809E+01 0.  1.
       -4    1    3    3    0  502  0.22857456740E+03  0.39583280287E+03  0.32646779359E+03  0.56170523750E+03  0.12699999809E+01 0. -1.
</event>
<event>
 5   0  0.2313036E-03  0.1021102E+04  0.7818609E-02  0.9285698E-01
       -1   -1    0    0    0  501  0.00000000000E+00  0.00000000000E+00  0.15087184428E+03  0.15087184437E+03  0.50400001928E-02 0. -1.
        1   -1    0    0  501    0  0.00000000000E+00  0.00000000000E+00 -0.17277075424E+04  0.17277075424E+04  0.50400001928E-02 0.  1.
    10030    2    1    2    0    0  0.00000000000E+00  0.00000000000E+00 -0.15768356981E+04  0.18785793868E+04  0.10211021955E+04 0.  0.
        3    1    3    3  502    0 -0.36480599676E+02  0.28305098433E+03 -0.95819359618E+01  0.28555300311E+03  0.10100000352E+00 0. -1.
       -3    1    3    3    0  502  0.36480599676E+02 -0.28305098433E+03 -0.15672537622E+04  0.15930263837E+04  0.10100000352E+00 0.  1.
</event>
<event>
 5   0  0.2313036E-03  0.9989795E+03  0.7818609E-02  0.9309665E-01
       -1   -1    0    0    0  501  0.00000000000E+00  0.00000000000E+00  0.40162227676E+03  0.40162227679E+03  0.50400001928E-02 0. -1.
        1   -1    0    0  501    0  0.00000000000E+00  0.00000000000E+00 -0.62120560269E+03  0.62120560271E+03  0.50400001928E-02 0.  1.
    10030    2    1    2    0    0  0.00000000000E+00  0.00000000000E+00 -0.21958332593E+03  0.10228278795E+04  0.99897949631E+03 0.  0.
        3    1    3    3  502    0  0.48716676666E+03 -0.98692286920E+02 -0.59440725567E+02  0.50060447071E+03  0.10100000352E+00 0.  1.
       -3    1    3    3    0  502 -0.48716676666E+03  0.98692286920E+02 -0.16014260036E+03  0.52222340879E+03  0.10100000352E+00 0. -1.
</event>
<event>
 5   0  0.4140860E-03  0.1011124E+04  0.7818609E-02  0.9296428E-01
       -2   -1    0    0    0  501  0.00000000000E+00  0.00000000000E+00  0.88875178921E+03  0.88875178922E+03  0.25500000920E-02 0. -1.
        2   -1    0    0  501    0  0.00000000000E+00  0.00000000000E+00 -0.28758643982E+03  0.28758643983E+03  0.25500000920E-02 0.  1.
    10030    2    1    2    0    0  0.00000000000E+00  0.00000000000E+00  0.60116534939E+03  0.11763382291E+04  0.10111240536E+04 0.  0.
        3    1    3    3  502    0 -0.12624512558E+03 -0.13787544981E+02 -0.26872732834E+03  0.29722435184E+03  0.10100000352E+00 0.  1.
       -3    1    3    3    0  502  0.12624512558E+03  0.13787544981E+02  0.86989267773E+03  0.87911387721E+03  0.10100000352E+00 0. -1.
</event>
<event>
 5   0  0.3826483E-03  0.9968943E+03  0.7818609E-02  0.9311958E-01
        2   -1    0    0  501    0  0.00000000000E+00  0.00000000000E+00  0.61318600412E+03  0.61318600412E+03  0.25500000920E-02 0.  1.
       -2   -1    0    0    0  501  0.00000000000E+00  0.00000000000E+00 -0.40517812014E+03  0.40517812015E+03  0.25500000920E-02 0. -1.
    10030    2    1    2    0    0  0.00000000000E+00  0.00000000000E+00  0.20800788398E+03  0.10183641243E+04  0.99689428216E+03 0.  0.
        4    1    3    3  502    0 -0.22174264545E+03 -0.28087919750E+03 -0.25043399664E+03  0.43678567281E+03  0.12699999809E+01 0. -1.
       -4    1    3    3    0  502  0.22174264545E+03  0.28087919750E+03  0.45844188062E+03  0.58157845146E+03  0.12699999809E+01 0.  1.
</event>
<event>
 5   0  0.2350769E-03  0.1001209E+04  0.7818609E-02  0.9307220E-01
       -1   -1    0    0    0  501  0.00000000000E+00  0.00000000000E+00  0.20133345972E+03  0.20133345978E+03  0.50400001928E-02 0.  1.
        1   -1    0    0  501    0  0.00000000000E+00  0.00000000000E+00 -0.12447254055E+04  0.12447254055E+04  0.50400001928E-02 0. -1.
    10030    2    1    2    0    0  0.00000000000E+00  0.00000000000E+00 -0.10433919457E+04  0.14460588653E+04  0.10012090138E+04 0.  0.
        2    1    3    3  502    0 -0.14184457359E+03  0.39546204542E+03 -0.91484297553E+03  0.10067014365E+04  0.25500000920E-02 0. -1.
       -2    1    3    3    0  502  0.14184457359E+03 -0.39546204542E+03 -0.12854897021E+03  0.43935742872E+03  0.25500000920E-02 0.  1.
</event>
<event>
 5   0  0.2378609E-03  0.9916458E+03  0.7818609E-02  0.9317755E-01
       -1   -1    0    0    0  501  0.00000000000E+00  0.00000000000E+00  0.30229155218E+03  0.30229155222E+03  0.50400001928E-02 0.  1.
        1   -1    0    0  501    0  0.00000000000E+00  0.00000000000E+00 -0.81325580156E+03  0.81325580157E+03  0.50400001928E-02 0. -1.
    10030    2    1    2    0    0  0.00000000000E+00  0.00000000000E+00 -0.51096424937E+03  0.11155473538E+04  0.99164582106E+03 0.  0.
        1    1    3    3  502    0 -0.40809135561E+03  0.28160364191E+03 -0.25425345170E+03  0.55721089669E+03  0.50400001928E-02 0. -1.
       -1    1    3    3    0  502  0.40809135561E+03 -0.28160364191E+03 -0.25671079767E+03  0.55833645710E+03  0.50400001928E-02 0.  1.
</event>
<event>
 5   0  0.2350769E-03  0.8999100E+03  0.7818609E-02  0.9425694E-01
       -1   -1    0    0    0  501  0.00000000000E+00  0.00000000000E+00  0.92617466916E+02  0.92617467054E+02  0.50400001928E-02 0. -1.
        1   -1    0    0  501    0  0.00000000000E+00  0.00000000000E+00 -0.21859754020E+04  0.21859754020E+04  0.50400001928E-02 0.  1.
    10030    2    1    2    0    0  0.00000000000E+00  0.00000000000E+00 -0.20933579351E+04  0.22785928691E+04  0.89991000581E+03 0.  0.
        2    1    3    3  502    0  0.17266121448E+02 -0.19953600411E+03 -0.26469198448E+02  0.20202315303E+03  0.25500000920E-02 0. -1.
       -2    1    3    3    0  502 -0.17266121448E+02  0.19953600411E+03 -0.20668887366E+04  0.20765697160E+04  0.25500000920E-02 0.  1.
</event>
<event>
 5   0  0.1548000E-03  0.9934605E+03  0.7818609E-02  0.9315746E-01
       -3   -1    0    0    0  501  0.00000000000E+00  0.00000000000E+00  0.30314663947E+03  0.30314665629E+03  0.10100000352E+00 0. -1.
        3   -1    0    0  501    0  0.00000000000E+00  0.00000000000E+00 -0.81393266032E+03  0.81393266658E+03  0.10100000352E+00 0.  1.
    10030    2    1    2    0    0  0.00000000000E+00  0.00000000000E+00 -0.51078602085E+03  0.11170793229E+04  0.99346054501E+03 0.  0.
        1    1    3    3  502    0  0.10511358435E+03  0.27125319558E+03 -0.70812729577E+03  0.76555302152E+03  0.50400001928E-02 0.  1.
       -1    1    3    3    0  502 -0.10511358435E+03 -0.27125319558E+03  0.19734127492E+03  0.35152630135E+03  0.50400001928E-02 0. -1.
</event>
<event>
 5   0  0.3826483E-03  0.1001288E+04  0.7818609E-02  0.9307133E-01
        2   -1    0    0  501    0  0.00000000000E+00  0.00000000000E+00  0.10098599402E+04  0.10098599402E+04  0.25500000920E-02 0. -1.
       -2   -1    0    0    0  501  0.00000000000E+00  0.00000000000E+00 -0.24819740870E+03  0.24819740872E+03  0.25500000920E-02 0.  1.
    10030    2    1    2    0    0  0.00000000000E+00  0.00000000000E+00  0.76166253147E+03  0.12580573489E+04  0.10012884106E+04 0.  0.
        4    1    3    3  502    0 -0.65582799497E+02  0.44232754725E+03  0.97956064521E+02  0.45776824499E+03  0.12699999809E+01 0. -1.
       -4    1    3    3    0  502  0.65582799497E+02 -0.44232754725E+03  0.66370646695E+03  0.80028910390E+03  0.12699999809E+01 0.  1.
</event>
<event>
 5   0  0.3826483E-03  0.1000329E+04  0.7818609E-02  0.9308184E-01
       -2   -1    0    0    0  501  0.00000000000E+00  0.00000000000E+00  0.26320037721E+03  0.26320037722E+03  0.25500000920E-02 0. -1.
        2   -1    0    0  501    0  0.00000000000E+00  0.00000000000E+00 -0.95047100410E+03  0.95047100411E+03  0.25500000920E-02 0.  1.
    10030    2    1    2    0    0  0.00000000000E+00  0.00000000000E+00 -0.68727062690E+03  0.12136713813E+04  0.10003285996E+04 0.  0.
        4    1    3    3  502    0 -0.40682467557E+03  0.76318447650E+02 -0.29845236598E+01  0.41393398312E+03  0.12699999809E+01 0. -1.
       -4    1    3    3    0  502  0.40682467557E+03 -0.76318447650E+02 -0.68428610324E+03  0.79973739820E+03  0.12699999809E+01 0.  1.
</event>
<event>
 5   0  0.3873874E-03  0.9978452E+03  0.7818609E-02  0.9310911E-01
       -2   -1    0    0    0  501  0.00000000000E+00  0.00000000000E+00  0.10051668413E+04  0.10051668413E+04  0.25500000920E-02 0. -1.
        2   -1    0    0  501    0  0.00000000000E+00  0.00000000000E+00 -0.24764421789E+03  0.24764421790E+03  0.25500000920E-02 0.  1.
    10030    2    1    2    0    0  0.00000000000E+00  0.00000000000E+00  0.75752262340E+03  0.12528110592E+04  0.99784519093E+03 0.  0.
        5    1    3    3  502    0 -0.32642728251E+03  0.37274034058E+03  0.30542868147E+03  0.58206434500E+03  0.46999998093E+01 0.  1.
       -5    1    3    3    0  502  0.32642728251E+03 -0.37274034058E+03  0.45209394193E+03  0.67074671418E+03  0.46999998093E+01 0. -1.
</event>
<event>
 5   0  0.2313036E-03  0.1008830E+04  0.7818609E-02  0.9298913E-01
        1   -1    0    0  501    0  0.00000000000E+00  0.00000000000E+00  0.59516142114E+03  0.59516142116E+03  0.50400001928E-02 0.  1.
       -1   -1    0    0    0  501  0.00000000000E+00  0.00000000000E+00 -0.42750469446E+03  0.42750469449E+03  0.50400001928E-02 0. -1.
    10030    2    1    2    0    0  0.00000000000E+00  0.00000000000E+00  0.16765672669E+03  0.10226661157E+04  0.10088296219E+04 0.  0.
        3    1    3    3  502    0  0.29410704683E+03 -0.23466039122E+03 -0.25674053924E+03  0.45549991097E+03  0.10100000352E+00 0. -1.
       -3    1    3    3    0  502 -0.29410704683E+03  0.23466039122E+03  0.42439726593E+03  0.56716620468E+03  0.10100000352E+00 0.  1.
</event>
<event>
 5   0  0.2350769E-03  0.9932040E+03  0.7818609E-02  0.9316030E-01
        1   -1    0    0  501    0  0.00000000000E+00  0.00000000000E+00  0.39040990947E+03  0.39040990950E+03  0.50400001928E-02 0.  1.
       -1   -1    0    0    0  501  0.00000000000E+00  0.00000000000E+00 -0.63167847899E+03  0.63167847901E+03  0.50400001928E-02 0. -1.
    10030    2    1    2    0    0  0.00000000000E+00  0.00000000000E+00 -0.24126856953E+03  0.10220883885E+04  0.99320398272E+03 0.  0.
        2    1    3    3  502    0 -0.18200978775E+03 -0.34849993548E+03 -0.43282760620E+03  0.58473883449E+03  0.25500000920E-02 0. -1.
       -2    1    3    3    0  502  0.18200978775E+03  0.34849993548E+03  0.19155903667E+03  0.43734955402E+03  0.25500000920E-02 0.  1.
</event>
<event>
 5   0  0.4026829E-03  0.9712133E+03  0.7818609E-02  0.9340693E-01
        2   -1    0    0  501    0  0.00000000000E+00  0.00000000000E+00  0.18284624223E+04  0.18284624223E+04  0.25500000920E-02 0. -1.
       -2   -1    0    0    0  501  0.00000000000E+00  0.00000000000E+00 -0.12896837353E+03  0.12896837356E+03  0.25500000920E-02 0.  1.
    10030    2    1    2    0    0  0.00000000000E+00  0.00000000000E+00  0.16994940488E+04  0.19574307959E+04  0.97121331271E+03 0.  0.
        1    1    3    3  502    0  0.16222915316E+03  0.42182309234E+02  0.17683058045E+04  0.17762328292E+04  0.50400001928E-02 0. -1.
       -1    1    3    3    0  502 -0.16222915316E+03 -0.42182309234E+02 -0.68811755766E+02  0.18119796661E+03  0.50400001928E-02 0.  1.
</event>
<event>
 5   0  0.2405022E-03  0.9918994E+03  0.7818609E-02  0.9317474E-01
        1   -1    0    0  501    0  0.00000000000E+00  0.00000000000E+00  0.34858202334E+03  0.34858202337E+03  0.50400001928E-02 0. -1.
       -1   -1    0    0    0  501  0.00000000000E+00  0.00000000000E+00 -0.70561900842E+03  0.70561900844E+03  0.50400001928E-02 0.  1.
    10030    2    1    2    0    0  0.00000000000E+00  0.00000000000E+00 -0.35703698508E+03  0.10542010318E+04  0.99189939346E+03 0.  0.
        4    1    3    3  502    0  0.30766047198E+03 -0.26043807400E+03 -0.48559812946E+03  0.63110229966E+03  0.12699999809E+01 0.  1.
       -4    1    3    3    0  502 -0.30766047198E+03  0.26043807400E+03  0.12856114438E+03  0.42309873215E+03  0.12699999809E+01 0. -1.
</event>
<event>
 5   0  0.3826483E-03  0.9999790E+03  0.7818609E-02  0.9308568E-01
        2   -1    0    0  501    0  0.00000000000E+00  0.00000000000E+00  0.87498294451E+03  0.87498294451E+03  0.25500000920E-02 0. -1.
       -2   -1    0    0    0  501  0.00000000000E+00  0.00000000000E+00 -0.28570783493E+03  0.28570783494E+03  0.25500000920E-02 0.  1.
    10030    2    1    2    0    0  0.00000000000E+00  0.00000000000E+00  0.58927510958E+03  0.11606907795E+04  0.99997896515E+03 0.  0.
        4    1    3    3  502    0 -0.88002172472E+02 -0.16162278331E+03  0.83424100767E+03  0.85429852992E+03  0.12699999809E+01 0. -1.
       -4    1    3    3    0  502  0.88002172472E+02  0.16162278331E+03 -0.24496589809E+03  0.30639224953E+03  0.12699999809E+01 0.  1.
</event>
<event>
 5   0  0.1548000E-03  0.9966995E+03  0.7818609E-02  0.9312172E-01
       -3   -1    0    0    0  501  0.00000000000E+00  0.00000000000E+00  0.54785449026E+03  0.54785449957E+03  0.10100000352E+00 0.  1.
        3   -1    0    0  501    0  0.00000000000E+00  0.00000000000E+00 -0.45331825883E+03  0.45331827008E+03  0.10100000352E+00 0. -1.
    10030    2    1    2    0    0  0.00000000000E+00  0.00000000000E+00  0.94536231430E+02  0.10011727696E+04  0.99669946104E+03 0.  0.
        4    1    3    3  502    0  0.22576329830E+03 -0.35975282847E+03 -0.21459266427E+03  0.47586005182E+03  0.12699999809E+01 0. -1.
       -4    1    3    3    0  502 -0.22576329830E+03  0.35975282847E+03  0.30912889570E+03  0.52531271783E+03  0.12699999809E+01 0.  1.
</event>
<event>
 5   0  0.3895011E-03  0.9963883E+03  0.7818609E-02  0.9312515E-01
        2   -1    0    0  501    0  0.00000000000E+00  0.00000000000E+00  0.48727495694E+03  0.48727495695E+03  0.25500000920E-02 0.  1.
       -2   -1    0    0    0  501  0.00000000000E+00  0.00000000000E+00 -0.50935806115E+03  0.50935806116E+03  0.25500000920E-02 0. -1.
    10030    2    1    2    0    0  0.00000000000E+00  0.00000000000E+00 -0.22083104208E+02  0.99663301810E+03  0.99638833257E+03 0.  0.
        2    1    3    3  502    0 -0.16954705589E+03 -0.46549645413E+03  0.41547726002E+02  0.49715125114E+03  0.25500000920E-02 0. -1.
       -2    1    3    3    0  502  0.16954705589E+03  0.46549645413E+03 -0.63630830210E+02  0.49948176696E+03  0.25500000920E-02 0.  1.
</event>
<event>
 5   0  0.2405022E-03  0.1013873E+04  0.7818609E-02  0.9293459E-01
        1   -1    0    0  501    0  0.00000000000E+00  0.00000000000E+00  0.69188511472E+03  0.69188511474E+03  0.50400001928E-02 0. -1.
       -1   -1    0    0    0  501  0.00000000000E+00  0.00000000000E+00 -0.37142651966E+03  0.37142651969E+03  0.50400001928E-02 0.  1.
    10030    2    1    2    0    0  0.00000000000E+00  0.00000000000E+00  0.32045859506E+03  0.10633116344E+04  0.10138727340E+04 0.  0.
        4    1    3    3  502    0  0.33119533502E+03 -0.85556474660E+02  0.55260187537E+03  0.64990822880E+03  0.12699999809E+01 0. -1.
       -4    1    3    3    0  502 -0.33119533502E+03  0.85556474660E+02 -0.23214328031E+03  0.41340340563E+03  0.12699999809E+01 0.  1.
</event>
<event>
 5   0  0.3826483E-03  0.9989816E+03  0.7818609E-02  0.9309662E-01
       -2   -1    0    0    0  501  0.00000000000E+00  0.00000000000E+00  0.53264929304E+03  0.53264929305E+03  0.25500000920E-02 0. -1.
        2   -1    0    0  501    0  0.00000000000E+00  0.00000000000E+00 -0.46839648860E+03  0.46839648861E+03  0.25500000920E-02 0.  1.
    10030    2    1    2    0    0  0.00000000000E+00  0.00000000000E+00  0.64252804442E+02  0.10010457817E+04  0.99898159848E+03 0.  0.
        4    1    3    3  502    0  0.20630418502E+03  0.42971597652E+03  0.18167353544E+03  0.51012167530E+03  0.12699999809E+01 0. -1.
       -4    1    3    3    0  502 -0.20630418502E+03 -0.42971597652E+03 -0.11742073100E+03  0.49092410636E+03  0.12699999809E+01 0.  1.
</event>
<event>
 5   0  0.2313036E-03  0.1003838E+04  0.7818609E-02  0.9304345E-01
       -1   -1    0    0    0  501  0.00000000000E+00  0.00000000000E+00  0.69112915274E+03  0.69112915276E+03  0.50400001928E-02 0.  1.
        1   -1    0    0  501    0  0.00000000000E+00  0.00000000000E+00 -0.36450899030E+03  0.36450899033E+03  0.50400001928E-02 0. -1.
    10030    2    1    2    0    0  0.00000000000E+00  0.00000000000E+00  0.32662016244E+03  0.10556381431E+04  0.10038382134E+04 0.  0.
        3    1    3    3  502    0  0.18160599032E+03  0.44608116190E+03  0.31185658146E+03  0.57378016376E+03  0.10100000352E+00 0.  1.
       -3    1    3    3    0  502 -0.18160599032E+03 -0.44608116190E+03  0.14763580983E+02  0.48185797933E+03  0.10100000352E+00 0. -1.
</event>
<event>
 5   0  0.3873874E-03  0.9956896E+03  0.7818609E-02  0.9313285E-01
        2   -1    0    0  501    0  0.00000000000E+00  0.00000000000E+00  0.25513168816E+04  0.25513168816E+04  0.25500000920E-02 0.  1.
       -2   -1    0    0    0  501  0.00000000000E+00  0.00000000000E+00 -0.97145690539E+02  0.97145690573E+02  0.25500000920E-02 0. -1.
    10030    2    1    2    0    0  0.00000000000E+00  0.00000000000E+00  0.24541711911E+04  0.26484625722E+04  0.99568959077E+03 0.  0.
        5    1    3    3  502    0  0.31842669746E+03  0.39608420202E+02  0.22394772420E+04  0.22623538176E+04  0.46999998093E+01 0.  1.
       -5    1    3    3    0  502 -0.31842669746E+03 -0.39608420202E+02  0.21469394911E+03  0.38610875462E+03  0.46999998093E+01 0. -1.
</event>
<event>
 5   0  0.3873874E-03  0.1003802E+04  0.7818609E-02  0.9304385E-01
       -2   -1    0    0    0  501  0.00000000000E+00  0.00000000000E+00  0.69919725919E+03  0.69919725920E+03  0.25500000920E-02 0.  1.
        2   -1    0    0  501    0  0.00000000000E+00  0.00000000000E+00 -0.36027654774E+03  0.36027654775E+03  0.25500000920E-02 0. -1.
    10030    2    1    2    0    0  0.00000000000E+00  0.00000000000E+00  0.33892071145E+03  0.10594738069E+04  0.10038015237E+04 0.  0.
        5    1    3    3  502    0  0.30271497529E+03  0.91116735264E+01 -0.25293909380E+03  0.39461329682E+03  0.46999998093E+01 0. -1.
       -5    1    3    3    0  502 -0.30271497529E+03 -0.91116735264E+01  0.59185980525E+03  0.66486051013E+03  0.46999998093E+01 0.  1.
</event>
<event>
 5   0  0.4026829E-03  0.9803224E+03  0.7818609E-02  0.9330394E-01
        2   -1    0    0  501    0  0.00000000000E+00  0.00000000000E+00  0.34276820431E+03  0.34276820432E+03  0.25500000920E-02 0.  1.
       -2   -1    0    0    0  501  0.00000000000E+00  0.00000000000E+00 -0.70093439717E+03  0.70093439717E+03  0.25500000920E-02 0. -1.
    10030    2    1    2    0    0  0.00000000000E+00  0.00000000000E+00 -0.35816619285E+03  0.10437026015E+04  0.98032244627E+03 0.  0.
        1    1    3    3  502    0  0.33398766695E+03 -0.28818412530E+03  0.48414386057E+02  0.44378125755E+03  0.50400001928E-02 0.  1.
       -1    1    3    3    0  502 -0.33398766695E+03  0.28818412530E+03 -0.40658057891E+03  0.59992134395E+03  0.50400001928E-02 0. -1.
</event>
<event>
 5   0  0.2350769E-03  0.1009838E+04  0.7818609E-02  0.9297820E-01
       -1   -1    0    0    0  501  0.00000000000E+00  0.00000000000E+00  0.15154004851E+03  0.15154004859E+03  0.50400001928E-02 0.  1.
        1   -1    0    0  501    0  0.00000000000E+00  0.00000000000E+00 -0.16823492287E+04  0.16823492287E+04  0.50400001928E-02 0. -1.
    10030    2    1    2    0    0  0.00000000000E+00  0.00000000000E+00 -0.15308091802E+04  0.18338892773E+04  0.10098381728E+04 0.  0.
        2    1    3    3  502    0 -0.48578990207E+03  0.63186764817E+02 -0.98751605547E+03  0.11023485638E+04  0.25500000920E-02 0.  1.
       -2    1    3    3    0  502  0.48578990207E+03 -0.63186764817E+02 -0.54329312475E+03  0.73154071357E+03  0.25500000920E-02 0. -1.
</event>
<event>
 5   0  0.2313036E-03  0.9963170E+03  0.7818609E-02  0.9312593E-01
       -1   -1    0    0    0  501  0.00000000000E+00  0.00000000000E+00  0.20394763518E+03  0.20394763524E+03  0.50400001928E-02 0. -1.
        1   -1    0    0  501    0  0.00000000000E+00  0.00000000000E+00 -0.12167922650E+04  0.12167922650E+04  0.50400001928E-02 0.  1.
    10030    2    1    2    0    0  0.00000000000E+00  0.00000000000E+00 -0.10128446298E+04  0.14207399002E+04  0.99631702786E+03 0.  0.
        3    1    3    3  502    0 -0.47297076817E+03  0.13727428621E+03 -0.61328912691E+03  0.78655523683E+03  0.10100000352E+00 0.  1.
       -3    1    3    3    0  502  0.47297076817E+03 -0.13727428621E+03 -0.39955550290E+03  0.63418466341E+03  0.10100000352E+00 0. -1.
</event>
<event>
 5   0  0.2378609E-03  0.1006965E+04  0.7818609E-02  0.9300938E-01
        1   -1    0    0  501    0  0.00000000000E+00  0.00000000000E+00  0.60935309572E+03  0.60935309574E+03  0.50400001928E-02 0.  1.
       -1   -1    0    0    0  501  0.00000000000E+00  0.00000000000E+00 -0.41600642964E+03  0.41600642967E+03  0.50400001928E-02 0. -1.
    10030    2    1    2    0    0  0.00000000000E+00  0.00000000000E+00  0.19334666608E+03  0.10253595254E+04  0.10069653535E+04 0.  0.
        1    1    3    3  502    0 -0.12240165746E+03 -0.25758484247E+03  0.51917765973E+03  0.59234918689E+03  0.50400001928E-02 0.  1.
       -1    1    3    3    0  502  0.12240165746E+03  0.25758484247E+03 -0.32583099365E+03  0.43301033852E+03  0.50400001928E-02 0. -1.
</event>
<event>
 5   0  0.3826483E-03  0.1000174E+04  0.7818609E-02  0.9308355E-01
        2   -1    0    0  501    0  0.00000000000E+00  0.00000000000E+00  0.47442028415E+03  0.47442028416E+03  0.25500000920E-02 0.  1.
       -2   -1    0    0    0  501  0.00000000000E+00  0.00000000000E+00 -0.52714179641E+03  0.52714179641E+03  0.25500000920E-02 0. -1.
    10030    2    1    2    0    0  0.00000000000E+00  0.00000000000E+00 -0.52721512256E+02  0.10015620806E+04  0.10001735066E+04 0.  0.
        4    1    3    3  502    0 -0.91572852728E+02 -0.44499498275E+03 -0.23564618844E+03  0.51179767590E+03  0.12699999809E+01 0. -1.
       -4    1    3    3    0  502  0.91572852728E+02  0.44499498275E+03  0.18292467618E+03  0.48976440467E+03  0.12699999809E+01 0.  1.
</event>
<event>
 5   0  0.2327595E-03  0.1063135E+04  0.7818609E-02  0.9241887E-01
       -1   -1    0    0    0  501  0.00000000000E+00  0.00000000000E+00  0.21536368403E+03  0.21536368409E+03  0.50400001928E-02 0. -1.
        1   -1    0    0  501    0  0.00000000000E+00  0.00000000000E+00 -0.13120326806E+04  0.13120326806E+04  0.50400001928E-02 0.  1.
    10030    2    1    2    0    0  0.00000000000E+00  0.00000000000E+00 -0.10966689966E+04  0.15273963647E+04  0.10631353474E+04 0.  0.
        5    1    3    3  502    0 -0.12300501105E+03  0.27654169733E+03 -0.11761148804E+04  0.12144438418E+04  0.46999998093E+01 0.  1.
       -5    1    3    3    0  502  0.12300501105E+03 -0.27654169733E+03  0.79445883833E+02  0.31295252286E+03  0.46999998093E+01 0. -1.
</event>
<event>
 5   0  0.2405022E-03  0.1007450E+04  0.7818609E-02  0.9300412E-01
        1   -1    0    0  501    0  0.00000000000E+00  0.00000000000E+00  0.88204021812E+02  0.88204021956E+02  0.50400001928E-02 0.  1.
       -1   -1    0    0    0  501  0.00000000000E+00  0.00000000000E+00 -0.28767244922E+04  0.28767244922E+04  0.50400001928E-02 0. -1.
    10030    2    1    2    0    0  0.00000000000E+00  0.00000000000E+00 -0.27885204704E+04  0.29649285141E+04  0.10074495919E+04 0.  0.
        4    1    3    3  502    0 -0.41501945214E+02  0.50189407578E+03 -0.14260913027E+04  0.15124014319E+04  0.12699999809E+01 0.  1.
       -4    1    3    3    0  502  0.41501945214E+02 -0.50189407578E+03 -0.13624291677E+04  0.14525270823E+04  0.12699999809E+01 0. -1.
</event>
<event>
 5   0  0.2350769E-03  0.9899337E+03  0.7818609E-02  0.9319655E-01
        1   -1    0    0  501    0  0.00000000000E+00  0.00000000000E+00  0.47387568219E+03  0.47387568221E+03  0.50400001928E-02 0.  1.
       -1   -1    0    0    0  501  0.00000000000E+00  0.00000000000E+00 -0.51699677477E+03  0.51699677480E+03  0.50400001928E-02 0. -1.
    10030    2    1    2    0    0  0.00000000000E+00  0.00000000000E+00 -0.43121092589E+02  0.99087245701E+03  0.98993373386E+03 0.  0.
        2    1    3    3  502    0  0.30524552853E+03  0.26738163561E+03 -0.30524494507E+03  0.50778169349E+03  0.25500000920E-02 0. -1.
       -2    1    3    3    0  502 -0.30524552853E+03 -0.26738163561E+03  0.26212385248E+03  0.48309076352E+03  0.25500000920E-02 0.  1.
</event>
<event>
 5   0  0.4140860E-03  0.1002754E+04  0.7818609E-02  0.9305530E-01
        2   -1    0    0  501    0  0.00000000000E+00  0.00000000000E+00  0.25286025044E+03  0.25286025046E+03  0.25500000920E-02 0. -1.
       -2   -1    0    0    0  501  0.00000000000E+00  0.00000000000E+00 -0.99414071982E+03  0.99414071983E+03  0.25500000920E-02 0.  1.
    10030    2    1    2    0    0  0.00000000000E+00  0.00000000000E+00 -0.74128046938E+03  0.12470009703E+04  0.10027535518E+04 0.  0.
        3    1    3    3  502    0  0.29744452042E+03 -0.18608304198E+03  0.74759088460E+02  0.35873259226E+03  0.10100000352E+00 0. -1.
       -3    1    3    3    0  502 -0.29744452042E+03  0.18608304198E+03 -0.81603955784E+03  0.88826837803E+03  0.10100000352E+00 0.  1.
</event>
<event>
 5   0  0.3826483E-03  0.1008121E+04  0.7818609E-02  0.9299682E-01
       -2   -1    0    0    0  501  0.00000000000E+00  0.00000000000E+00  0.25188283036E+03  0.25188283037E+03  0.25500000920E-02 0. -1.
        2   -1    0    0  501    0  0.00000000000E+00  0.00000000000E+00 -0.10087109528E+04  0.10087109528E+04  0.25500000920E-02 0.  1.
    10030    2    1    2    0    0  0.00000000000E+00  0.00000000000E+00 -0.75682812243E+03  0.12605937832E+04  0.10081209646E+04 0.  0.
        4    1    3    3  502    0 -0.37021825941E+03 -0.34085513374E+03 -0.41447302603E+03  0.65194576769E+03  0.12699999809E+01 0.  1.
       -4    1    3    3    0  502  0.37021825941E+03  0.34085513374E+03 -0.34235509640E+03  0.60864801547E+03  0.12699999809E+01 0. -1.
</event>
<event>
 5   0  0.4026829E-03  0.1011246E+04  0.7818609E-02  0.9296296E-01
       -2   -1    0    0    0  501  0.00000000000E+00  0.00000000000E+00  0.49462346433E+03  0.49462346433E+03  0.25500000920E-02 0.  1.
        2   -1    0    0  501    0  0.00000000000E+00  0.00000000000E+00 -0.51686679259E+03  0.51686679260E+03  0.25500000920E-02 0. -1.
    10030    2    1    2    0    0  0.00000000000E+00  0.00000000000E+00 -0.22243328266E+02  0.10114902569E+04  0.10112456547E+04 0.  0.
        1    1    3    3  502    0  0.47255915088E+02 -0.14921525253E+03 -0.49202494859E+03  0.51632050430E+03  0.50400001928E-02 0. -1.
       -1    1    3    3    0  502 -0.47255915088E+02  0.14921525253E+03  0.46978162033E+03  0.49516975263E+03  0.50400001928E-02 0.  1.
</event>
<event>
 5   0  0.4140860E-03  0.9974880E+03  0.7818609E-02  0.9311304E-01
        2   -1    0    0  501    0  0.00000000000E+00  0.00000000000E+00  0.67730247893E+03  0.67730247893E+03  0.25500000920E-02 0. -1.
       -2   -1    0    0    0  501  0.00000000000E+00  0.00000000000E+00 -0.36725924935E+03  0.36725924936E+03  0.25500000920E-02 0.  1.
    10030    2    1    2    0    0  0.00000000000E+00  0.00000000000E+00  0.31004322957E+03  0.10445617283E+04  0.99748804505E+03 0.  0.
        3    1    3    3  502    0  0.49799528316E+03  0.14743574407E+01  0.18358739914E+03  0.53075966228E+03  0.10100000352E+00 0.  1.
       -3    1    3    3    0  502 -0.49799528316E+03 -0.14743574407E+01  0.12645583044E+03  0.51380206601E+03  0.10100000352E+00 0. -1.
</event>
<event>
 5   0  0.2327595E-03  0.1010152E+04  0.7818609E-02  0.9297480E-01
        1   -1    0    0  501    0  0.00000000000E+00  0.00000000000E+00  0.45074132812E+03  0.45074132814E+03  0.50400001928E-02 0. -1.
       -1   -1    0    0    0  501  0.00000000000E+00  0.00000000000E+00 -0.56595997893E+03  0.56595997896E+03  0.50400001928E-02 0.  1.
    10030    2    1    2    0    0  0.00000000000E+00  0.00000000000E+00 -0.11521865082E+03  0.10167013071E+04  0.10101515779E+04 0.  0.
        5    1    3    3  502    0  0.20187354836E+03 -0.21327595425E+03  0.35595624755E+03  0.46148293832E+03  0.46999998093E+01 0. -1.
       -5    1    3    3    0  502 -0.20187354836E+03  0.21327595425E+03 -0.47117489837E+03  0.55521836879E+03  0.46999998093E+01 0.  1.
</event>
<event>
 5   0  0.2405022E-03  0.9975043E+03  0.7818609E-02  0.9311286E-01
        1   -1    0    0  501    0  0.00000000000E+00  0.00000000000E+00  0.14001256308E+04  0.14001256308E+04  0.50400001928E-02 0.  1.
       -1   -1    0    0    0  501  0.00000000000E+00  0.00000000000E+00 -0.17766526421E+03  0.17766526428E+03  0.50400001928E-02 0. -1.
    10030    2    1    2    0    0  0.00000000000E+00  0.00000000000E+00  0.12224603666E+04  0.15777908951E+04  0.99750426604E+03 0.  0.
        4    1    3    3  502    0  0.74731609347E+02  0.14065666995E+03 -0.13635332015E+03  0.20967344384E+03  0.12699999809E+01 0. -1.
       -4    1    3    3    0  502 -0.74731609347E+02 -0.14065666995E+03  0.13588136868E+04  0.13681174513E+04  0.12699999809E+01 0.  1.
</event>
<event>
 5   0  0.2327595E-03  0.9964469E+03  0.7818609E-02  0.9312450E-01
       -1   -1    0    0    0  501  0.00000000000E+00  0.00000000000E+00  0.24437445048E+03  0.24437445053E+03  0.50400001928E-02 0.  1.
        1   -1    0    0  501    0  0.00000000000E+00  0.00000000000E+00 -0.10157633416E+04  0.10157633416E+04  0.50400001928E-02 0. -1.
    10030    2    1    2    0    0  0.00000000000E+00  0.00000000000E+00 -0.77138889114E+03  0.12601377922E+04  0.99644690469E+03 0.  0.
        5    1    3    3  502    0  0.22487810672E+03  0.44426168788E+03 -0.36507249249E+03  0.61744524047E+03  0.46999998093E+01 0.  1.
       -5    1    3    3    0  502 -0.22487810672E+03 -0.44426168788E+03 -0.40631639865E+03  0.64269255170E+03  0.46999998093E+01 0. -1.
</event>
<event>
 5   0  0.2378609E-03  0.1001366E+04  0.7818609E-02  0.9307048E-01
       -1   -1    0    0    0  501  0.00000000000E+00  0.00000000000E+00  0.32831570596E+03  0.32831570600E+03  0.50400001928E-02 0. -1.
        1   -1    0    0  501    0  0.00000000000E+00  0.00000000000E+00 -0.76354374627E+03  0.76354374629E+03  0.50400001928E-02 0.  1.
    10030    2    1    2    0    0  0.00000000000E+00  0.00000000000E+00 -0.43522804031E+03  0.10918594523E+04  0.10013658754E+04 0.  0.
        1    1    3    3  502    0  0.89754898451E+01 -0.48438095003E+03 -0.79787007610E+02  0.49099025528E+03  0.50400001928E-02 0. -1.
       -1    1    3    3    0  502 -0.89754898451E+01  0.48438095003E+03 -0.35544103269E+03  0.60086919701E+03  0.50400001928E-02 0.  1.
</event>
<event>
 5   0  0.3826483E-03  0.1003825E+04  0.7818609E-02  0.9304359E-01
        2   -1    0    0  501    0  0.00000000000E+00  0.00000000000E+00  0.48711471346E+03  0.48711471347E+03  0.25500000920E-02 0. -1.
       -2   -1    0    0    0  501  0.00000000000E+00  0.00000000000E+00 -0.51716015168E+03  0.51716015169E+03  0.25500000920E-02 0.  1.
    10030    2    1    2    0    0  0.00000000000E+00  0.00000000000E+00 -0.30045438217E+02  0.10042748652E+04  0.10038253217E+04 0.  0.
        4    1    3    3  502    0 -0.22835236684E+03  0.30732296357E+03  0.30965689710E+03  0.49242381563E+03  0.12699999809E+01 0. -1.
       -4    1    3    3    0  502  0.22835236684E+03 -0.30732296357E+03 -0.33970233531E+03  0.51185104952E+03  0.12699999809E+01 0.  1.
</event>
<event>
 5   0  0.4026829E-03  0.1001486E+04  0.7818609E-02  0.9306916E-01
       -2   -1    0    0    0  501  0.00000000000E+00  0.00000000000E+00  0.41299619792E+03  0.41299619793E+03  0.25500000920E-02 0. -1.
        2   -1    0    0  501    0  0.00000000000E+00  0.00000000000E+00 -0.60713323083E+03  0.60713323084E+03  0.25500000920E-02 0.  1.
    10030    2    1    2    0    0  0.00000000000E+00  0.00000000000E+00 -0.19413703291E+03  0.10201294288E+04  0.10014863274E+04 0.  0.
        1    1    3    3  502    0  0.81222563876E+02  0.37844139243E+03 -0.42067531887E+03  0.57164911993E+03  0.50400001928E-02 0.  1.
       -1    1    3    3    0  502 -0.81222563876E+02 -0.37844139243E+03  0.22653828595E+03  0.44848030883E+03  0.50400001928E-02 0. -1.
</event>
<event>
 5   0  0.3895011E-03  0.1011542E+04  0.7818609E-02  0.9295975E-01
        2   -1    0    0  501    0  0.00000000000E+00  0.00000000000E+00  0.16148961550E+04  0.16148961550E+04  0.25500000920E-02 0.  1.
       -2   -1    0    0    0  501  0.00000000000E+00  0.00000000000E+00 -0.15840298356E+03  0.15840298358E+03  0.25500000920E-02 0. -1.
    10030    2    1    2    0    0  0.00000000000E+00  0.00000000000E+00  0.14564931714E+04  0.17732991385E+04  0.10115421278E+04 0.  0.
        2    1    3    3  502    0  0.34625723303E+03  0.17838930561E+02  0.82718452518E+02  0.35644724892E+03  0.25500000920E-02 0. -1.
       -2    1    3    3    0  502 -0.34625723303E+03 -0.17838930561E+02  0.13737747189E+04  0.14168518896E+04  0.25500000920E-02 0.  1.
</event>
<event>
 5   0  0.2313036E-03  0.9993511E+03  0.7818609E-02  0.9309257E-01
       -1   -1    0    0    0  501  0.00000000000E+00  0.00000000000E+00  0.45705083564E+03  0.45705083566E+03  0.50400001928E-02 0. -1.
        1   -1    0    0  501    0  0.00000000000E+00  0.00000000000E+00 -0.54627541380E+03  0.54627541383E+03  0.50400001928E-02 0.  1.
    10030    2    1    2    0    0  0.00000000000E+00  0.00000000000E+00 -0.89224578166E+02  0.10033262495E+04  0.99935105822E+03 0.  0.
        3    1    3    3  502    0  0.53706649122E+02 -0.31080732295E+03  0.34447285327E+03  0.46706225816E+03  0.10100000352E+00 0. -1.
       -3    1    3    3    0  502 -0.53706649122E+02  0.31080732295E+03 -0.43369743143E+03  0.53626399133E+03  0.10100000352E+00 0.  1.
</event>
<event>
 5   0  0.4140860E-03  0.1001451E+04  0.7818609E-02  0.9306955E-01
       -2   -1    0    0    0  501  0.00000000000E+00  0.00000000000E+00  0.21893622862E+03  0.21893622863E+03  0.25500000920E-02 0. -1.
        2   -1    0    0  501    0  0.00000000000E+00  0.00000000000E+00 -0.11452014120E+04  0.11452014120E+04  0.25500000920E-02 0.  1.
    10030    2    1    2    0    0  0.00000000000E+00  0.00000000000E+00 -0.92626518343E+03  0.13641376407E+04  0.10014511035E+04 0.  0.
        3    1    3    3  502    0  0.47671434567E+03  0.15299112166E+03 -0.47396303916E+03  0.68942281900E+03  0.10100000352E+00 0.  1.
       -3    1    3    3    0  502 -0.47671434567E+03 -0.15299112166E+03 -0.45230214427E+03  0.67471482167E+03  0.10100000352E+00 0. -1.
</event>
<event>
 5   0  0.3873874E-03  0.9591462E+03  0.7818609E-02  0.9354523E-01
        2   -1    0    0  501    0  0.00000000000E+00  0.00000000000E+00  0.77639689259E+03  0.77639689260E+03  0.25500000920E-02 0.  1.
       -2   -1    0    0    0  501  0.00000000000E+00  0.00000000000E+00 -0.29622783459E+03  0.29622783460E+03  0.25500000920E-02 0. -1.
    10030    2    1    2    0    0  0.00000000000E+00  0.00000000000E+00  0.48016905800E+03  0.10726247272E+04  0.95914622510E+03 0.  0.
        5    1    3    3  502    0 -0.78275028416E+02 -0.46413944314E+03  0.13749272037E+03  0.49038631802E+03  0.46999998093E+01 0.  1.
       -5    1    3    3    0  502  0.78275028416E+02  0.46413944314E+03  0.34267633764E+03  0.58223840918E+03  0.46999998093E+01 0. -1.
</event>
<event>
 5   0  0.4026829E-03  0.9982612E+03  0.7818609E-02  0.9310454E-01
       -2   -1    0    0    0  501  0.00000000000E+00  0.00000000000E+00  0.37259832036E+03  0.37259832037E+03  0.25500000920E-02 0.  1.
        2   -1    0    0  501    0  0.00000000000E+00  0.00000000000E+00 -0.66863251390E+03  0.66863251391E+03  0.25500000920E-02 0. -1.
    10030    2    1    2    0    0  0.00000000000E+00  0.00000000000E+00 -0.29603419354E+03  0.10412308343E+04  0.99826119153E+03 0.  0.
        1    1    3    3  502    0 -0.44022309396E+03  0.14336143424E+03 -0.34254553240E+03  0.57592214324E+03  0.50400001928E-02 0.  1.
       -1    1    3    3    0  502  0.44022309396E+03 -0.14336143424E+03  0.46511338864E+02  0.46530869104E+03  0.50400001928E-02 0. -1.
</event>
<event>
 5   0  0.2313036E-03  0.1002538E+04  0.7818609E-02  0.9305766E-01
        1   -1    0    0  501    0  0.00000000000E+00  0.00000000000E+00  0.13422315798E+04  0.13422315798E+04  0.50400001928E-02 0.  1.
       -1   -1    0    0    0  501  0.00000000000E+00  0.00000000000E+00 -0.18720358097E+03  0.18720358103E+03  0.50400001928E-02 0. -1.
    10030    2    1    2    0    0  0.00000000000E+00  0.00000000000E+00  0.11550279988E+04  0.15294351608E+04  0.10025378961E+04 0.  0.
        3    1    3    3  502    0  0.86189714249E+02 -0.26247400877E+03 -0.60582477624E+02  0.28282771950E+03  0.10100000352E+00 0. -1.
       -3    1    3    3    0  502 -0.86189714249E+02  0.26247400877E+03  0.12156104764E+04  0.12466074413E+04  0.10100000352E+00 0.  1.
</event>
<event>
 5   0  0.2405022E-03  0.1000284E+04  0.7818609E-02  0.9308233E-01
       -1   -1    0    0    0  501  0.00000000000E+00  0.00000000000E+00  0.42115470959E+03  0.42115470962E+03  0.50400001928E-02 0.  1.
        1   -1    0    0  501    0  0.00000000000E+00  0.00000000000E+00 -0.59394356230E+03  0.59394356232E+03  0.50400001928E-02 0. -1.
    10030    2    1    2    0    0  0.00000000000E+00  0.00000000000E+00 -0.17278885270E+03  0.10150982719E+04  0.10002842167E+04 0.  0.
        4    1    3    3  502    0  0.24011335309E+02  0.77791588884E+02  0.41438358192E+03  0.42230728314E+03  0.12699999809E+01 0.  1.
       -4    1    3    3    0  502 -0.24011335309E+02 -0.77791588884E+02 -0.58717243463E+03  0.59279098881E+03  0.12699999809E+01 0. -1.
</event>
<event>
 5   0  0.2313036E-03  0.9970345E+03  0.7818609E-02  0.9311803E-01
        1   -1    0    0  501    0  0.00000000000E+00  0.00000000000E+00  0.12788140811E+04  0.12788140811E+04  0.50400001928E-02 0. -1.
       -1   -1    0    0    0  501  0.00000000000E+00  0.00000000000E+00 -0.19433588895E+03  0.19433588902E+03  0.50400001928E-02 0.  1.
    10030    2    1    2    0    0  0.00000000000E+00  0.00000000000E+00  0.10844781922E+04  0.14731499701E+04  0.99703454567E+03 0.  0.
        3    1    3    3  502    0  0.41979804302E+02 -0.25828874182E+03  0.11691793879E+04  0.11981050995E+04  0.10100000352E+00 0. -1.
       -3    1    3    3    0  502 -0.41979804302E+02  0.25828874182E+03 -0.84701195730E+02  0.27504487066E+03  0.10100000352E+00 0.  1.
</event>
<event>
 5   0  0.3826483E-03  0.1002515E+04  0.7818609E-02  0.9305791E-01
       -2   -1    0    0    0  501  0.00000000000E+00  0.00000000000E+00  0.58874732907E+03  0.58874732908E+03  0.25500000920E-02 0. -1.
        2   -1    0    0  501    0  0.00000000000E+00  0.00000000000E+00 -0.42676908522E+03  0.42676908523E+03  0.25500000920E-02 0.  1.
    10030    2    1    2    0    0  0.00000000000E+00  0.00000000000E+00  0.16197824385E+03  0.10155164143E+04  0.10025151551E+04 0.  0.
        4    1    3    3  502    0  0.27428877952E+03 -0.35484132898E+03 -0.14576847956E+03  0.47158961593E+03  0.12699999809E+01 0.  1.
       -4    1    3    3    0  502 -0.27428877952E+03  0.35484132898E+03  0.30774672341E+03  0.54392679837E+03  0.12699999809E+01 0. -1.
</event>
<event>
 5   0  0.3873874E-03  0.1009489E+04  0.7818609E-02  0.9298198E-01
       -2   -1    0    0    0  501  0.00000000000E+00  0.00000000000E+00  0.18550793478E+03  0.18550793479E+03  0.25500000920E-02 0. -1.
        2   -1    0    0  501    0  0.00000000000E+00  0.00000000000E+00 -0.13733486567E+04  0.13733486567E+04  0.25500000920E-02 0.  1.
    10030    2    1    2    0    0  0.00000000000E+00  0.00000000000E+00 -0.11878407219E+04  0.15588565915E+04  0.10094891244E+04 0.  0.
        5    1    3    3  502    0  0.11206239487E+03  0.31001305914E+03 -0.11841190940E+04  0.12291567012E+04  0.46999998093E+01 0.  1.
       -5    1    3    3    0  502 -0.11206239487E+03 -0.31001305914E+03 -0.37216279100E+01  0.32969989035E+03  0.46999998093E+01 0. -1.
</event>
<event>
 5   0  0.3895011E-03  0.9969049E+03  0.7818609E-02  0.9311946E-01
       -2   -1    0    0    0  501  0.00000000000E+00  0.00000000000E+00  0.21756152150E+03  0.21756152151E+03  0.25500000920E-02 0. -1.
        2   -1    0    0  501    0  0.00000000000E+00  0.00000000000E+00 -0.11419981381E+04  0.11419981381E+04  0.25500000920E-02 0.  1.
    10030    2    1    2    0    0  0.00000000000E+00  0.00000000000E+00 -0.92443661665E+03  0.13595596597E+04  0.99690491521E+03 0.  0.
        2    1    3    3  502    0  0.81924826484E+00  0.25811479036E+03  0.11932012234E+03  0.28436105179E+03  0.25500000920E-02 0. -1.
       -2    1    3    3    0  502 -0.81924826484E+00 -0.25811479036E+03 -0.10437567390E+04  0.10751986079E+04  0.25500000920E-02 0.  1.
</event>
<event>
 5   0  0.4140860E-03  0.1017116E+04  0.7818609E-02  0.9289968E-01
        2   -1    0    0  501    0  0.00000000000E+00  0.00000000000E+00  0.14613945962E+04  0.14613945962E+04  0.25500000920E-02 0. -1.
       -2   -1    0    0    0  501  0.00000000000E+00  0.00000000000E+00 -0.17697579802E+03  0.17697579804E+03  0.25500000920E-02 0.  1.
    10030    2    1    2    0    0  0.00000000000E+00  0.00000000000E+00  0.12844187982E+04  0.16383703942E+04  0.10171164632E+04 0.  0.
        3    1    3    3  502    0  0.27749924584E+03 -0.39447175456E+03  0.90203120220E+03  0.10228754062E+04  0.10100000352E+00 0.  1.
       -3    1    3    3    0  502 -0.27749924584E+03  0.39447175456E+03  0.38238759596E+03  0.61549498807E+03  0.10100000352E+00 0. -1.
</event>
<event>
 5   0  0.3895011E-03  0.1000642E+04  0.7818609E-02  0.9307841E-01
        2   -1    0    0  501    0  0.00000000000E+00  0.00000000000E+00  0.43746790693E+03  0.43746790693E+03  0.25500000920E-02 0. -1.
       -2   -1    0    0    0  501  0.00000000000E+00  0.00000000000E+00 -0.57220471758E+03  0.57220471759E+03  0.25500000920E-02 0.  1.
    10030    2    1    2    0    0  0.00000000000E+00  0.00000000000E+00 -0.13473681066E+03  0.10096726245E+04  0.10006421941E+04 0.  0.
        2    1    3    3  502    0  0.16212090844E+03 -0.35978903471E+03 -0.37769862202E+03  0.54624864992E+03  0.25500000920E-02 0.  1.
       -2    1    3    3    0  502 -0.16212090844E+03  0.35978903471E+03  0.24296181136E+03  0.46342397461E+03  0.25500000920E-02 0. -1.
</event>
<event>
 5   0  0.4140860E-03  0.1099936E+04  0.7818609E-02  0.9205254E-01
        2   -1    0    0  501    0  0.00000000000E+00  0.00000000000E+00  0.59378927974E+03  0.59378927975E+03  0.25500000920E-02 0. -1.
       -2   -1    0    0    0  501  0.00000000000E+00  0.00000000000E+00 -0.50938084525E+03  0.50938084526E+03  0.25500000920E-02 0.  1.
    10030    2    1    2    0    0  0.00000000000E+00  0.00000000000E+00  0.84408434489E+02  0.11031701250E+04  0.10999361531E+04 0.  0.
        3    1    3    3  502    0 -0.29053061938E+03  0.46062102405E+03 -0.34735781685E+02  0.54569804226E+03  0.10100000352E+00 0. -1.
       -3    1    3    3    0  502  0.29053061938E+03 -0.46062102405E+03  0.11914421617E+03  0.55747208275E+03  0.10100000352E+00 0.  1.
</event>
<event>
 5   0  0.4140860E-03  0.9917025E+03  0.7818609E-02  0.9317692E-01
       -2   -1    0    0    0  501  0.00000000000E+00  0.00000000000E+00  0.37800898386E+03  0.37800898387E+03  0.25500000920E-02 0.  1.
        2   -1    0    0  501    0  0.00000000000E+00  0.00000000000E+00 -0.65043021364E+03  0.65043021365E+03  0.25500000920E-02 0. -1.
    10030    2    1    2    0    0  0.00000000000E+00  0.00000000000E+00 -0.27242122978E+03  0.10284391975E+04  0.99170250406E+03 0.  0.
        3    1    3    3  502    0 -0.48624058343E+03  0.62988721066E+02 -0.59504607657E+02  0.49390109586E+03  0.10100000352E+00 0.  1.
       -3    1    3    3    0  502  0.48624058343E+03 -0.62988721066E+02 -0.21291662212E+03  0.53453810166E+03  0.10100000352E+00 0. -1.
</event>
<event>
 5   0  0.3826483E-03  0.9983266E+03  0.7818609E-02  0.9310382E-01
        2   -1    0    0  501    0  0.00000000000E+00  0.00000000000E+00  0.13840274595E+04  0.13840274595E+04  0.25500000920E-02 0. -1.
       -2   -1    0    0    0  501  0.00000000000E+00  0.00000000000E+00 -0.18002822022E+03  0.18002822024E+03  0.25500000920E-02 0.  1.
    10030    2    1    2    0    0  0.00000000000E+00  0.00000000000E+00  0.12039992392E+04  0.15640556797E+04  0.99832660043E+03 0.  0.
        4    1    3    3  502    0  0.56479234121E+02 -0.45986880026E+03  0.89296821751E+03  0.10060134531E+04  0.12699999809E+01 0. -1.
       -4    1    3    3    0  502 -0.56479234121E+02  0.45986880026E+03  0.31103102172E+03  0.55804222664E+03  0.12699999809E+01 0.  1.
</event>
<event>
 5   0  0.2313036E-03  0.9991560E+03  0.7818609E-02  0.9309471E-01
        1   -1    0    0  501    0  0.00000000000E+00  0.00000000000E+00  0.29666517039E+03  0.29666517043E+03  0.50400001928E-02 0. -1.
       -1   -1    0    0    0  501  0.00000000000E+00  0.00000000000E+00 -0.84127892860E+03  0.84127892862E+03  0.50400001928E-02 0.  1.
    10030    2    1    2    0    0  0.00000000000E+00  0.00000000000E+00 -0.54461375821E+03  0.11379440991E+04  0.99915595726E+03 0.  0.
        3    1    3    3  502    0 -0.20373611152E+03  0.35608137729E+03  0.52382634172E+02  0.41357744251E+03  0.10100000352E+00 0. -1.
       -3    1    3    3    0  502  0.20373611152E+03 -0.35608137729E+03 -0.59699639239E+03  0.72436665654E+03  0.10100000352E+00 0.  1.
</event>
<event>
 5   0  0.2350769E-03  0.1009930E+04  0.7818609E-02  0.9297721E-01
        1   -1    0    0  501    0  0.00000000000E+00  0.00000000000E+00  0.12566044133E+04  0.12566044133E+04  0.50400001928E-02 0. -1.
       -1   -1    0    0    0  501  0.00000000000E+00  0.00000000000E+00 -0.20291950884E+03  0.20291950890E+03  0.50400001928E-02 0.  1.
    10030    2    1    2    0    0  0.00000000000E+00  0.00000000000E+00  0.10536849045E+04  0.14595239222E+04  0.10099298003E+04 0.  0.
        2    1    3    3  502    0  0.47908931293E+03  0.15870414787E+03  0.50283455186E+03  0.71242975995E+03  0.25500000920E-02 0. -1.
       -2    1    3    3    0  502 -0.47908931293E+03 -0.15870414787E+03  0.55085035263E+03  0.74709416228E+03  0.25500000920E-02 0.  1.
</event>
<event>
 5   0  0.2350769E-03  0.1001310E+04  0.7818609E-02  0.9307110E-01
       -1   -1    0    0    0  501  0.00000000000E+00  0.00000000000E+00  0.18897756173E+03  0.18897756180E+03  0.50400001928E-02 0.  1.
        1   -1    0    0  501    0  0.00000000000E+00  0.00000000000E+00 -0.13263754303E+04  0.13263754303E+04  0.50400001928E-02 0. -1.
    10030    2    1    2    0    0  0.00000000000E+00  0.00000000000E+00 -0.11373978685E+04  0.15153529921E+04  0.10013095322E+04 0.  0.
        2    1    3    3  502    0 -0.77495212834E+02  0.28838662420E+03  0.39448182438E+02  0.30121173970E+03  0.25500000920E-02 0.  1.
       -2    1    3    3    0  502  0.77495212834E+02 -0.28838662420E+03 -0.11768460510E+04  0.12141412524E+04  0.25500000920E-02 0. -1.
</event>
<event>
 5   0  0.2313036E-03  0.9695030E+03  0.7818609E-02  0.9342641E-01
        1   -1    0    0  501    0  0.00000000000E+00  0.00000000000E+00  0.10607922041E+04  0.10607922041E+04  0.50400001928E-02 0.  1.
       -1   -1    0    0    0  501  0.00000000000E+00  0.00000000000E+00 -0.22151746774E+03  0.22151746780E+03  0.50400001928E-02 0. -1.
    10030    2    1    2    0    0  0.00000000000E+00  0.00000000000E+00  0.83927473635E+03  0.12823096719E+04  0.96950297142E+03 0.  0.
        3    1    3    3  502    0 -0.34472230955E+03 -0.27493981671E+03  0.68600739474E+03  0.81549465317E+03  0.10100000352E+00 0.  1.
       -3    1    3    3    0  502  0.34472230955E+03  0.27493981671E+03  0.15326734161E+03  0.46681501874E+03  0.10100000352E+00 0. -1.
</event>
<event>
 5   0  0.4026829E-03  0.9982970E+03  0.7818609E-02  0.9310415E-01
       -2   -1    0    0    0  501  0.00000000000E+00  0.00000000000E+00  0.21070134125E+03  0.21070134127E+03  0.25500000920E-02 0.  1.
        2   -1    0    0  501    0  0.00000000000E+00  0.00000000000E+00 -0.11824756419E+04  0.11824756420E+04  0.25500000920E-02 0. -1.
    10030    2    1    2    0    0  0.00000000000E+00  0.00000000000E+00 -0.97177430070E+03  0.13931769832E+04  0.99829695736E+03 0.  0.
        1    1    3    3  502    0  0.62820591987E+02  0.47042350193E+03 -0.27011945236E+03  0.54608535644E+03  0.50400001928E-02 0.  1.
       -1    1    3    3    0  502 -0.62820591987E+02 -0.47042350193E+03 -0.70165484833E+03  0.84709162678E+03  0.50400001928E-02 0. -1.
</event>
<event>
 5   0  0.2313036E-03  0.9940475E+03  0.7818609E-02  0.9315098E-01
        1   -1    0    0  501    0  0.00000000000E+00  0.00000000000E+00  0.35855073738E+03  0.35855073741E+03  0.50400001928E-02 0. -1.
       -1   -1    0    0    0  501  0.00000000000E+00  0.00000000000E+00 -0.68897532473E+03  0.68897532474E+03  0.50400001928E-02 0.  1.
    10030    2    1    2    0    0  0.00000000000E+00  0.00000000000E+00 -0.33042458735E+03  0.10475260622E+04  0.99404750539E+03 0.  0.
        3    1    3    3  502    0 -0.14320720506E+03  0.23760127565E+03 -0.59979402382E+03  0.66084457400E+03  0.10100000352E+00 0.  1.
       -3    1    3    3    0  502  0.14320720506E+03 -0.23760127565E+03  0.26936943647E+03  0.38668148815E+03  0.10100000352E+00 0. -1.
</event>
<event>
 5   0  0.4140860E-03  0.1020892E+04  0.7818609E-02  0.9285923E-01
       -2   -1    0    0    0  501  0.00000000000E+00  0.00000000000E+00  0.22146207809E+03  0.22146207811E+03  0.25500000920E-02 0. -1.
        2   -1    0    0  501    0  0.00000000000E+00  0.00000000000E+00 -0.11765225309E+04  0.11765225309E+04  0.25500000920E-02 0.  1.
    10030    2    1    2    0    0  0.00000000000E+00  0.00000000000E+00 -0.95506045280E+03  0.13979846090E+04  0.10208920112E+04 0.  0.
        3    1    3    3  502    0 -0.13901424490E+03  0.37978217589E+03 -0.51050176434E+02  0.40763414004E+03  0.10100000352E+00 0. -1.
       -3    1    3    3    0  502  0.13901424490E+03 -0.37978217589E+03 -0.90401027637E+03  0.99035046897E+03  0.10100000352E+00 0.  1.
</event>
<event>
 5   0  0.2378609E-03  0.1002669E+04  0.7818609E-02  0.9305622E-01
        1   -1    0    0  501    0  0.00000000000E+00  0.00000000000E+00  0.30407784087E+03  0.30407784091E+03  0.50400001928E-02 0.  1.
       -1   -1    0    0    0  501  0.00000000000E+00  0.00000000000E+00 -0.82655295285E+03  0.82655295287E+03  0.50400001928E-02 0. -1.
    10030    2    1    2    0    0  0.00000000000E+00  0.00000000000E+00 -0.52247511198E+03  0.11306307938E+04  0.10026693120E+04 0.  0.
        1    1    3    3  502    0 -0.10805245912E+03  0.32117887161E+03 -0.67785527943E+03  0.75783836098E+03  0.50400001928E-02 0. -1.
       -1    1    3    3    0  502  0.10805245912E+03 -0.32117887161E+03  0.15538016745E+03  0.37279243280E+03  0.50400001928E-02 0.  1.
</event>
<event>
 5   0  0.3826483E-03  0.1003619E+04  0.7818609E-02  0.9304584E-01
       -2   -1    0    0    0  501  0.00000000000E+00  0.00000000000E+00  0.37469188954E+03  0.37469188955E+03  0.25500000920E-02 0. -1.
        2   -1    0    0  501    0  0.00000000000E+00  0.00000000000E+00 -0.67205299185E+03  0.67205299186E+03  0.25500000920E-02 0.  1.
    10030    2    1    2    0    0  0.00000000000E+00  0.00000000000E+00 -0.29736110231E+03  0.10467448814E+04  0.10036190620E+04 0.  0.
        4    1    3    3  502    0 -0.83554111797E+01 -0.18219031052E+03 -0.63626004549E+03  0.66188486954E+03  0.12699999809E+01 0.  1.
       -4    1    3    3    0  502  0.83554111797E+01  0.18219031052E+03  0.33889894318E+03  0.38486001186E+03  0.12699999809E+01 0. -1.
</event>
<event>
 5   0  0.3826483E-03  0.9978724E+03  0.7818609E-02  0.9310881E-01
       -2   -1    0    0    0  501  0.00000000000E+00  0.00000000000E+00  0.42493790132E+03  0.42493790133E+03  0.25500000920E-02 0.  1.
        2   -1    0    0  501    0  0.00000000000E+00  0.00000000000E+00 -0.58582053669E+03  0.58582053669E+03  0.25500000920E-02 0. -1.
    10030    2    1    2    0    0  0.00000000000E+00  0.00000000000E+00 -0.16088263536E+03  0.10107584380E+04  0.99787243557E+03 0.  0.
        4    1    3    3  502    0  0.89629038345E+02  0.26923526080E+02 -0.57684901326E+03  0.58439253740E+03  0.12699999809E+01 0. -1.
       -4    1    3    3    0  502 -0.89629038345E+02 -0.26923526080E+02  0.41596637790E+03  0.42636590062E+03  0.12699999809E+01 0.  1.
</event>
<event>
 5   0  0.2327595E-03  0.9969572E+03  0.7818609E-02  0.9311888E-01
       -1   -1    0    0    0  501  0.00000000000E+00  0.00000000000E+00  0.29817450053E+03  0.29817450057E+03  0.50400001928E-02 0. -1.
        1   -1    0    0  501    0  0.00000000000E+00  0.00000000000E+00 -0.83334053619E+03  0.83334053621E+03  0.50400001928E-02 0.  1.
    10030    2    1    2    0    0  0.00000000000E+00  0.00000000000E+00 -0.53516603567E+03  0.11315150368E+04  0.99695716694E+03 0.  0.
        5    1    3    3  502    0  0.22065478033E+03 -0.39638655991E+03 -0.33196288877E+02  0.45490100082E+03  0.46999998093E+01 0. -1.
       -5    1    3    3    0  502 -0.22065478033E+03  0.39638655991E+03 -0.50196974679E+03  0.67661403595E+03  0.46999998093E+01 0.  1.
</event>
<event>
 5   0  0.2313036E-03  0.1008500E+04  0.7818609E-02  0.9299271E-01
       -1   -1    0    0    0  501  0.00000000000E+00  0.00000000000E+00  0.24316369096E+03  0.24316369101E+03  0.50400001928E-02 0.  1.
        1   -1    0    0  501    0  0.00000000000E+00  0.00000000000E+00 -0.10456658529E+04  0.10456658529E+04  0.50400001928E-02 0. -1.
    10030    2    1    2    0    0  0.00000000000E+00  0.00000000000E+00 -0.80250216197E+03  0.12888295439E+04  0.10084998133E+04 0.  0.
        3    1    3    3  502    0 -0.13582086119E+02  0.39466509885E+03 -0.80197669173E+03  0.89393044337E+03  0.10100000352E+00 0. -1.
       -3    1    3    3    0  502  0.13582086119E+02 -0.39466509885E+03 -0.52547024741E+00  0.39489910058E+03  0.10100000352E+00 0.  1.
</event>
<event>
 5   0  0.2350769E-03  0.1002950E+04  0.7818609E-02  0.9305315E-01
       -1   -1    0    0    0  501  0.00000000000E+00  0.00000000000E+00  0.56070318940E+03  0.56070318942E+03  0.50400001928E-02 0. -1.
        1   -1    0    0  501    0  0.00000000000E+00  0.00000000000E+00 -0.44850316274E+03  0.44850316277E+03  0.50400001928E-02 0.  1.
    10030    2    1    2    0    0  0.00000000000E+00  0.00000000000E+00  0.11220002666E+03  0.10092063522E+04  0.10029499565E+04 0.  0.
        2    1    3    3  502    0 -0.24409209902E+03 -0.20720041849E+03  0.44446641191E+03  0.54778039172E+03  0.25500000920E-02 0. -1.
       -2    1    3    3    0  502  0.24409209902E+03  0.20720041849E+03 -0.33226638525E+03  0.46142596047E+03  0.25500000920E-02 0.  1.
</event>
<event>
 5   0  0.3826483E-03  0.9995963E+03  0.7818609E-02  0.9308988E-01
       -2   -1    0    0    0  501  0.00000000000E+00  0.00000000000E+00  0.17079738215E+03  0.17079738217E+03  0.25500000920E-02 0.  1.
        2   -1    0    0  501    0  0.00000000000E+00  0.00000000000E+00 -0.14625409553E+04  0.14625409553E+04  0.25500000920E-02 0. -1.
    10030    2    1    2    0    0  0.00000000000E+00  0.00000000000E+00 -0.12917435732E+04  0.16333383375E+04  0.99959625144E+03 0.  0.
        4    1    3    3  502    0 -0.33155354331E+03  0.16317469109E+03 -0.11957378011E+04  0.12515367489E+04  0.12699999809E+01 0. -1.
       -4    1    3    3    0  502  0.33155354331E+03 -0.16317469109E+03 -0.96005772055E+02  0.38180158861E+03  0.12699999809E+01 0.  1.
</event>
<event>
 5   0  0.2313036E-03  0.1005600E+04  0.7818609E-02  0.9302424E-01
       -1   -1    0    0    0  501  0.00000000000E+00  0.00000000000E+00  0.20065143901E+03  0.20065143907E+03  0.50400001928E-02 0.  1.
        1   -1    0    0  501    0  0.00000000000E+00  0.00000000000E+00 -0.12599343475E+04  0.12599343475E+04  0.50400001928E-02 0. -1.
    10030    2    1    2    0    0  0.00000000000E+00  0.00000000000E+00 -0.10592829084E+04  0.14605857865E+04  0.10055996021E+04 0.  0.
        3    1    3    3  502    0 -0.36616167690E+03  0.32184827265E+03 -0.70839905147E+03  0.85993599213E+03  0.10100000352E+00 0.  1.
       -3    1    3    3    0  502  0.36616167690E+03 -0.32184827265E+03 -0.35088385698E+03  0.60064979441E+03  0.10100000352E+00 0. -1.
</event>
<event>
 5   0  0.3895011E-03  0.1040668E+04  0.7818609E-02  0.9265032E-01
       -2   -1    0    0    0  501  0.00000000000E+00  0.00000000000E+00  0.62529482459E+03  0.62529482460E+03  0.25500000920E-02 0.  1.
        2   -1    0    0  501    0  0.00000000000E+00  0.00000000000E+00 -0.43299198937E+03  0.43299198938E+03  0.25500000920E-02 0. -1.
    10030    2    1    2    0    0  0.00000000000E+00  0.00000000000E+00  0.19230283522E+03  0.10582868140E+04  0.10406683430E+04 0.  0.
        2    1    3    3  502    0 -0.33994268683E+03  0.30609412425E+03 -0.15602467196E+03  0.48332012321E+03  0.25500000920E-02 0. -1.
       -2    1    3    3    0  502  0.33994268683E+03 -0.30609412425E+03  0.34832750718E+03  0.57496669077E+03  0.25500000920E-02 0.  1.
</event>
<event>
 5   0  0.3826483E-03  0.1001592E+04  0.7818609E-02  0.9306800E-01
       -2   -1    0    0    0  501  0.00000000000E+00  0.00000000000E+00  0.69326163400E+03  0.69326163400E+03  0.25500000920E-02 0. -1.
        2   -1    0    0  501    0  0.00000000000E+00  0.00000000000E+00 -0.36176340476E+03  0.36176340477E+03  0.25500000920E-02 0.  1.
    10030    2    1    2    0    0  0.00000000000E+00  0.00000000000E+00  0.33149822924E+03  0.10550250388E+04  0.10015921108E+04 0.  0.
        4    1    3    3  502    0  0.36117764689E+03 -0.12962156697E+03 -0.17319992674E+03  0.42101172283E+03  0.12699999809E+01 0. -1.
       -4    1    3    3    0  502 -0.36117764689E+03  0.12962156697E+03  0.50469815598E+03  0.63401331594E+03  0.12699999809E+01 0.  1.
</event>
<event>
 5   0  0.2327595E-03  0.9987108E+03  0.7818609E-02  0.9309960E-01
       -1   -1    0    0    0  501  0.00000000000E+00  0.00000000000E+00  0.37395476122E+03  0.37395476125E+03  0.50400001928E-02 0.  1.
        1   -1    0    0  501    0  0.00000000000E+00  0.00000000000E+00 -0.66680738954E+03  0.66680738956E+03  0.50400001928E-02 0. -1.
    10030    2    1    2    0    0  0.00000000000E+00  0.00000000000E+00 -0.29285262832E+03  0.10407621508E+04  0.99871076526E+03 0.  0.
        5    1    3    3  502    0  0.19114603215E+03 -0.39666279478E+02 -0.62536824924E+03  0.65514712583E+03  0.46999998093E+01 0. -1.
       -5    1    3    3    0  502 -0.19114603215E+03  0.39666279478E+02  0.33251562092E+03  0.38561502498E+03  0.46999998093E+01 0.  1.
</event>
<event>
 5   0  0.1548000E-03  0.9971367E+03  0.7818609E-02  0.9311691E-01
        4   -1    0    0  501    0  0.00000000000E+00  0.00000000000E+00  0.28331829669E+03  0.28332114312E+03  0.12699999809E+01 0.  1.
       -4   -1    0    0    0  501  0.00000000000E+00  0.00000000000E+00 -0.87734622002E+03  0.87734713921E+03  0.12699999809E+01 0. -1.
    10030    2    1    2    0    0  0.00000000000E+00  0.00000000000E+00 -0.59402792333E+03  0.11606682823E+04  0.99713674485E+03 0.  0.
        4    1    3    3  502    0  0.10112791764E+03  0.29783912171E+03 -0.74727903930E+03  0.81077899185E+03  0.12699999809E+01 0. -1.
       -4    1    3    3    0  502 -0.10112791764E+03 -0.29783912171E+03  0.15325111597E+03  0.34988929048E+03  0.12699999809E+01 0.  1.
</event>
<event>
 5   0  0.3895011E-03  0.9963320E+03  0.7818609E-02  0.9312577E-01
       -2   -1    0    0    0  501  0.00000000000E+00  0.00000000000E+00  0.11476037326E+03  0.11476037329E+03  0.25500000920E-02 0.  1.
        2   -1    0    0  501    0  0.00000000000E+00  0.00000000000E+00 -0.21625005715E+04  0.21625005715E+04  0.25500000920E-02 0. -1.
    10030    2    1    2    0    0  0.00000000000E+00  0.00000000000E+00 -0.20477401982E+04  0.22772609448E+04  0.99633201854E+03 0.  0.
        2    1    3    3  502    0 -0.43853420411E+03  0.13784291443E+03 -0.14626689630E+04  0.15332036435E+04  0.25500000920E-02 0. -1.
       -2    1    3    3    0  502  0.43853420411E+03 -0.13784291443E+03 -0.58507123525E+03  0.74405730126E+03  0.25500000920E-02 0.  1.
</event>
<event>
 5   0  0.4140860E-03  0.1000002E+04  0.7818609E-02  0.9308542E-01
        2   -1    0    0  501    0  0.00000000000E+00  0.00000000000E+00  0.21875025994E+04  0.21875025994E+04  0.25500000920E-02 0. -1.
       -2   -1    0    0    0  501  0.00000000000E+00  0.00000000000E+00 -0.11428609619E+03  0.11428609622E+03  0.25500000920E-02 0.  1.
    10030    2    1    2    0    0  0.00000000000E+00  0.00000000000E+00  0.20732165033E+04  0.23017886957E+04  0.10000022651E+04 0.  0.
        3    1    3    3  502    0  0.10019924193E+03 -0.48976888292E+03  0.10581610549E+04  0.11703069149E+04  0.10100000352E+00 0.  1.
       -3    1    3    3    0  502 -0.10019924193E+03  0.48976888292E+03  0.10150554484E+04  0.11314817808E+04  0.10100000352E+00 0. -1.
</event>
<event>
 5   0  0.3873874E-03  0.1002795E+04  0.7818609E-02  0.9305484E-01
        2   -1    0    0  501    0  0.00000000000E+00  0.00000000000E+00  0.30075537559E+03  0.30075537560E+03  0.25500000920E-02 0.  1.
       -2   -1    0    0    0  501  0.00000000000E+00  0.00000000000E+00 -0.83589413094E+03  0.83589413094E+03  0.25500000920E-02 0. -1.
    10030    2    1    2    0    0  0.00000000000E+00  0.00000000000E+00 -0.53513875535E+03  0.11366495065E+04  0.10027953995E+04 0.  0.
        5    1    3    3  502    0  0.46256273503E+03 -0.12639894095E+02 -0.48794298993E+02  0.46532464406E+03  0.46999998093E+01 0.  1.
       -5    1    3    3    0  502 -0.46256273503E+03  0.12639894095E+02 -0.48634445636E+03  0.67132486248E+03  0.46999998093E+01 0. -1.
</event>
<event>
 5   0  0.2350769E-03  0.1002622E+04  0.7818609E-02  0.9305674E-01
        1   -1    0    0  501    0  0.00000000000E+00  0.00000000000E+00  0.85538174578E+03  0.85538174580E+03  0.50400001928E-02 0. -1.
       -1   -1    0    0    0  501  0.00000000000E+00  0.00000000000E+00 -0.29380166756E+03  0.29380166760E+03  0.50400001928E-02 0.  1.
    10030    2    1    2    0    0  0.00000000000E+00  0.00000000000E+00  0.56158007822E+03  0.11491834134E+04  0.10026217300E+04 0.  0.
        2    1    3    3  502    0  0.25849793427E+03 -0.31584420737E+03  0.61443200782E+03  0.73763503007E+03  0.25500000920E-02 0. -1.
       -2    1    3    3    0  502 -0.25849793427E+03  0.31584420737E+03 -0.52851929597E+02  0.41154838333E+03  0.25500000920E-02 0.  1.
</event>
<event>
 5   0  0.3895011E-03  0.9909850E+03  0.7818609E-02  0.9318488E-01
       -2   -1    0    0    0  501  0.00000000000E+00  0.00000000000E+00  0.34872358802E+03  0.34872358803E+03  0.25500000920E-02 0.  1.
        2   -1    0    0  501    0  0.00000000000E+00  0.00000000000E+00 -0.70403265812E+03  0.70403265812E+03  0.25500000920E-02 0. -1.
    10030    2    1    2    0    0  0.00000000000E+00  0.00000000000E+00 -0.35530907010E+03  0.10527562461E+04  0.99098495373E+03 0.  0.
        2    1    3    3  502    0  0.31859419482E+03  0.21634081007E+03  0.15356043328E+03  0.41459186407E+03  0.25500000920E-02 0.  1.
       -2    1    3    3    0  502 -0.31859419482E+03 -0.21634081007E+03 -0.50886950338E+03  0.63816438208E+03  0.25500000920E-02 0. -1.
</event>
<event>
 5   0  0.1548000E-03  0.9943098E+03  0.7818609E-02  0.9314808E-01
        4   -1    0    0  501    0  0.00000000000E+00  0.00000000000E+00  0.45046036658E+03  0.45046215686E+03  0.12699999809E+01 0. -1.
       -4   -1    0    0    0  501  0.00000000000E+00  0.00000000000E+00 -0.54868617250E+03  0.54868764228E+03  0.12699999809E+01 0.  1.
    10030    2    1    2    0    0  0.00000000000E+00  0.00000000000E+00 -0.98225805913E+02  0.99914979914E+03  0.99430981699E+03 0.  0.
        5    1    3    3  502    0 -0.27906448922E+03  0.38753510494E+03 -0.18791734688E+03  0.51322067959E+03  0.46999998093E+01 0.  1.
       -5    1    3    3    0  502  0.27906448922E+03 -0.38753510494E+03  0.89691540966E+02  0.48592911955E+03  0.46999998093E+01 0. -1.
</event>
<event>
 5   0  0.3873874E-03  0.9872448E+03  0.7818609E-02  0.9322646E-01
        2   -1    0    0  501    0  0.00000000000E+00  0.00000000000E+00  0.95270276009E+03  0.95270276009E+03  0.25500000920E-02 0.  1.
       -2   -1    0    0    0  501  0.00000000000E+00  0.00000000000E+00 -0.25575980360E+03  0.25575980361E+03  0.25500000920E-02 0. -1.
    10030    2    1    2    0    0  0.00000000000E+00  0.00000000000E+00  0.69694295649E+03  0.12084625637E+04  0.98724479400E+03 0.  0.
        5    1    3    3  502    0  0.45833169931E+03  0.29634855726E+02  0.56980528567E+03  0.73187862713E+03  0.46999998093E+01 0.  1.
       -5    1    3    3    0  502 -0.45833169931E+03 -0.29634855726E+02  0.12713767082E+03  0.47658393658E+03  0.46999998093E+01 0. -1.
</event>
<event>
 5   0  0.2405022E-03  0.9925036E+03  0.7818609E-02  0.9316805E-01
       -1   -1    0    0    0  501  0.00000000000E+00  0.00000000000E+00  0.77673691469E+03  0.77673691471E+03  0.50400001928E-02 0. -1.
        1   -1    0    0  501    0  0.00000000000E+00  0.00000000000E+00 -0.31705180118E+03  0.31705180122E+03  0.50400001928E-02 0.  1.
    10030    2    1    2    0    0  0.00000000000E+00  0.00000000000E+00  0.45968511351E+03  0.10937887159E+04  0.99250357757E+03 0.  0.
        4    1    3    3  502    0  0.38037698950E+03 -0.20273396140E+03  0.50085842774E+03  0.66079383380E+03  0.12699999809E+01 0. -1.
       -4    1    3    3    0  502 -0.38037698950E+03  0.20273396140E+03 -0.41173314229E+02  0.43299488213E+03  0.12699999809E+01 0.  1.
</event>
<event>
 5   0  0.2350769E-03  0.1003273E+04  0.7818609E-02  0.9304962E-01
        1   -1    0    0  501    0  0.00000000000E+00  0.00000000000E+00  0.98054935685E+03  0.98054935686E+03  0.50400001928E-02 0.  1.
       -1   -1    0    0    0  501  0.00000000000E+00  0.00000000000E+00 -0.25663097530E+03  0.25663097534E+03  0.50400001928E-02 0. -1.
    10030    2    1    2    0    0  0.00000000000E+00  0.00000000000E+00  0.72391838155E+03  0.12371803322E+04  0.10032733183E+04 0.  0.
        2    1    3    3  502    0  0.40359473811E+03 -0.18712332147E+03  0.76105145607E+02  0.45132675886E+03  0.25500000920E-02 0.  1.
       -2    1    3    3    0  502 -0.40359473811E+03  0.18712332147E+03  0.64781323594E+03  0.78585357334E+03  0.25500000920E-02 0. -1.
</event>
<event>
 5   0  0.2378609E-03  0.1011958E+04  0.7818609E-02  0.9295526E-01
       -1   -1    0    0    0  501  0.00000000000E+00  0.00000000000E+00  0.32171281227E+03  0.32171281231E+03  0.50400001928E-02 0. -1.
        1   -1    0    0  501    0  0.00000000000E+00  0.00000000000E+00 -0.79578668084E+03  0.79578668086E+03  0.50400001928E-02 0.  1.
    10030    2    1    2    0    0  0.00000000000E+00  0.00000000000E+00 -0.47407386857E+03  0.11174994932E+04  0.10119580448E+04 0.  0.
        1    1    3    3  502    0  0.38087228619E+03 -0.21890545017E+03  0.40207967068E+02  0.44113487183E+03  0.50400001928E-02 0. -1.
       -1    1    3    3    0  502 -0.38087228619E+03  0.21890545017E+03 -0.51428183564E+03  0.67636462134E+03  0.50400001928E-02 0.  1.
</event>
<event>
 5   0  0.3873874E-03  0.1005152E+04  0.7818609E-02  0.9302912E-01
       -2   -1    0    0    0  501  0.00000000000E+00  0.00000000000E+00  0.13164756827E+03  0.13164756829E+03  0.25500000920E-02 0. -1.
        2   -1    0    0  501    0  0.00000000000E+00  0.00000000000E+00 -0.19186283696E+04  0.19186283696E+04  0.25500000920E-02 0.  1.
    10030    2    1    2    0    0  0.00000000000E+00  0.00000000000E+00 -0.17869808013E+04  0.20502759379E+04  0.10051522458E+04 0.  0.
        5    1    3    3  502    0 -0.96614578509E+02  0.43839851239E+03 -0.43269708134E+03  0.62351943566E+03  0.46999998093E+01 0. -1.
       -5    1    3    3    0  502  0.96614578509E+02 -0.43839851239E+03 -0.13542837200E+04  0.14267565023E+04  0.46999998093E+01 0.  1.
</event>
<event>
 5   0  0.2327595E-03  0.1003032E+04  0.7818609E-02  0.9305225E-01
       -1   -1    0    0    0  501  0.00000000000E+00  0.00000000000E+00  0.12302290800E+03  0.12302290810E+03  0.50400001928E-02 0.  1.
        1   -1    0    0  501    0  0.00000000000E+00  0.00000000000E+00 -0.20444853774E+04  0.20444853774E+04  0.50400001928E-02 0. -1.
    10030    2    1    2    0    0  0.00000000000E+00  0.00000000000E+00 -0.19214624694E+04  0.21675082855E+04  0.10030324753E+04 0.  0.
        5    1    3    3  502    0  0.33635909585E+03 -0.11325403351E+03 -0.19509247468E+03  0.40502725975E+03  0.46999998093E+01 0.  1.
       -5    1    3    3    0  502 -0.33635909585E+03  0.11325403351E+03 -0.17263699947E+04  0.17624810257E+04  0.46999998093E+01 0. -1.
</event>
<event>
 5   0  0.2313036E-03  0.1026101E+04  0.7818609E-02  0.9280373E-01
       -1   -1    0    0    0  501  0.00000000000E+00  0.00000000000E+00  0.50861813119E+03  0.50861813122E+03  0.50400001928E-02 0.  1.
        1   -1    0    0  501    0  0.00000000000E+00  0.00000000000E+00 -0.51752099501E+03  0.51752099503E+03  0.50400001928E-02 0. -1.
    10030    2    1    2    0    0  0.00000000000E+00  0.00000000000E+00 -0.89028638199E+01  0.10261391263E+04  0.10261005046E+04 0.  0.
        3    1    3    3  502    0  0.13672489768E+03 -0.41222206539E+03  0.26868852891E+03  0.51069977933E+03  0.10100000352E+00 0.  1.
       -3    1    3    3    0  502 -0.13672489768E+03  0.41222206539E+03 -0.27759139273E+03  0.51543934692E+03  0.10100000352E+00 0. -1.
</event>
<event>
 5   0  0.4026829E-03  0.1030297E+04  0.7818609E-02  0.9275926E-01
        2   -1    0    0  501    0  0.00000000000E+00  0.00000000000E+00  0.25054404122E+04  0.25054404122E+04  0.25500000920E-02 0. -1.
       -2   -1    0    0    0  501  0.00000000000E+00  0.00000000000E+00 -0.10592062885E+03  0.10592062888E+03  0.25500000920E-02 0.  1.
    10030    2    1    2    0    0  0.00000000000E+00  0.00000000000E+00  0.23995197833E+04  0.26113610411E+04  0.10302967030E+04 0.  0.
        1    1    3    3  502    0 -0.15305921594E+03  0.19268950135E+03  0.52683515635E+02  0.25165834053E+03  0.50400001928E-02 0.  1.
       -1    1    3    3    0  502  0.15305921594E+03 -0.19268950135E+03  0.23468362677E+04  0.23597027005E+04  0.50400001928E-02 0. -1.
</event>
<event>
 5   0  0.2378609E-03  0.1005143E+04  0.7818609E-02  0.9302922E-01
        1   -1    0    0  501    0  0.00000000000E+00  0.00000000000E+00  0.13804720047E+04  0.13804720047E+04  0.50400001928E-02 0. -1.
       -1   -1    0    0    0  501  0.00000000000E+00  0.00000000000E+00 -0.18296505184E+03  0.18296505191E+03  0.50400001928E-02 0.  1.
    10030    2    1    2    0    0  0.00000000000E+00  0.00000000000E+00  0.11975069528E+04  0.15634370566E+04  0.10051430385E+04 0.  0.
        1    1    3    3  502    0 -0.40548795335E+03 -0.19827711948E+03  0.94251511616E+03  0.10450210719E+04  0.50400001928E-02 0. -1.
       -1    1    3    3    0  502  0.40548795335E+03  0.19827711948E+03  0.25499183665E+03  0.51841598471E+03  0.50400001928E-02 0.  1.
</event>
<event>
 5   0  0.4140860E-03  0.9749721E+03  0.7818609E-02  0.9336429E-01
       -2   -1    0    0    0  501  0.00000000000E+00  0.00000000000E+00  0.19574499701E+03  0.19574499703E+03  0.25500000920E-02 0.  1.
        2   -1    0    0  501    0  0.00000000000E+00  0.00000000000E+00 -0.12140420274E+04  0.12140420274E+04  0.25500000920E-02 0. -1.
    10030    2    1    2    0    0  0.00000000000E+00  0.00000000000E+00 -0.10182970304E+04  0.14097870244E+04  0.97497210841E+03 0.  0.
        3    1    3    3  502    0  0.39971313216E+03  0.68055794791E+02 -0.11782417680E+03  0.42223776011E+03  0.10100000352E+00 0.  1.
       -3    1    3    3    0  502 -0.39971313216E+03 -0.68055794791E+02 -0.90047285359E+03  0.98754926433E+03  0.10100000352E+00 0. -1.
</event>
<event>
 5   0  0.2378609E-03  0.1002908E+04  0.7818609E-02  0.9305361E-01
       -1   -1    0    0    0  501  0.00000000000E+00  0.00000000000E+00  0.54193337081E+03  0.54193337083E+03  0.50400001928E-02 0. -1.
        1   -1    0    0  501    0  0.00000000000E+00  0.00000000000E+00 -0.46399810867E+03  0.46399810870E+03  0.50400001928E-02 0.  1.
    10030    2    1    2    0    0  0.00000000000E+00  0.00000000000E+00  0.77935262134E+02  0.10059314795E+04  0.10029078903E+04 0.  0.
        1    1    3    3  502    0 -0.33661221811E+03 -0.19942953375E+03  0.35356292996E+03  0.52733923596E+03  0.50400001928E-02 0. -1.
       -1    1    3    3    0  502  0.33661221811E+03  0.19942953375E+03 -0.27562766782E+03  0.47859224358E+03  0.50400001928E-02 0.  1.
</event>
<event>
 5   0  0.2405022E-03  0.1002826E+04  0.7818609E-02  0.9305451E-01
       -1   -1    0    0    0  501  0.00000000000E+00  0.00000000000E+00  0.47687095785E+03  0.47687095787E+03  0.50400001928E-02 0.  1.
        1   -1    0    0  501    0  0.00000000000E+00  0.00000000000E+00 -0.52721815572E+03  0.52721815575E+03  0.50400001928E-02 0. -1.
    10030    2    1    2    0    0  0.00000000000E+00  0.00000000000E+00 -0.50347197877E+02  0.10040891136E+04  0.10028260606E+04 0.  0.
        4    1    3    3  502    0  0.49927442240E+03 -0.28796460676E+02  0.11055243619E+02  0.50022796436E+03  0.12699999809E+01 0. -1.
       -4    1    3    3    0  502 -0.49927442240E+03  0.28796460676E+02 -0.61402441496E+02  0.50386114926E+03  0.12699999809E+01 0.  1.
</event>
<event>
 5   0  0.4026829E-03  0.1013654E+04  0.7818609E-02  0.9293695E-01
        2   -1    0    0  501    0  0.00000000000E+00  0.00000000000E+00  0.10711596116E+04  0.10711596116E+04  0.25500000920E-02 0.  1.
       -2   -1    0    0    0  501  0.00000000000E+00  0.00000000000E+00 -0.23980887440E+03  0.23980887441E+03  0.25500000920E-02 0. -1.
    10030    2    1    2    0    0  0.00000000000E+00  0.00000000000E+00  0.83135073716E+03  0.13109684860E+04  0.10136539464E+04 0.  0.
        1    1    3    3  502    0 -0.20294404122E+03 -0.28521328892E+03 -0.58355149215E+02  0.35487776418E+03  0.50400001928E-02 0. -1.
       -1    1    3    3    0  502  0.20294404122E+03  0.28521328892E+03  0.88970588638E+03  0.95609072180E+03  0.50400001928E-02 0.  1.
</event>
<event>
 5   0  0.2378609E-03  0.1001836E+04  0.7818609E-02  0.9306534E-01
       -1   -1    0    0    0  501  0.00000000000E+00  0.00000000000E+00  0.14196013477E+04  0.14196013477E+04  0.50400001928E-02 0.  1.
        1   -1    0    0  501    0  0.00000000000E+00  0.00000000000E+00 -0.17675299274E+03  0.17675299281E+03  0.50400001928E-02 0. -1.
    10030    2    1    2    0    0  0.00000000000E+00  0.00000000000E+00  0.12428483549E+04  0.15963543405E+04  0.10018358883E+04 0.  0.
        1    1    3    3  502    0  0.97445642957E+02  0.38923567468E+03  0.10992369749E+04  0.11701803241E+04  0.50400001928E-02 0.  1.
       -1    1    3    3    0  502 -0.97445642957E+02 -0.38923567468E+03  0.14361138001E+03  0.42617401642E+03  0.50400001928E-02 0. -1.
</event>
<event>
 5   0  0.2378609E-03  0.1001484E+04  0.7818609E-02  0.9306919E-01
       -1   -1    0    0    0  501  0.00000000000E+00  0.00000000000E+00  0.31846988226E+03  0.31846988230E+03  0.50400001928E-02 0.  1.
        1   -1    0    0  501    0  0.00000000000E+00  0.00000000000E+00 -0.78733465003E+03  0.78733465004E+03  0.50400001928E-02 0. -1.
    10030    2    1    2    0    0  0.00000000000E+00  0.00000000000E+00 -0.46886476777E+03  0.11058045323E+04  0.10014836460E+04 0.  0.
        1    1    3    3  502    0  0.44872648278E+03  0.19759852567E+03 -0.12214491222E+03  0.50529200795E+03  0.50400001928E-02 0.  1.
       -1    1    3    3    0  502 -0.44872648278E+03 -0.19759852567E+03 -0.34671985554E+03  0.60051252439E+03  0.50400001928E-02 0. -1.
</event>
<event>
 5   0  0.4140860E-03  0.9978530E+03  0.7818609E-02  0.9310903E-01
       -2   -1    0    0    0  501  0.00000000000E+00  0.00000000000E+00  0.27168633360E+03  0.27168633361E+03  0.25500000920E-02 0. -1.
        2   -1    0    0  501    0  0.00000000000E+00  0.00000000000E+00 -0.91623185118E+03  0.91623185119E+03  0.25500000920E-02 0.  1.
    10030    2    1    2    0    0  0.00000000000E+00  0.00000000000E+00 -0.64454551758E+03  0.11879181848E+04  0.99785304006E+03 0.  0.
        3    1    3    3  502    0  0.34459396524E+03 -0.35938978100E+03 -0.28422138882E+03  0.57331302412E+03  0.10100000352E+00 0. -1.
       -3    1    3    3    0  502 -0.34459396524E+03  0.35938978100E+03 -0.36032412876E+03  0.61460516068E+03  0.10100000352E+00 0.  1.
</event>
<event>
 5   0  0.3873874E-03  0.1056795E+04  0.7818609E-02  0.9248357E-01
       -2   -1    0    0    0  501  0.00000000000E+00  0.00000000000E+00  0.10864673822E+04  0.10864673822E+04  0.25500000920E-02 0.  1.
        2   -1    0    0  501    0  0.00000000000E+00  0.00000000000E+00 -0.25698329449E+03  0.25698329450E+03  0.25500000920E-02 0. -1.
    10030    2    1    2    0    0  0.00000000000E+00  0.00000000000E+00  0.82948408772E+03  0.13434506767E+04  0.10567950932E+04 0.  0.
        5    1    3    3  502    0 -0.23329393234E+03 -0.37870291402E+03  0.52179602797E+02  0.44786912921E+03  0.46999998093E+01 0.  1.
       -5    1    3    3    0  502  0.23329393234E+03  0.37870291402E+03  0.77730448493E+03  0.89558154751E+03  0.46999998093E+01 0. -1.
</event>
<event>
 5   0  0.3895011E-03  0.9920164E+03  0.7818609E-02  0.9317345E-01
        2   -1    0    0  501    0  0.00000000000E+00  0.00000000000E+00  0.16172549059E+04  0.16172549059E+04  0.25500000920E-02 0.  1.
       -2   -1    0    0    0  501  0.00000000000E+00  0.00000000000E+00 -0.15212452173E+03  0.15212452175E+03  0.25500000920E-02 0. -1.
    10030    2    1    2    0    0  0.00000000000E+00  0.00000000000E+00  0.14651303842E+04  0.17693794277E+04  0.99201638918E+03 0.  0.
        2    1    3    3  502    0 -0.13919428359E+03  0.23675792167E+03  0.14692555384E+04  0.14947043852E+04  0.25500000920E-02 0.  1.
       -2    1    3    3    0  502  0.13919428359E+03 -0.23675792167E+03 -0.41251541900E+01  0.27467504248E+03  0.25500000920E-02 0. -1.
</event>
<event>
 5   0  0.3895011E-03  0.9954006E+03  0.7818609E-02  0.9313604E-01
       -2   -1    0    0    0  501  0.00000000000E+00  0.00000000000E+00  0.16928413241E+03  0.16928413243E+03  0.25500000920E-02 0.  1.
        2   -1    0    0  501    0  0.00000000000E+00  0.00000000000E+00 -0.14632534871E+04  0.14632534871E+04  0.25500000920E-02 0. -1.
    10030    2    1    2    0    0  0.00000000000E+00  0.00000000000E+00 -0.12939693547E+04  0.16325376196E+04  0.99540061700E+03 0.  0.
        2    1    3    3  502    0 -0.29855728192E+02  0.64594887837E+02  0.16089752693E+03  0.17593145886E+03  0.25500000920E-02 0.  1.
       -2    1    3    3    0  502  0.29855728192E+02 -0.64594887837E+02 -0.14548668817E+04  0.14566061607E+04  0.25500000920E-02 0. -1.
</event>
<event>
 5   0  0.4140860E-03  0.9971884E+03  0.7818609E-02  0.9311634E-01
        2   -1    0    0  501    0  0.00000000000E+00  0.00000000000E+00  0.22245836102E+04  0.22245836102E+04  0.25500000920E-02 0.  1.
       -2   -1    0    0    0  501  0.00000000000E+00  0.00000000000E+00 -0.11174953802E+03  0.11174953805E+03  0.25500000920E-02 0. -1.
    10030    2    1    2    0    0  0.00000000000E+00  0.00000000000E+00  0.21128340721E+04  0.23363331482E+04  0.99718842906E+03 0.  0.
        3    1    3    3  502    0 -0.24260720980E+03 -0.24529937370E+03  0.18997582018E+04  0.19308317577E+04  0.10100000352E+00 0.  1.
       -3    1    3    3    0  502  0.24260720980E+03  0.24529937370E+03  0.21307587031E+03  0.40550139049E+03  0.10100000352E+00 0. -1.
</event>
<event>
 5   0  0.2350769E-03  0.1038657E+04  0.7818609E-02  0.9267134E-01
       -1   -1    0    0    0  501  0.00000000000E+00  0.00000000000E+00  0.52739737587E+03  0.52739737590E+03  0.50400001928E-02 0.  1.
        1   -1    0    0  501    0  0.00000000000E+00  0.00000000000E+00 -0.51138332759E+03  0.51138332762E+03  0.50400001928E-02 0. -1.
    10030    2    1    2    0    0  0.00000000000E+00  0.00000000000E+00  0.16014048277E+02  0.10387807035E+04  0.10386572583E+04 0.  0.
        2    1    3    3  502    0 -0.26763067514E+03 -0.36477869930E+03 -0.24699886171E+03  0.51545913071E+03  0.25500000920E-02 0. -1.
       -2    1    3    3    0  502  0.26763067514E+03  0.36477869930E+03  0.26301290998E+03  0.52332157281E+03  0.25500000920E-02 0.  1.
</event>
<event>
 5   0  0.4026829E-03  0.1001387E+04  0.7818609E-02  0.9307025E-01
        2   -1    0    0  501    0  0.00000000000E+00  0.00000000000E+00  0.26909946219E+03  0.26909946220E+03  0.25500000920E-02 0.  1.
       -2   -1    0    0    0  501  0.00000000000E+00  0.00000000000E+00 -0.93160291647E+03  0.93160291647E+03  0.25500000920E-02 0. -1.
    10030    2    1    2    0    0  0.00000000000E+00  0.00000000000E+00 -0.66250345428E+03  0.12007023787E+04  0.10013867261E+04 0.  0.
        1    1    3    3  502    0  0.22861936219E+03 -0.42995581861E+03 -0.19160079439E+03  0.52329693594E+03  0.50400001928E-02 0.  1.
       -1    1    3    3    0  502 -0.22861936219E+03  0.42995581861E+03 -0.47090265989E+03  0.67740544273E+03  0.50400001928E-02 0. -1.
</event>
<event>
 5   0  0.2378609E-03  0.9944179E+03  0.7818609E-02  0.9314688E-01
       -1   -1    0    0    0  501  0.00000000000E+00  0.00000000000E+00  0.24656287792E+03  0.24656287797E+03  0.50400001928E-02 0. -1.
        1   -1    0    0  501    0  0.00000000000E+00  0.00000000000E+00 -0.10026519416E+04  0.10026519416E+04  0.50400001928E-02 0.  1.
    10030    2    1    2    0    0  0.00000000000E+00  0.00000000000E+00 -0.75608906371E+03  0.12492148196E+04  0.99441791681E+03 0.  0.
        1    1    3    3  502    0 -0.13762884277E+03 -0.20297885543E+03 -0.92138948747E+03  0.95346772455E+03  0.50400001928E-02 0.  1.
       -1    1    3    3    0  502  0.13762884277E+03  0.20297885543E+03  0.16530042376E+03  0.29574709506E+03  0.50400001928E-02 0. -1.
</event>
<event>
 5   0  0.2313036E-03  0.1007053E+04  0.7818609E-02  0.9300843E-01
        1   -1    0    0  501    0  0.00000000000E+00  0.00000000000E+00  0.72577087766E+03  0.72577087768E+03  0.50400001928E-02 0. -1.
       -1   -1    0    0    0  501  0.00000000000E+00  0.00000000000E+00 -0.34933730672E+03  0.34933730675E+03  0.50400001928E-02 0.  1.
    10030    2    1    2    0    0  0.00000000000E+00  0.00000000000E+00  0.37643357094E+03  0.10751081844E+04  0.10070528163E+04 0.  0.
        3    1    3    3  502    0  0.12102968204E+03 -0.10533642833E+02 -0.33345651932E+03  0.35489773462E+03  0.10100000352E+00 0.  1.
       -3    1    3    3    0  502 -0.12102968204E+03  0.10533642833E+02  0.70989009026E+03  0.72021044981E+03  0.10100000352E+00 0. -1.
</event>
<event>
 5   0  0.2405022E-03  0.9996393E+03  0.7818609E-02  0.9308941E-01
       -1   -1    0    0    0  501  0.00000000000E+00  0.00000000000E+00  0.78307664021E+03  0.78307664022E+03  0.50400001928E-02 0. -1.
        1   -1    0    0  501    0  0.00000000000E+00  0.00000000000E+00 -0.31902327138E+03  0.31902327142E+03  0.50400001928E-02 0.  1.
    10030    2    1    2    0    0  0.00000000000E+00  0.00000000000E+00  0.46405336883E+03  0.11020999116E+04  0.99963927800E+03 0.  0.
        4    1    3    3  502    0 -0.91840603871E+02  0.48885033524E+03  0.17791761319E+03  0.52826663416E+03  0.12699999809E+01 0. -1.
       -4    1    3    3    0  502  0.91840603871E+02 -0.48885033524E+03  0.28613575564E+03  0.57383327748E+03  0.12699999809E+01 0.  1.
</event>
<event>
 5   0  0.3826483E-03  0.1000600E+04  0.7818609E-02  0.9307886E-01
        2   -1    0    0  501    0  0.00000000000E+00  0.00000000000E+00  0.14554439822E+04  0.14554439822E+04  0.25500000920E-02 0. -1.
       -2   -1    0    0    0  501  0.00000000000E+00  0.00000000000E+00 -0.17197524649E+03  0.17197524651E+03  0.25500000920E-02 0.  1.
    10030    2    1    2    0    0  0.00000000000E+00  0.00000000000E+00  0.12834687357E+04  0.16274192287E+04  0.10006004949E+04 0.  0.
        4    1    3    3  502    0  0.34520182438E+03 -0.23713413502E+03  0.19660634521E+03  0.46265815179E+03  0.12699999809E+01 0. -1.
       -4    1    3    3    0  502 -0.34520182438E+03  0.23713413502E+03  0.10868623905E+04  0.11647610769E+04  0.12699999809E+01 0.  1.
</event>
<event>
 5   0  0.2313036E-03  0.9977021E+03  0.7818609E-02  0.9311069E-01
        1   -1    0    0  501    0  0.00000000000E+00  0.00000000000E+00  0.14168785152E+04  0.14168785152E+04  0.50400001928E-02 0. -1.
       -1   -1    0    0    0  501  0.00000000000E+00  0.00000000000E+00 -0.17563424484E+03  0.17563424492E+03  0.50400001928E-02 0.  1.
    10030    2    1    2    0    0  0.00000000000E+00  0.00000000000E+00  0.12412442704E+04  0.15925127601E+04  0.99770213615E+03 0.  0.
        3    1    3    3  502    0  0.23731994885E+03  0.51051181000E+02  0.13162445055E+04  0.13384418514E+04  0.10100000352E+00 0. -1.
       -3    1    3    3    0  502 -0.23731994885E+03 -0.51051181000E+02 -0.75000235094E+02  0.25407090874E+03  0.10100000352E+00 0.  1.
</event>
<event>
 5   0  0.3873874E-03  0.1001962E+04  0.7818609E-02  0.9306396E-01
        2   -1    0    0  501    0  0.00000000000E+00  0.00000000000E+00  0.80391965046E+03  0.80391965046E+03  0.25500000920E-02 0.  1.
       -2   -1    0    0    0  501  0.00000000000E+00  0.00000000000E+00 -0.31219757839E+03  0.31219757840E+03  0.25500000920E-02 0. -1.
    10030    2    1    2    0    0  0.00000000000E+00  0.00000000000E+00  0.49172207207E+03  0.11161172289E+04  0.10019616122E+04 0.  0.
        5    1    3    3  502    0  0.27347947223E+03 -0.35080564328E+03  0.50255909214E+03  0.67115076710E+03  0.46999998093E+01 0.  1.
       -5    1    3    3    0  502 -0.27347947223E+03  0.35080564328E+03 -0.10837020072E+02  0.44496646176E+03  0.46999998093E+01 0. -1.
</event>
<event>
 5   0  0.2313036E-03  0.1013702E+04  0.7818609E-02  0.9293644E-01
       -1   -1    0    0    0  501  0.00000000000E+00  0.00000000000E+00  0.43207878793E+03  0.43207878796E+03  0.50400001928E-02 0. -1.
        1   -1    0    0  501    0  0.00000000000E+00  0.00000000000E+00 -0.59456216110E+03  0.59456216112E+03  0.50400001928E-02 0.  1.
    10030    2    1    2    0    0  0.00000000000E+00  0.00000000000E+00 -0.16248337317E+03  0.10266409491E+04  0.10137015299E+04 0.  0.
        3    1    3    3  502    0 -0.29833455246E+03 -0.25429579549E+03 -0.40663369442E+03  0.56481928830E+03  0.10100000352E+00 0.  1.
       -3    1    3    3    0  502  0.29833455246E+03  0.25429579549E+03  0.24415032125E+03  0.46182166078E+03  0.10100000352E+00 0. -1.
</event>
<event>
 5   0  0.4026829E-03  0.1001897E+04  0.7818609E-02  0.9306466E-01
       -2   -1    0    0    0  501  0.00000000000E+00  0.00000000000E+00  0.10586954274E+03  0.10586954277E+03  0.25500000920E-02 0.  1.
        2   -1    0    0  501    0  0.00000000000E+00  0.00000000000E+00 -0.23703651054E+04  0.23703651054E+04  0.25500000920E-02 0. -1.
    10030    2    1    2    0    0  0.00000000000E+00  0.00000000000E+00 -0.22644955627E+04  0.24762346482E+04  0.10018971402E+04 0.  0.
        1    1    3    3  502    0  0.40492106137E+02  0.84411748883E+02  0.84055408130E+02  0.12581838367E+03  0.50400001928E-02 0.  1.
       -1    1    3    3    0  502 -0.40492106137E+02 -0.84411748883E+02 -0.23485509708E+04  0.23504162645E+04  0.50400001928E-02 0. -1.
</event>
<event>
 5   0  0.2313036E-03  0.9887246E+03  0.7818609E-02  0.9320999E-01
       -1   -1    0    0    0  501  0.00000000000E+00  0.00000000000E+00  0.18996388147E+03  0.18996388154E+03  0.50400001928E-02 0. -1.
        1   -1    0    0  501    0  0.00000000000E+00  0.00000000000E+00 -0.12865291479E+04  0.12865291479E+04  0.50400001928E-02 0.  1.
    10030    2    1    2    0    0  0.00000000000E+00  0.00000000000E+00 -0.10965652664E+04  0.14764930295E+04  0.98872457363E+03 0.  0.
        3    1    3    3  502    0  0.18512645320E+01 -0.43265281374E+03 -0.19112301688E+03  0.47299038278E+03  0.10100000352E+00 0. -1.
       -3    1    3    3    0  502 -0.18512645320E+01  0.43265281374E+03 -0.90544224956E+03  0.10035026467E+04  0.10100000352E+00 0.  1.
</event>
<event>
 5   0  0.3873874E-03  0.9760596E+03  0.7818609E-02  0.9335199E-01
       -2   -1    0    0    0  501  0.00000000000E+00  0.00000000000E+00  0.25048027051E+03  0.25048027053E+03  0.25500000920E-02 0.  1.
        2   -1    0    0  501    0  0.00000000000E+00  0.00000000000E+00 -0.95086565471E+03  0.95086565471E+03  0.25500000920E-02 0. -1.
    10030    2    1    2    0    0  0.00000000000E+00  0.00000000000E+00 -0.70038538419E+03  0.12013459252E+04  0.97605960150E+03 0.  0.
        5    1    3    3  502    0 -0.37597854043E+03  0.11283485465E+03 -0.70704208304E+03  0.80871636837E+03  0.46999998093E+01 0. -1.
       -5    1    3    3    0  502  0.37597854043E+03 -0.11283485465E+03  0.66566988458E+01  0.39262955686E+03  0.46999998093E+01 0.  1.
</event>
<event>
 5   0  0.4140860E-03  0.9861521E+03  0.7818609E-02  0.9323865E-01
       -2   -1    0    0    0  501  0.00000000000E+00  0.00000000000E+00  0.29807813921E+03  0.29807813922E+03  0.25500000920E-02 0. -1.
        2   -1    0    0  501    0  0.00000000000E+00  0.00000000000E+00 -0.81563842904E+03  0.81563842904E+03  0.25500000920E-02 0.  1.
    10030    2    1    2    0    0  0.00000000000E+00  0.00000000000E+00 -0.51756028983E+03  0.11137165683E+04  0.98615208807E+03 0.  0.
        3    1    3    3  502    0  0.17995806632E+03  0.18554406273E+03 -0.73299187981E+03  0.77723137541E+03  0.10100000352E+00 0.  1.
       -3    1    3    3    0  502 -0.17995806632E+03 -0.18554406273E+03  0.21543158998E+03  0.33648519285E+03  0.10100000352E+00 0. -1.
</event>
<event>
 5   0  0.4140860E-03  0.1001980E+04  0.7818609E-02  0.9306376E-01
       -2   -1    0    0    0  501  0.00000000000E+00  0.00000000000E+00  0.40113455251E+03  0.40113455252E+03  0.25500000920E-02 0.  1.
        2   -1    0    0  501    0  0.00000000000E+00  0.00000000000E+00 -0.62570225361E+03  0.62570225362E+03  0.25500000920E-02 0. -1.
    10030    2    1    2    0    0  0.00000000000E+00  0.00000000000E+00 -0.22456770110E+03  0.10268368061E+04  0.10019796276E+04 0.  0.
        3    1    3    3  502    0 -0.12194709282E+03 -0.47501909527E+03 -0.21717809521E+03  0.53635862029E+03  0.10100000352E+00 0. -1.
       -3    1    3    3    0  502  0.12194709282E+03  0.47501909527E+03 -0.73896058935E+01  0.49047818585E+03  0.10100000352E+00 0.  1.
</event>
<event>
 5   0  0.2405022E-03  0.1003434E+04  0.7818609E-02  0.9304786E-01
        1   -1    0    0  501    0  0.00000000000E+00  0.00000000000E+00  0.32511269171E+03  0.32511269175E+03  0.50400001928E-02 0. -1.
       -1   -1    0    0    0  501  0.00000000000E+00  0.00000000000E+00 -0.77425466014E+03  0.77425466016E+03  0.50400001928E-02 0.  1.
    10030    2    1    2    0    0  0.00000000000E+00  0.00000000000E+00 -0.44914196843E+03  0.10993673519E+04  0.10034341367E+04 0.  0.
        4    1    3    3  502    0  0.15402653891E+03  0.47663319201E+03 -0.25584910031E+03  0.56246222046E+03  0.12699999809E+01 0.  1.
       -4    1    3    3    0  502 -0.15402653891E+03 -0.47663319201E+03 -0.19329286812E+03  0.53690513145E+03  0.12699999809E+01 0. -1.
</event>
<event>
 5   0  0.2405022E-03  0.9755367E+03  0.7818609E-02  0.9335790E-01
       -1   -1    0    0    0  501  0.00000000000E+00  0.00000000000E+00  0.38794961838E+03  0.38794961842E+03  0.50400001928E-02 0.  1.
        1   -1    0    0  501    0  0.00000000000E+00  0.00000000000E+00 -0.61327026259E+03  0.61327026261E+03  0.50400001928E-02 0. -1.
    10030    2    1    2    0    0  0.00000000000E+00  0.00000000000E+00 -0.22532064421E+03  0.10012198810E+04  0.97553670226E+03 0.  0.
        4    1    3    3  502    0  0.43798986235E+03 -0.11162674239E+03 -0.30084715882E+03  0.54296065696E+03  0.12699999809E+01 0. -1.
       -4    1    3    3    0  502 -0.43798986235E+03  0.11162674239E+03  0.75526514612E+02  0.45825922407E+03  0.12699999809E+01 0.  1.
</event>
<event>
 5   0  0.2378609E-03  0.9985619E+03  0.7818609E-02  0.9310123E-01
       -1   -1    0    0    0  501  0.00000000000E+00  0.00000000000E+00  0.13406620454E+03  0.13406620464E+03  0.50400001928E-02 0.  1.
        1   -1    0    0  501    0  0.00000000000E+00  0.00000000000E+00 -0.18593907746E+04  0.18593907746E+04  0.50400001928E-02 0. -1.
    10030    2    1    2    0    0  0.00000000000E+00  0.00000000000E+00 -0.17253245701E+04  0.19934569793E+04  0.99856189397E+03 0.  0.
        1    1    3    3  502    0  0.18941950286E+03  0.46175110379E+03 -0.89000790269E+03  0.10203959510E+04  0.50400001928E-02 0. -1.
       -1    1    3    3    0  502 -0.18941950286E+03 -0.46175110379E+03 -0.83531666741E+03  0.97306102830E+03  0.50400001928E-02 0.  1.
</event>
<event>
 5   0  0.2327595E-03  0.1005821E+04  0.7818609E-02  0.9302184E-01
       -1   -1    0    0    0  501  0.00000000000E+00  0.00000000000E+00  0.58959823208E+03  0.58959823210E+03  0.50400001928E-02 0.  1.
        1   -1    0    0  501    0  0.00000000000E+00  0.00000000000E+00 -0.42896811787E+03  0.42896811790E+03  0.50400001928E-02 0. -1.
    10030    2    1    2    0    0  0.00000000000E+00  0.00000000000E+00  0.16063011421E+03  0.10185663500E+04  0.10058207473E+04 0.  0.
        5    1    3    3  502    0  0.33772479025E+03 -0.27407463061E+03 -0.17531552547E+03  0.46896967979E+03  0.46999998093E+01 0. -1.
       -5    1    3    3    0  502 -0.33772479025E+03  0.27407463061E+03  0.33594563968E+03  0.54959667021E+03  0.46999998093E+01 0.  1.
</event>
<event>
 5   0  0.2313036E-03  0.9967465E+03  0.7818609E-02  0.9312120E-01
        1   -1    0    0  501    0  0.00000000000E+00  0.00000000000E+00  0.26051763879E+03  0.26051763883E+03  0.50400001928E-02 0.  1.
       -1   -1    0    0    0  501  0.00000000000E+00  0.00000000000E+00 -0.95339376975E+03  0.95339376976E+03  0.50400001928E-02 0. -1.
    10030    2    1    2    0    0  0.00000000000E+00  0.00000000000E+00 -0.69287613096E+03  0.12139114086E+04  0.99674649488E+03 0.  0.
        3    1    3    3  502    0 -0.10867932085E+03  0.45185057442E+03 -0.12723517510E+03  0.48183911876E+03  0.10100000352E+00 0.  1.
       -3    1    3    3    0  502  0.10867932085E+03 -0.45185057442E+03 -0.56564095587E+03  0.73207228983E+03  0.10100000352E+00 0. -1.
</event>
<event>
 5   0  0.2350769E-03  0.9973762E+03  0.7818609E-02  0.9311427E-01
       -1   -1    0    0    0  501  0.00000000000E+00  0.00000000000E+00  0.75416808436E+03  0.75416808438E+03  0.50400001928E-02 0.  1.
        1   -1    0    0  501    0  0.00000000000E+00  0.00000000000E+00 -0.32975387131E+03  0.32975387135E+03  0.50400001928E-02 0. -1.
    10030    2    1    2    0    0  0.00000000000E+00  0.00000000000E+00  0.42441421305E+03  0.10839219557E+04  0.99737624890E+03 0.  0.
        2    1    3    3  502    0  0.94881457136E+02 -0.29636418376E+03  0.63570810000E+03  0.70778457791E+03  0.25500000920E-02 0.  1.
       -2    1    3    3    0  502 -0.94881457136E+02  0.29636418376E+03 -0.21129388695E+03  0.37613737782E+03  0.25500000920E-02 0. -1.
</event>
<event>
 5   0  0.2350769E-03  0.1004700E+04  0.7818609E-02  0.9303405E-01
        1   -1    0    0  501    0  0.00000000000E+00  0.00000000000E+00  0.11732507590E+04  0.11732507590E+04  0.50400001928E-02 0.  1.
       -1   -1    0    0    0  501  0.00000000000E+00  0.00000000000E+00 -0.21509067163E+03  0.21509067169E+03  0.50400001928E-02 0. -1.
    10030    2    1    2    0    0  0.00000000000E+00  0.00000000000E+00  0.95816008735E+03  0.13883414307E+04  0.10046995447E+04 0.  0.
        2    1    3    3  502    0 -0.10073499687E+03 -0.29927143537E+03 -0.60803963635E+02  0.32157122636E+03  0.25500000920E-02 0. -1.
       -2    1    3    3    0  502  0.10073499687E+03  0.29927143537E+03  0.10189640510E+04  0.10667702043E+04  0.25500000920E-02 0.  1.
</event>
<event>
 5   0  0.3895011E-03  0.9603989E+03  0.7818609E-02  0.9353078E-01
        2   -1    0    0  501    0  0.00000000000E+00  0.00000000000E+00  0.18674913312E+04  0.18674913312E+04  0.25500000920E-02 0.  1.
       -2   -1    0    0    0  501  0.00000000000E+00  0.00000000000E+00 -0.12347661431E+03  0.12347661434E+03  0.25500000920E-02 0. -1.
    10030    2    1    2    0    0  0.00000000000E+00  0.00000000000E+00  0.17440147169E+04  0.19909679455E+04  0.96039888975E+03 0.  0.
        2    1    3    3  502    0 -0.27809195404E+03 -0.20079163596E+03  0.15686896351E+04  0.16057520317E+04  0.25500000920E-02 0.  1.
       -2    1    3    3    0  502  0.27809195404E+03  0.20079163596E+03  0.17532508177E+03  0.38521591384E+03  0.25500000920E-02 0. -1.
</event>
<event>
 5   0  0.2327595E-03  0.1007060E+04  0.7818609E-02  0.9300835E-01
        1   -1    0    0  501    0  0.00000000000E+00  0.00000000000E+00  0.56353311216E+03  0.56353311218E+03  0.50400001928E-02 0.  1.
       -1   -1    0    0    0  501  0.00000000000E+00  0.00000000000E+00 -0.44991618832E+03  0.44991618835E+03  0.50400001928E-02 0. -1.
    10030    2    1    2    0    0  0.00000000000E+00  0.00000000000E+00  0.11361692384E+03  0.10134493005E+04  0.10070604150E+04 0.  0.
        5    1    3    3  502    0 -0.40724333582E+02  0.14137438892E+03  0.54139777407E+03  0.56105153859E+03  0.46999998093E+01 0.  1.
       -5    1    3    3    0  502  0.40724333582E+02 -0.14137438892E+03 -0.42778085023E+03  0.45239776194E+03  0.46999998093E+01 0. -1.
</event>
<event>
 5   0  0.2313036E-03  0.9999638E+03  0.7818609E-02  0.9308585E-01
        1   -1    0    0  501    0  0.00000000000E+00  0.00000000000E+00  0.13620094291E+04  0.13620094291E+04  0.50400001928E-02 0. -1.
       -1   -1    0    0    0  501  0.00000000000E+00  0.00000000000E+00 -0.18353903176E+03  0.18353903183E+03  0.50400001928E-02 0.  1.
    10030    2    1    2    0    0  0.00000000000E+00  0.00000000000E+00  0.11784703973E+04  0.15455484609E+04  0.99996378320E+03 0.  0.
        3    1    3    3  502    0  0.14295136617E+03  0.26126143191E+03  0.12099628198E+04  0.12460749032E+04  0.10100000352E+00 0. -1.
       -3    1    3    3    0  502 -0.14295136617E+03 -0.26126143191E+03 -0.31492422489E+02  0.29947355772E+03  0.10100000352E+00 0.  1.
</event>
<event>
 5   0  0.3895011E-03  0.1002922E+04  0.7818609E-02  0.9305346E-01
        2   -1    0    0  501    0  0.00000000000E+00  0.00000000000E+00  0.17374745733E+04  0.17374745733E+04  0.25500000920E-02 0.  1.
       -2   -1    0    0    0  501  0.00000000000E+00  0.00000000000E+00 -0.14472897096E+03  0.14472897098E+03  0.25500000920E-02 0. -1.
    10030    2    1    2    0    0  0.00000000000E+00  0.00000000000E+00  0.15927456023E+04  0.18822035442E+04  0.10029215464E+04 0.  0.
        2    1    3    3  502    0 -0.47972640711E+01  0.49613848276E+03  0.65991960505E+03  0.82563326783E+03  0.25500000920E-02 0. -1.
       -2    1    3    3    0  502  0.47972640711E+01 -0.49613848276E+03  0.93282599726E+03  0.10565702764E+04  0.25500000920E-02 0.  1.
</event>
<event>
 5   0  0.2350769E-03  0.9969777E+03  0.7818609E-02  0.9311866E-01
        1   -1    0    0  501    0  0.00000000000E+00  0.00000000000E+00  0.45373738305E+03  0.45373738308E+03  0.50400001928E-02 0. -1.
       -1   -1    0    0    0  501  0.00000000000E+00  0.00000000000E+00 -0.54765407649E+03  0.54765407652E+03  0.50400001928E-02 0.  1.
    10030    2    1    2    0    0  0.00000000000E+00  0.00000000000E+00 -0.93916693442E+02  0.10013914596E+04  0.99697768784E+03 0.  0.
        2    1    3    3  502    0 -0.88166336728E+02 -0.40913842460E+03 -0.31894040573E+03  0.52620389188E+03  0.25500000920E-02 0.  1.
       -2    1    3    3    0  502  0.88166336728E+02  0.40913842460E+03  0.22502371229E+03  0.47518756772E+03  0.25500000920E-02 0. -1.
</event>
<event>
 5   0  0.2327595E-03  0.1009859E+04  0.7818609E-02  0.9297797E-01
       -1   -1    0    0    0  501  0.00000000000E+00  0.00000000000E+00  0.32337250823E+03  0.32337250827E+03  0.50400001928E-02 0.  1.
        1   -1    0    0  501    0  0.00000000000E+00  0.00000000000E+00 -0.78842123961E+03  0.78842123963E+03  0.50400001928E-02 0. -1.
    10030    2    1    2    0    0  0.00000000000E+00  0.00000000000E+00 -0.46504873138E+03  0.11117937479E+04  0.10098589086E+04 0.  0.
        5    1    3    3  502    0  0.48484342886E+02  0.40653157633E+03 -0.55783855468E+03  0.69197152914E+03  0.46999998093E+01 0. -1.
       -5    1    3    3    0  502 -0.48484342886E+02 -0.40653157633E+03  0.92789823291E+02  0.41982221875E+03  0.46999998093E+01 0.  1.
</event>
<event>
 5   0  0.4026829E-03  0.1016114E+04  0.7818609E-02  0.9291046E-01
        2   -1    0    0  501    0  0.00000000000E+00  0.00000000000E+00  0.83343277518E+03  0.83343277518E+03  0.25500000920E-02 0. -1.
       -2   -1    0    0    0  501  0.00000000000E+00  0.00000000000E+00 -0.30970918914E+03  0.30970918915E+03  0.25500000920E-02 0.  1.
    10030    2    1    2    0    0  0.00000000000E+00  0.00000000000E+00  0.52372358604E+03  0.11431419643E+04  0.10161137515E+04 0.  0.
        1    1    3    3  502    0  0.47700235109E+03  0.91050416396E+02  0.42986356061E+03  0.64853997721E+03  0.50400001928E-02 0. -1.
       -1    1    3    3    0  502 -0.47700235109E+03 -0.91050416396E+02  0.93860025430E+02  0.49460198713E+03  0.50400001928E-02 0.  1.
</event>
<event>
 5   0  0.3895011E-03  0.1002644E+04  0.7818609E-02  0.9305650E-01
       -2   -1    0    0    0  501  0.00000000000E+00  0.00000000000E+00  0.36887840381E+03  0.36887840382E+03  0.25500000920E-02 0.  1.
        2   -1    0    0  501    0  0.00000000000E+00  0.00000000000E+00 -0.68131830274E+03  0.68131830274E+03  0.25500000920E-02 0. -1.
    10030    2    1    2    0    0  0.00000000000E+00  0.00000000000E+00 -0.31243989893E+03  0.10501967066E+04  0.10026437214E+04 0.  0.
        2    1    3    3  502    0  0.10525584708E+03 -0.47356197514E+03 -0.23796472189E+02  0.48570156448E+03  0.25500000920E-02 0.  1.
       -2    1    3    3    0  502 -0.10525584708E+03  0.47356197514E+03 -0.28864342674E+03  0.56449514209E+03  0.25500000920E-02 0. -1.
</event>
<event>
 5   0  0.3826483E-03  0.1005339E+04  0.7818609E-02  0.9302708E-01
       -2   -1    0    0    0  501  0.00000000000E+00  0.00000000000E+00  0.20329171834E+03  0.20329171835E+03  0.25500000920E-02 0. -1.
        2   -1    0    0  501    0  0.00000000000E+00  0.00000000000E+00 -0.12429267116E+04  0.12429267116E+04  0.25500000920E-02 0.  1.
    10030    2    1    2    0    0  0.00000000000E+00  0.00000000000E+00 -0.10396349933E+04  0.14462184300E+04  0.10053391607E+04 0.  0.
        4    1    3    3  502    0  0.25927832709E+03  0.40293028832E+03 -0.30119274813E+03  0.56594765887E+03  0.12699999809E+01 0. -1.
       -4    1    3    3    0  502 -0.25927832709E+03 -0.40293028832E+03 -0.73844224517E+03  0.88027077113E+03  0.12699999809E+01 0.  1.
</event>
<event>
 5   0  0.3873874E-03  0.9928949E+03  0.7818609E-02  0.9316372E-01
       -2   -1    0    0    0  501  0.00000000000E+00  0.00000000000E+00  0.23428455565E+03  0.23428455566E+03  0.25500000920E-02 0. -1.
        2   -1    0    0  501    0  0.00000000000E+00  0.00000000000E+00 -0.10519689979E+04  0.10519689979E+04  0.25500000920E-02 0.  1.
    10030    2    1    2    0    0  0.00000000000E+00  0.00000000000E+00 -0.81768444229E+03  0.12862535536E+04  0.99289493755E+03 0.  0.
        5    1    3    3  502    0  0.11910653181E+03  0.36261815005E+02 -0.10313858349E+04  0.10388840722E+04  0.46999998093E+01 0.  1.
       -5    1    3    3    0  502 -0.11910653181E+03 -0.36261815005E+02  0.21370139256E+03  0.24736948140E+03  0.46999998093E+01 0. -1.
</event>
<event>
 5   0  0.3826483E-03  0.9879073E+03  0.7818609E-02  0.9321908E-01
        2   -1    0    0  501    0  0.00000000000E+00  0.00000000000E+00  0.63232320816E+03  0.63232320816E+03  0.25500000920E-02 0.  1.
       -2   -1    0    0    0  501  0.00000000000E+00  0.00000000000E+00 -0.38586309530E+03  0.38586309530E+03  0.25500000920E-02 0. -1.
    10030    2    1    2    0    0  0.00000000000E+00  0.00000000000E+00  0.24646011286E+03  0.10181863035E+04  0.98790726353E+03 0.  0.
        4    1    3    3  502    0 -0.15776649777E+03 -0.16128138335E+03 -0.32965414184E+03  0.39946892065E+03  0.12699999809E+01 0. -1.
       -4    1    3    3    0  502  0.15776649777E+03  0.16128138335E+03  0.57611425470E+03  0.61871738282E+03  0.12699999809E+01 0.  1.
</event>
<event>
 5   0  0.4026829E-03  0.9945680E+03  0.7818609E-02  0.9314523E-01
       -2   -1    0    0    0  501  0.00000000000E+00  0.00000000000E+00  0.46582381434E+03  0.46582381435E+03  0.25500000920E-02 0. -1.
        2   -1    0    0  501    0  0.00000000000E+00  0.00000000000E+00 -0.53086892015E+03  0.53086892015E+03  0.25500000920E-02 0.  1.
    10030    2    1    2    0    0  0.00000000000E+00  0.00000000000E+00 -0.65045105807E+02  0.99669273450E+03  0.99456801739E+03 0.  0.
        1    1    3    3  502    0 -0.24282767559E+03  0.17855500888E+03 -0.42889782754E+03  0.52421419069E+03  0.50400001928E-02 0.  1.
       -1    1    3    3    0  502  0.24282767559E+03 -0.17855500888E+03  0.36385272173E+03  0.47247854381E+03  0.50400001928E-02 0. -1.
</event>
<event>
 5   0  0.2350769E-03  0.1001679E+04  0.7818609E-02  0.9306706E-01
        1   -1    0    0  501    0  0.00000000000E+00  0.00000000000E+00  0.45456013749E+03  0.45456013752E+03  0.50400001928E-02 0. -1.
       -1   -1    0    0    0  501  0.00000000000E+00  0.00000000000E+00 -0.55183008788E+03  0.55183008790E+03  0.50400001928E-02 0.  1.
    10030    2    1    2    0    0  0.00000000000E+00  0.00000000000E+00 -0.97269950390E+02  0.10063902254E+04  0.10016785126E+04 0.  0.
        2    1    3    3  502    0 -0.40147937750E+03 -0.20878024667E+03 -0.26427231276E+03  0.52403696173E+03  0.25500000920E-02 0.  1.
       -2    1    3    3    0  502  0.40147937750E+03  0.20878024667E+03  0.16700236237E+03  0.48235326370E+03  0.25500000920E-02 0. -1.
</event>
<event>
 5   0  0.3895011E-03  0.9615285E+03  0.7818609E-02  0.9351776E-01
        2   -1    0    0  501    0  0.00000000000E+00  0.00000000000E+00  0.19945335804E+04  0.19945335804E+04  0.25500000920E-02 0.  1.
       -2   -1    0    0    0  501  0.00000000000E+00  0.00000000000E+00 -0.11588387222E+03  0.11588387225E+03  0.25500000920E-02 0. -1.
    10030    2    1    2    0    0  0.00000000000E+00  0.00000000000E+00  0.18786497082E+04  0.21104174527E+04  0.96152852189E+03 0.  0.
        2    1    3    3  502    0  0.35237971251E+02  0.47326245508E+03  0.11081321568E+04  0.12054774751E+04  0.25500000920E-02 0.  1.
       -2    1    3    3    0  502 -0.35237971251E+02 -0.47326245508E+03  0.77051755142E+03  0.90493997760E+03  0.25500000920E-02 0. -1.
</event>
<event>
 5   0  0.4140860E-03  0.1007335E+04  0.7818609E-02  0.9300536E-01
       -2   -1    0    0    0  501  0.00000000000E+00  0.00000000000E+00  0.75798511206E+03  0.75798511206E+03  0.25500000920E-02 0.  1.
        2   -1    0    0  501    0  0.00000000000E+00  0.00000000000E+00 -0.33467811171E+03  0.33467811172E+03  0.25500000920E-02 0. -1.
    10030    2    1    2    0    0  0.00000000000E+00  0.00000000000E+00  0.42330700035E+03  0.10926632238E+04  0.10073351498E+04 0.  0.
        3    1    3    3  502    0 -0.16037059023E+02  0.42971353968E+03 -0.72800583577E+02  0.43613168724E+03  0.10100000352E+00 0. -1.
       -3    1    3    3    0  502  0.16037059023E+02 -0.42971353968E+03  0.49610758392E+03  0.65653153654E+03  0.10100000352E+00 0.  1.
</event>
<event>
 5   0  0.3873874E-03  0.9377704E+03  0.7818609E-02  0.9379560E-01
       -2   -1    0    0    0  501  0.00000000000E+00  0.00000000000E+00  0.11494267678E+03  0.11494267681E+03  0.25500000920E-02 0. -1.
        2   -1    0    0  501    0  0.00000000000E+00  0.00000000000E+00 -0.19127213942E+04  0.19127213942E+04  0.25500000920E-02 0.  1.
    10030    2    1    2    0    0  0.00000000000E+00  0.00000000000E+00 -0.17977787174E+04  0.20276640710E+04  0.93777037065E+03 0.  0.
        5    1    3    3  502    0 -0.22712903973E+03  0.32677500124E+03 -0.36284359139E+03  0.53856017670E+03  0.46999998093E+01 0. -1.
       -5    1    3    3    0  502  0.22712903973E+03 -0.32677500124E+03 -0.14349351260E+04  0.14891038943E+04  0.46999998093E+01 0.  1.
</event>
<event>
 5   0  0.4026829E-03  0.1001092E+04  0.7818609E-02  0.9307348E-01
        2   -1    0    0  501    0  0.00000000000E+00  0.00000000000E+00  0.66162783929E+03  0.66162783930E+03  0.25500000920E-02 0.  1.
       -2   -1    0    0    0  501  0.00000000000E+00  0.00000000000E+00 -0.37868178734E+03  0.37868178735E+03  0.25500000920E-02 0. -1.
    10030    2    1    2    0    0  0.00000000000E+00  0.00000000000E+00  0.28294605195E+03  0.10403096267E+04  0.10010922290E+04 0.  0.
        1    1    3    3  502    0 -0.56793798369E+02  0.24755543890E+02 -0.37468202172E+03  0.37976965376E+03  0.50400001928E-02 0. -1.
       -1    1    3    3    0  502  0.56793798369E+02 -0.24755543890E+02  0.65762807367E+03  0.66053997289E+03  0.50400001928E-02 0.  1.
</event>
<event>
 5   0  0.2378609E-03  0.9964495E+03  0.7818609E-02  0.9312448E-01
       -1   -1    0    0    0  501  0.00000000000E+00  0.00000000000E+00  0.79556396244E+03  0.79556396246E+03  0.50400001928E-02 0.  1.
        1   -1    0    0  501    0  0.00000000000E+00  0.00000000000E+00 -0.31201501005E+03  0.31201501009E+03  0.50400001928E-02 0. -1.
    10030    2    1    2    0    0  0.00000000000E+00  0.00000000000E+00  0.48354895240E+03  0.11075789725E+04  0.99644949248E+03 0.  0.
        1    1    3    3  502    0  0.26955152905E+03  0.19006147764E+03  0.65684627743E+03  0.73500232945E+03  0.50400001928E-02 0.  1.
       -1    1    3    3    0  502 -0.26955152905E+03 -0.19006147764E+03 -0.17329732503E+03  0.37257664310E+03  0.50400001928E-02 0. -1.
</event>
<event>
 5   0  0.3895011E-03  0.1001673E+04  0.7818609E-02  0.9306711E-01
       -2   -1    0    0    0  501  0.00000000000E+00  0.00000000000E+00  0.25114426320E+03  0.25114426322E+03  0.25500000920E-02 0.  1.
        2   -1    0    0  501    0  0.00000000000E+00  0.00000000000E+00 -0.99877827507E+03  0.99877827507E+03  0.25500000920E-02 0. -1.
    10030    2    1    2    0    0  0.00000000000E+00  0.00000000000E+00 -0.74763401187E+03  0.12499225383E+04  0.10016734678E+04 0.  0.
        2    1    3    3  502    0  0.18580660619E+03 -0.42205323310E+03 -0.12997980909E+03  0.47911144555E+03  0.25500000920E-02 0. -1.
       -2    1    3    3    0  502 -0.18580660619E+03  0.42205323310E+03 -0.61765420278E+03  0.77081109274E+03  0.25500000920E-02 0.  1.
</event>
<event>
 5   0  0.2313036E-03  0.9962980E+03  0.7818609E-02  0.9312614E-01
        1   -1    0    0  501    0  0.00000000000E+00  0.00000000000E+00  0.17839142351E+04  0.17839142352E+04  0.50400001928E-02 0. -1.
       -1   -1    0    0    0  501  0.00000000000E+00  0.00000000000E+00 -0.13910556737E+03  0.13910556746E+03  0.50400001928E-02 0.  1.
    10030    2    1    2    0    0  0.00000000000E+00  0.00000000000E+00  0.16448086678E+04  0.19230198026E+04  0.99629795125E+03 0.  0.
        3    1    3    3  502    0  0.10358064878E+03 -0.30270024087E+03  0.85404599532E+02  0.33113493088E+03  0.10100000352E+00 0.  1.
       -3    1    3    3    0  502 -0.10358064878E+03  0.30270024087E+03  0.15594040682E+04  0.15918848717E+04  0.10100000352E+00 0. -1.
</event>
<event>
 5   0  0.3873874E-03  0.1000471E+04  0.7818609E-02  0.9308029E-01
        2   -1    0    0  501    0  0.00000000000E+00  0.00000000000E+00  0.78124307964E+03  0.78124307965E+03  0.25500000920E-02 0.  1.
       -2   -1    0    0    0  501  0.00000000000E+00  0.00000000000E+00 -0.32030403562E+03  0.32030403563E+03  0.25500000920E-02 0. -1.
    10030    2    1    2    0    0  0.00000000000E+00  0.00000000000E+00  0.46093904402E+03  0.11015471153E+04  0.10004705117E+04 0.  0.
        5    1    3    3  502    0 -0.63892887971E+02 -0.46273325695E+03  0.42745483229E+03  0.63320146231E+03  0.46999998093E+01 0.  1.
       -5    1    3    3    0  502  0.63892887971E+02  0.46273325695E+03  0.33484211735E+02  0.46834565297E+03  0.46999998093E+01 0. -1.
</event>
<event>
 5   0  0.2350769E-03  0.1005008E+04  0.7818609E-02  0.9303069E-01
        1   -1    0    0  501    0  0.00000000000E+00  0.00000000000E+00  0.48818952339E+03  0.48818952342E+03  0.50400001928E-02 0.  1.
       -1   -1    0    0    0  501  0.00000000000E+00  0.00000000000E+00 -0.51723840949E+03  0.51723840951E+03  0.50400001928E-02 0. -1.
    10030    2    1    2    0    0  0.00000000000E+00  0.00000000000E+00 -0.29048886096E+02  0.10054279329E+04  0.10050082042E+04 0.  0.
        2    1    3    3  502    0 -0.26162199218E+03 -0.62025675581E+02 -0.43922160993E+03  0.51498434331E+03  0.25500000920E-02 0. -1.
       -2    1    3    3    0  502  0.26162199218E+03  0.62025675581E+02  0.41017272383E+03  0.49044358962E+03  0.25500000920E-02 0.  1.
</event>
<event>
 5   0  0.3826483E-03  0.1002121E+04  0.7818609E-02  0.9306221E-01
       -2   -1    0    0    0  501  0.00000000000E+00  0.00000000000E+00  0.23407659337E+03  0.23407659338E+03  0.25500000920E-02 0.  1.
        2   -1    0    0  501    0  0.00000000000E+00  0.00000000000E+00 -0.10725623638E+04  0.10725623638E+04  0.25500000920E-02 0. -1.
    10030    2    1    2    0    0  0.00000000000E+00  0.00000000000E+00 -0.83848577041E+03  0.13066389572E+04  0.10021212388E+04 0.  0.
        4    1    3    3  502    0  0.20400067247E+03 -0.43792076631E+03 -0.59256122090E+03  0.76453991743E+03  0.12699999809E+01 0. -1.
       -4    1    3    3    0  502 -0.20400067247E+03  0.43792076631E+03 -0.24592454951E+03  0.54209903973E+03  0.12699999809E+01 0.  1.
</event>
<event>
 5   0  0.2378609E-03  0.1007834E+04  0.7818609E-02  0.9299994E-01
       -1   -1    0    0    0  501  0.00000000000E+00  0.00000000000E+00  0.18133152969E+03  0.18133152976E+03  0.50400001928E-02 0.  1.
        1   -1    0    0  501    0  0.00000000000E+00  0.00000000000E+00 -0.14003761216E+04  0.14003761216E+04  0.50400001928E-02 0. -1.
    10030    2    1    2    0    0  0.00000000000E+00  0.00000000000E+00 -0.12190445919E+04  0.15817076514E+04  0.10078340029E+04 0.  0.
        1    1    3    3  502    0  0.33142808584E+03  0.32518492567E+02 -0.12030640251E+04  0.12483048814E+04  0.50400001928E-02 0. -1.
       -1    1    3    3    0  502 -0.33142808584E+03 -0.32518492567E+02 -0.15980566758E+02  0.33340276990E+03  0.50400001928E-02 0.  1.
</event>
<event>
 5   0  0.4026829E-03  0.1000203E+04  0.7818609E-02  0.9308322E-01
       -2   -1    0    0    0  501  0.00000000000E+00  0.00000000000E+00  0.16124913814E+03  0.16124913816E+03  0.25500000920E-02 0.  1.
        2   -1    0    0  501    0  0.00000000000E+00  0.00000000000E+00 -0.15510263886E+04  0.15510263886E+04  0.25500000920E-02 0. -1.
    10030    2    1    2    0    0  0.00000000000E+00  0.00000000000E+00 -0.13897772504E+04  0.17122755267E+04  0.10002033162E+04 0.  0.
        1    1    3    3  502    0  0.30045299253E+03  0.36214098151E+03 -0.40495271046E+03  0.62080978483E+03  0.50400001928E-02 0.  1.
       -1    1    3    3    0  502 -0.30045299253E+03 -0.36214098151E+03 -0.98482453996E+03  0.10914657419E+04  0.50400001928E-02 0. -1.
</event>
<event>
 5   0  0.2405022E-03  0.1007398E+04  0.7818609E-02  0.9300468E-01
        1   -1    0    0  501    0  0.00000000000E+00  0.00000000000E+00  0.62653057434E+03  0.62653057436E+03  0.50400001928E-02 0.  1.
       -1   -1    0    0    0  501  0.00000000000E+00  0.00000000000E+00 -0.40494838558E+03  0.40494838561E+03  0.50400001928E-02 0. -1.
    10030    2    1    2    0    0  0.00000000000E+00  0.00000000000E+00  0.22158218876E+03  0.10314789600E+04  0.10073977261E+04 0.  0.
        4    1    3    3  502    0 -0.26961913709E+03  0.30708489669E+03  0.41230498185E+03  0.58051065780E+03  0.12699999809E+01 0.  1.
       -4    1    3    3    0  502  0.26961913709E+03 -0.30708489669E+03 -0.19072279309E+03  0.45096830217E+03  0.12699999809E+01 0. -1.
</event>
<event>
 5   0  0.1548000E-03  0.9995823E+03  0.7818609E-02  0.9309003E-01
       -3   -1    0    0    0  501  0.00000000000E+00  0.00000000000E+00  0.78652372462E+03  0.78652373111E+03  0.10100000352E+00 0. -1.
        3   -1    0    0  501    0  0.00000000000E+00  0.00000000000E+00 -0.31758886616E+03  0.31758888222E+03  0.10100000352E+00 0.  1.
    10030    2    1    2    0    0  0.00000000000E+00  0.00000000000E+00  0.46893485847E+03  0.11041126133E+04  0.99958229347E+03 0.  0.
        1    1    3    3  502    0  0.75710249621E+02 -0.39936802009E+03  0.55567696562E+03  0.68847930072E+03  0.50400001928E-02 0. -1.
       -1    1    3    3    0  502 -0.75710249621E+02  0.39936802009E+03 -0.86742107154E+02  0.41563331261E+03  0.50400001928E-02 0.  1.
</event>
<event>
 5   0  0.4140860E-03  0.9930788E+03  0.7818609E-02  0.9316169E-01
       -2   -1    0    0    0  501  0.00000000000E+00  0.00000000000E+00  0.33089874340E+03  0.33089874341E+03  0.25500000920E-02 0. -1.
        2   -1    0    0  501    0  0.00000000000E+00  0.00000000000E+00 -0.74509617240E+03  0.74509617241E+03  0.25500000920E-02 0.  1.
    10030    2    1    2    0    0  0.00000000000E+00  0.00000000000E+00 -0.41419742900E+03  0.10759949158E+04  0.99307882300E+03 0.  0.
        3    1    3    3  502    0 -0.10690816850E+03  0.38143630287E+03 -0.53147510816E+03  0.66286409651E+03  0.10100000352E+00 0.  1.
       -3    1    3    3    0  502  0.10690816850E+03 -0.38143630287E+03  0.11727767916E+03  0.41313081932E+03  0.10100000352E+00 0. -1.
</event>
<event>
 5   0  0.2313036E-03  0.1009195E+04  0.7818609E-02  0.9298517E-01
        1   -1    0    0  501    0  0.00000000000E+00  0.00000000000E+00  0.25084095346E+04  0.25084095346E+04  0.50400001928E-02 0. -1.
       -1   -1    0    0    0  501  0.00000000000E+00  0.00000000000E+00 -0.10150601001E+03  0.10150601014E+03  0.50400001928E-02 0.  1.
    10030    2    1    2    0    0  0.00000000000E+00  0.00000000000E+00  0.24069035246E+04  0.26099155448E+04  0.10091950129E+04 0.  0.
        3    1    3    3  502    0 -0.19747734780E+03 -0.40675804298E+03  0.62419641183E+03  0.77075974153E+03  0.10100000352E+00 0. -1.
       -3    1    3    3    0  502  0.19747734780E+03  0.40675804298E+03  0.17827071128E+04  0.18391558032E+04  0.10100000352E+00 0.  1.
</event>
<event>
 5   0  0.4026829E-03  0.9858579E+03  0.7818609E-02  0.9324193E-01
        2   -1    0    0  501    0  0.00000000000E+00  0.00000000000E+00  0.28157536394E+03  0.28157536395E+03  0.25500000920E-02 0. -1.
       -2   -1    0    0    0  501  0.00000000000E+00  0.00000000000E+00 -0.86292680445E+03  0.86292680445E+03  0.25500000920E-02 0.  1.
    10030    2    1    2    0    0  0.00000000000E+00  0.00000000000E+00 -0.58135144051E+03  0.11445021684E+04  0.98585785796E+03 0.  0.
        1    1    3    3  502    0 -0.28032470196E+03 -0.22015086692E+03 -0.68595252795E+03  0.77303247885E+03  0.50400001928E-02 0.  1.
       -1    1    3    3    0  502  0.28032470196E+03  0.22015086692E+03  0.10460108744E+03  0.37146968955E+03  0.50400001928E-02 0. -1.
</event>
<event>
 5   0  0.2405022E-03  0.9997111E+03  0.7818609E-02  0.9308862E-01
        1   -1    0    0  501    0  0.00000000000E+00  0.00000000000E+00  0.62103244659E+03  0.62103244661E+03  0.50400001928E-02 0.  1.
       -1   -1    0    0    0  501  0.00000000000E+00  0.00000000000E+00 -0.40232291543E+03  0.40232291546E+03  0.50400001928E-02 0. -1.
    10030    2    1    2    0    0  0.00000000000E+00  0.00000000000E+00  0.21870953116E+03  0.10233553621E+04  0.99971112730E+03 0.  0.
        4    1    3    3  502    0 -0.18161121288E+03  0.46381724958E+03  0.66594838082E+02  0.50253911193E+03  0.12699999809E+01 0. -1.
       -4    1    3    3    0  502  0.18161121288E+03 -0.46381724958E+03  0.15211469308E+03  0.52081625014E+03  0.12699999809E+01 0.  1.
</event>
<event>
 5   0  0.4140860E-03  0.9663401E+03  0.7818609E-02  0.9346253E-01
        2   -1    0    0  501    0  0.00000000000E+00  0.00000000000E+00  0.11246292811E+04  0.11246292811E+04  0.25500000920E-02 0. -1.
       -2   -1    0    0    0  501  0.00000000000E+00  0.00000000000E+00 -0.20758243155E+03  0.20758243156E+03  0.25500000920E-02 0.  1.
    10030    2    1    2    0    0  0.00000000000E+00  0.00000000000E+00  0.91704684951E+03  0.13322117126E+04  0.96634006594E+03 0.  0.
        3    1    3    3  502    0  0.44265635349E+03 -0.18909462478E+02  0.19280061273E+03  0.48319178545E+03  0.10100000352E+00 0.  1.
       -3    1    3    3    0  502 -0.44265635349E+03  0.18909462478E+02  0.72424623677E+03  0.84901992717E+03  0.10100000352E+00 0. -1.
</event>
<event>
 5   0  0.2405022E-03  0.9979059E+03  0.7818609E-02  0.9310845E-01
       -1   -1    0    0    0  501  0.00000000000E+00  0.00000000000E+00  0.97151856616E+02  0.97151856746E+02  0.50400001928E-02 0. -1.
        1   -1    0    0  501    0  0.00000000000E+00  0.00000000000E+00 -0.25625250383E+04  0.25625250383E+04  0.50400001928E-02 0.  1.
    10030    2    1    2    0    0  0.00000000000E+00  0.00000000000E+00 -0.24653731817E+04  0.26596768950E+04  0.99790593800E+03 0.  0.
        4    1    3    3  502    0 -0.36975852023E+03 -0.25894753893E+02 -0.21229009570E+04  0.21550178625E+04  0.12699999809E+01 0.  1.
       -4    1    3    3    0  502  0.36975852023E+03  0.25894753893E+02 -0.34247222470E+03  0.50465903256E+03  0.12699999809E+01 0. -1.
</event>
<event>
 5   0  0.2327595E-03  0.9445525E+03  0.7818609E-02  0.9371541E-01
        1   -1    0    0  501    0  0.00000000000E+00  0.00000000000E+00  0.88978283843E+03  0.88978283845E+03  0.50400001928E-02 0. -1.
       -1   -1    0    0    0  501  0.00000000000E+00  0.00000000000E+00 -0.25067338166E+03  0.25067338171E+03  0.50400001928E-02 0.  1.
    10030    2    1    2    0    0  0.00000000000E+00  0.00000000000E+00  0.63910945677E+03  0.11404562202E+04  0.94455253553E+03 0.  0.
        5    1    3    3  502    0  0.16876780041E+03  0.23715539527E+03 -0.12945909731E+03  0.31860163188E+03  0.46999998093E+01 0.  1.
       -5    1    3    3    0  502 -0.16876780041E+03 -0.23715539527E+03  0.76856855408E+03  0.82185458828E+03  0.46999998093E+01 0. -1.
</event>
<event>
 5   0  0.2405022E-03  0.9978075E+03  0.7818609E-02  0.9310953E-01
       -1   -1    0    0    0  501  0.00000000000E+00  0.00000000000E+00  0.65247789433E+03  0.65247789435E+03  0.50400001928E-02 0. -1.
        1   -1    0    0  501    0  0.00000000000E+00  0.00000000000E+00 -0.38147644203E+03  0.38147644207E+03  0.50400001928E-02 0.  1.
    10030    2    1    2    0    0  0.00000000000E+00  0.00000000000E+00  0.27100145229E+03  0.10339543364E+04  0.99780748777E+03 0.  0.
        4    1    3    3  502    0  0.38100731562E+03  0.32052559101E+03  0.16827077747E+03  0.52556626271E+03  0.12699999809E+01 0. -1.
       -4    1    3    3    0  502 -0.38100731562E+03 -0.32052559101E+03  0.10273067482E+03  0.50838807371E+03  0.12699999809E+01 0.  1.
</event>
<event>
 5   0  0.2313036E-03  0.1001346E+04  0.7818609E-02  0.9307070E-01
        1   -1    0    0  501    0  0.00000000000E+00  0.00000000000E+00  0.62514484298E+03  0.62514484300E+03  0.50400001928E-02 0. -1.
       -1   -1    0    0    0  501  0.00000000000E+00  0.00000000000E+00 -0.40098436635E+03  0.40098436638E+03  0.50400001928E-02 0.  1.
    10030    2    1    2    0    0  0.00000000000E+00  0.00000000000E+00  0.22416047663E+03  0.10261292094E+04  0.10013457121E+04 0.  0.
        3    1    3    3  502    0  0.31417524743E+03 -0.88461260230E+02  0.50113703378E+03  0.59805502881E+03  0.10100000352E+00 0. -1.
       -3    1    3    3    0  502 -0.31417524743E+03  0.88461260230E+02 -0.27697655715E+03  0.42807418057E+03  0.10100000352E+00 0.  1.
</event>
<event>
 5   0  0.3895011E-03  0.1001803E+04  0.7818609E-02  0.9306569E-01
        2   -1    0    0  501    0  0.00000000000E+00  0.00000000000E+00  0.57322316350E+03  0.57322316351E+03  0.25500000920E-02 0. -1.
       -2   -1    0    0    0  501  0.00000000000E+00  0.00000000000E+00 -0.43770445748E+03  0.43770445749E+03  0.25500000920E-02 0.  1.
    10030    2    1    2    0    0  0.00000000000E+00  0.00000000000E+00  0.13551870602E+03  0.10109276210E+04  0.10018030421E+04 0.  0.
        2    1    3    3  502    0  0.47738945649E+03  0.30225761635E+02 -0.82214775018E+02  0.48535920623E+03  0.25500000920E-02 0.  1.
       -2    1    3    3    0  502 -0.47738945649E+03 -0.30225761635E+02  0.21773348103E+03  0.52556841477E+03  0.25500000920E-02 0. -1.
</event>
<event>
 5   0  0.3826483E-03  0.9947309E+03  0.7818609E-02  0.9314343E-01
       -2   -1    0    0    0  501  0.00000000000E+00  0.00000000000E+00  0.95009665704E+03  0.95009665704E+03  0.25500000920E-02 0. -1.
        2   -1    0    0  501    0  0.00000000000E+00  0.00000000000E+00 -0.26036547662E+03  0.26036547663E+03  0.25500000920E-02 0.  1.
    10030    2    1    2    0    0  0.00000000000E+00  0.00000000000E+00  0.68973118042E+03  0.12104621337E+04  0.99473085597E+03 0.  0.
        4    1    3    3  502    0  0.26726346313E+03 -0.40883128959E+03  0.45900535025E+03  0.67026883153E+03  0.12699999809E+01 0.  1.
       -4    1    3    3    0  502 -0.26726346313E+03  0.40883128959E+03  0.23072583017E+03  0.54019330214E+03  0.12699999809E+01 0. -1.
</event>
<event>
 5   0  0.3873874E-03  0.9994233E+03  0.7818609E-02  0.9309178E-01
       -2   -1    0    0    0  501  0.00000000000E+00  0.00000000000E+00  0.27275016475E+03  0.27275016476E+03  0.25500000920E-02 0.  1.
        2   -1    0    0  501    0  0.00000000000E+00  0.00000000000E+00 -0.91553281220E+03  0.91553281221E+03  0.25500000920E-02 0. -1.
    10030    2    1    2    0    0  0.00000000000E+00  0.00000000000E+00 -0.64278264745E+03  0.11882829770E+04  0.99942328444E+03 0.  0.
        5    1    3    3  502    0  0.26745439104E+03 -0.29301615676E+03 -0.68260954810E+03  0.78953670248E+03  0.46999998093E+01 0. -1.
       -5    1    3    3    0  502 -0.26745439104E+03  0.29301615676E+03  0.39826900647E+02  0.39874627449E+03  0.46999998093E+01 0.  1.
</event>
<event>
 5   0  0.3873874E-03  0.9821173E+03  0.7818609E-02  0.9328379E-01
       -2   -1    0    0    0  501  0.00000000000E+00  0.00000000000E+00  0.43303064304E+03  0.43303064304E+03  0.25500000920E-02 0. -1.
        2   -1    0    0  501    0  0.00000000000E+00  0.00000000000E+00 -0.55686271804E+03  0.55686271804E+03  0.25500000920E-02 0.  1.
    10030    2    1    2    0    0  0.00000000000E+00  0.00000000000E+00 -0.12383207500E+03  0.98989336109E+03  0.98211734712E+03 0.  0.
        5    1    3    3  502    0  0.48759696391E+03  0.12944257777E+02 -0.11891623179E+03  0.50207719845E+03  0.46999998093E+01 0. -1.
       -5    1    3    3    0  502 -0.48759696391E+03 -0.12944257777E+02 -0.49158432128E+01  0.48781616264E+03  0.46999998093E+01 0.  1.
</event>
<event>
 5   0  0.2350769E-03  0.9953516E+03  0.7818609E-02  0.9313658E-01
        1   -1    0    0  501    0  0.00000000000E+00  0.00000000000E+00  0.99685134052E+03  0.99685134053E+03  0.50400001928E-02 0.  1.
       -1   -1    0    0    0  501  0.00000000000E+00  0.00000000000E+00 -0.24846351954E+03  0.24846351959E+03  0.50400001928E-02 0. -1.
    10030    2    1    2    0    0  0.00000000000E+00  0.00000000000E+00  0.74838782098E+03  0.12453148601E+04  0.99535158122E+03 0.  0.
        2    1    3    3  502    0  0.20769561933E+03  0.24637527509E+03 -0.10031781049E+03  0.33749356968E+03  0.25500000920E-02 0. -1.
       -2    1    3    3    0  502 -0.20769561933E+03 -0.24637527509E+03  0.84870563147E+03  0.90782129044E+03  0.25500000920E-02 0.  1.
</event>
<event>
 5   0  0.2378609E-03  0.9705851E+03  0.7818609E-02  0.9341408E-01
       -1   -1    0    0    0  501  0.00000000000E+00  0.00000000000E+00  0.81227428236E+03  0.81227428238E+03  0.50400001928E-02 0.  1.
        1   -1    0    0  501    0  0.00000000000E+00  0.00000000000E+00 -0.28993761131E+03  0.28993761136E+03  0.50400001928E-02 0. -1.
    10030    2    1    2    0    0  0.00000000000E+00  0.00000000000E+00  0.52233667105E+03  0.11022118937E+04  0.97058511258E+03 0.  0.
        1    1    3    3  502    0  0.27173972940E+03 -0.34110257587E+03  0.19425028064E+02  0.43654413240E+03  0.50400001928E-02 0.  1.
       -1    1    3    3    0  502 -0.27173972940E+03  0.34110257587E+03  0.50291164299E+03  0.66566776133E+03  0.50400001928E-02 0. -1.
</event>
<event>
 5   0  0.4140860E-03  0.9890825E+03  0.7818609E-02  0.9320601E-01
        2   -1    0    0  501    0  0.00000000000E+00  0.00000000000E+00  0.36227166258E+03  0.36227166259E+03  0.25500000920E-02 0. -1.
       -2   -1    0    0    0  501  0.00000000000E+00  0.00000000000E+00 -0.67510398256E+03  0.67510398257E+03  0.25500000920E-02 0.  1.
    10030    2    1    2    0    0  0.00000000000E+00  0.00000000000E+00 -0.31283231998E+03  0.10373756452E+04  0.98908248834E+03 0.  0.
        3    1    3    3  502    0 -0.86527968058E+02  0.26197724525E+03  0.27405241002E+03  0.38887517268E+03  0.10100000352E+00 0. -1.
       -3    1    3    3    0  502  0.86527968058E+02 -0.26197724525E+03 -0.58688473001E+03  0.64850047248E+03  0.10100000352E+00 0.  1.
</event>
<event>
 5   0  0.4026829E-03  0.1007581E+04  0.7818609E-02  0.9300269E-01
       -2   -1    0    0    0  501  0.00000000000E+00  0.00000000000E+00  0.37124022013E+03  0.37124022014E+03  0.25500000920E-02 0. -1.
        2   -1    0    0  501    0  0.00000000000E+00  0.00000000000E+00 -0.68366790625E+03  0.68366790625E+03  0.25500000920E-02 0.  1.
    10030    2    1    2    0    0  0.00000000000E+00  0.00000000000E+00 -0.31242768612E+03  0.10549081264E+04  0.10075813099E+04 0.  0.
        1    1    3    3  502    0  0.72471495844E+02 -0.44100336785E+03  0.87235409722E+02  0.45535272581E+03  0.50400001928E-02 0. -1.
       -1    1    3    3    0  502 -0.72471495844E+02  0.44100336785E+03 -0.39966309584E+03  0.59955540058E+03  0.50400001928E-02 0.  1.
</event>
<event>
 5   0  0.1548000E-03  0.1002007E+04  0.7818609E-02  0.9306346E-01
       -3   -1    0    0    0  501  0.00000000000E+00  0.00000000000E+00  0.89758583835E+03  0.89758584403E+03  0.10100000352E+00 0.  1.
        3   -1    0    0  501    0  0.00000000000E+00  0.00000000000E+00 -0.27964419253E+03  0.27964421077E+03  0.10100000352E+00 0. -1.
    10030    2    1    2    0    0  0.00000000000E+00  0.00000000000E+00  0.61794164582E+03  0.11772300548E+04  0.10020073474E+04 0.  0.
        1    1    3    3  502    0 -0.10225290551E+03  0.52078379420E+02 -0.26399672193E+03  0.28785774872E+03  0.50400001928E-02 0. -1.
       -1    1    3    3    0  502  0.10225290551E+03 -0.52078379420E+02  0.88193836775E+03  0.88937230608E+03  0.50400001928E-02 0.  1.
</event>
<event>
 5   0  0.3873874E-03  0.9980682E+03  0.7818609E-02  0.9310666E-01
       -2   -1    0    0    0  501  0.00000000000E+00  0.00000000000E+00  0.13460237376E+03  0.13460237378E+03  0.25500000920E-02 0. -1.
        2   -1    0    0  501    0  0.00000000000E+00  0.00000000000E+00 -0.18501532954E+04  0.18501532954E+04  0.25500000920E-02 0.  1.
    10030    2    1    2    0    0  0.00000000000E+00  0.00000000000E+00 -0.17155509216E+04  0.19847556691E+04  0.99806818484E+03 0.  0.
        5    1    3    3  502    0  0.39493318124E+03  0.28537869313E+03 -0.10719513499E+04  0.11775037166E+04  0.46999998093E+01 0. -1.
       -5    1    3    3    0  502 -0.39493318124E+03 -0.28537869313E+03 -0.64359957174E+03  0.80725195254E+03  0.46999998093E+01 0.  1.
</event>
<event>
 5   0  0.2313036E-03  0.1011244E+04  0.7818609E-02  0.9296298E-01
       -1   -1    0    0    0  501  0.00000000000E+00  0.00000000000E+00  0.40497740547E+03  0.40497740550E+03  0.50400001928E-02 0.  1.
        1   -1    0    0  501    0  0.00000000000E+00  0.00000000000E+00 -0.63127821969E+03  0.63127821971E+03  0.50400001928E-02 0. -1.
    10030    2    1    2    0    0  0.00000000000E+00  0.00000000000E+00 -0.22630081422E+03  0.10362556252E+04  0.10112436216E+04 0.  0.
        3    1    3    3  502    0  0.21350985802E+03 -0.80890563559E+02 -0.57544473038E+03  0.61908512393E+03  0.10100000352E+00 0. -1.
       -3    1    3    3    0  502 -0.21350985802E+03  0.80890563559E+02  0.34914391616E+03  0.41717050128E+03  0.10100000352E+00 0.  1.
</event>
<event>
 5   0  0.1548000E-03  0.1008118E+04  0.7818609E-02  0.9299686E-01
       -3   -1    0    0    0  501  0.00000000000E+00  0.00000000000E+00  0.34978160494E+03  0.34978161953E+03  0.10100000352E+00 0.  1.
        3   -1    0    0  501    0  0.00000000000E+00  0.00000000000E+00 -0.72638248700E+03  0.72638249402E+03  0.10100000352E+00 0. -1.
    10030    2    1    2    0    0  0.00000000000E+00  0.00000000000E+00 -0.37660088205E+03  0.10761641135E+04  0.10081175402E+04 0.  0.
        1    1    3    3  502    0 -0.35805068692E+03  0.78755108823E+02  0.18098710829E+03  0.40885082238E+03  0.50400001928E-02 0.  1.
       -1    1    3    3    0  502  0.35805068692E+03 -0.78755108823E+02 -0.55758799034E+03  0.66731329117E+03  0.50400001928E-02 0. -1.
</event>
<event>
 5   0  0.3895011E-03  0.1001904E+04  0.7818609E-02  0.9306459E-01
        2   -1    0    0  501    0  0.00000000000E+00  0.00000000000E+00  0.13868153743E+04  0.13868153743E+04  0.25500000920E-02 0. -1.
       -2   -1    0    0    0  501  0.00000000000E+00  0.00000000000E+00 -0.18095640724E+03  0.18095640725E+03  0.25500000920E-02 0.  1.
    10030    2    1    2    0    0  0.00000000000E+00  0.00000000000E+00  0.12058589671E+04  0.15677717816E+04  0.10019044419E+04 0.  0.
        2    1    3    3  502    0  0.18591405925E+03  0.45797754539E+03  0.73049272298E+03  0.88200175048E+03  0.25500000920E-02 0. -1.
       -2    1    3    3    0  502 -0.18591405925E+03 -0.45797754539E+03  0.47536624410E+03  0.68577003110E+03  0.25500000920E-02 0.  1.
</event>
<event>
 5   0  0.2378609E-03  0.9944474E+03  0.7818609E-02  0.9314656E-01
        1   -1    0    0  501    0  0.00000000000E+00  0.00000000000E+00  0.39973549337E+03  0.39973549340E+03  0.50400001928E-02 0.  1.
       -1   -1    0    0    0  501  0.00000000000E+00  0.00000000000E+00 -0.61848745724E+03  0.61848745726E+03  0.50400001928E-02 0. -1.
    10030    2    1    2    0    0  0.00000000000E+00  0.00000000000E+00 -0.21875196387E+03  0.10182229507E+04  0.99444736188E+03 0.  0.
        1    1    3    3  502    0  0.12060171526E+03 -0.25193240710E+03 -0.53057045474E+03  0.59959963221E+03  0.50400001928E-02 0. -1.
       -1    1    3    3    0  502 -0.12060171526E+03  0.25193240710E+03  0.31181849088E+03  0.41862331845E+03  0.50400001928E-02 0.  1.
</event>
<event>
 5   0  0.4140860E-03  0.1016385E+04  0.7818609E-02  0.9290755E-01
        2   -1    0    0  501    0  0.00000000000E+00  0.00000000000E+00  0.65027996699E+03  0.65027996699E+03  0.25500000920E-02 0.  1.
       -2   -1    0    0    0  501  0.00000000000E+00  0.00000000000E+00 -0.39715124677E+03  0.39715124678E+03  0.25500000920E-02 0. -1.
    10030    2    1    2    0    0  0.00000000000E+00  0.00000000000E+00  0.25312872022E+03  0.10474312138E+04  0.10163847690E+04 0.  0.
        3    1    3    3  502    0 -0.20384099687E+03  0.67553812553E+02 -0.34809667216E+03  0.40900607937E+03  0.10100000352E+00 0. -1.
       -3    1    3    3    0  502  0.20384099687E+03 -0.67553812553E+02  0.60122539238E+03  0.63842513440E+03  0.10100000352E+00 0.  1.
</event>
<event>
 5   0  0.3895011E-03  0.1003081E+04  0.7818609E-02  0.9305172E-01
       -2   -1    0    0    0  501  0.00000000000E+00  0.00000000000E+00  0.18367794297E+03  0.18367794299E+03  0.25500000920E-02 0. -1.
        2   -1    0    0  501    0  0.00000000000E+00  0.00000000000E+00 -0.13694775236E+04  0.13694775236E+04  0.25500000920E-02 0.  1.
    10030    2    1    2    0    0  0.00000000000E+00  0.00000000000E+00 -0.11857995806E+04  0.15531554666E+04  0.10030808831E+04 0.  0.
        2    1    3    3  502    0  0.73130139578E+02  0.47107280376E+03 -0.83419567450E+03  0.96080176265E+03  0.25500000920E-02 0.  1.
       -2    1    3    3    0  502 -0.73130139578E+02 -0.47107280376E+03 -0.35160390613E+03  0.59235370393E+03  0.25500000920E-02 0. -1.
</event>
<event>
 5   0  0.2378609E-03  0.1001379E+04  0.7818609E-02  0.9307034E-01
        1   -1    0    0  501    0  0.00000000000E+00  0.00000000000E+00  0.11480072249E+04  0.11480072249E+04  0.50400001928E-02 0. -1.
       -1   -1    0    0    0  501  0.00000000000E+00  0.00000000000E+00 -0.21836951540E+03  0.21836951546E+03  0.50400001928E-02 0.  1.
    10030    2    1    2    0    0  0.00000000000E+00  0.00000000000E+00  0.92963770946E+03  0.13663767403E+04  0.10013786125E+04 0.  0.
        1    1    3    3  502    0 -0.46286106691E+03  0.19062892447E+03  0.47913158012E+03  0.69292627689E+03  0.50400001928E-02 0. -1.
       -1    1    3    3    0  502  0.46286106691E+03 -0.19062892447E+03  0.45050612934E+03  0.67345046344E+03  0.50400001928E-02 0.  1.
</event>
<event>
 5   0  0.3873874E-03  0.9927476E+03  0.7818609E-02  0.9316535E-01
       -2   -1    0    0    0  501  0.00000000000E+00  0.00000000000E+00  0.11732370361E+03  0.11732370364E+03  0.25500000920E-02 0. -1.
        2   -1    0    0  501    0  0.00000000000E+00  0.00000000000E+00 -0.21000612856E+04  0.21000612856E+04  0.25500000920E-02 0.  1.
    10030    2    1    2    0    0  0.00000000000E+00  0.00000000000E+00 -0.19827375820E+04  0.22173849892E+04  0.99274763737E+03 0.  0.
        5    1    3    3  502    0 -0.26200041421E+03  0.15815786071E+03 -0.11853538242E+03  0.32822378468E+03  0.46999998093E+01 0. -1.
       -5    1    3    3    0  502  0.26200041421E+03 -0.15815786071E+03 -0.18642021996E+04  0.18891612045E+04  0.46999998093E+01 0.  1.
</event>
<event>
 5   0  0.3895011E-03  0.1002255E+04  0.7818609E-02  0.9306075E-01
       -2   -1    0    0    0  501  0.00000000000E+00  0.00000000000E+00  0.14349985802E+03  0.14349985805E+03  0.25500000920E-02 0.  1.
        2   -1    0    0  501    0  0.00000000000E+00  0.00000000000E+00 -0.17500287677E+04  0.17500287677E+04  0.25500000920E-02 0. -1.
    10030    2    1    2    0    0  0.00000000000E+00  0.00000000000E+00 -0.16065289097E+04  0.18935286258E+04  0.10022552164E+04 0.  0.
        2    1    3    3  502    0 -0.15082326899E+03 -0.40940835588E+03 -0.33754546838E+03  0.55163375854E+03  0.25500000920E-02 0.  1.
       -2    1    3    3    0  502  0.15082326899E+03  0.40940835588E+03 -0.12689834413E+04  0.13418948672E+04  0.25500000920E-02 0. -1.
</event>
<event>
 5   0  0.3873874E-03  0.9867494E+03  0.7818609E-02  0.9323198E-01
        2   -1    0    0  501    0  0.00000000000E+00  0.00000000000E+00  0.42738913070E+03  0.42738913070E+03  0.25500000920E-02 0.  1.
       -2   -1    0    0    0  501  0.00000000000E+00  0.00000000000E+00 -0.56954792216E+03  0.56954792216E+03  0.25500000920E-02 0. -1.
    10030    2    1    2    0    0  0.00000000000E+00  0.00000000000E+00 -0.14215879146E+03  0.99693705287E+03  0.98674939341E+03 0.  0.
        5    1    3    3  502    0  0.31370136100E+03  0.26224994159E+02 -0.45487000739E+03  0.55319536136E+03  0.46999998093E+01 0. -1.
       -5    1    3    3    0  502 -0.31370136100E+03 -0.26224994159E+02  0.31271121593E+03  0.44374169150E+03  0.46999998093E+01 0.  1.
</event>
<event>
 5   0  0.2378609E-03  0.9903892E+03  0.7818609E-02  0.9319149E-01
       -1   -1    0    0    0  501  0.00000000000E+00  0.00000000000E+00  0.55094097420E+03  0.55094097422E+03  0.50400001928E-02 0. -1.
        1   -1    0    0  501    0  0.00000000000E+00  0.00000000000E+00 -0.44508887471E+03  0.44508887473E+03  0.50400001928E-02 0.  1.
    10030    2    1    2    0    0  0.00000000000E+00  0.00000000000E+00  0.10585209950E+03  0.99602984896E+03  0.99038921291E+03 0.  0.
        1    1    3    3  502    0  0.27968509210E+03 -0.38207910543E+03  0.19869813252E+03  0.51350671022E+03  0.50400001928E-02 0.  1.
       -1    1    3    3    0  502 -0.27968509210E+03  0.38207910543E+03 -0.92846033026E+02  0.48252313874E+03  0.50400001928E-02 0. -1.
</event>
<event>
 5   0  0.3826483E-03  0.9995725E+03  0.7818609E-02  0.9309014E-01
        2   -1    0    0  501    0  0.00000000000E+00  0.00000000000E+00  0.12959915937E+04  0.12959915937E+04  0.25500000920E-02 0.  1.
       -2   -1    0    0    0  501  0.00000000000E+00  0.00000000000E+00 -0.19273760527E+03  0.19273760529E+03  0.25500000920E-02 0. -1.
    10030    2    1    2    0    0  0.00000000000E+00  0.00000000000E+00  0.11032539885E+04  0.14887291990E+04  0.99957254113E+03 0.  0.
        4    1    3    3  502    0 -0.18765644365E+03 -0.19088344265E+02  0.12409401928E+04  0.12551945988E+04  0.12699999809E+01 0.  1.
       -4    1    3    3    0  502  0.18765644365E+03  0.19088344265E+02 -0.13768620438E+03  0.23353460023E+03  0.12699999809E+01 0. -1.
</event>
<event>
 5   0  0.4140860E-03  0.1003044E+04  0.7818609E-02  0.9305213E-01
        2   -1    0    0  501    0  0.00000000000E+00  0.00000000000E+00  0.12354768945E+04  0.12354768945E+04  0.25500000920E-02 0. -1.
       -2   -1    0    0    0  501  0.00000000000E+00  0.00000000000E+00 -0.20358467795E+03  0.20358467796E+03  0.25500000920E-02 0.  1.
    10030    2    1    2    0    0  0.00000000000E+00  0.00000000000E+00  0.10318922165E+04  0.14390615724E+04  0.10030436993E+04 0.  0.
        3    1    3    3  502    0 -0.25062650647E+03  0.31730727882E+02 -0.10563227834E+03  0.27382233887E+03  0.10100000352E+00 0.  1.
       -3    1    3    3    0  502  0.25062650647E+03 -0.31730727882E+02  0.11375244948E+04  0.11652392336E+04  0.10100000352E+00 0. -1.
</event>
<event>
 5   0  0.3873874E-03  0.1019632E+04  0.7818609E-02  0.9287271E-01
        2   -1    0    0  501    0  0.00000000000E+00  0.00000000000E+00  0.11591176609E+04  0.11591176609E+04  0.25500000920E-02 0. -1.
       -2   -1    0    0    0  501  0.00000000000E+00  0.00000000000E+00 -0.22423290755E+03  0.22423290757E+03  0.25500000920E-02 0.  1.
    10030    2    1    2    0    0  0.00000000000E+00  0.00000000000E+00  0.93488475335E+03  0.13833505685E+04  0.10196319401E+04 0.  0.
        5    1    3    3  502    0  0.26502425280E+03  0.12792364032E+03  0.10322141295E+04  0.10733547463E+04  0.46999998093E+01 0. -1.
       -5    1    3    3    0  502 -0.26502425280E+03 -0.12792364032E+03 -0.97329376100E+02  0.30999582219E+03  0.46999998093E+01 0.  1.
</event>
<event>
 5   0  0.4140860E-03  0.1005821E+04  0.7818609E-02  0.9302183E-01
       -2   -1    0    0    0  501  0.00000000000E+00  0.00000000000E+00  0.57669815601E+03  0.57669815601E+03  0.25500000920E-02 0. -1.
        2   -1    0    0  501    0  0.00000000000E+00  0.00000000000E+00 -0.43856420883E+03  0.43856420884E+03  0.25500000920E-02 0.  1.
    10030    2    1    2    0    0  0.00000000000E+00  0.00000000000E+00  0.13813394718E+03  0.10152623648E+04  0.10058213967E+04 0.  0.
        3    1    3    3  502    0 -0.10878910372E+03  0.31918754824E+02  0.56363051567E+03  0.57492020698E+03  0.10100000352E+00 0. -1.
       -3    1    3    3    0  502  0.10878910372E+03 -0.31918754824E+02 -0.42549656849E+03  0.44034215787E+03  0.10100000352E+00 0.  1.
</event>
<event>
 5   0  0.2313036E-03  0.1000926E+04  0.7818609E-02  0.9307529E-01
       -1   -1    0    0    0  501  0.00000000000E+00  0.00000000000E+00  0.57730247541E+03  0.57730247543E+03  0.50400001928E-02 0. -1.
        1   -1    0    0  501    0  0.00000000000E+00  0.00000000000E+00 -0.43385123221E+03  0.43385123224E+03  0.50400001928E-02 0.  1.
    10030    2    1    2    0    0  0.00000000000E+00  0.00000000000E+00  0.14345124320E+03  0.10111537077E+04  0.10009263516E+04 0.  0.
        3    1    3    3  502    0 -0.21170417355E+03 -0.45339211368E+03  0.62672226210E+02  0.50429245878E+03  0.10100000352E+00 0. -1.
       -3    1    3    3    0  502  0.21170417355E+03  0.45339211368E+03  0.80779016992E+02  0.50686124889E+03  0.10100000352E+00 0.  1.
</event>
<event>
 5   0  0.2313036E-03  0.1004359E+04  0.7818609E-02  0.9303777E-01
       -1   -1    0    0    0  501  0.00000000000E+00  0.00000000000E+00  0.34887514180E+03  0.34887514184E+03  0.50400001928E-02 0.  1.
        1   -1    0    0  501    0  0.00000000000E+00  0.00000000000E+00 -0.72284898156E+03  0.72284898157E+03  0.50400001928E-02 0. -1.
    10030    2    1    2    0    0  0.00000000000E+00  0.00000000000E+00 -0.37397383976E+03  0.10717241234E+04  0.10043585833E+04 0.  0.
        3    1    3    3  502    0  0.12246234328E+03  0.20726329450E+03 -0.65726114010E+03  0.69996236703E+03  0.10100000352E+00 0. -1.
       -3    1    3    3    0  502 -0.12246234328E+03 -0.20726329450E+03  0.28328730035E+03  0.37176175638E+03  0.10100000352E+00 0.  1.
</event>
<event>
 5   0  0.3826483E-03  0.9956504E+03  0.7818609E-02  0.9313328E-01
        2   -1    0    0  501    0  0.00000000000E+00  0.00000000000E+00  0.12035502915E+04  0.12035502915E+04  0.25500000920E-02 0.  1.
       -2   -1    0    0    0  501  0.00000000000E+00  0.00000000000E+00 -0.20591573894E+03  0.20591573896E+03  0.25500000920E-02 0. -1.
    10030    2    1    2    0    0  0.00000000000E+00  0.00000000000E+00  0.99763455259E+03  0.14094660305E+04  0.99565043595E+03 0.  0.
        4    1    3    3  502    0  0.39087565547E+02 -0.41779363196E+03  0.87800614947E+03  0.97312679960E+03  0.12699999809E+01 0.  1.
       -4    1    3    3    0  502 -0.39087565547E+02  0.41779363196E+03  0.11962840312E+03  0.43633923090E+03  0.12699999809E+01 0. -1.
</event>
<event>
 5   0  0.2327595E-03  0.1043034E+04  0.7818609E-02  0.9262566E-01
       -1   -1    0    0    0  501  0.00000000000E+00  0.00000000000E+00  0.49931334798E+03  0.49931334801E+03  0.50400001928E-02 0.  1.
        1   -1    0    0  501    0  0.00000000000E+00  0.00000000000E+00 -0.54470777145E+03  0.54470777147E+03  0.50400001928E-02 0. -1.
    10030    2    1    2    0    0  0.00000000000E+00  0.00000000000E+00 -0.45394423468E+02  0.10440211195E+04  0.10430337695E+04 0.  0.
        5    1    3    3  502    0 -0.23578346540E+03  0.62392760397E+02 -0.48407939430E+03  0.54207162727E+03  0.46999998093E+01 0. -1.
       -5    1    3    3    0  502  0.23578346540E+03 -0.62392760397E+02  0.43868497083E+03  0.50194949221E+03  0.46999998093E+01 0.  1.
</event>
<event>
 5   0  0.1548000E-03  0.9875233E+03  0.7818609E-02  0.9322336E-01
        3   -1    0    0  501    0  0.00000000000E+00  0.00000000000E+00  0.66022919554E+03  0.66022920327E+03  0.10100000352E+00 0. -1.
       -3   -1    0    0    0  501  0.00000000000E+00  0.00000000000E+00 -0.36926654580E+03  0.36926655962E+03  0.10100000352E+00 0.  1.
    10030    2    1    2    0    0  0.00000000000E+00  0.00000000000E+00  0.29096264974E+03  0.10294957629E+04  0.98752329707E+03 0.  0.
        4    1    3    3  502    0  0.34759233902E+03  0.16824025501E+03 -0.17528736417E+03  0.42409019145E+03  0.12699999809E+01 0.  1.
       -4    1    3    3    0  502 -0.34759233902E+03 -0.16824025501E+03  0.46625001391E+03  0.60540557143E+03  0.12699999809E+01 0. -1.
</event>
<event>
 5   0  0.2313036E-03  0.1000156E+04  0.7818609E-02  0.9308374E-01
        1   -1    0    0  501    0  0.00000000000E+00  0.00000000000E+00  0.23911950881E+03  0.23911950886E+03  0.50400001928E-02 0.  1.
       -1   -1    0    0    0  501  0.00000000000E+00  0.00000000000E+00 -0.10458281435E+04  0.10458281435E+04  0.50400001928E-02 0. -1.
    10030    2    1    2    0    0  0.00000000000E+00  0.00000000000E+00 -0.80670863470E+03  0.12849476524E+04  0.10001558119E+04 0.  0.
        3    1    3    3  502    0  0.48214671925E+03  0.74449593282E+02 -0.54449948954E+03  0.73108679727E+03  0.10100000352E+00 0.  1.
       -3    1    3    3    0  502 -0.48214671925E+03 -0.74449593282E+02 -0.26220914515E+03  0.55386085511E+03  0.10100000352E+00 0. -1.
</event>
<event>
 5   0  0.2327595E-03  0.1006663E+04  0.7818609E-02  0.9301267E-01
        1   -1    0    0  501    0  0.00000000000E+00  0.00000000000E+00  0.21301428291E+04  0.21301428291E+04  0.50400001928E-02 0.  1.
       -1   -1    0    0    0  501  0.00000000000E+00  0.00000000000E+00 -0.11893222782E+03  0.11893222793E+03  0.50400001928E-02 0. -1.
    10030    2    1    2    0    0  0.00000000000E+00  0.00000000000E+00  0.20112106013E+04  0.22490750570E+04  0.10066630665E+04 0.  0.
        5    1    3    3  502    0  0.39056083261E+03 -0.41808954625E+02  0.30251079208E+03  0.49580300724E+03  0.46999998093E+01 0. -1.
       -5    1    3    3    0  502 -0.39056083261E+03  0.41808954625E+02  0.17086998092E+04  0.17532720498E+04  0.46999998093E+01 0.  1.
</event>
<event>
 5   0  0.2313036E-03  0.1000814E+04  0.7818609E-02  0.9307653E-01
        1   -1    0    0  501    0  0.00000000000E+00  0.00000000000E+00  0.10958667359E+04  0.10958667359E+04  0.50400001928E-02 0.  1.
       -1   -1    0    0    0  501  0.00000000000E+00  0.00000000000E+00 -0.22850130814E+03  0.22850130820E+03  0.50400001928E-02 0. -1.
    10030    2    1    2    0    0  0.00000000000E+00  0.00000000000E+00  0.86736542778E+03  0.13243680441E+04  0.10008136345E+04 0.  0.
        3    1    3    3  502    0 -0.37190425585E+03  0.14155813923E+03  0.32187541783E+02  0.39923367888E+03  0.10100000352E+00 0. -1.
       -3    1    3    3    0  502  0.37190425585E+03 -0.14155813923E+03  0.83517788599E+03  0.92513436525E+03  0.10100000352E+00 0.  1.
</event>
<event>
 5   0  0.4026829E-03  0.1007699E+04  0.7818609E-02  0.9300141E-01
       -2   -1    0    0    0  501  0.00000000000E+00  0.00000000000E+00  0.36202814344E+03  0.36202814345E+03  0.25500000920E-02 0. -1.
        2   -1    0    0  501    0  0.00000000000E+00  0.00000000000E+00 -0.70122752909E+03  0.70122752909E+03  0.25500000920E-02 0.  1.
    10030    2    1    2    0    0  0.00000000000E+00  0.00000000000E+00 -0.33919938565E+03  0.10632556725E+04  0.10076985670E+04 0.  0.
        1    1    3    3  502    0 -0.34124620775E+03  0.22270946094E+03  0.14307516333E+03  0.43187843276E+03  0.50400001928E-02 0. -1.
       -1    1    3    3    0  502  0.34124620775E+03 -0.22270946094E+03 -0.48227454897E+03  0.63137723978E+03  0.50400001928E-02 0.  1.
</event>
<event>
 5   0  0.2350769E-03  0.9964555E+03  0.7818609E-02  0.9312441E-01
        1   -1    0    0  501    0  0.00000000000E+00  0.00000000000E+00  0.79327015066E+03  0.79327015068E+03  0.50400001928E-02 0.  1.
       -1   -1    0    0    0  501  0.00000000000E+00  0.00000000000E+00 -0.31292099586E+03  0.31292099590E+03  0.50400001928E-02 0. -1.
    10030    2    1    2    0    0  0.00000000000E+00  0.00000000000E+00  0.48034915481E+03  0.11061911466E+04  0.99645548934E+03 0.  0.
        2    1    3    3  502    0  0.17891871652E+03 -0.43887392488E+03  0.69602510951E+02  0.47902686626E+03  0.25500000920E-02 0. -1.
       -2    1    3    3    0  502 -0.17891871652E+03  0.43887392488E+03  0.41074664386E+03  0.62716428032E+03  0.25500000920E-02 0.  1.
</event>
<event>
 5   0  0.2313036E-03  0.1008553E+04  0.7818609E-02  0.9299213E-01
       -1   -1    0    0    0  501  0.00000000000E+00  0.00000000000E+00  0.32395331883E+03  0.32395331887E+03  0.50400001928E-02 0. -1.
        1   -1    0    0  501    0  0.00000000000E+00  0.00000000000E+00 -0.78497397616E+03  0.78497397618E+03  0.50400001928E-02 0.  1.
    10030    2    1    2    0    0  0.00000000000E+00  0.00000000000E+00 -0.46102065733E+03  0.11089272950E+04  0.10085532704E+04 0.  0.
        3    1    3    3  502    0 -0.42451806179E+03 -0.19756330882E+03 -0.43635341164E+03  0.64003996424E+03  0.10100000352E+00 0.  1.
       -3    1    3    3    0  502  0.42451806179E+03  0.19756330882E+03 -0.24667245691E+02  0.46888733080E+03  0.10100000352E+00 0. -1.
</event>
<event>
 5   0  0.2350769E-03  0.9977880E+03  0.7818609E-02  0.9310974E-01
        1   -1    0    0  501    0  0.00000000000E+00  0.00000000000E+00  0.85447282511E+03  0.85447282513E+03  0.50400001928E-02 0.  1.
       -1   -1    0    0    0  501  0.00000000000E+00  0.00000000000E+00 -0.29128514435E+03  0.29128514439E+03  0.50400001928E-02 0. -1.
    10030    2    1    2    0    0  0.00000000000E+00  0.00000000000E+00  0.56318768076E+03  0.11457579695E+04  0.99778803408E+03 0.  0.
        2    1    3    3  502    0 -0.46874056964E+03  0.13904321410E+03  0.39552735590E+03  0.62888204481E+03  0.25500000920E-02 0.  1.
       -2    1    3    3    0  502  0.46874056964E+03 -0.13904321410E+03  0.16766032486E+03  0.51687592471E+03  0.25500000920E-02 0. -1.
</event>
<event>
 5   0  0.2313036E-03  0.1001317E+04  0.7818609E-02  0.9307102E-01
       -1   -1    0    0    0  501  0.00000000000E+00  0.00000000000E+00  0.33634085471E+03  0.33634085474E+03  0.50400001928E-02 0.  1.
        1   -1    0    0  501    0  0.00000000000E+00  0.00000000000E+00 -0.74525242078E+03  0.74525242080E+03  0.50400001928E-02 0. -1.
    10030    2    1    2    0    0  0.00000000000E+00  0.00000000000E+00 -0.40891156607E+03  0.10815932755E+04  0.10013168054E+04 0.  0.
        3    1    3    3  502    0  0.23799502314E+03 -0.28411839946E+03 -0.56803227465E+03  0.67825184939E+03  0.10100000352E+00 0. -1.
       -3    1    3    3    0  502 -0.23799502314E+03  0.28411839946E+03  0.15912070858E+03  0.40334142615E+03  0.10100000352E+00 0.  1.
</event>
<event>
 5   0  0.3873874E-03  0.9981217E+03  0.7818609E-02  0.9310607E-01
       -2   -1    0    0    0  501  0.00000000000E+00  0.00000000000E+00  0.13283889480E+03  0.13283889482E+03  0.25500000920E-02 0.  1.
        2   -1    0    0  501    0  0.00000000000E+00  0.00000000000E+00 -0.18749156141E+04  0.18749156141E+04  0.25500000920E-02 0. -1.
    10030    2    1    2    0    0  0.00000000000E+00  0.00000000000E+00 -0.17420767193E+04  0.20077545090E+04  0.99812167204E+03 0.  0.
        5    1    3    3  502    0  0.27200326841E+03  0.25730352984E+03 -0.20738876325E+03  0.42804564431E+03  0.46999998093E+01 0.  1.
       -5    1    3    3    0  502 -0.27200326841E+03 -0.25730352984E+03 -0.15346879561E+04  0.15797088647E+04  0.46999998093E+01 0. -1.
</event>
<event>
 5   0  0.4026829E-03  0.9961629E+03  0.7818609E-02  0.9312763E-01
        2   -1    0    0  501    0  0.00000000000E+00  0.00000000000E+00  0.41085522420E+03  0.41085522421E+03  0.25500000920E-02 0. -1.
       -2   -1    0    0    0  501  0.00000000000E+00  0.00000000000E+00 -0.60382615466E+03  0.60382615467E+03  0.25500000920E-02 0.  1.
    10030    2    1    2    0    0  0.00000000000E+00  0.00000000000E+00 -0.19297093046E+03  0.10146813789E+04  0.99616289865E+03 0.  0.
        1    1    3    3  502    0  0.36586533788E+03 -0.26754846932E+03 -0.30683227968E+03  0.54734420320E+03  0.50400001928E-02 0.  1.
       -1    1    3    3    0  502 -0.36586533788E+03  0.26754846932E+03  0.11386134922E+03  0.46733717568E+03  0.50400001928E-02 0. -1.
</event>
<event>
 5   0  0.2378609E-03  0.9910583E+03  0.7818609E-02  0.9318407E-01
        1   -1    0    0  501    0  0.00000000000E+00  0.00000000000E+00  0.44253469391E+03  0.44253469394E+03  0.50400001928E-02 0. -1.
       -1   -1    0    0    0  501  0.00000000000E+00  0.00000000000E+00 -0.55486975158E+03  0.55486975160E+03  0.50400001928E-02 0.  1.
    10030    2    1    2    0    0  0.00000000000E+00  0.00000000000E+00 -0.11233505767E+03  0.99740444554E+03  0.99105825399E+03 0.  0.
        1    1    3    3  502    0 -0.28616687455E+02 -0.47358064994E+03  0.87757203773E+02  0.48249235604E+03  0.50400001928E-02 0. -1.
       -1    1    3    3    0  502  0.28616687455E+02  0.47358064994E+03 -0.20009226144E+03  0.51491208950E+03  0.50400001928E-02 0.  1.
</event>
<event>
 5   0  0.3895011E-03  0.1004719E+04  0.7818609E-02  0.9303384E-01
        2   -1    0    0  501    0  0.00000000000E+00  0.00000000000E+00  0.24388878506E+04  0.24388878506E+04  0.25500000920E-02 0. -1.
       -2   -1    0    0    0  501  0.00000000000E+00  0.00000000000E+00 -0.10347552118E+03  0.10347552121E+03  0.25500000920E-02 0.  1.
    10030    2    1    2    0    0  0.00000000000E+00  0.00000000000E+00  0.23354123294E+04  0.25423633718E+04  0.10047192473E+04 0.  0.
        2    1    3    3  502    0 -0.28387425781E+03 -0.39974460447E+03  0.14447249201E+04  0.15256508243E+04  0.25500000920E-02 0. -1.
       -2    1    3    3    0  502  0.28387425781E+03  0.39974460447E+03  0.89068740932E+03  0.10167125475E+04  0.25500000920E-02 0.  1.
</event>
<event>
 5   0  0.3873874E-03  0.9975794E+03  0.7818609E-02  0.9311204E-01
        2   -1    0    0  501    0  0.00000000000E+00  0.00000000000E+00  0.85016769210E+03  0.85016769210E+03  0.25500000920E-02 0. -1.
       -2   -1    0    0    0  501  0.00000000000E+00  0.00000000000E+00 -0.29263776834E+03  0.29263776835E+03  0.25500000920E-02 0.  1.
    10030    2    1    2    0    0  0.00000000000E+00  0.00000000000E+00  0.55752992376E+03  0.11428054605E+04  0.99757942268E+03 0.  0.
        5    1    3    3  502    0  0.90834582086E+02 -0.44827813480E+03  0.50663107476E+03  0.68256966191E+03  0.46999998093E+01 0. -1.
       -5    1    3    3    0  502 -0.90834582086E+02  0.44827813480E+03  0.50898848997E+02  0.46023579855E+03  0.46999998093E+01 0.  1.
</event>
<event>
 5   0  0.2350769E-03  0.1053918E+04  0.7818609E-02  0.9251308E-01
       -1   -1    0    0    0  501  0.00000000000E+00  0.00000000000E+00  0.65521070761E+03  0.65521070763E+03  0.50400001928E-02 0.  1.
        1   -1    0    0  501    0  0.00000000000E+00  0.00000000000E+00 -0.42381141939E+03  0.42381141942E+03  0.50400001928E-02 0. -1.
    10030    2    1    2    0    0  0.00000000000E+00  0.00000000000E+00  0.23139928822E+03  0.10790221271E+04  0.10539179855E+04 0.  0.
        2    1    3    3  502    0  0.28683098030E+03  0.41435702750E+03  0.27338791523E+03  0.57332775068E+03  0.25500000920E-02 0.  1.
       -2    1    3    3    0  502 -0.28683098030E+03 -0.41435702750E+03 -0.41988627007E+02  0.50569437638E+03  0.25500000920E-02 0. -1.
</event>
<event>
 5   0  0.3895011E-03  0.9984501E+03  0.7818609E-02  0.9310246E-01
        2   -1    0    0  501    0  0.00000000000E+00  0.00000000000E+00  0.12424972905E+04  0.12424972905E+04  0.25500000920E-02 0.  1.
       -2   -1    0    0    0  501  0.00000000000E+00  0.00000000000E+00 -0.20058447817E+03  0.20058447818E+03  0.25500000920E-02 0. -1.
    10030    2    1    2    0    0  0.00000000000E+00  0.00000000000E+00  0.10419128123E+04  0.14430817687E+04  0.99845014026E+03 0.  0.
        2    1    3    3  502    0  0.37476923820E+03  0.93472309936E+02  0.97809096407E+03  0.10515944982E+04  0.25500000920E-02 0.  1.
       -2    1    3    3    0  502 -0.37476923820E+03 -0.93472309936E+02  0.63821848240E+02  0.39148727047E+03  0.25500000920E-02 0. -1.
</event>
<event>
 5   0  0.4140860E-03  0.9850803E+03  0.7818609E-02  0.9325062E-01
       -2   -1    0    0    0  501  0.00000000000E+00  0.00000000000E+00  0.19632275853E+03  0.19632275855E+03  0.25500000920E-02 0. -1.
        2   -1    0    0  501    0  0.00000000000E+00  0.00000000000E+00 -0.12356988120E+04  0.12356988120E+04  0.25500000920E-02 0.  1.
    10030    2    1    2    0    0  0.00000000000E+00  0.00000000000E+00 -0.10393760535E+04  0.14320215706E+04  0.98508030028E+03 0.  0.
        3    1    3    3  502    0 -0.28665832490E+03  0.27516514527E+03 -0.94278256048E+03  0.10230971698E+04  0.10100000352E+00 0. -1.
       -3    1    3    3    0  502  0.28665832490E+03 -0.27516514527E+03 -0.96593492994E+02  0.40892440070E+03  0.10100000352E+00 0.  1.
</event>
<event>
 5   0  0.2327595E-03  0.1003099E+04  0.7818609E-02  0.9305153E-01
        1   -1    0    0  501    0  0.00000000000E+00  0.00000000000E+00  0.41739696581E+03  0.41739696584E+03  0.50400001928E-02 0. -1.
       -1   -1    0    0    0  501  0.00000000000E+00  0.00000000000E+00 -0.60266780562E+03  0.60266780564E+03  0.50400001928E-02 0.  1.
    10030    2    1    2    0    0  0.00000000000E+00  0.00000000000E+00 -0.18527083981E+03  0.10200647715E+04  0.10030986262E+04 0.  0.
        5    1    3    3  502    0 -0.40042200094E+03  0.20563117756E+03 -0.31752667652E+03  0.55087860761E+03  0.46999998093E+01 0. -1.
       -5    1    3    3    0  502  0.40042200094E+03 -0.20563117756E+03  0.13225583671E+03  0.46918616386E+03  0.46999998093E+01 0.  1.
</event>
<event>
 5   0  0.2327595E-03  0.1012839E+04  0.7818609E-02  0.9294574E-01
        1   -1    0    0  501    0  0.00000000000E+00  0.00000000000E+00  0.15122816392E+04  0.15122816392E+04  0.50400001928E-02 0. -1.
       -1   -1    0    0    0  501  0.00000000000E+00  0.00000000000E+00 -0.16958525893E+03  0.16958525901E+03  0.50400001928E-02 0.  1.
    10030    2    1    2    0    0  0.00000000000E+00  0.00000000000E+00  0.13426963803E+04  0.16818668982E+04  0.10128389278E+04 0.  0.
        5    1    3    3  502    0 -0.79366430225E+02 -0.46512401543E+03  0.36606388958E+03  0.59721373162E+03  0.46999998093E+01 0. -1.
       -5    1    3    3    0  502  0.79366430225E+02  0.46512401543E+03  0.97663249069E+03  0.10846531666E+04  0.46999998093E+01 0.  1.
</event>
<event>
 5   0  0.4026829E-03  0.9930982E+03  0.7818609E-02  0.9316147E-01
        2   -1    0    0  501    0  0.00000000000E+00  0.00000000000E+00  0.60495043683E+03  0.60495043683E+03  0.25500000920E-02 0. -1.
       -2   -1    0    0    0  501  0.00000000000E+00  0.00000000000E+00 -0.40757224987E+03  0.40757224988E+03  0.25500000920E-02 0.  1.
    10030    2    1    2    0    0  0.00000000000E+00  0.00000000000E+00  0.19737818695E+03  0.10125226867E+04  0.99309820382E+03 0.  0.
        1    1    3    3  502    0 -0.95413470010E+02  0.17448108676E+03  0.56257591787E+03  0.59669007306E+03  0.50400001928E-02 0. -1.
       -1    1    3    3    0  502  0.95413470010E+02 -0.17448108676E+03 -0.36519773091E+03  0.41583261366E+03  0.50400001928E-02 0.  1.
</event>
<event>
 5   0  0.2405022E-03  0.9936437E+03  0.7818609E-02  0.9315544E-01
        1   -1    0    0  501    0  0.00000000000E+00  0.00000000000E+00  0.83370801206E+03  0.83370801207E+03  0.50400001928E-02 0. -1.
       -1   -1    0    0    0  501  0.00000000000E+00  0.00000000000E+00 -0.29606522429E+03  0.29606522433E+03  0.50400001928E-02 0.  1.
    10030    2    1    2    0    0  0.00000000000E+00  0.00000000000E+00  0.53764278777E+03  0.11297732364E+04  0.99364369794E+03 0.  0.
        4    1    3    3  502    0 -0.20775922481E+02  0.37327149286E+03  0.64086050684E+03  0.74193466590E+03  0.12699999809E+01 0. -1.
       -4    1    3    3    0  502  0.20775922481E+02 -0.37327149286E+03 -0.10321771907E+03  0.38783857050E+03  0.12699999809E+01 0.  1.
</event>
<event>
 5   0  0.2350769E-03  0.1000754E+04  0.7818609E-02  0.9307718E-01
        1   -1    0    0  501    0  0.00000000000E+00  0.00000000000E+00  0.16373058233E+04  0.16373058233E+04  0.50400001928E-02 0.  1.
       -1   -1    0    0    0  501  0.00000000000E+00  0.00000000000E+00 -0.15292023800E+03  0.15292023808E+03  0.50400001928E-02 0. -1.
    10030    2    1    2    0    0  0.00000000000E+00  0.00000000000E+00  0.14843855853E+04  0.17902260614E+04  0.10007541082E+04 0.  0.
        2    1    3    3  502    0 -0.19901814916E+03 -0.44927792867E+03  0.57325690955E+03  0.75503798927E+03  0.25500000920E-02 0. -1.
       -2    1    3    3    0  502  0.19901814916E+03  0.44927792867E+03  0.91112867572E+03  0.10351880721E+04  0.25500000920E-02 0.  1.
</event>
<event>
 5   0  0.3826483E-03  0.1005303E+04  0.7818609E-02  0.9302748E-01
        2   -1    0    0  501    0  0.00000000000E+00  0.00000000000E+00  0.58020065192E+03  0.58020065192E+03  0.25500000920E-02 0. -1.
       -2   -1    0    0    0  501  0.00000000000E+00  0.00000000000E+00 -0.43546713575E+03  0.43546713576E+03  0.25500000920E-02 0.  1.
    10030    2    1    2    0    0  0.00000000000E+00  0.00000000000E+00  0.14473351617E+03  0.10156677877E+04  0.10053025735E+04 0.  0.
        4    1    3    3  502    0  0.31868977066E+03 -0.28699122257E+03  0.33723305661E+03  0.54557756472E+03  0.12699999809E+01 0. -1.
       -4    1    3    3    0  502 -0.31868977066E+03  0.28699122257E+03 -0.19249954044E+03  0.47009022296E+03  0.12699999809E+01 0.  1.
</event>
<event>
 5   0  0.3895011E-03  0.1000835E+04  0.7818609E-02  0.9307630E-01
        2   -1    0    0  501    0  0.00000000000E+00  0.00000000000E+00  0.94044393158E+03  0.94044393159E+03  0.25500000920E-02 0. -1.
       -2   -1    0    0    0  501  0.00000000000E+00  0.00000000000E+00 -0.26627584109E+03  0.26627584110E+03  0.25500000920E-02 0.  1.
    10030    2    1    2    0    0  0.00000000000E+00  0.00000000000E+00  0.67416809049E+03  0.12067197727E+04  0.10008346495E+04 0.  0.
        2    1    3    3  502    0 -0.38037965108E+03  0.11046732119E+03 -0.31647073567E+02  0.39735783027E+03  0.25500000920E-02 0.  1.
       -2    1    3    3    0  502  0.38037965108E+03 -0.11046732119E+03  0.70581516406E+03  0.80936194242E+03  0.25500000920E-02 0. -1.
</event>
<event>
 5   0  0.4140860E-03  0.9982805E+03  0.7818609E-02  0.9310433E-01
        2   -1    0    0  501    0  0.00000000000E+00  0.00000000000E+00  0.12836686553E+04  0.12836686553E+04  0.25500000920E-02 0.  1.
       -2   -1    0    0    0  501  0.00000000000E+00  0.00000000000E+00 -0.19408510748E+03  0.19408510750E+03  0.25500000920E-02 0. -1.
    10030    2    1    2    0    0  0.00000000000E+00  0.00000000000E+00  0.10895835478E+04  0.14777537628E+04  0.99828045949E+03 0.  0.
        3    1    3    3  502    0  0.35483595331E+03 -0.34309355200E+03  0.43481819992E+03  0.65779070864E+03  0.10100000352E+00 0. -1.
       -3    1    3    3    0  502 -0.35483595331E+03  0.34309355200E+03  0.65476534790E+03  0.81996305417E+03  0.10100000352E+00 0.  1.
</event>
<event>
 5   0  0.1548000E-03  0.1002442E+04  0.7818609E-02  0.9305870E-01
       -4   -1    0    0    0  501  0.00000000000E+00  0.00000000000E+00  0.69659859147E+03  0.69659974917E+03  0.12699999809E+01 0.  1.
        4   -1    0    0  501    0  0.00000000000E+00  0.00000000000E+00 -0.36063939148E+03  0.36064162764E+03  0.12699999809E+01 0. -1.
    10030    2    1    2    0    0  0.00000000000E+00  0.00000000000E+00  0.33595919999E+03  0.10572413768E+04  0.10024423898E+04 0.  0.
        4    1    3    3  502    0  0.26054104620E+03  0.31856841898E+03  0.46972010865E+03  0.62450465787E+03  0.12699999809E+01 0.  1.
       -4    1    3    3    0  502 -0.26054104620E+03 -0.31856841898E+03 -0.13376090866E+03  0.43273671893E+03  0.12699999809E+01 0. -1.
</event>
<event>
 5   0  0.3826483E-03  0.9764061E+03  0.7818609E-02  0.9334808E-01
        2   -1    0    0  501    0  0.00000000000E+00  0.00000000000E+00  0.35927272086E+03  0.35927272087E+03  0.25500000920E-02 0. -1.
       -2   -1    0    0    0  501  0.00000000000E+00  0.00000000000E+00 -0.66340191074E+03  0.66340191074E+03  0.25500000920E-02 0.  1.
    10030    2    1    2    0    0  0.00000000000E+00  0.00000000000E+00 -0.30412918987E+03  0.10226746316E+04  0.97640608254E+03 0.  0.
        4    1    3    3  502    0  0.16438571526E+03 -0.44355371275E+03 -0.27852557197E+03  0.54894504881E+03  0.12699999809E+01 0. -1.
       -4    1    3    3    0  502 -0.16438571526E+03  0.44355371275E+03 -0.25603617900E+02  0.47372958280E+03  0.12699999809E+01 0.  1.
</event>
<event>
 5   0  0.4140860E-03  0.1000052E+04  0.7818609E-02  0.9308488E-01
       -2   -1    0    0    0  501  0.00000000000E+00  0.00000000000E+00  0.10621701457E+03  0.10621701460E+03  0.25500000920E-02 0. -1.
        2   -1    0    0  501    0  0.00000000000E+00  0.00000000000E+00 -0.23539162121E+04  0.23539162121E+04  0.25500000920E-02 0.  1.
    10030    2    1    2    0    0  0.00000000000E+00  0.00000000000E+00 -0.22476991975E+04  0.24601332267E+04  0.10000519039E+04 0.  0.
        3    1    3    3  502    0  0.15883829339E+03  0.11186182970E+03 -0.22572776847E+04  0.22656224815E+04  0.10100000352E+00 0.  1.
       -3    1    3    3    0  502 -0.15883829339E+03 -0.11186182970E+03  0.95784871972E+01  0.19451074523E+03  0.10100000352E+00 0. -1.
</event>
<event>
 5   0  0.2313036E-03  0.1002946E+04  0.7818609E-02  0.9305320E-01
       -1   -1    0    0    0  501  0.00000000000E+00  0.00000000000E+00  0.19833709897E+03  0.19833709904E+03  0.50400001928E-02 0. -1.
        1   -1    0    0  501    0  0.00000000000E+00  0.00000000000E+00 -0.12679174125E+04  0.12679174125E+04  0.50400001928E-02 0.  1.
    10030    2    1    2    0    0  0.00000000000E+00  0.00000000000E+00 -0.10695803135E+04  0.14662545116E+04  0.10029457840E+04 0.  0.
        3    1    3    3  502    0  0.19015686984E+03  0.39966256035E+03 -0.87946667813E+03  0.98455647143E+03  0.10100000352E+00 0.  1.
       -3    1    3    3    0  502 -0.19015686984E+03 -0.39966256035E+03 -0.19011363540E+03  0.48169804013E+03  0.10100000352E+00 0. -1.
</event>
<event>
 5   0  0.4026829E-03  0.1011318E+04  0.7818609E-02  0.9296218E-01
       -2   -1    0    0    0  501  0.00000000000E+00  0.00000000000E+00  0.23560768762E+03  0.23560768763E+03  0.25500000920E-02 0. -1.
        2   -1    0    0  501    0  0.00000000000E+00  0.00000000000E+00 -0.10852402978E+04  0.10852402978E+04  0.25500000920E-02 0.  1.
    10030    2    1    2    0    0  0.00000000000E+00  0.00000000000E+00 -0.84963261020E+03  0.13208479854E+04  0.10113178671E+04 0.  0.
        1    1    3    3  502    0 -0.19684378381E+03  0.35758823600E+03 -0.81461552500E+03  0.91116149795E+03  0.50400001928E-02 0.  1.
       -1    1    3    3    0  502  0.19684378381E+03 -0.35758823600E+03 -0.35017085193E+02  0.40968648749E+03  0.50400001928E-02 0. -1.
</event>
<event>
 5   0  0.2350769E-03  0.1000385E+04  0.7818609E-02  0.9308123E-01
       -1   -1    0    0    0  501  0.00000000000E+00  0.00000000000E+00  0.22900114004E+03  0.22900114009E+03  0.50400001928E-02 0.  1.
        1   -1    0    0  501    0  0.00000000000E+00  0.00000000000E+00 -0.10925383395E+04  0.10925383395E+04  0.50400001928E-02 0. -1.
    10030    2    1    2    0    0  0.00000000000E+00  0.00000000000E+00 -0.86353719942E+03  0.13215394796E+04  0.10003849765E+04 0.  0.
        2    1    3    3  502    0 -0.31337192787E+03  0.15733266751E+03  0.39447019289E+02  0.35286201379E+03  0.25500000920E-02 0.  1.
       -2    1    3    3    0  502  0.31337192787E+03 -0.15733266751E+03 -0.90298421871E+03  0.96867746577E+03  0.25500000920E-02 0. -1.
</event>
<event>
 5   0  0.2378609E-03  0.1001880E+04  0.7818609E-02  0.9306486E-01
        1   -1    0    0  501    0  0.00000000000E+00  0.00000000000E+00  0.54391659543E+03  0.54391659546E+03  0.50400001928E-02 0.  1.
       -1   -1    0    0    0  501  0.00000000000E+00  0.00000000000E+00 -0.46135875993E+03  0.46135875996E+03  0.50400001928E-02 0. -1.
    10030    2    1    2    0    0  0.00000000000E+00  0.00000000000E+00  0.82557835503E+02  0.10052753554E+04  0.10018796055E+04 0.  0.
        1    1    3    3  502    0  0.16685489512E+03  0.40856188103E+03  0.27909981076E+03  0.52216862319E+03  0.50400001928E-02 0.  1.
       -1    1    3    3    0  502 -0.16685489512E+03 -0.40856188103E+03 -0.19654197526E+03  0.48310673222E+03  0.50400001928E-02 0. -1.
</event>
<event>
 5   0  0.3826483E-03  0.9975888E+03  0.7818609E-02  0.9311193E-01
       -2   -1    0    0    0  501  0.00000000000E+00  0.00000000000E+00  0.34349634206E+03  0.34349634207E+03  0.25500000920E-02 0.  1.
        2   -1    0    0  501    0  0.00000000000E+00  0.00000000000E+00 -0.72430427984E+03  0.72430427984E+03  0.25500000920E-02 0. -1.
    10030    2    1    2    0    0  0.00000000000E+00  0.00000000000E+00 -0.38080793778E+03  0.10678006219E+04  0.99758883448E+03 0.  0.
        4    1    3    3  502    0 -0.49445425284E+03  0.84154029488E+01 -0.12071867617E+03  0.50904856235E+03  0.12699999809E+01 0.  1.
       -4    1    3    3    0  502  0.49445425284E+03 -0.84154029488E+01 -0.26008926161E+03  0.55875205956E+03  0.12699999809E+01 0. -1.
</event>
<event>
 5   0  0.3826483E-03  0.1029401E+04  0.7818609E-02  0.9276874E-01
       -2   -1    0    0    0  501  0.00000000000E+00  0.00000000000E+00  0.16068197803E+03  0.16068197805E+03  0.25500000920E-02 0. -1.
        2   -1    0    0  501    0  0.00000000000E+00  0.00000000000E+00 -0.16486999430E+04  0.16486999430E+04  0.25500000920E-02 0.  1.
    10030    2    1    2    0    0  0.00000000000E+00  0.00000000000E+00 -0.14880179650E+04  0.18093819211E+04  0.10294005402E+04 0.  0.
        4    1    3    3  502    0  0.71297744872E+02  0.27889350570E+03 -0.14939739153E+04  0.15214547737E+04  0.12699999809E+01 0.  1.
       -4    1    3    3    0  502 -0.71297744872E+02 -0.27889350570E+03  0.59559503169E+01  0.28792714736E+03  0.12699999809E+01 0. -1.
</event>
<event>
 5   0  0.3826483E-03  0.9842263E+03  0.7818609E-02  0.9326016E-01
       -2   -1    0    0    0  501  0.00000000000E+00  0.00000000000E+00  0.32409961298E+03  0.32409961299E+03  0.25500000920E-02 0.  1.
        2   -1    0    0  501    0  0.00000000000E+00  0.00000000000E+00 -0.74722504120E+03  0.74722504120E+03  0.25500000920E-02 0. -1.
    10030    2    1    2    0    0  0.00000000000E+00  0.00000000000E+00 -0.42312542822E+03  0.10713246542E+04  0.98422628835E+03 0.  0.
        4    1    3    3  502    0 -0.55871070911E+02 -0.13524830267E+03  0.29986750323E+03  0.33367021493E+03  0.12699999809E+01 0.  1.
       -4    1    3    3    0  502  0.55871070911E+02  0.13524830267E+03 -0.72299293145E+03  0.73765443926E+03  0.12699999809E+01 0. -1.
</event>
<event>
 5   0  0.1548000E-03  0.1024142E+04  0.7818609E-02  0.9282456E-01
       -3   -1    0    0    0  501  0.00000000000E+00  0.00000000000E+00  0.11102176649E+04  0.11102176695E+04  0.10100000352E+00 0. -1.
        3   -1    0    0  501    0  0.00000000000E+00  0.00000000000E+00 -0.23618492543E+03  0.23618494702E+03  0.10100000352E+00 0.  1.
    10030    2    1    2    0    0  0.00000000000E+00  0.00000000000E+00  0.87403273950E+03  0.13464026165E+04  0.10241419707E+04 0.  0.
        4    1    3    3  502    0 -0.29114430189E+03 -0.24444129333E+03  0.88804104575E+03  0.96598916259E+03  0.12699999809E+01 0. -1.
       -4    1    3    3    0  502  0.29114430189E+03  0.24444129333E+03 -0.14008306247E+02  0.38041345396E+03  0.12699999809E+01 0.  1.
</event>
<event>
 5   0  0.2378609E-03  0.9794799E+03  0.7818609E-02  0.9331342E-01
       -1   -1    0    0    0  501  0.00000000000E+00  0.00000000000E+00  0.69028503122E+03  0.69028503124E+03  0.50400001928E-02 0. -1.
        1   -1    0    0  501    0  0.00000000000E+00  0.00000000000E+00 -0.34745826204E+03  0.34745826207E+03  0.50400001928E-02 0.  1.
    10030    2    1    2    0    0  0.00000000000E+00  0.00000000000E+00  0.34282676919E+03  0.10377432933E+04  0.97947993810E+03 0.  0.
        1    1    3    3  502    0  0.27706347619E+03  0.30553653158E+03 -0.10835558088E+03  0.42644773877E+03  0.50400001928E-02 0.  1.
       -1    1    3    3    0  502 -0.27706347619E+03 -0.30553653158E+03  0.45118235007E+03  0.61129555454E+03  0.50400001928E-02 0. -1.
</event>
<event>
 5   0  0.1548000E-03  0.1010262E+04  0.7818609E-02  0.9297361E-01
        3   -1    0    0  501    0  0.00000000000E+00  0.00000000000E+00  0.31584686099E+03  0.31584687714E+03  0.10100000352E+00 0. -1.
       -3   -1    0    0    0  501  0.00000000000E+00  0.00000000000E+00 -0.80785151227E+03  0.80785151859E+03  0.10100000352E+00 0.  1.
    10030    2    1    2    0    0  0.00000000000E+00  0.00000000000E+00 -0.49200465128E+03  0.11236983957E+04  0.10102620985E+04 0.  0.
        1    1    3    3  502    0 -0.23995438371E+03  0.40394191248E+03 -0.45233086875E+03  0.65218892184E+03  0.50400001928E-02 0.  1.
       -1    1    3    3    0  502  0.23995438371E+03 -0.40394191248E+03 -0.39673782532E+02  0.47150947389E+03  0.50400001928E-02 0. -1.
</event>
<event>
 5   0  0.4140860E-03  0.9985988E+03  0.7818609E-02  0.9310083E-01
        2   -1    0    0  501    0  0.00000000000E+00  0.00000000000E+00  0.14168321448E+04  0.14168321448E+04  0.25500000920E-02 0. -1.
       -2   -1    0    0    0  501  0.00000000000E+00  0.00000000000E+00 -0.17595582407E+03  0.17595582409E+03  0.25500000920E-02 0.  1.
    10030    2    1    2    0    0  0.00000000000E+00  0.00000000000E+00  0.12408763207E+04  0.15927879689E+04  0.99859875352E+03 0.  0.
        3    1    3    3  502    0  0.12674834250E+03 -0.48276696615E+03  0.59959446876E+03  0.78015551213E+03  0.10100000352E+00 0.  1.
       -3    1    3    3    0  502 -0.12674834250E+03  0.48276696615E+03  0.64128185198E+03  0.81263245678E+03  0.10100000352E+00 0. -1.
</event>
<event>
 5   0  0.1548000E-03  0.9987428E+03  0.7818609E-02  0.9309925E-01
       -3   -1    0    0    0  501  0.00000000000E+00  0.00000000000E+00  0.50270756246E+03  0.50270757261E+03  0.10100000352E+00 0. -1.
        3   -1    0    0  501    0  0.00000000000E+00  0.00000000000E+00 -0.49605735983E+03  0.49605737011E+03  0.10100000352E+00 0.  1.
    10030    2    1    2    0    0  0.00000000000E+00  0.00000000000E+00  0.66502026308E+01  0.99876494272E+03  0.99874280253E+03 0.  0.
        5    1    3    3  502    0  0.42837399785E+03 -0.30154567932E+02  0.25815642876E+03  0.50107924694E+03  0.46999998093E+01 0.  1.
       -5    1    3    3    0  502 -0.42837399785E+03  0.30154567932E+02 -0.25150622613E+03  0.49768569578E+03  0.46999998093E+01 0. -1.
</event>
<event>
 5   0  0.4026829E-03  0.1009511E+04  0.7818609E-02  0.9298174E-01
        2   -1    0    0  501    0  0.00000000000E+00  0.00000000000E+00  0.65002156303E+03  0.65002156303E+03  0.25500000920E-02 0.  1.
       -2   -1    0    0    0  501  0.00000000000E+00  0.00000000000E+00 -0.39195345917E+03  0.39195345918E+03  0.25500000920E-02 0. -1.
    10030    2    1    2    0    0  0.00000000000E+00  0.00000000000E+00  0.25806810385E+03  0.10419750222E+04  0.10095111692E+04 0.  0.
        1    1    3    3  502    0 -0.11282109093E+03  0.36282274913E+03  0.47199835412E+03  0.60593018753E+03  0.50400001928E-02 0.  1.
       -1    1    3    3    0  502  0.11282109093E+03 -0.36282274913E+03 -0.21393025027E+03  0.43604483468E+03  0.50400001928E-02 0. -1.
</event>
<event>
 5   0  0.1548000E-03  0.9956482E+03  0.7818609E-02  0.9313331E-01
        4   -1    0    0  501    0  0.00000000000E+00  0.00000000000E+00  0.74540128946E+03  0.74540237136E+03  0.12699999809E+01 0.  1.
       -4   -1    0    0    0  501  0.00000000000E+00  0.00000000000E+00 -0.33247450595E+03  0.33247693154E+03  0.12699999809E+01 0. -1.
    10030    2    1    2    0    0  0.00000000000E+00  0.00000000000E+00  0.41292678351E+03  0.10778793029E+04  0.99564816230E+03 0.  0.
        4    1    3    3  502    0 -0.44263772385E+03  0.20475702522E+03  0.98347283661E+02  0.49752125086E+03  0.12699999809E+01 0. -1.
       -4    1    3    3    0  502  0.44263772385E+03 -0.20475702522E+03  0.31457949985E+03  0.58035805205E+03  0.12699999809E+01 0.  1.
</event>
<event>
 5   0  0.2378609E-03  0.9905261E+03  0.7818609E-02  0.9318997E-01
        1   -1    0    0  501    0  0.00000000000E+00  0.00000000000E+00  0.11387437422E+04  0.11387437422E+04  0.50400001928E-02 0. -1.
       -1   -1    0    0    0  501  0.00000000000E+00  0.00000000000E+00 -0.21540006677E+03  0.21540006683E+03  0.50400001928E-02 0.  1.
    10030    2    1    2    0    0  0.00000000000E+00  0.00000000000E+00  0.92334367542E+03  0.13541438090E+04  0.99052607872E+03 0.  0.
        1    1    3    3  502    0 -0.15289257855E+03  0.47096512191E+03  0.47542399667E+03  0.68644902452E+03  0.50400001928E-02 0.  1.
       -1    1    3    3    0  502  0.15289257855E+03 -0.47096512191E+03  0.44791967875E+03  0.66769478452E+03  0.50400001928E-02 0. -1.
</event>
<event>
 5   0  0.2350769E-03  0.1083451E+04  0.7818609E-02  0.9221473E-01
        1   -1    0    0  501    0  0.00000000000E+00  0.00000000000E+00  0.49243169152E+03  0.49243169155E+03  0.50400001928E-02 0.  1.
       -1   -1    0    0    0  501  0.00000000000E+00  0.00000000000E+00 -0.59595406211E+03  0.59595406213E+03  0.50400001928E-02 0. -1.
    10030    2    1    2    0    0  0.00000000000E+00  0.00000000000E+00 -0.10352237059E+03  0.10883857537E+04  0.10834512761E+04 0.  0.
        2    1    3    3  502    0 -0.13598740412E+03  0.81568700890E+02 -0.57211710973E+03  0.59368679815E+03  0.25500000920E-02 0. -1.
       -2    1    3    3    0  502  0.13598740412E+03 -0.81568700890E+02  0.46859473914E+03  0.49469895553E+03  0.25500000920E-02 0.  1.
</event>
<event>
 5   0  0.4140860E-03  0.1001031E+04  0.7818609E-02  0.9307414E-01
        2   -1    0    0  501    0  0.00000000000E+00  0.00000000000E+00  0.14173715402E+04  0.14173715402E+04  0.25500000920E-02 0. -1.
       -2   -1    0    0    0  501  0.00000000000E+00  0.00000000000E+00 -0.17674687523E+03  0.17674687525E+03  0.25500000920E-02 0.  1.
    10030    2    1    2    0    0  0.00000000000E+00  0.00000000000E+00  0.12406246650E+04  0.15941184155E+04  0.10010314496E+04 0.  0.
        3    1    3    3  502    0  0.42819033994E+03  0.93193857359E+02  0.23519675319E+03  0.49734252300E+03  0.10100000352E+00 0.  1.
       -3    1    3    3    0  502 -0.42819033994E+03 -0.93193857359E+02  0.10054279118E+04  0.10967758925E+04  0.10100000352E+00 0. -1.
</event>
<event>
 5   0  0.2350769E-03  0.9879765E+03  0.7818609E-02  0.9321831E-01
       -1   -1    0    0    0  501  0.00000000000E+00  0.00000000000E+00  0.41110836435E+03  0.41110836438E+03  0.50400001928E-02 0. -1.
        1   -1    0    0  501    0  0.00000000000E+00  0.00000000000E+00 -0.59357679747E+03  0.59357679749E+03  0.50400001928E-02 0.  1.
    10030    2    1    2    0    0  0.00000000000E+00  0.00000000000E+00 -0.18246843312E+03  0.10046851619E+04  0.98797649031E+03 0.  0.
        2    1    3    3  502    0 -0.21822140884E+03  0.41270912831E+03 -0.25544261194E+03  0.53216570339E+03  0.25500000920E-02 0.  1.
       -2    1    3    3    0  502  0.21822140884E+03 -0.41270912831E+03  0.72974178816E+02  0.47251945848E+03  0.25500000920E-02 0. -1.
</event>
<event>
 5   0  0.3895011E-03  0.1004276E+04  0.7818609E-02  0.9303867E-01
       -2   -1    0    0    0  501  0.00000000000E+00  0.00000000000E+00  0.94885061509E+02  0.94885061543E+02  0.25500000920E-02 0.  1.
        2   -1    0    0  501    0  0.00000000000E+00  0.00000000000E+00 -0.26573475469E+04  0.26573475469E+04  0.25500000920E-02 0. -1.
    10030    2    1    2    0    0  0.00000000000E+00  0.00000000000E+00 -0.25624624854E+04  0.27522326085E+04  0.10042760288E+04 0.  0.
        2    1    3    3  502    0 -0.49205362242E+02 -0.29641670667E+03 -0.23837852381E+04  0.24026477255E+04  0.25500000920E-02 0. -1.
       -2    1    3    3    0  502  0.49205362242E+02  0.29641670667E+03 -0.17867724735E+03  0.34958488296E+03  0.25500000920E-02 0.  1.
</event>
<event>
 5   0  0.2313036E-03  0.9907430E+03  0.7818609E-02  0.9318756E-01
        1   -1    0    0  501    0  0.00000000000E+00  0.00000000000E+00  0.37985703784E+03  0.37985703787E+03  0.50400001928E-02 0.  1.
       -1   -1    0    0    0  501  0.00000000000E+00  0.00000000000E+00 -0.64601394029E+03  0.64601394031E+03  0.50400001928E-02 0. -1.
    10030    2    1    2    0    0  0.00000000000E+00  0.00000000000E+00 -0.26615690245E+03  0.10258709782E+04  0.99074303790E+03 0.  0.
        3    1    3    3  502    0  0.25802790166E+02  0.24469340615E+03  0.31211024215E+03  0.39743359250E+03  0.10100000352E+00 0.  1.
       -3    1    3    3    0  502 -0.25802790166E+02 -0.24469340615E+03 -0.57826714460E+03  0.62843738568E+03  0.10100000352E+00 0. -1.
</event>
<event>
 5   0  0.2378609E-03  0.9842079E+03  0.7818609E-02  0.9326037E-01
       -1   -1    0    0    0  501  0.00000000000E+00  0.00000000000E+00  0.17164561185E+03  0.17164561192E+03  0.50400001928E-02 0.  1.
        1   -1    0    0  501    0  0.00000000000E+00  0.00000000000E+00 -0.14108505947E+04  0.14108505947E+04  0.50400001928E-02 0. -1.
    10030    2    1    2    0    0  0.00000000000E+00  0.00000000000E+00 -0.12392049829E+04  0.15824962066E+04  0.98420793254E+03 0.  0.
        1    1    3    3  502    0  0.21402639102E+03 -0.87546218715E+02  0.78848022564E+02  0.24431260130E+03  0.50400001928E-02 0.  1.
       -1    1    3    3    0  502 -0.21402639102E+03  0.87546218715E+02 -0.13180530054E+04  0.13381836053E+04  0.50400001928E-02 0. -1.
</event>
<event>
 5   0  0.3826483E-03  0.1002936E+04  0.7818609E-02  0.9305330E-01
       -2   -1    0    0    0  501  0.00000000000E+00  0.00000000000E+00  0.28209175523E+03  0.28209175525E+03  0.25500000920E-02 0. -1.
        2   -1    0    0  501    0  0.00000000000E+00  0.00000000000E+00 -0.89144813763E+03  0.89144813763E+03  0.25500000920E-02 0.  1.
    10030    2    1    2    0    0  0.00000000000E+00  0.00000000000E+00 -0.60935638239E+03  0.11735398929E+04  0.10029360296E+04 0.  0.
        4    1    3    3  502    0  0.78708076365E+02  0.45536143483E+03 -0.76824396855E+02  0.46845768055E+03  0.12699999809E+01 0. -1.
       -4    1    3    3    0  502 -0.78708076365E+02 -0.45536143483E+03 -0.53253198554E+03  0.70508221232E+03  0.12699999809E+01 0.  1.
</event>
<event>
 5   0  0.3873874E-03  0.1002350E+04  0.7818609E-02  0.9305971E-01
        2   -1    0    0  501    0  0.00000000000E+00  0.00000000000E+00  0.22584706617E+04  0.22584706617E+04  0.25500000920E-02 0. -1.
       -2   -1    0    0    0  501  0.00000000000E+00  0.00000000000E+00 -0.11121522081E+03  0.11121522084E+03  0.25500000920E-02 0.  1.
    10030    2    1    2    0    0  0.00000000000E+00  0.00000000000E+00  0.21472554409E+04  0.23696858826E+04  0.10023498658E+04 0.  0.
        5    1    3    3  502    0  0.37161688943E+02  0.13671593212E+03  0.22100885998E+04  0.22146299795E+04  0.46999998093E+01 0. -1.
       -5    1    3    3    0  502 -0.37161688943E+02 -0.13671593212E+03 -0.62833158878E+02  0.15505590306E+03  0.46999998093E+01 0.  1.
</event>
<event>
 5   0  0.2350769E-03  0.9931904E+03  0.7818609E-02  0.9316045E-01
        1   -1    0    0  501    0  0.00000000000E+00  0.00000000000E+00  0.42206889373E+03  0.42206889376E+03  0.50400001928E-02 0. -1.
       -1   -1    0    0    0  501  0.00000000000E+00  0.00000000000E+00 -0.58428088351E+03  0.58428088353E+03  0.50400001928E-02 0.  1.
    10030    2    1    2    0    0  0.00000000000E+00  0.00000000000E+00 -0.16221198978E+03  0.10063497773E+04  0.99319038690E+03 0.  0.
        2    1    3    3  502    0 -0.31280735324E+03 -0.21480475431E+03  0.24347767171E+03  0.45085574117E+03  0.25500000920E-02 0. -1.
       -2    1    3    3    0  502  0.31280735324E+03  0.21480475431E+03 -0.40568966149E+03  0.55549403612E+03  0.25500000920E-02 0.  1.
</event>
<event>
 5   0  0.2350769E-03  0.1000616E+04  0.7818609E-02  0.9307869E-01
       -1   -1    0    0    0  501  0.00000000000E+00  0.00000000000E+00  0.45088872288E+03  0.45088872291E+03  0.50400001928E-02 0. -1.
        1   -1    0    0  501    0  0.00000000000E+00  0.00000000000E+00 -0.55514397794E+03  0.55514397796E+03  0.50400001928E-02 0.  1.
    10030    2    1    2    0    0  0.00000000000E+00  0.00000000000E+00 -0.10425525506E+03  0.10060327009E+04  0.10006161287E+04 0.  0.
        2    1    3    3  502    0  0.27215148881E+03 -0.51217016834E+02 -0.47105877672E+03  0.54643022135E+03  0.25500000920E-02 0.  1.
       -2    1    3    3    0  502 -0.27215148881E+03  0.51217016834E+02  0.36680352166E+03  0.45960247952E+03  0.25500000920E-02 0. -1.
</event>
<event>
 5   0  0.2378609E-03  0.9880778E+03  0.7818609E-02  0.9321718E-01
        1   -1    0    0  501    0  0.00000000000E+00  0.00000000000E+00  0.70596391346E+03  0.70596391348E+03  0.50400001928E-02 0. -1.
       -1   -1    0    0    0  501  0.00000000000E+00  0.00000000000E+00 -0.34573215529E+03  0.34573215533E+03  0.50400001928E-02 0.  1.
    10030    2    1    2    0    0  0.00000000000E+00  0.00000000000E+00  0.36023175817E+03  0.10516960688E+04  0.98807778112E+03 0.  0.
        1    1    3    3  502    0 -0.16988898256E+03  0.35825444010E+03  0.49382259531E+03  0.63330029679E+03  0.50400001928E-02 0. -1.
       -1    1    3    3    0  502  0.16988898256E+03 -0.35825444010E+03 -0.13359083714E+03  0.41839577202E+03  0.50400001928E-02 0.  1.
</event>
<event>
 5   0  0.2327595E-03  0.9840272E+03  0.7818609E-02  0.9326239E-01
       -1   -1    0    0    0  501  0.00000000000E+00  0.00000000000E+00  0.25020284983E+03  0.25020284988E+03  0.50400001928E-02 0. -1.
        1   -1    0    0  501    0  0.00000000000E+00  0.00000000000E+00 -0.96752451808E+03  0.96752451809E+03  0.50400001928E-02 0.  1.
    10030    2    1    2    0    0  0.00000000000E+00  0.00000000000E+00 -0.71732166825E+03  0.12177273680E+04  0.98402721861E+03 0.  0.
        5    1    3    3  502    0 -0.97680046047E+02 -0.41427586213E+03 -0.66402204945E+03  0.78874156319E+03  0.46999998093E+01 0.  1.
       -5    1    3    3    0  502  0.97680046047E+02  0.41427586213E+03 -0.53299618794E+02  0.42898580478E+03  0.46999998093E+01 0. -1.
</event>
<event>
 5   0  0.2313036E-03  0.9981468E+03  0.7818609E-02  0.9310580E-01
       -1   -1    0    0    0  501  0.00000000000E+00  0.00000000000E+00  0.17080700013E+03  0.17080700020E+03  0.50400001928E-02 0.  1.
        1   -1    0    0  501    0  0.00000000000E+00  0.00000000000E+00 -0.14582205382E+04  0.14582205383E+04  0.50400001928E-02 0. -1.
    10030    2    1    2    0    0  0.00000000000E+00  0.00000000000E+00 -0.12874135381E+04  0.16290275385E+04  0.99814683434E+03 0.  0.
        3    1    3    3  502    0  0.33195750883E+03 -0.27764428640E+03 -0.10494026221E+04  0.11351334772E+04  0.10100000352E+00 0. -1.
       -3    1    3    3    0  502 -0.33195750883E+03  0.27764428640E+03 -0.23801091597E+03  0.49389406128E+03  0.10100000352E+00 0.  1.
</event>
<event>
 5   0  0.4026829E-03  0.9900821E+03  0.7818609E-02  0.9319490E-01
       -2   -1    0    0    0  501  0.00000000000E+00  0.00000000000E+00  0.48276998184E+03  0.48276998184E+03  0.25500000920E-02 0. -1.
        2   -1    0    0  501    0  0.00000000000E+00  0.00000000000E+00 -0.50762405140E+03  0.50762405140E+03  0.25500000920E-02 0.  1.
    10030    2    1    2    0    0  0.00000000000E+00  0.00000000000E+00 -0.24854069558E+02  0.99039403325E+03  0.99008212605E+03 0.  0.
        1    1    3    3  502    0 -0.12868498114E+03 -0.41141601890E+03 -0.25590192383E+03  0.50130705124E+03  0.50400001928E-02 0.  1.
       -1    1    3    3    0  502  0.12868498114E+03  0.41141601890E+03  0.23104785427E+03  0.48908698201E+03  0.50400001928E-02 0. -1.
</event>
<event>
 5   0  0.2313036E-03  0.9963542E+03  0.7818609E-02  0.9312552E-01
       -1   -1    0    0    0  501  0.00000000000E+00  0.00000000000E+00  0.14253405101E+03  0.14253405110E+03  0.50400001928E-02 0.  1.
        1   -1    0    0  501    0  0.00000000000E+00  0.00000000000E+00 -0.17412010420E+04  0.17412010420E+04  0.50400001928E-02 0. -1.
    10030    2    1    2    0    0  0.00000000000E+00  0.00000000000E+00 -0.15986669910E+04  0.18837350931E+04  0.99635423064E+03 0.  0.
        3    1    3    3  502    0  0.19387277407E+03 -0.18005954207E+03 -0.15973763206E+04  0.16191415043E+04  0.10100000352E+00 0. -1.
       -3    1    3    3    0  502 -0.19387277407E+03  0.18005954207E+03 -0.12906704311E+01  0.26459358882E+03  0.10100000352E+00 0.  1.
</event>
<event>
 5   0  0.2378609E-03  0.1002132E+04  0.7818609E-02  0.9306209E-01
        1   -1    0    0  501    0  0.00000000000E+00  0.00000000000E+00  0.15349084769E+04  0.15349084769E+04  0.50400001928E-02 0. -1.
       -1   -1    0    0    0  501  0.00000000000E+00  0.00000000000E+00 -0.16357151759E+03  0.16357151767E+03  0.50400001928E-02 0.  1.
    10030    2    1    2    0    0  0.00000000000E+00  0.00000000000E+00  0.13713369593E+04  0.16984799945E+04  0.10021323445E+04 0.  0.
        1    1    3    3  502    0  0.43206670584E+02 -0.21560618768E+03 -0.77424969896E+02  0.23312543949E+03  0.50400001928E-02 0.  1.
       -1    1    3    3    0  502 -0.43206670584E+02  0.21560618768E+03  0.14487619292E+04  0.14653545550E+04  0.50400001928E-02 0. -1.
</event>
<event>
 5   0  0.2378609E-03  0.1025002E+04  0.7818609E-02  0.9281540E-01
       -1   -1    0    0    0  501  0.00000000000E+00  0.00000000000E+00  0.31667108200E+03  0.31667108204E+03  0.50400001928E-02 0.  1.
        1   -1    0    0  501    0  0.00000000000E+00  0.00000000000E+00 -0.82943215180E+03  0.82943215181E+03  0.50400001928E-02 0. -1.
    10030    2    1    2    0    0  0.00000000000E+00  0.00000000000E+00 -0.51276106980E+03  0.11461032339E+04  0.10250018088E+04 0.  0.
        1    1    3    3  502    0  0.29562010658E+03 -0.26991185468E+03 -0.61421136289E+03  0.73314340687E+03  0.50400001928E-02 0.  1.
       -1    1    3    3    0  502 -0.29562010658E+03  0.26991185468E+03  0.10145029309E+03  0.41295982698E+03  0.50400001928E-02 0. -1.
</event>
<event>
 5   0  0.2350769E-03  0.9970001E+03  0.7818609E-02  0.9311841E-01
       -1   -1    0    0    0  501  0.00000000000E+00  0.00000000000E+00  0.15721956734E+03  0.15721956743E+03  0.50400001928E-02 0.  1.
        1   -1    0    0  501    0  0.00000000000E+00  0.00000000000E+00 -0.15806068239E+04  0.15806068239E+04  0.50400001928E-02 0. -1.
    10030    2    1    2    0    0  0.00000000000E+00  0.00000000000E+00 -0.14233872566E+04  0.17378263913E+04  0.99700014257E+03 0.  0.
        2    1    3    3  502    0 -0.18278422162E+03 -0.20057309981E+03  0.17192582587E+02  0.27191032519E+03  0.25500000920E-02 0.  1.
       -2    1    3    3    0  502  0.18278422162E+03  0.20057309981E+03 -0.14405798391E+04  0.14659160662E+04  0.25500000920E-02 0. -1.
</event>
<event>
 5   0  0.2313036E-03  0.9988147E+03  0.7818609E-02  0.9309846E-01
       -1   -1    0    0    0  501  0.00000000000E+00  0.00000000000E+00  0.60554535739E+03  0.60554535741E+03  0.50400001928E-02 0.  1.
        1   -1    0    0  501    0  0.00000000000E+00  0.00000000000E+00 -0.41187287905E+03  0.41187287908E+03  0.50400001928E-02 0. -1.
    10030    2    1    2    0    0  0.00000000000E+00  0.00000000000E+00  0.19367247834E+03  0.10174182365E+04  0.99881471709E+03 0.  0.
        3    1    3    3  502    0 -0.74585252788E+01  0.27519583594E+03  0.52127360712E+03  0.58950365682E+03  0.10100000352E+00 0.  1.
       -3    1    3    3    0  502  0.74585252788E+01 -0.27519583594E+03 -0.32760112878E+03  0.42791457967E+03  0.10100000352E+00 0. -1.
</event>
<event>
 5   0  0.4026829E-03  0.1001885E+04  0.7818609E-02  0.9306480E-01
        2   -1    0    0  501    0  0.00000000000E+00  0.00000000000E+00  0.12702299578E+04  0.12702299578E+04  0.25500000920E-02 0. -1.
       -2   -1    0    0    0  501  0.00000000000E+00  0.00000000000E+00 -0.19755752867E+03  0.19755752869E+03  0.25500000920E-02 0.  1.
    10030    2    1    2    0    0  0.00000000000E+00  0.00000000000E+00  0.10726724291E+04  0.14677874865E+04  0.10018852056E+04 0.  0.
        1    1    3    3  502    0  0.27107535760E+03 -0.70314338954E+02  0.11448379763E+04  0.11785923586E+04  0.50400001928E-02 0. -1.
       -1    1    3    3    0  502 -0.27107535760E+03  0.70314338954E+02 -0.72165547177E+02  0.28919512788E+03  0.50400001928E-02 0.  1.
</event>
<event>
 5   0  0.4140860E-03  0.9998996E+03  0.7818609E-02  0.9308655E-01
        2   -1    0    0  501    0  0.00000000000E+00  0.00000000000E+00  0.95214951817E+03  0.95214951817E+03  0.25500000920E-02 0. -1.
       -2   -1    0    0    0  501  0.00000000000E+00  0.00000000000E+00 -0.26251108672E+03  0.26251108673E+03  0.25500000920E-02 0.  1.
    10030    2    1    2    0    0  0.00000000000E+00  0.00000000000E+00  0.68963843145E+03  0.12146606049E+04  0.99989960444E+03 0.  0.
        3    1    3    3  502    0  0.58696336148E+00  0.36946605296E+03  0.75397609942E+03  0.83963413312E+03  0.10100000352E+00 0. -1.
       -3    1    3    3    0  502 -0.58696336148E+00 -0.36946605296E+03 -0.64337667968E+02  0.37502647178E+03  0.10100000352E+00 0.  1.
</event>
<event>
 5   0  0.2313036E-03  0.9923805E+03  0.7818609E-02  0.9316941E-01
        1   -1    0    0  501    0  0.00000000000E+00  0.00000000000E+00  0.34314606516E+03  0.34314606520E+03  0.50400001928E-02 0. -1.
       -1   -1    0    0    0  501  0.00000000000E+00  0.00000000000E+00 -0.71749259721E+03  0.71749259723E+03  0.50400001928E-02 0.  1.
    10030    2    1    2    0    0  0.00000000000E+00  0.00000000000E+00 -0.37434653205E+03  0.10606386624E+04  0.99238049466E+03 0.  0.
        3    1    3    3  502    0  0.48817880813E+03  0.27117262356E+02 -0.96794111828E+02  0.49842051012E+03  0.10100000352E+00 0. -1.
       -3    1    3    3    0  502 -0.48817880813E+03 -0.27117262356E+02 -0.27755242022E+03  0.56221815232E+03  0.10100000352E+00 0.  1.
</event>
<event>
 5   0  0.3873874E-03  0.9968271E+03  0.7818609E-02  0.9312032E-01
        2   -1    0    0  501    0  0.00000000000E+00  0.00000000000E+00  0.37156233140E+03  0.37156233141E+03  0.25500000920E-02 0.  1.
       -2   -1    0    0    0  501  0.00000000000E+00  0.00000000000E+00 -0.66857173917E+03  0.66857173917E+03  0.25500000920E-02 0. -1.
    10030    2    1    2    0    0  0.00000000000E+00  0.00000000000E+00 -0.29700940777E+03  0.10401340706E+04  0.99682711464E+03 0.  0.
        5    1    3    3  502    0 -0.17810743405E+03 -0.39301840028E+03 -0.40875636937E+03  0.59438167916E+03  0.46999998093E+01 0. -1.
       -5    1    3    3    0  502  0.17810743405E+03  0.39301840028E+03  0.11174696160E+03  0.44575239142E+03  0.46999998093E+01 0.  1.
</event>
<event>
 5   0  0.2405022E-03  0.9780822E+03  0.7818609E-02  0.9332916E-01
       -1   -1    0    0    0  501  0.00000000000E+00  0.00000000000E+00  0.93036521226E+03  0.93036521228E+03  0.50400001928E-02 0.  1.
        1   -1    0    0  501    0  0.00000000000E+00  0.00000000000E+00 -0.25706161902E+03  0.25706161907E+03  0.50400001928E-02 0. -1.
    10030    2    1    2    0    0  0.00000000000E+00  0.00000000000E+00  0.67330359325E+03  0.11874268313E+04  0.97808218014E+03 0.  0.
        4    1    3    3  502    0 -0.17949626071E+03 -0.74614421050E+02  0.88144604634E+03  0.90262670298E+03  0.12699999809E+01 0.  1.
       -4    1    3    3    0  502  0.17949626071E+03  0.74614421050E+02 -0.20814245309E+03  0.28480012836E+03  0.12699999809E+01 0. -1.
</event>
<event>
 5   0  0.2350769E-03  0.9807562E+03  0.7818609E-02  0.9329906E-01
        1   -1    0    0  501    0  0.00000000000E+00  0.00000000000E+00  0.68835097382E+03  0.68835097384E+03  0.50400001928E-02 0. -1.
       -1   -1    0    0    0  501  0.00000000000E+00  0.00000000000E+00 -0.34934315347E+03  0.34934315350E+03  0.50400001928E-02 0.  1.
    10030    2    1    2    0    0  0.00000000000E+00  0.00000000000E+00  0.33900782036E+03  0.10376941273E+04  0.98075623865E+03 0.  0.
        2    1    3    3  502    0 -0.25170552401E+03 -0.34766103925E+03 -0.81428818104E+02  0.43686899805E+03  0.25500000920E-02 0. -1.
       -2    1    3    3    0  502  0.25170552401E+03  0.34766103925E+03  0.42043663846E+03  0.60082512930E+03  0.25500000920E-02 0.  1.
</event>
<event>
 5   0  0.2378609E-03  0.9971349E+03  0.7818609E-02  0.9311693E-01
       -1   -1    0    0    0  501  0.00000000000E+00  0.00000000000E+00  0.44437609243E+03  0.44437609246E+03  0.50400001928E-02 0.  1.
        1   -1    0    0  501    0  0.00000000000E+00  0.00000000000E+00 -0.55936744180E+03  0.55936744182E+03  0.50400001928E-02 0. -1.
    10030    2    1    2    0    0  0.00000000000E+00  0.00000000000E+00 -0.11499134937E+03  0.10037435343E+04  0.99713493178E+03 0.  0.
        1    1    3    3  502    0  0.24426290801E+03 -0.35661927063E+03  0.19260184795E+03  0.47321997451E+03  0.50400001928E-02 0.  1.
       -1    1    3    3    0  502 -0.24426290801E+03  0.35661927063E+03 -0.30759319732E+03  0.53052355977E+03  0.50400001928E-02 0. -1.
</event>
<event>
 5   0  0.2327595E-03  0.9940417E+03  0.7818609E-02  0.9315104E-01
       -1   -1    0    0    0  501  0.00000000000E+00  0.00000000000E+00  0.17200939282E+03  0.17200939289E+03  0.50400001928E-02 0.  1.
        1   -1    0    0  501    0  0.00000000000E+00  0.00000000000E+00 -0.14361407769E+04  0.14361407769E+04  0.50400001928E-02 0. -1.
    10030    2    1    2    0    0  0.00000000000E+00  0.00000000000E+00 -0.12641313841E+04  0.16081501698E+04  0.99404165528E+03 0.  0.
        5    1    3    3  502    0  0.21717531294E+03 -0.44676468163E+03 -0.65732683225E+03  0.82393231014E+03  0.46999998093E+01 0. -1.
       -5    1    3    3    0  502 -0.21717531294E+03  0.44676468163E+03 -0.60680455187E+03  0.78421785970E+03  0.46999998093E+01 0.  1.
</event>
<event>
 5   0  0.3873874E-03  0.9997340E+03  0.7818609E-02  0.9308837E-01
       -2   -1    0    0    0  501  0.00000000000E+00  0.00000000000E+00  0.16232050139E+03  0.16232050141E+03  0.25500000920E-02 0. -1.
        2   -1    0    0  501    0  0.00000000000E+00  0.00000000000E+00 -0.15393435738E+04  0.15393435739E+04  0.25500000920E-02 0.  1.
    10030    2    1    2    0    0  0.00000000000E+00  0.00000000000E+00 -0.13770230725E+04  0.17016640753E+04  0.99973400609E+03 0.  0.
        5    1    3    3  502    0 -0.42826289331E+03  0.13494388226E+03 -0.31471965231E+03  0.54835162687E+03  0.46999998093E+01 0. -1.
       -5    1    3    3    0  502  0.42826289331E+03 -0.13494388226E+03 -0.10623034201E+04  0.11533124484E+04  0.46999998093E+01 0.  1.
</event>
<event>
 5   0  0.3826483E-03  0.1007408E+04  0.7818609E-02  0.9300457E-01
        2   -1    0    0  501    0  0.00000000000E+00  0.00000000000E+00  0.16183495673E+04  0.16183495673E+04  0.25500000920E-02 0.  1.
       -2   -1    0    0    0  501  0.00000000000E+00  0.00000000000E+00 -0.15677547598E+03  0.15677547600E+03  0.25500000920E-02 0. -1.
    10030    2    1    2    0    0  0.00000000000E+00  0.00000000000E+00  0.14615740913E+04  0.17751250433E+04  0.10074076111E+04 0.  0.
        4    1    3    3  502    0  0.68204115836E+02  0.13504969759E+03  0.15773627356E+04  0.15846024848E+04  0.12699999809E+01 0.  1.
       -4    1    3    3    0  502 -0.68204115836E+02 -0.13504969759E+03 -0.11578864432E+03  0.19052255848E+03  0.12699999809E+01 0. -1.
</event>
<event>
 5   0  0.2327595E-03  0.9952015E+03  0.7818609E-02  0.9313823E-01
       -1   -1    0    0    0  501  0.00000000000E+00  0.00000000000E+00  0.48503179401E+03  0.48503179403E+03  0.50400001928E-02 0.  1.
        1   -1    0    0  501    0  0.00000000000E+00  0.00000000000E+00 -0.51049546306E+03  0.51049546308E+03  0.50400001928E-02 0. -1.
    10030    2    1    2    0    0  0.00000000000E+00  0.00000000000E+00 -0.25463669051E+02  0.99552725712E+03  0.99520154804E+03 0.  0.
        5    1    3    3  502    0  0.47609513050E+02 -0.15275172660E+03  0.45857487076E+03  0.48570851115E+03  0.46999998093E+01 0.  1.
       -5    1    3    3    0  502 -0.47609513050E+02  0.15275172660E+03 -0.48403853981E+03  0.50981874596E+03  0.46999998093E+01 0. -1.
</event>
<event>
 5   0  0.2327595E-03  0.9901069E+03  0.7818609E-02  0.9319462E-01
        1   -1    0    0  501    0  0.00000000000E+00  0.00000000000E+00  0.25121296576E+04  0.25121296576E+04  0.50400001928E-02 0.  1.
       -1   -1    0    0    0  501  0.00000000000E+00  0.00000000000E+00 -0.97557834796E+02  0.97557834926E+02  0.50400001928E-02 0. -1.
    10030    2    1    2    0    0  0.00000000000E+00  0.00000000000E+00  0.24145718228E+04  0.26096874926E+04  0.99010692413E+03 0.  0.
        5    1    3    3  502    0 -0.14418707755E+03 -0.40691716510E+03  0.56877614082E+03  0.71407274206E+03  0.46999998093E+01 0. -1.
       -5    1    3    3    0  502  0.14418707755E+03  0.40691716510E+03  0.18457956820E+04  0.18956147505E+04  0.46999998093E+01 0.  1.
</event>
<event>
 5   0  0.4026829E-03  0.9846923E+03  0.7818609E-02  0.9325495E-01
        2   -1    0    0  501    0  0.00000000000E+00  0.00000000000E+00  0.44699304608E+03  0.44699304609E+03  0.25500000920E-02 0.  1.
       -2   -1    0    0    0  501  0.00000000000E+00  0.00000000000E+00 -0.54230089900E+03  0.54230089901E+03  0.25500000920E-02 0. -1.
    10030    2    1    2    0    0  0.00000000000E+00  0.00000000000E+00 -0.95307852924E+02  0.98929394510E+03  0.98469229863E+03 0.  0.
        1    1    3    3  502    0 -0.34767096182E+02 -0.49108925059E+03 -0.42401907391E+02  0.49414099688E+03  0.50400001928E-02 0. -1.
       -1    1    3    3    0  502  0.34767096182E+02  0.49108925059E+03 -0.52905945533E+02  0.49515294821E+03  0.50400001928E-02 0.  1.
</event>
<event>
 5   0  0.3826483E-03  0.1019957E+04  0.7818609E-02  0.9286923E-01
        2   -1    0    0  501    0  0.00000000000E+00  0.00000000000E+00  0.16278268291E+04  0.16278268291E+04  0.25500000920E-02 0. -1.
       -2   -1    0    0    0  501  0.00000000000E+00  0.00000000000E+00 -0.15977024082E+03  0.15977024084E+03  0.25500000920E-02 0.  1.
    10030    2    1    2    0    0  0.00000000000E+00  0.00000000000E+00  0.14680565883E+04  0.17875970700E+04  0.10199574197E+04 0.  0.
        4    1    3    3  502    0  0.15048171466E+03  0.38948129307E+03  0.22084816904E+03  0.47235151187E+03  0.12699999809E+01 0.  1.
       -4    1    3    3    0  502 -0.15048171466E+03 -0.38948129307E+03  0.12472084193E+04  0.13152455581E+04  0.12699999809E+01 0. -1.
</event>
<event>
 5   0  0.3826483E-03  0.9975812E+03  0.7818609E-02  0.9311202E-01
        2   -1    0    0  501    0  0.00000000000E+00  0.00000000000E+00  0.16657074201E+04  0.16657074201E+04  0.25500000920E-02 0.  1.
       -2   -1    0    0    0  501  0.00000000000E+00  0.00000000000E+00 -0.14936120664E+03  0.14936120666E+03  0.25500000920E-02 0. -1.
    10030    2    1    2    0    0  0.00000000000E+00  0.00000000000E+00  0.15163462135E+04  0.18150686268E+04  0.99758121514E+03 0.  0.
        4    1    3    3  502    0 -0.72137882593E+02  0.14203269007E+03 -0.10182856897E+03  0.18907096423E+03  0.12699999809E+01 0. -1.
       -4    1    3    3    0  502  0.72137882593E+02 -0.14203269007E+03  0.16181747825E+04  0.16259976626E+04  0.12699999809E+01 0.  1.
</event>
<event>
 5   0  0.2405022E-03  0.9953452E+03  0.7818609E-02  0.9313665E-01
        1   -1    0    0  501    0  0.00000000000E+00  0.00000000000E+00  0.21948024730E+04  0.21948024731E+04  0.50400001928E-02 0.  1.
       -1   -1    0    0    0  501  0.00000000000E+00  0.00000000000E+00 -0.11284751733E+03  0.11284751744E+03  0.50400001928E-02 0. -1.
    10030    2    1    2    0    0  0.00000000000E+00  0.00000000000E+00  0.20819549557E+04  0.23076499905E+04  0.99534518685E+03 0.  0.
        4    1    3    3  502    0  0.12827311614E+03 -0.44667774213E+03  0.14537734365E+04  0.15262482810E+04  0.12699999809E+01 0. -1.
       -4    1    3    3    0  502 -0.12827311614E+03  0.44667774213E+03  0.62818151923E+03  0.78140170952E+03  0.12699999809E+01 0.  1.
</event>
<event>
 5   0  0.2313036E-03  0.1007874E+04  0.7818609E-02  0.9299950E-01
        1   -1    0    0  501    0  0.00000000000E+00  0.00000000000E+00  0.42732309058E+03  0.42732309061E+03  0.50400001928E-02 0. -1.
       -1   -1    0    0    0  501  0.00000000000E+00  0.00000000000E+00 -0.59428740246E+03  0.59428740248E+03  0.50400001928E-02 0.  1.
    10030    2    1    2    0    0  0.00000000000E+00  0.00000000000E+00 -0.16696431188E+03  0.10216104931E+04  0.10078744556E+04 0.  0.
        3    1    3    3  502    0  0.43628780918E+03  0.97731579467E+02 -0.31914637583E+03  0.54932042877E+03  0.10100000352E+00 0.  1.
       -3    1    3    3    0  502 -0.43628780918E+03 -0.97731579467E+02  0.15218206395E+03  0.47229006432E+03  0.10100000352E+00 0. -1.
</event>
<event>
 5   0  0.2313036E-03  0.1008873E+04  0.7818609E-02  0.9298866E-01
       -1   -1    0    0    0  501  0.00000000000E+00  0.00000000000E+00  0.50934286181E+03  0.50934286183E+03  0.50400001928E-02 0.  1.
        1   -1    0    0  501    0  0.00000000000E+00  0.00000000000E+00 -0.49957754985E+03  0.49957754987E+03  0.50400001928E-02 0. -1.
    10030    2    1    2    0    0  0.00000000000E+00  0.00000000000E+00  0.97653119574E+01  0.10089204117E+04  0.10088731515E+04 0.  0.
        3    1    3    3  502    0 -0.12700737770E+03  0.29059346663E+03 -0.38741216836E+03  0.50066319541E+03  0.10100000352E+00 0. -1.
       -3    1    3    3    0  502  0.12700737770E+03 -0.29059346663E+03  0.39717748032E+03  0.50825721630E+03  0.10100000352E+00 0.  1.
</event>
<event>
 5   0  0.3826483E-03  0.9960139E+03  0.7818609E-02  0.9312928E-01
        2   -1    0    0  501    0  0.00000000000E+00  0.00000000000E+00  0.11063819037E+04  0.11063819037E+04  0.25500000920E-02 0.  1.
       -2   -1    0    0    0  501  0.00000000000E+00  0.00000000000E+00 -0.22416394093E+03  0.22416394095E+03  0.25500000920E-02 0. -1.
    10030    2    1    2    0    0  0.00000000000E+00  0.00000000000E+00  0.88221796278E+03  0.13305458447E+04  0.99601391099E+03 0.  0.
        4    1    3    3  502    0  0.11772590856E+03 -0.46128358981E+03  0.63638100431E+03  0.79474796969E+03  0.12699999809E+01 0.  1.
       -4    1    3    3    0  502 -0.11772590856E+03  0.46128358981E+03  0.24583695847E+03  0.53579787497E+03  0.12699999809E+01 0. -1.
</event>
<event>
 5   0  0.2405022E-03  0.1008691E+04  0.7818609E-02  0.9299064E-01
        1   -1    0    0  501    0  0.00000000000E+00  0.00000000000E+00  0.11318738625E+04  0.11318738625E+04  0.50400001928E-02 0. -1.
       -1   -1    0    0    0  501  0.00000000000E+00  0.00000000000E+00 -0.22472849912E+03  0.22472849918E+03  0.50400001928E-02 0.  1.
    10030    2    1    2    0    0  0.00000000000E+00  0.00000000000E+00  0.90714536339E+03  0.13566023617E+04  0.10086908632E+04 0.  0.
        4    1    3    3  502    0 -0.31534030887E+03  0.29846898850E+02  0.98141044474E+03  0.10312605984E+04  0.12699999809E+01 0. -1.
       -4    1    3    3    0  502  0.31534030887E+03 -0.29846898850E+02 -0.74265081352E+02  0.32534176334E+03  0.12699999809E+01 0.  1.
</event>
<event>
 5   0  0.4026829E-03  0.1001742E+04  0.7818609E-02  0.9306637E-01
        2   -1    0    0  501    0  0.00000000000E+00  0.00000000000E+00  0.94327580852E+03  0.94327580853E+03  0.25500000920E-02 0.  1.
       -2   -1    0    0    0  501  0.00000000000E+00  0.00000000000E+00 -0.26595780327E+03  0.26595780328E+03  0.25500000920E-02 0. -1.
    10030    2    1    2    0    0  0.00000000000E+00  0.00000000000E+00  0.67731800525E+03  0.12092336118E+04  0.10017416072E+04 0.  0.
        1    1    3    3  502    0  0.61902713169E+02 -0.49644880844E+03  0.36768534164E+03  0.62087508871E+03  0.50400001928E-02 0.  1.
       -1    1    3    3    0  502 -0.61902713169E+02  0.49644880844E+03  0.30963266361E+03  0.58835852310E+03  0.50400001928E-02 0. -1.
</event>
<event>
 5   0  0.2327595E-03  0.1000590E+04  0.7818609E-02  0.9307898E-01
        1   -1    0    0  501    0  0.00000000000E+00  0.00000000000E+00  0.15685169206E+04  0.15685169206E+04  0.50400001928E-02 0.  1.
       -1   -1    0    0    0  501  0.00000000000E+00  0.00000000000E+00 -0.15957422186E+03  0.15957422194E+03  0.50400001928E-02 0. -1.
    10030    2    1    2    0    0  0.00000000000E+00  0.00000000000E+00  0.14089426987E+04  0.17280911426E+04  0.10005895605E+04 0.  0.
        5    1    3    3  502    0 -0.84121564315E+02  0.45409915846E+03  0.10366368835E+04  0.11348658958E+04  0.46999998093E+01 0.  1.
       -5    1    3    3    0  502  0.84121564315E+02 -0.45409915846E+03  0.37230581529E+03  0.59322524676E+03  0.46999998093E+01 0. -1.
</event>
<event>
 5   0  0.4140860E-03  0.9973463E+03  0.7818609E-02  0.9311460E-01
       -2   -1    0    0    0  501  0.00000000000E+00  0.00000000000E+00  0.19236246133E+03  0.19236246135E+03  0.25500000920E-02 0.  1.
        2   -1    0    0  501    0  0.00000000000E+00  0.00000000000E+00 -0.12927413090E+04  0.12927413090E+04  0.25500000920E-02 0. -1.
    10030    2    1    2    0    0  0.00000000000E+00  0.00000000000E+00 -0.11003788476E+04  0.14851037703E+04  0.99734627902E+03 0.  0.
        3    1    3    3  502    0 -0.18800903580E+03  0.13896208510E+03 -0.12060790416E+04  0.12285294149E+04  0.10100000352E+00 0. -1.
       -3    1    3    3    0  502  0.18800903580E+03 -0.13896208510E+03  0.10570019394E+03  0.25657435538E+03  0.10100000352E+00 0.  1.
</event>
<event>
 5   0  0.4026829E-03  0.1006412E+04  0.7818609E-02  0.9301540E-01
        2   -1    0    0  501    0  0.00000000000E+00  0.00000000000E+00  0.73838723643E+03  0.73838723643E+03  0.25500000920E-02 0.  1.
       -2   -1    0    0    0  501  0.00000000000E+00  0.00000000000E+00 -0.34293159599E+03  0.34293159600E+03  0.25500000920E-02 0. -1.
    10030    2    1    2    0    0  0.00000000000E+00  0.00000000000E+00  0.39545564044E+03  0.10813188324E+04  0.10064120696E+04 0.  0.
        1    1    3    3  502    0  0.37900255390E+03  0.15956523582E+02 -0.15751498632E+03  0.41074142407E+03  0.50400001928E-02 0. -1.
       -1    1    3    3    0  502 -0.37900255390E+03 -0.15956523582E+02  0.55297062677E+03  0.67057740836E+03  0.50400001928E-02 0.  1.
</event>
<event>
 5   0  0.2327595E-03  0.1006961E+04  0.7818609E-02  0.9300943E-01
        1   -1    0    0  501    0  0.00000000000E+00  0.00000000000E+00  0.11736032716E+04  0.11736032716E+04  0.50400001928E-02 0. -1.
       -1   -1    0    0    0  501  0.00000000000E+00  0.00000000000E+00 -0.21599498254E+03  0.21599498260E+03  0.50400001928E-02 0.  1.
    10030    2    1    2    0    0  0.00000000000E+00  0.00000000000E+00  0.95760828902E+03  0.13895982542E+04  0.10069606113E+04 0.  0.
        5    1    3    3  502    0 -0.28476254985E+03 -0.18934417387E+03 -0.31101560836E+02  0.34340984706E+03  0.46999998093E+01 0.  1.
       -5    1    3    3    0  502  0.28476254985E+03  0.18934417387E+03  0.98870984985E+03  0.10461884071E+04  0.46999998093E+01 0. -1.
</event>
<event>
 5   0  0.2350769E-03  0.9993640E+03  0.7818609E-02  0.9309243E-01
        1   -1    0    0  501    0  0.00000000000E+00  0.00000000000E+00  0.33682634955E+03  0.33682634959E+03  0.50400001928E-02 0. -1.
       -1   -1    0    0    0  501  0.00000000000E+00  0.00000000000E+00 -0.74127846036E+03  0.74127846038E+03  0.50400001928E-02 0.  1.
    10030    2    1    2    0    0  0.00000000000E+00  0.00000000000E+00 -0.40445211081E+03  0.10781048100E+04  0.99936403344E+03 0.  0.
        2    1    3    3  502    0  0.51675084812E+02 -0.36517320238E+03  0.16147263351E+03  0.40261047367E+03  0.25500000920E-02 0. -1.
       -2    1    3    3    0  502 -0.51675084812E+02  0.36517320238E+03 -0.56592474432E+03  0.67549433629E+03  0.25500000920E-02 0.  1.
</event>
<event>
 5   0  0.3895011E-03  0.9727953E+03  0.7818609E-02  0.9338896E-01
       -2   -1    0    0    0  501  0.00000000000E+00  0.00000000000E+00  0.27893100653E+03  0.27893100655E+03  0.25500000920E-02 0. -1.
        2   -1    0    0  501    0  0.00000000000E+00  0.00000000000E+00 -0.84817638883E+03  0.84817638883E+03  0.25500000920E-02 0.  1.
    10030    2    1    2    0    0  0.00000000000E+00  0.00000000000E+00 -0.56924538230E+03  0.11271073954E+04  0.97279534099E+03 0.  0.
        2    1    3    3  502    0 -0.21309652905E+03 -0.43561234387E+03 -0.32819769850E+03  0.58556124712E+03  0.25500000920E-02 0. -1.
       -2    1    3    3    0  502  0.21309652905E+03  0.43561234387E+03 -0.24104768379E+03  0.54154614825E+03  0.25500000920E-02 0.  1.
</event>
<event>
 5   0  0.3895011E-03  0.9705459E+03  0.7818609E-02  0.9341453E-01
       -2   -1    0    0    0  501  0.00000000000E+00  0.00000000000E+00  0.16434305043E+03  0.16434305045E+03  0.25500000920E-02 0. -1.
        2   -1    0    0  501    0  0.00000000000E+00  0.00000000000E+00 -0.14329162789E+04  0.14329162789E+04  0.25500000920E-02 0.  1.
    10030    2    1    2    0    0  0.00000000000E+00  0.00000000000E+00 -0.12685732284E+04  0.15972593293E+04  0.97054589235E+03 0.  0.
        2    1    3    3  502    0 -0.49352053352E+02 -0.14720266544E+03  0.12236687481E+03  0.19768131409E+03  0.25500000920E-02 0. -1.
       -2    1    3    3    0  502  0.49352053352E+02  0.14720266544E+03 -0.13909401032E+04  0.13995780152E+04  0.25500000920E-02 0.  1.
</event>
<event>
 5   0  0.2313036E-03  0.1012086E+04  0.7818609E-02  0.9295387E-01
       -1   -1    0    0    0  501  0.00000000000E+00  0.00000000000E+00  0.18155086427E+03  0.18155086434E+03  0.50400001928E-02 0. -1.
        1   -1    0    0  501    0  0.00000000000E+00  0.00000000000E+00 -0.14105118748E+04  0.14105118748E+04  0.50400001928E-02 0.  1.
    10030    2    1    2    0    0  0.00000000000E+00  0.00000000000E+00 -0.12289610105E+04  0.15920627392E+04  0.10120862611E+04 0.  0.
        3    1    3    3  502    0 -0.18552959647E+03 -0.15041555704E+03 -0.13162683050E+04  0.13377624347E+04  0.10100000352E+00 0.  1.
       -3    1    3    3    0  502  0.18552959647E+03  0.15041555704E+03  0.87307294422E+02  0.25430030442E+03  0.10100000352E+00 0. -1.
</event>
<event>
 5   0  0.2350769E-03  0.9869625E+03  0.7818609E-02  0.9322961E-01
       -1   -1    0    0    0  501  0.00000000000E+00  0.00000000000E+00  0.21040988098E+03  0.21040988104E+03  0.50400001928E-02 0. -1.
        1   -1    0    0  501    0  0.00000000000E+00  0.00000000000E+00 -0.11573780040E+04  0.11573780040E+04  0.50400001928E-02 0.  1.
    10030    2    1    2    0    0  0.00000000000E+00  0.00000000000E+00 -0.94696812304E+03  0.13677878851E+04  0.98696254868E+03 0.  0.
        2    1    3    3  502    0 -0.34195609945E+03  0.10949484181E+02  0.19362433317E+02  0.34267881316E+03  0.25500000920E-02 0. -1.
       -2    1    3    3    0  502  0.34195609945E+03 -0.10949484181E+02 -0.96633055636E+03  0.10251090719E+04  0.25500000920E-02 0.  1.
</event>
<event>
 5   0  0.4026829E-03  0.1009053E+04  0.7818609E-02  0.9298671E-01
       -2   -1    0    0    0  501  0.00000000000E+00  0.00000000000E+00  0.50372097775E+03  0.50372097776E+03  0.25500000920E-02 0. -1.
        2   -1    0    0  501    0  0.00000000000E+00  0.00000000000E+00 -0.50533302234E+03  0.50533302234E+03  0.25500000920E-02 0.  1.
    10030    2    1    2    0    0  0.00000000000E+00  0.00000000000E+00 -0.16120445839E+01  0.10090540001E+04  0.10090527124E+04 0.  0.
        1    1    3    3  502    0 -0.25779027064E+03 -0.16334833289E+03 -0.40256310630E+03  0.50516883917E+03  0.50400001928E-02 0.  1.
       -1    1    3    3    0  502  0.25779027064E+03  0.16334833289E+03  0.40095106171E+03  0.50388516093E+03  0.50400001928E-02 0. -1.
</event>
<event>
 5   0  0.2405022E-03  0.1002047E+04  0.7818609E-02  0.9306302E-01
       -1   -1    0    0    0  501  0.00000000000E+00  0.00000000000E+00  0.42693365393E+03  0.42693365396E+03  0.50400001928E-02 0. -1.
        1   -1    0    0  501    0  0.00000000000E+00  0.00000000000E+00 -0.58797096423E+03  0.58797096426E+03  0.50400001928E-02 0.  1.
    10030    2    1    2    0    0  0.00000000000E+00  0.00000000000E+00 -0.16103731030E+03  0.10149046182E+04  0.10020470891E+04 0.  0.
        4    1    3    3  502    0 -0.32297545477E+03 -0.14343844945E+03  0.27919367724E+03  0.45037590464E+03  0.12699999809E+01 0. -1.
       -4    1    3    3    0  502  0.32297545477E+03  0.14343844945E+03 -0.44023098754E+03  0.56452871358E+03  0.12699999809E+01 0.  1.
</event>
<event>
 5   0  0.4026829E-03  0.1000730E+04  0.7818609E-02  0.9307745E-01
        2   -1    0    0  501    0  0.00000000000E+00  0.00000000000E+00  0.13826494021E+04  0.13826494021E+04  0.25500000920E-02 0.  1.
       -2   -1    0    0    0  501  0.00000000000E+00  0.00000000000E+00 -0.18107634650E+03  0.18107634652E+03  0.25500000920E-02 0. -1.
    10030    2    1    2    0    0  0.00000000000E+00  0.00000000000E+00  0.12015730556E+04  0.15637257486E+04  0.10007299381E+04 0.  0.
        1    1    3    3  502    0  0.27764261131E+03 -0.12669149499E+03 -0.18811388918E+02  0.30576138228E+03  0.50400001928E-02 0. -1.
       -1    1    3    3    0  502 -0.27764261131E+03  0.12669149499E+03  0.12203844445E+04  0.12579643663E+04  0.50400001928E-02 0.  1.
</event>
<event>
 5   0  0.2378609E-03  0.9983407E+03  0.7818609E-02  0.9310367E-01
        1   -1    0    0  501    0  0.00000000000E+00  0.00000000000E+00  0.10750447771E+04  0.10750447771E+04  0.50400001928E-02 0.  1.
       -1   -1    0    0    0  501  0.00000000000E+00  0.00000000000E+00 -0.23177737783E+03  0.23177737789E+03  0.50400001928E-02 0. -1.
    10030    2    1    2    0    0  0.00000000000E+00  0.00000000000E+00  0.84326739926E+03  0.13068221550E+04  0.99834074249E+03 0.  0.
        1    1    3    3  502    0 -0.21211759835E+02 -0.19695672142E+03 -0.17812159209E+03  0.26640043254E+03  0.50400001928E-02 0. -1.
       -1    1    3    3    0  502  0.21211759835E+02  0.19695672142E+03  0.10213889913E+04  0.10404217224E+04  0.50400001928E-02 0.  1.
</event>
<event>
 5   0  0.3826483E-03  0.1003788E+04  0.7818609E-02  0.9304399E-01
       -2   -1    0    0    0  501  0.00000000000E+00  0.00000000000E+00  0.24972210799E+03  0.24972210800E+03  0.25500000920E-02 0. -1.
        2   -1    0    0  501    0  0.00000000000E+00  0.00000000000E+00 -0.10087125664E+04  0.10087125664E+04  0.25500000920E-02 0.  1.
    10030    2    1    2    0    0  0.00000000000E+00  0.00000000000E+00 -0.75899045841E+03  0.12584346744E+04  0.10037884806E+04 0.  0.
        4    1    3    3  502    0  0.26502021007E+03 -0.42587348317E+03 -0.35806197524E+03  0.61629045622E+03  0.12699999809E+01 0.  1.
       -4    1    3    3    0  502 -0.26502021007E+03  0.42587348317E+03 -0.40092848317E+03  0.64214421817E+03  0.12699999809E+01 0. -1.
</event>
<event>
 5   0  0.2327595E-03  0.9856809E+03  0.7818609E-02  0.9324391E-01
        1   -1    0    0  501    0  0.00000000000E+00  0.00000000000E+00  0.38345208529E+03  0.38345208532E+03  0.50400001928E-02 0.  1.
       -1   -1    0    0    0  501  0.00000000000E+00  0.00000000000E+00 -0.63343431167E+03  0.63343431169E+03  0.50400001928E-02 0. -1.
    10030    2    1    2    0    0  0.00000000000E+00  0.00000000000E+00 -0.24998222638E+03  0.10168863970E+04  0.98568089711E+03 0.  0.
        5    1    3    3  502    0 -0.30831454910E+03  0.28702976141E+03  0.13889114747E+03  0.44357275161E+03  0.46999998093E+01 0.  1.
       -5    1    3    3    0  502  0.30831454910E+03 -0.28702976141E+03 -0.38887337384E+03  0.57331364540E+03  0.46999998093E+01 0. -1.
</event>
<event>
 5   0  0.4140860E-03  0.9996119E+03  0.7818609E-02  0.9308971E-01
       -2   -1    0    0    0  501  0.00000000000E+00  0.00000000000E+00  0.32943023059E+03  0.32943023060E+03  0.25500000920E-02 0.  1.
        2   -1    0    0  501    0  0.00000000000E+00  0.00000000000E+00 -0.75829709945E+03  0.75829709945E+03  0.25500000920E-02 0. -1.
    10030    2    1    2    0    0  0.00000000000E+00  0.00000000000E+00 -0.42886686885E+03  0.10877273301E+04  0.99961190136E+03 0.  0.
        3    1    3    3  502    0  0.20537447779E+03  0.87931268060E+02  0.27207459932E+03  0.35204428958E+03  0.10100000352E+00 0.  1.
       -3    1    3    3    0  502 -0.20537447779E+03 -0.87931268060E+02 -0.70094146818E+03  0.73568304047E+03  0.10100000352E+00 0. -1.
</event>
<event>
 5   0  0.3895011E-03  0.9887867E+03  0.7818609E-02  0.9320930E-01
       -2   -1    0    0    0  501  0.00000000000E+00  0.00000000000E+00  0.55466150578E+03  0.55466150579E+03  0.25500000920E-02 0. -1.
        2   -1    0    0  501    0  0.00000000000E+00  0.00000000000E+00 -0.44067374199E+03  0.44067374200E+03  0.25500000920E-02 0.  1.
    10030    2    1    2    0    0  0.00000000000E+00  0.00000000000E+00  0.11398776379E+03  0.99533524779E+03  0.98878665303E+03 0.  0.
        2    1    3    3  502    0 -0.36908797925E+03  0.66159932008E+02 -0.26735382499E+03  0.46052268215E+03  0.25500000920E-02 0.  1.
       -2    1    3    3    0  502  0.36908797925E+03 -0.66159932008E+02  0.38134158878E+03  0.53481256564E+03  0.25500000920E-02 0. -1.
</event>
<event>
 5   0  0.4026829E-03  0.9994491E+03  0.7818609E-02  0.9309149E-01
       -2   -1    0    0    0  501  0.00000000000E+00  0.00000000000E+00  0.28311723051E+03  0.28311723053E+03  0.25500000920E-02 0. -1.
        2   -1    0    0  501    0  0.00000000000E+00  0.00000000000E+00 -0.88205370561E+03  0.88205370562E+03  0.25500000920E-02 0.  1.
    10030    2    1    2    0    0  0.00000000000E+00  0.00000000000E+00 -0.59893647510E+03  0.11651709361E+04  0.99944905284E+03 0.  0.
        1    1    3    3  502    0  0.37949342350E+03  0.18379459983E+03  0.13197762804E+02  0.42186478210E+03  0.50400001928E-02 0. -1.
       -1    1    3    3    0  502 -0.37949342350E+03 -0.18379459983E+03 -0.61213423790E+03  0.74330615405E+03  0.50400001928E-02 0.  1.
</event>
<event>
 5   0  0.2350769E-03  0.1012702E+04  0.7818609E-02  0.9294723E-01
        1   -1    0    0  501    0  0.00000000000E+00  0.00000000000E+00  0.58201998874E+03  0.58201998876E+03  0.50400001928E-02 0. -1.
       -1   -1    0    0    0  501  0.00000000000E+00  0.00000000000E+00 -0.44051951468E+03  0.44051951471E+03  0.50400001928E-02 0.  1.
    10030    2    1    2    0    0  0.00000000000E+00  0.00000000000E+00  0.14150047406E+03  0.10225395035E+04  0.10127016599E+04 0.  0.
        2    1    3    3  502    0 -0.47280853617E+03  0.21563447178E+02  0.25243787784E+03  0.53641194646E+03  0.25500000920E-02 0.  1.
       -2    1    3    3    0  502  0.47280853617E+03 -0.21563447178E+02 -0.11093740378E+03  0.48612755702E+03  0.25500000920E-02 0. -1.
</event>
<event>
 5   0  0.3895011E-03  0.9974302E+03  0.7818609E-02  0.9311368E-01
        2   -1    0    0  501    0  0.00000000000E+00  0.00000000000E+00  0.16153257460E+04  0.16153257460E+04  0.25500000920E-02 0. -1.
       -2   -1    0    0    0  501  0.00000000000E+00  0.00000000000E+00 -0.15397311791E+03  0.15397311794E+03  0.25500000920E-02 0.  1.
    10030    2    1    2    0    0  0.00000000000E+00  0.00000000000E+00  0.14613526281E+04  0.17692988640E+04  0.99743018118E+03 0.  0.
        2    1    3    3  502    0  0.34838852024E+03  0.30340347212E+03  0.10638996259E+04  0.11598752700E+04  0.25500000920E-02 0. -1.
       -2    1    3    3    0  502 -0.34838852024E+03 -0.30340347212E+03  0.39745300221E+03  0.60942359398E+03  0.25500000920E-02 0.  1.
</event>
<event>
 5   0  0.2313036E-03  0.9909428E+03  0.7818609E-02  0.9318535E-01
       -1   -1    0    0    0  501  0.00000000000E+00  0.00000000000E+00  0.26594304686E+03  0.26594304690E+03  0.50400001928E-02 0. -1.
        1   -1    0    0  501    0  0.00000000000E+00  0.00000000000E+00 -0.92309954704E+03  0.92309954705E+03  0.50400001928E-02 0.  1.
    10030    2    1    2    0    0  0.00000000000E+00  0.00000000000E+00 -0.65715650018E+03  0.11890425940E+04  0.99094279578E+03 0.  0.
        3    1    3    3  502    0 -0.64727789301E+02 -0.30067062718E+03 -0.79469269271E+03  0.85213203132E+03  0.10100000352E+00 0.  1.
       -3    1    3    3    0  502  0.64727789301E+02  0.30067062718E+03  0.13753619253E+03  0.33691056263E+03  0.10100000352E+00 0. -1.
</event>
<event>
 5   0  0.2405022E-03  0.9993119E+03  0.7818609E-02  0.9309300E-01
        1   -1    0    0  501    0  0.00000000000E+00  0.00000000000E+00  0.12864170246E+04  0.12864170246E+04  0.50400001928E-02 0.  1.
       -1   -1    0    0    0  501  0.00000000000E+00  0.00000000000E+00 -0.19407085251E+03  0.19407085258E+03  0.50400001928E-02 0. -1.
    10030    2    1    2    0    0  0.00000000000E+00  0.00000000000E+00  0.10923461721E+04  0.14804878772E+04  0.99931186065E+03 0.  0.
        4    1    3    3  502    0 -0.44169963634E+02  0.31036399190E+03  0.11225873011E+04  0.11655387830E+04  0.12699999809E+01 0.  1.
       -4    1    3    3    0  502  0.44169963634E+02 -0.31036399190E+03 -0.30241129015E+02  0.31494909420E+03  0.12699999809E+01 0. -1.
</event>
<event>
 5   0  0.2350769E-03  0.1002169E+04  0.7818609E-02  0.9306169E-01
       -1   -1    0    0    0  501  0.00000000000E+00  0.00000000000E+00  0.24796142010E+03  0.24796142016E+03  0.50400001928E-02 0.  1.
        1   -1    0    0  501    0  0.00000000000E+00  0.00000000000E+00 -0.10126002754E+04  0.10126002754E+04  0.50400001928E-02 0. -1.
    10030    2    1    2    0    0  0.00000000000E+00  0.00000000000E+00 -0.76463885525E+03  0.12605616955E+04  0.10021692518E+04 0.  0.
        2    1    3    3  502    0 -0.42533615718E+03 -0.19781866303E+03 -0.16070246312E+03  0.49585113866E+03  0.25500000920E-02 0.  1.
       -2    1    3    3    0  502  0.42533615718E+03  0.19781866303E+03 -0.60393639213E+03  0.76471055687E+03  0.25500000920E-02 0. -1.
</event>
<event>
 5   0  0.2327595E-03  0.9463802E+03  0.7818609E-02  0.9369392E-01
       -1   -1    0    0    0  501  0.00000000000E+00  0.00000000000E+00  0.14056835377E+03  0.14056835386E+03  0.50400001928E-02 0. -1.
        1   -1    0    0  501    0  0.00000000000E+00  0.00000000000E+00 -0.15928823390E+04  0.15928823390E+04  0.50400001928E-02 0.  1.
    10030    2    1    2    0    0  0.00000000000E+00  0.00000000000E+00 -0.14523139853E+04  0.17334506929E+04  0.94638015245E+03 0.  0.
        5    1    3    3  502    0  0.60771759415E+02  0.11553838222E+03 -0.15592007004E+04  0.15646632989E+04  0.46999998093E+01 0.  1.
       -5    1    3    3    0  502 -0.60771759415E+02 -0.11553838222E+03  0.10688671519E+03  0.16878739405E+03  0.46999998093E+01 0. -1.
</event>
<event>
 5   0  0.4026829E-03  0.1000563E+04  0.7818609E-02  0.9307928E-01
        2   -1    0    0  501    0  0.00000000000E+00  0.00000000000E+00  0.78282738562E+03  0.78282738562E+03  0.25500000920E-02 0.  1.
       -2   -1    0    0    0  501  0.00000000000E+00  0.00000000000E+00 -0.31971483911E+03  0.31971483912E+03  0.25500000920E-02 0. -1.
    10030    2    1    2    0    0  0.00000000000E+00  0.00000000000E+00  0.46311254651E+03  0.11025422247E+04  0.10005629049E+04 0.  0.
        1    1    3    3  502    0  0.32196742170E+03  0.32501295141E+03  0.84746517972E+01  0.45756776435E+03  0.50400001928E-02 0. -1.
       -1    1    3    3    0  502 -0.32196742170E+03 -0.32501295141E+03  0.45463789471E+03  0.64497446039E+03  0.50400001928E-02 0.  1.
</event>
<event>
 5   0  0.3826483E-03  0.1004315E+04  0.7818609E-02  0.9303825E-01
        2   -1    0    0  501    0  0.00000000000E+00  0.00000000000E+00  0.57774465032E+03  0.57774465033E+03  0.25500000920E-02 0.  1.
       -2   -1    0    0    0  501  0.00000000000E+00  0.00000000000E+00 -0.43645949243E+03  0.43645949244E+03  0.25500000920E-02 0. -1.
    10030    2    1    2    0    0  0.00000000000E+00  0.00000000000E+00  0.14128515789E+03  0.10142041428E+04  0.10043149642E+04 0.  0.
        4    1    3    3  502    0 -0.71639701452E+01 -0.44456294194E+03 -0.16505008336E+03  0.47426856814E+03  0.12699999809E+01 0. -1.
       -4    1    3    3    0  502  0.71639701452E+01  0.44456294194E+03  0.30633524125E+03  0.53993557462E+03  0.12699999809E+01 0.  1.
</event>
<event>
 5   0  0.4140860E-03  0.9912054E+03  0.7818609E-02  0.9318243E-01
        2   -1    0    0  501    0  0.00000000000E+00  0.00000000000E+00  0.11130263372E+04  0.11130263372E+04  0.25500000920E-02 0. -1.
       -2   -1    0    0    0  501  0.00000000000E+00  0.00000000000E+00 -0.22067944843E+03  0.22067944845E+03  0.25500000920E-02 0.  1.
    10030    2    1    2    0    0  0.00000000000E+00  0.00000000000E+00  0.89234688877E+03  0.13337057857E+04  0.99120540394E+03 0.  0.
        3    1    3    3  502    0 -0.26233681459E+03 -0.32239675216E+03  0.80937374274E+03  0.90986050345E+03  0.10100000352E+00 0. -1.
       -3    1    3    3    0  502  0.26233681459E+03  0.32239675216E+03  0.82973146031E+02  0.42384528221E+03  0.10100000352E+00 0.  1.
</event>
<event>
 5   0  0.2350769E-03  0.9920905E+03  0.7818609E-02  0.9317263E-01
       -1   -1    0    0    0  501  0.00000000000E+00  0.00000000000E+00  0.47346535832E+03  0.47346535835E+03  0.50400001928E-02 0. -1.
        1   -1    0    0  501    0  0.00000000000E+00  0.00000000000E+00 -0.51970203033E+03  0.51970203036E+03  0.50400001928E-02 0.  1.
    10030    2    1    2    0    0  0.00000000000E+00  0.00000000000E+00 -0.46236672008E+02  0.99316738871E+03  0.99209053627E+03 0.  0.
        2    1    3    3  502    0  0.27540253276E+03  0.40345649166E+03 -0.10945121700E+03  0.50060290113E+03  0.25500000920E-02 0.  1.
       -2    1    3    3    0  502 -0.27540253276E+03 -0.40345649166E+03  0.63214544991E+02  0.49256448757E+03  0.25500000920E-02 0. -1.
</event>
<event>
 5   0  0.1548000E-03  0.9982209E+03  0.7818609E-02  0.9310498E-01
        4   -1    0    0  501    0  0.00000000000E+00  0.00000000000E+00  0.51645288430E+03  0.51645444582E+03  0.12699999809E+01 0.  1.
       -4   -1    0    0    0  501  0.00000000000E+00  0.00000000000E+00 -0.48234729166E+03  0.48234896359E+03  0.12699999809E+01 0. -1.
    10030    2    1    2    0    0  0.00000000000E+00  0.00000000000E+00  0.34105592640E+02  0.99880340940E+03  0.99822094708E+03 0.  0.
        4    1    3    3  502    0  0.18697558616E+03  0.30314909522E+03  0.36690007170E+03  0.51134774788E+03  0.12699999809E+01 0.  1.
       -4    1    3    3    0  502 -0.18697558616E+03 -0.30314909522E+03 -0.33279447906E+03  0.48745566152E+03  0.12699999809E+01 0. -1.
</event>
<event>
 5   0  0.1548000E-03  0.9976320E+03  0.7818609E-02  0.9311146E-01
        3   -1    0    0  501    0  0.00000000000E+00  0.00000000000E+00  0.45670351369E+03  0.45670352485E+03  0.10100000352E+00 0. -1.
       -3   -1    0    0    0  501  0.00000000000E+00  0.00000000000E+00 -0.54481160787E+03  0.54481161723E+03  0.10100000352E+00 0.  1.
    10030    2    1    2    0    0  0.00000000000E+00  0.00000000000E+00 -0.88108094185E+02  0.10015151421E+04  0.99763196800E+03 0.  0.
        2    1    3    3  502    0  0.44459542205E+03  0.16489343043E+03  0.11134659228E+03  0.48708623090E+03  0.25500000920E-02 0. -1.
       -2    1    3    3    0  502 -0.44459542205E+03 -0.16489343043E+03 -0.19945468646E+03  0.51442891119E+03  0.25500000920E-02 0.  1.
</event>
<event>
 5   0  0.2327595E-03  0.1001439E+04  0.7818609E-02  0.9306968E-01
       -1   -1    0    0    0  501  0.00000000000E+00  0.00000000000E+00  0.59007161316E+03  0.59007161318E+03  0.50400001928E-02 0. -1.
        1   -1    0    0  501    0  0.00000000000E+00  0.00000000000E+00 -0.42489767773E+03  0.42489767776E+03  0.50400001928E-02 0.  1.
    10030    2    1    2    0    0  0.00000000000E+00  0.00000000000E+00  0.16517393543E+03  0.10149692909E+04  0.10014390808E+04 0.  0.
        5    1    3    3  502    0 -0.31304598330E+03  0.27431179189E+03  0.36465125924E+03  0.55338718606E+03  0.46999998093E+01 0. -1.
       -5    1    3    3    0  502  0.31304598330E+03 -0.27431179189E+03 -0.19947732381E+03  0.46158210488E+03  0.46999998093E+01 0.  1.
</event>
<event>
 5   0  0.2405022E-03  0.1005149E+04  0.7818609E-02  0.9302915E-01
       -1   -1    0    0    0  501  0.00000000000E+00  0.00000000000E+00  0.24165066257E+03  0.24165066262E+03  0.50400001928E-02 0.  1.
        1   -1    0    0  501    0  0.00000000000E+00  0.00000000000E+00 -0.10452328842E+04  0.10452328842E+04  0.50400001928E-02 0. -1.
    10030    2    1    2    0    0  0.00000000000E+00  0.00000000000E+00 -0.80358222166E+03  0.12868835469E+04  0.10051491811E+04 0.  0.
        4    1    3    3  502    0  0.78427096944E+02  0.41230446599E+03 -0.75574893683E+03  0.86446737973E+03  0.12699999809E+01 0. -1.
       -4    1    3    3    0  502 -0.78427096944E+02 -0.41230446599E+03 -0.47833284829E+02  0.42241616712E+03  0.12699999809E+01 0.  1.
</event>
<event>
 5   0  0.2378609E-03  0.9960205E+03  0.7818609E-02  0.9312920E-01
        1   -1    0    0  501    0  0.00000000000E+00  0.00000000000E+00  0.91087161246E+03  0.91087161247E+03  0.50400001928E-02 0. -1.
       -1   -1    0    0    0  501  0.00000000000E+00  0.00000000000E+00 -0.27228230397E+03  0.27228230401E+03  0.50400001928E-02 0.  1.
    10030    2    1    2    0    0  0.00000000000E+00  0.00000000000E+00  0.63858930849E+03  0.11831539165E+04  0.99602052447E+03 0.  0.
        1    1    3    3  502    0  0.44700136656E+03  0.17157432497E+03  0.15656686915E+03  0.50374711437E+03  0.50400001928E-02 0.  1.
       -1    1    3    3    0  502 -0.44700136656E+03 -0.17157432497E+03  0.48202243934E+03  0.67940680211E+03  0.50400001928E-02 0. -1.
</event>
<event>
 5   0  0.3826483E-03  0.9950469E+03  0.7818609E-02  0.9313994E-01
        2   -1    0    0  501    0  0.00000000000E+00  0.00000000000E+00  0.68748159943E+03  0.68748159943E+03  0.25500000920E-02 0. -1.
       -2   -1    0    0    0  501  0.00000000000E+00  0.00000000000E+00 -0.36005263621E+03  0.36005263622E+03  0.25500000920E-02 0.  1.
    10030    2    1    2    0    0  0.00000000000E+00  0.00000000000E+00  0.32742896321E+03  0.10475342357E+04  0.99504685765E+03 0.  0.
        4    1    3    3  502    0  0.36635481033E+03  0.27903783617E+03 -0.34498795025E+02  0.46181136931E+03  0.12699999809E+01 0.  1.
       -4    1    3    3    0  502 -0.36635481033E+03 -0.27903783617E+03  0.36192775824E+03  0.58572286634E+03  0.12699999809E+01 0. -1.
</event>
<event>
 5   0  0.3873874E-03  0.1000059E+04  0.7818609E-02  0.9308480E-01
        2   -1    0    0  501    0  0.00000000000E+00  0.00000000000E+00  0.85444695225E+03  0.85444695225E+03  0.25500000920E-02 0. -1.
       -2   -1    0    0    0  501  0.00000000000E+00  0.00000000000E+00 -0.29262153189E+03  0.29262153191E+03  0.25500000920E-02 0.  1.
    10030    2    1    2    0    0  0.00000000000E+00  0.00000000000E+00  0.56182542035E+03  0.11470684842E+04  0.10000591504E+04 0.  0.
        5    1    3    3  502    0  0.83313513423E+02 -0.43273791910E+03  0.55186776077E+03  0.70624596531E+03  0.46999998093E+01 0.  1.
       -5    1    3    3    0  502 -0.83313513423E+02  0.43273791910E+03  0.99576595861E+01  0.44082251885E+03  0.46999998093E+01 0. -1.
</event>
<event>
 5   0  0.2327595E-03  0.8741241E+03  0.7818609E-02  0.9458518E-01
       -1   -1    0    0    0  501  0.00000000000E+00  0.00000000000E+00  0.30222307169E+03  0.30222307173E+03  0.50400001928E-02 0.  1.
        1   -1    0    0  501    0  0.00000000000E+00  0.00000000000E+00 -0.63206036272E+03  0.63206036274E+03  0.50400001928E-02 0. -1.
    10030    2    1    2    0    0  0.00000000000E+00  0.00000000000E+00 -0.32983729103E+03  0.93428343447E+03  0.87412407436E+03 0.  0.
        5    1    3    3  502    0  0.27681428055E+03  0.22145262093E+03  0.10827731759E+03  0.37069323804E+03  0.46999998093E+01 0.  1.
       -5    1    3    3    0  502 -0.27681428055E+03 -0.22145262093E+03 -0.43811460862E+03  0.56359019643E+03  0.46999998093E+01 0. -1.
</event>
<event>
 5   0  0.4026829E-03  0.1000083E+04  0.7818609E-02  0.9308454E-01
        2   -1    0    0  501    0  0.00000000000E+00  0.00000000000E+00  0.63337460820E+03  0.63337460820E+03  0.25500000920E-02 0. -1.
       -2   -1    0    0    0  501  0.00000000000E+00  0.00000000000E+00 -0.39477661435E+03  0.39477661436E+03  0.25500000920E-02 0.  1.
    10030    2    1    2    0    0  0.00000000000E+00  0.00000000000E+00  0.23859799385E+03  0.10281512226E+04  0.10000829635E+04 0.  0.
        1    1    3    3  502    0 -0.14107147539E+03 -0.47285043708E+03  0.36077797037E+02  0.49476287702E+03  0.50400001928E-02 0.  1.
       -1    1    3    3    0  502  0.14107147539E+03  0.47285043708E+03  0.20252019681E+03  0.53338834554E+03  0.50400001928E-02 0. -1.
</event>
<event>
 5   0  0.3895011E-03  0.1011514E+04  0.7818609E-02  0.9296006E-01
        2   -1    0    0  501    0  0.00000000000E+00  0.00000000000E+00  0.15741512468E+04  0.15741512468E+04  0.25500000920E-02 0. -1.
       -2   -1    0    0    0  501  0.00000000000E+00  0.00000000000E+00 -0.16249403048E+03  0.16249403050E+03  0.25500000920E-02 0.  1.
    10030    2    1    2    0    0  0.00000000000E+00  0.00000000000E+00  0.14116572163E+04  0.17366452773E+04  0.10115140744E+04 0.  0.
        2    1    3    3  502    0  0.25327590732E+03  0.38651214265E+03  0.10587287409E+04  0.11551826126E+04  0.25500000920E-02 0. -1.
       -2    1    3    3    0  502 -0.25327590732E+03 -0.38651214265E+03  0.35292847539E+03  0.58146266466E+03  0.25500000920E-02 0.  1.
</event>
<event>
 5   0  0.3895011E-03  0.9982439E+03  0.7818609E-02  0.9310473E-01
        2   -1    0    0  501    0  0.00000000000E+00  0.00000000000E+00  0.10851852272E+04  0.10851852272E+04  0.25500000920E-02 0. -1.
       -2   -1    0    0    0  501  0.00000000000E+00  0.00000000000E+00 -0.22956699046E+03  0.22956699047E+03  0.25500000920E-02 0.  1.
    10030    2    1    2    0    0  0.00000000000E+00  0.00000000000E+00  0.85561823670E+03  0.13147522176E+04  0.99824387140E+03 0.  0.
        2    1    3    3  502    0  0.10009101522E+03 -0.19423318422E+03  0.10188441648E+04  0.10420115995E+04  0.25500000920E-02 0. -1.
       -2    1    3    3    0  502 -0.10009101522E+03  0.19423318422E+03 -0.16322592814E+03  0.27274061817E+03  0.25500000920E-02 0.  1.
</event>
<event>
 5   0  0.2405022E-03  0.1007493E+04  0.7818609E-02  0.9300365E-01
        1   -1    0    0  501    0  0.00000000000E+00  0.00000000000E+00  0.75303017689E+03  0.75303017691E+03  0.50400001928E-02 0.  1.
       -1   -1    0    0    0  501  0.00000000000E+00  0.00000000000E+00 -0.33698580508E+03  0.33698580512E+03  0.50400001928E-02 0. -1.
    10030    2    1    2    0    0  0.00000000000E+00  0.00000000000E+00  0.41604437181E+03  0.10900159820E+04  0.10074928892E+04 0.  0.
        4    1    3    3  502    0 -0.12601648091E+03  0.15988224061E+03  0.70654223579E+03  0.73528635794E+03  0.12699999809E+01 0.  1.
       -4    1    3    3    0  502  0.12601648091E+03 -0.15988224061E+03 -0.29049786398E+03  0.35472962408E+03  0.12699999809E+01 0. -1.
</event>
<event>
 5   0  0.2378609E-03  0.9933427E+03  0.7818609E-02  0.9315877E-01
       -1   -1    0    0    0  501  0.00000000000E+00  0.00000000000E+00  0.20938441578E+03  0.20938441584E+03  0.50400001928E-02 0. -1.
        1   -1    0    0  501    0  0.00000000000E+00  0.00000000000E+00 -0.11781316989E+04  0.11781316989E+04  0.50400001928E-02 0.  1.
    10030    2    1    2    0    0  0.00000000000E+00  0.00000000000E+00 -0.96874728315E+03  0.13875161148E+04  0.99334267509E+03 0.  0.
        1    1    3    3  502    0 -0.33065153389E+03 -0.22933794199E+03 -0.89102703088E+03  0.97767862730E+03  0.50400001928E-02 0. -1.
       -1    1    3    3    0  502  0.33065153389E+03  0.22933794199E+03 -0.77720252268E+02  0.40983748747E+03  0.50400001928E-02 0.  1.
</event>
<event>
 5   0  0.3873874E-03  0.9911137E+03  0.7818609E-02  0.9318345E-01
       -2   -1    0    0    0  501  0.00000000000E+00  0.00000000000E+00  0.32992803655E+03  0.32992803656E+03  0.25500000920E-02 0. -1.
        2   -1    0    0  501    0  0.00000000000E+00  0.00000000000E+00 -0.74433386975E+03  0.74433386975E+03  0.25500000920E-02 0.  1.
    10030    2    1    2    0    0  0.00000000000E+00  0.00000000000E+00 -0.41440583319E+03  0.10742619063E+04  0.99111374159E+03 0.  0.
        5    1    3    3  502    0 -0.12145011571E+03  0.26733103393E+03 -0.63986322338E+03  0.70403341323E+03  0.46999998093E+01 0.  1.
       -5    1    3    3    0  502  0.12145011571E+03 -0.26733103393E+03  0.22545739018E+03  0.37022849309E+03  0.46999998093E+01 0. -1.
</event>
<event>
 5   0  0.2327595E-03  0.1003324E+04  0.7818609E-02  0.9304906E-01
       -1   -1    0    0    0  501  0.00000000000E+00  0.00000000000E+00  0.58634748157E+03  0.58634748159E+03  0.50400001928E-02 0. -1.
        1   -1    0    0  501    0  0.00000000000E+00  0.00000000000E+00 -0.42920764596E+03  0.42920764599E+03  0.50400001928E-02 0.  1.
    10030    2    1    2    0    0  0.00000000000E+00  0.00000000000E+00  0.15713983561E+03  0.10155551276E+04  0.10033241197E+04 0.  0.
        5    1    3    3  502    0 -0.47233094330E+03  0.16801644943E+03  0.96582501668E+02  0.51056470394E+03  0.46999998093E+01 0. -1.
       -5    1    3    3    0  502  0.47233094330E+03 -0.16801644943E+03  0.60557333945E+02  0.50499042364E+03  0.46999998093E+01 0.  1.
</event>
<event>
 5   0  0.3895011E-03  0.1002929E+04  0.7818609E-02  0.9305338E-01
        2   -1    0    0  501    0  0.00000000000E+00  0.00000000000E+00  0.70677411662E+03  0.70677411662E+03  0.25500000920E-02 0.  1.
       -2   -1    0    0    0  501  0.00000000000E+00  0.00000000000E+00 -0.35579515478E+03  0.35579515479E+03  0.25500000920E-02 0. -1.
    10030    2    1    2    0    0  0.00000000000E+00  0.00000000000E+00  0.35097896184E+03  0.10625692714E+04  0.10029293220E+04 0.  0.
        2    1    3    3  502    0  0.23971964687E+02  0.16994416286E+03  0.67468916277E+03  0.69617608401E+03  0.25500000920E-02 0.  1.
       -2    1    3    3    0  502 -0.23971964687E+02 -0.16994416286E+03 -0.32371020093E+03  0.36639318740E+03  0.25500000920E-02 0. -1.
</event>
<event>
 5   0  0.3826483E-03  0.9988849E+03  0.7818609E-02  0.9309769E-01
        2   -1    0    0  501    0  0.00000000000E+00  0.00000000000E+00  0.10240048762E+04  0.10240048762E+04  0.25500000920E-02 0. -1.
       -2   -1    0    0    0  501  0.00000000000E+00  0.00000000000E+00 -0.24359530809E+03  0.24359530810E+03  0.25500000920E-02 0.  1.
    10030    2    1    2    0    0  0.00000000000E+00  0.00000000000E+00  0.78040956811E+03  0.12676001843E+04  0.99888494495E+03 0.  0.
        4    1    3    3  502    0  0.33699690954E+03 -0.19605387612E+03 -0.59173135226E+01  0.38992392448E+03  0.12699999809E+01 0.  1.
       -4    1    3    3    0  502 -0.33699690954E+03  0.19605387612E+03  0.78632688163E+03  0.87767625982E+03  0.12699999809E+01 0. -1.
</event>
<event>
 5   0  0.2405022E-03  0.9999776E+03  0.7818609E-02  0.9308569E-01
        1   -1    0    0  501    0  0.00000000000E+00  0.00000000000E+00  0.90729905105E+03  0.90729905106E+03  0.50400001928E-02 0.  1.
       -1   -1    0    0    0  501  0.00000000000E+00  0.00000000000E+00 -0.27553073902E+03  0.27553073906E+03  0.50400001928E-02 0. -1.
    10030    2    1    2    0    0  0.00000000000E+00  0.00000000000E+00  0.63176831203E+03  0.11828297901E+04  0.99997755591E+03 0.  0.
        4    1    3    3  502    0  0.98539346056E+02  0.65301072936E+02  0.89052951262E+03  0.89834217233E+03  0.12699999809E+01 0.  1.
       -4    1    3    3    0  502 -0.98539346056E+02 -0.65301072936E+02 -0.25876120059E+03  0.28448761779E+03  0.12699999809E+01 0. -1.
</event>
<event>
 5   0  0.3873874E-03  0.1005519E+04  0.7818609E-02  0.9302512E-01
        2   -1    0    0  501    0  0.00000000000E+00  0.00000000000E+00  0.62455870207E+03  0.62455870208E+03  0.25500000920E-02 0.  1.
       -2   -1    0    0    0  501  0.00000000000E+00  0.00000000000E+00 -0.40471316368E+03  0.40471316369E+03  0.25500000920E-02 0. -1.
    10030    2    1    2    0    0  0.00000000000E+00  0.00000000000E+00  0.21984553839E+03  0.10292718658E+04  0.10055190266E+04 0.  0.
        5    1    3    3  502    0  0.94756540675E+02  0.18711620075E+03 -0.35776602694E+03  0.41474075591E+03  0.46999998093E+01 0. -1.
       -5    1    3    3    0  502 -0.94756540675E+02 -0.18711620075E+03  0.57761156533E+03  0.61453110986E+03  0.46999998093E+01 0.  1.
</event>
<event>
 5   0  0.4140860E-03  0.9967171E+03  0.7818609E-02  0.9312153E-01
        2   -1    0    0  501    0  0.00000000000E+00  0.00000000000E+00  0.12403375816E+04  0.12403375816E+04  0.25500000920E-02 0. -1.
       -2   -1    0    0    0  501  0.00000000000E+00  0.00000000000E+00 -0.20023680753E+03  0.20023680755E+03  0.25500000920E-02 0.  1.
    10030    2    1    2    0    0  0.00000000000E+00  0.00000000000E+00  0.10401007740E+04  0.14405743891E+04  0.99671708645E+03 0.  0.
        3    1    3    3  502    0 -0.22888459676E+03  0.43159351531E+03  0.37770216951E+03  0.61751118220E+03  0.10100000352E+00 0.  1.
       -3    1    3    3    0  502  0.22888459676E+03 -0.43159351531E+03  0.66239860452E+03  0.82306320690E+03  0.10100000352E+00 0. -1.
</event>
<event>
 5   0  0.3826483E-03  0.9848228E+03  0.7818609E-02  0.9325349E-01
       -2   -1    0    0    0  501  0.00000000000E+00  0.00000000000E+00  0.52079250378E+03  0.52079250378E+03  0.25500000920E-02 0. -1.
        2   -1    0    0  501    0  0.00000000000E+00  0.00000000000E+00 -0.46557695082E+03  0.46557695083E+03  0.25500000920E-02 0.  1.
    10030    2    1    2    0    0  0.00000000000E+00  0.00000000000E+00  0.55215552955E+02  0.98636945461E+03  0.98482279813E+03 0.  0.
        4    1    3    3  502    0 -0.10801029677E+03 -0.45440620166E+03  0.18378904724E+03  0.50192753173E+03  0.12699999809E+01 0. -1.
       -4    1    3    3    0  502  0.10801029677E+03  0.45440620166E+03 -0.12857349429E+03  0.48444192289E+03  0.12699999809E+01 0.  1.
</event>
<event>
 5   0  0.2350769E-03  0.1017571E+04  0.7818609E-02  0.9289480E-01
       -1   -1    0    0    0  501  0.00000000000E+00  0.00000000000E+00  0.46725571477E+03  0.46725571480E+03  0.50400001928E-02 0. -1.
        1   -1    0    0  501    0  0.00000000000E+00  0.00000000000E+00 -0.55400658343E+03  0.55400658345E+03  0.50400001928E-02 0.  1.
    10030    2    1    2    0    0  0.00000000000E+00  0.00000000000E+00 -0.86750868653E+02  0.10212622982E+04  0.10175711123E+04 0.  0.
        2    1    3    3  502    0 -0.10335471204E+02 -0.47274888742E+03 -0.23184483039E+03  0.52664063449E+03  0.25500000920E-02 0.  1.
       -2    1    3    3    0  502  0.10335471204E+02  0.47274888742E+03  0.14509396173E+03  0.49462166375E+03  0.25500000920E-02 0. -1.
</event>
<event>
 5   0  0.4140860E-03  0.9965915E+03  0.7818609E-02  0.9312291E-01
       -2   -1    0    0    0  501  0.00000000000E+00  0.00000000000E+00  0.24428375251E+03  0.24428375252E+03  0.25500000920E-02 0.  1.
        2   -1    0    0  501    0  0.00000000000E+00  0.00000000000E+00 -0.10164353488E+04  0.10164353488E+04  0.25500000920E-02 0. -1.
    10030    2    1    2    0    0  0.00000000000E+00  0.00000000000E+00 -0.77215159631E+03  0.12607191013E+04  0.99659147338E+03 0.  0.
        3    1    3    3  502    0  0.16959186089E+03 -0.30049989477E+02 -0.97758328279E+03  0.99263965574E+03  0.10100000352E+00 0. -1.
       -3    1    3    3    0  502 -0.16959186089E+03  0.30049989477E+02  0.20543168648E+03  0.26807944561E+03  0.10100000352E+00 0.  1.
</event>
<event>
 5   0  0.2313036E-03  0.1003337E+04  0.7818609E-02  0.9304893E-01
       -1   -1    0    0    0  501  0.00000000000E+00  0.00000000000E+00  0.16664878010E+03  0.16664878018E+03  0.50400001928E-02 0.  1.
        1   -1    0    0  501    0  0.00000000000E+00  0.00000000000E+00 -0.15101885499E+04  0.15101885499E+04  0.50400001928E-02 0. -1.
    10030    2    1    2    0    0  0.00000000000E+00  0.00000000000E+00 -0.13435397698E+04  0.16768373300E+04  0.10033365928E+04 0.  0.
        3    1    3    3  502    0  0.32792139929E+03 -0.30557478727E+03 -0.10483145774E+04  0.11401192298E+04  0.10100000352E+00 0. -1.
       -3    1    3    3    0  502 -0.32792139929E+03  0.30557478727E+03 -0.29522519233E+03  0.53671810023E+03  0.10100000352E+00 0.  1.
</event>
<event>
 5   0  0.3826483E-03  0.1001320E+04  0.7818609E-02  0.9307098E-01
        2   -1    0    0  501    0  0.00000000000E+00  0.00000000000E+00  0.23007654524E+04  0.23007654524E+04  0.25500000920E-02 0.  1.
       -2   -1    0    0    0  501  0.00000000000E+00  0.00000000000E+00 -0.10894651378E+03  0.10894651381E+03  0.25500000920E-02 0. -1.
    10030    2    1    2    0    0  0.00000000000E+00  0.00000000000E+00  0.21918189386E+04  0.24097119662E+04  0.10013198792E+04 0.  0.
        4    1    3    3  502    0 -0.43094927708E+03  0.17797950305E+03  0.65699022879E+03  0.80562507194E+03  0.12699999809E+01 0.  1.
       -4    1    3    3    0  502  0.43094927708E+03 -0.17797950305E+03  0.15348287099E+04  0.16040868943E+04  0.12699999809E+01 0. -1.
</event>
<event>
 5   0  0.2378609E-03  0.9969585E+03  0.7818609E-02  0.9311887E-01
       -1   -1    0    0    0  501  0.00000000000E+00  0.00000000000E+00  0.32064478382E+03  0.32064478386E+03  0.50400001928E-02 0. -1.
        1   -1    0    0  501    0  0.00000000000E+00  0.00000000000E+00 -0.77494344438E+03  0.77494344440E+03  0.50400001928E-02 0.  1.
    10030    2    1    2    0    0  0.00000000000E+00  0.00000000000E+00 -0.45429866056E+03  0.10955882283E+04  0.99695852116E+03 0.  0.
        1    1    3    3  502    0  0.25801560396E+03 -0.42650137827E+03 -0.22443613984E+03  0.54666905752E+03  0.50400001928E-02 0.  1.
       -1    1    3    3    0  502 -0.25801560396E+03  0.42650137827E+03 -0.22986252072E+03  0.54891917074E+03  0.50400001928E-02 0. -1.
</event>
<event>
 5   0  0.3873874E-03  0.1002842E+04  0.7818609E-02  0.9305433E-01
        2   -1    0    0  501    0  0.00000000000E+00  0.00000000000E+00  0.68210799908E+03  0.68210799908E+03  0.25500000920E-02 0.  1.
       -2   -1    0    0    0  501  0.00000000000E+00  0.00000000000E+00 -0.36859691312E+03  0.36859691313E+03  0.25500000920E-02 0. -1.
    10030    2    1    2    0    0  0.00000000000E+00  0.00000000000E+00  0.31351108596E+03  0.10507049122E+04  0.10028417679E+04 0.  0.
        5    1    3    3  502    0 -0.15851021486E+03  0.98428273588E+02  0.64435671615E+03  0.67084370825E+03  0.46999998093E+01 0.  1.
       -5    1    3    3    0  502  0.15851021486E+03 -0.98428273588E+02 -0.33084563019E+03  0.37986120396E+03  0.46999998093E+01 0. -1.
</event>
<event>
 5   0  0.2327595E-03  0.1001309E+04  0.7818609E-02  0.9307110E-01
        1   -1    0    0  501    0  0.00000000000E+00  0.00000000000E+00  0.50082549745E+03  0.50082549748E+03  0.50400001928E-02 0. -1.
       -1   -1    0    0    0  501  0.00000000000E+00  0.00000000000E+00 -0.50048405906E+03  0.50048405908E+03  0.50400001928E-02 0.  1.
    10030    2    1    2    0    0  0.00000000000E+00  0.00000000000E+00  0.34143839507E+00  0.10013095566E+04  0.10013094983E+04 0.  0.
        5    1    3    3  502    0 -0.16522120933E+03 -0.47205692230E+03 -0.22129550377E+02  0.50064717407E+03  0.46999998093E+01 0.  1.
       -5    1    3    3    0  502  0.16522120933E+03  0.47205692230E+03  0.22470988772E+02  0.50066238249E+03  0.46999998093E+01 0. -1.
</event>
<event>
 5   0  0.2327595E-03  0.9997079E+03  0.7818609E-02  0.9308865E-01
       -1   -1    0    0    0  501  0.00000000000E+00  0.00000000000E+00  0.74952665522E+03  0.74952665524E+03  0.50400001928E-02 0. -1.
        1   -1    0    0  501    0  0.00000000000E+00  0.00000000000E+00 -0.33334898319E+03  0.33334898323E+03  0.50400001928E-02 0.  1.
    10030    2    1    2    0    0  0.00000000000E+00  0.00000000000E+00  0.41617767203E+03  0.10828756385E+04  0.99970785418E+03 0.  0.
        5    1    3    3  502    0  0.36308123880E+02  0.19012691474E+03 -0.29107980341E+03  0.34959414400E+03  0.46999998093E+01 0.  1.
       -5    1    3    3    0  502 -0.36308123880E+02 -0.19012691474E+03  0.70725747544E+03  0.73328149447E+03  0.46999998093E+01 0. -1.
</event>
<event>
 5   0  0.3873874E-03  0.1006450E+04  0.7818609E-02  0.9301499E-01
        2   -1    0    0  501    0  0.00000000000E+00  0.00000000000E+00  0.49106754580E+03  0.49106754581E+03  0.25500000920E-02 0.  1.
       -2   -1    0    0    0  501  0.00000000000E+00  0.00000000000E+00 -0.51568324527E+03  0.51568324528E+03  0.25500000920E-02 0. -1.
    10030    2    1    2    0    0  0.00000000000E+00  0.00000000000E+00 -0.24615699468E+02  0.10067507911E+04  0.10064498113E+04 0.  0.
        5    1    3    3  502    0 -0.17364331355E+03  0.10015277760E+03  0.44938259803E+03  0.49208676939E+03  0.46999998093E+01 0.  1.
       -5    1    3    3    0  502  0.17364331355E+03 -0.10015277760E+03 -0.47399829749E+03  0.51466402170E+03  0.46999998093E+01 0. -1.
</event>
<event>
 5   0  0.2405022E-03  0.1006464E+04  0.7818609E-02  0.9301484E-01
       -1   -1    0    0    0  501  0.00000000000E+00  0.00000000000E+00  0.54343213599E+03  0.54343213601E+03  0.50400001928E-02 0.  1.
        1   -1    0    0  501    0  0.00000000000E+00  0.00000000000E+00 -0.46600534735E+03  0.46600534738E+03  0.50400001928E-02 0. -1.
    10030    2    1    2    0    0  0.00000000000E+00  0.00000000000E+00  0.77426788633E+02  0.10094374834E+04  0.10064636731E+04 0.  0.
        4    1    3    3  502    0 -0.38419657586E+03  0.23045289461E+03  0.26857416667E+03  0.52234973096E+03  0.12699999809E+01 0.  1.
       -4    1    3    3    0  502  0.38419657586E+03 -0.23045289461E+03 -0.19114737803E+03  0.48708775243E+03  0.12699999809E+01 0. -1.
</event>
<event>
 5   0  0.2405022E-03  0.9948418E+03  0.7818609E-02  0.9314220E-01
        1   -1    0    0  501    0  0.00000000000E+00  0.00000000000E+00  0.12722626689E+04  0.12722626689E+04  0.50400001928E-02 0. -1.
       -1   -1    0    0    0  501  0.00000000000E+00  0.00000000000E+00 -0.19447835525E+03  0.19447835532E+03  0.50400001928E-02 0.  1.
    10030    2    1    2    0    0  0.00000000000E+00  0.00000000000E+00  0.10777843136E+04  0.14667410242E+04  0.99484179917E+03 0.  0.
        4    1    3    3  502    0  0.16907631454E+03 -0.16112069848E+02  0.12281856332E+04  0.12398741716E+04  0.12699999809E+01 0. -1.
       -4    1    3    3    0  502 -0.16907631454E+03  0.16112069848E+02 -0.15040131963E+03  0.22686685254E+03  0.12699999809E+01 0.  1.
</event>
<event>
 5   0  0.2327595E-03  0.9985949E+03  0.7818609E-02  0.9310087E-01
        1   -1    0    0  501    0  0.00000000000E+00  0.00000000000E+00  0.81667038813E+03  0.81667038814E+03  0.50400001928E-02 0. -1.
       -1   -1    0    0    0  501  0.00000000000E+00  0.00000000000E+00 -0.30526141020E+03  0.30526141024E+03  0.50400001928E-02 0.  1.
    10030    2    1    2    0    0  0.00000000000E+00  0.00000000000E+00  0.51140897792E+03  0.11219317984E+04  0.99859492164E+03 0.  0.
        5    1    3    3  502    0  0.26577061900E+03  0.42087875754E+03  0.29926010455E+03  0.58081980910E+03  0.46999998093E+01 0.  1.
       -5    1    3    3    0  502 -0.26577061900E+03 -0.42087875754E+03  0.21214887337E+03  0.54111198928E+03  0.46999998093E+01 0. -1.
</event>
<event>
 5   0  0.2350769E-03  0.1002885E+04  0.7818609E-02  0.9305386E-01
       -1   -1    0    0    0  501  0.00000000000E+00  0.00000000000E+00  0.35709332256E+03  0.35709332260E+03  0.50400001928E-02 0. -1.
        1   -1    0    0  501    0  0.00000000000E+00  0.00000000000E+00 -0.70414304530E+03  0.70414304531E+03  0.50400001928E-02 0.  1.
    10030    2    1    2    0    0  0.00000000000E+00  0.00000000000E+00 -0.34704972274E+03  0.10612363679E+04  0.10028853965E+04 0.  0.
        2    1    3    3  502    0  0.49360130198E+03 -0.67368176631E+02 -0.23398095601E+03  0.55038877562E+03  0.25500000920E-02 0. -1.
       -2    1    3    3    0  502 -0.49360130198E+03  0.67368176631E+02 -0.11306876672E+03  0.51084759230E+03  0.25500000920E-02 0.  1.
</event>
<event>
 5   0  0.2405022E-03  0.9945100E+03  0.7818609E-02  0.9314587E-01
        1   -1    0    0  501    0  0.00000000000E+00  0.00000000000E+00  0.81314703094E+03  0.81314703095E+03  0.50400001928E-02 0.  1.
       -1   -1    0    0    0  501  0.00000000000E+00  0.00000000000E+00 -0.30408098067E+03  0.30408098071E+03  0.50400001928E-02 0. -1.
    10030    2    1    2    0    0  0.00000000000E+00  0.00000000000E+00  0.50906605027E+03  0.11172280117E+04  0.99451002333E+03 0.  0.
        4    1    3    3  502    0 -0.22646971021E+03 -0.24558294850E+03  0.66830476917E+03  0.74714951089E+03  0.12699999809E+01 0.  1.
       -4    1    3    3    0  502  0.22646971021E+03  0.24558294850E+03 -0.15923871890E+03  0.37007850077E+03  0.12699999809E+01 0. -1.
</event>
<event>
 5   0  0.2405022E-03  0.1004629E+04  0.7818609E-02  0.9303483E-01
        1   -1    0    0  501    0  0.00000000000E+00  0.00000000000E+00  0.60577549150E+03  0.60577549152E+03  0.50400001928E-02 0. -1.
       -1   -1    0    0    0  501  0.00000000000E+00  0.00000000000E+00 -0.41652356243E+03  0.41652356246E+03  0.50400001928E-02 0.  1.
    10030    2    1    2    0    0  0.00000000000E+00  0.00000000000E+00  0.18925192907E+03  0.10222990540E+04  0.10046288186E+04 0.  0.
        4    1    3    3  502    0 -0.33575682273E+03 -0.23658381566E+03 -0.19962019713E+03  0.45667754690E+03  0.12699999809E+01 0. -1.
       -4    1    3    3    0  502  0.33575682273E+03  0.23658381566E+03  0.38887212619E+03  0.56562150708E+03  0.12699999809E+01 0.  1.
</event>
<event>
 5   0  0.2378609E-03  0.1001189E+04  0.7818609E-02  0.9307242E-01
        1   -1    0    0  501    0  0.00000000000E+00  0.00000000000E+00  0.48185901055E+03  0.48185901058E+03  0.50400001928E-02 0.  1.
       -1   -1    0    0    0  501  0.00000000000E+00  0.00000000000E+00 -0.52005816575E+03  0.52005816577E+03  0.50400001928E-02 0. -1.
    10030    2    1    2    0    0  0.00000000000E+00  0.00000000000E+00 -0.38199155195E+02  0.10019171764E+04  0.10011887199E+04 0.  0.
        1    1    3    3  502    0 -0.26456127736E+03  0.24032992497E+03  0.33164590818E+03  0.48758604446E+03  0.50400001928E-02 0.  1.
       -1    1    3    3    0  502  0.26456127736E+03 -0.24032992497E+03 -0.36984506337E+03  0.51433113190E+03  0.50400001928E-02 0. -1.
</event>
<event>
 5   0  0.3895011E-03  0.1008680E+04  0.7818609E-02  0.9299075E-01
        2   -1    0    0  501    0  0.00000000000E+00  0.00000000000E+00  0.12710931904E+04  0.12710931904E+04  0.25500000920E-02 0. -1.
       -2   -1    0    0    0  501  0.00000000000E+00  0.00000000000E+00 -0.20011048749E+03  0.20011048750E+03  0.25500000920E-02 0.  1.
    10030    2    1    2    0    0  0.00000000000E+00  0.00000000000E+00  0.10709827029E+04  0.14712036779E+04  0.10086804806E+04 0.  0.
        2    1    3    3  502    0 -0.28093483654E+03  0.95224875766E+02  0.11304032727E+04  0.11686760536E+04  0.25500000920E-02 0. -1.
       -2    1    3    3    0  502  0.28093483654E+03 -0.95224875766E+02 -0.59420569775E+02  0.30252762431E+03  0.25500000920E-02 0.  1.
</event>
<event>
 5   0  0.2378609E-03  0.9464085E+03  0.7818609E-02  0.9369358E-01
        1   -1    0    0  501    0  0.00000000000E+00  0.00000000000E+00  0.30912955454E+03  0.30912955459E+03  0.50400001928E-02 0. -1.
       -1   -1    0    0    0  501  0.00000000000E+00  0.00000000000E+00 -0.72436376072E+03  0.72436376074E+03  0.50400001928E-02 0.  1.
    10030    2    1    2    0    0  0.00000000000E+00  0.00000000000E+00 -0.41523420618E+03  0.10334933153E+04  0.94640846723E+03 0.  0.
        1    1    3    3  502    0 -0.41418900292E+03 -0.19170562567E+03 -0.34409146553E+03  0.57157896544E+03  0.50400001928E-02 0. -1.
       -1    1    3    3    0  502  0.41418900292E+03  0.19170562567E+03 -0.71142740647E+02  0.46191434988E+03  0.50400001928E-02 0.  1.
</event>
<event>
 5   0  0.2405022E-03  0.9983078E+03  0.7818609E-02  0.9310403E-01
       -1   -1    0    0    0  501  0.00000000000E+00  0.00000000000E+00  0.33604506615E+03  0.33604506619E+03  0.50400001928E-02 0.  1.
        1   -1    0    0  501    0  0.00000000000E+00  0.00000000000E+00 -0.74143214209E+03  0.74143214210E+03  0.50400001928E-02 0. -1.
    10030    2    1    2    0    0  0.00000000000E+00  0.00000000000E+00 -0.40538707594E+03  0.10774772083E+04  0.99830779474E+03 0.  0.
        4    1    3    3  502    0 -0.80293779884E+02  0.42259643436E+03 -0.47599009825E+03  0.64156295401E+03  0.12699999809E+01 0. -1.
       -4    1    3    3    0  502  0.80293779884E+02 -0.42259643436E+03  0.70603022312E+02  0.43591425428E+03  0.12699999809E+01 0.  1.
</event>
<event>
 5   0  0.3873874E-03  0.1023529E+04  0.7818609E-02  0.9283109E-01
        2   -1    0    0  501    0  0.00000000000E+00  0.00000000000E+00  0.10569230584E+04  0.10569230584E+04  0.25500000920E-02 0.  1.
       -2   -1    0    0    0  501  0.00000000000E+00  0.00000000000E+00 -0.24779742183E+03  0.24779742184E+03  0.25500000920E-02 0. -1.
    10030    2    1    2    0    0  0.00000000000E+00  0.00000000000E+00  0.80912563656E+03  0.13047204802E+04  0.10235288153E+04 0.  0.
        5    1    3    3  502    0  0.28456358226E+03  0.75237888632E+02  0.93819058907E+03  0.98329082354E+03  0.46999998093E+01 0.  1.
       -5    1    3    3    0  502 -0.28456358226E+03 -0.75237888632E+02 -0.12906495252E+03  0.32142965669E+03  0.46999998093E+01 0. -1.
</event>
<event>
 5   0  0.3873874E-03  0.1014007E+04  0.7818609E-02  0.9293315E-01
       -2   -1    0    0    0  501  0.00000000000E+00  0.00000000000E+00  0.52220412090E+03  0.52220412091E+03  0.25500000920E-02 0.  1.
        2   -1    0    0  501    0  0.00000000000E+00  0.00000000000E+00 -0.49224490804E+03  0.49224490804E+03  0.25500000920E-02 0. -1.
    10030    2    1    2    0    0  0.00000000000E+00  0.00000000000E+00  0.29959212861E+02  0.10144490290E+04  0.10140065473E+04 0.  0.
        5    1    3    3  502    0  0.42108218165E+03  0.14694954865E+03 -0.22621864339E+03  0.50010132790E+03  0.46999998093E+01 0. -1.
       -5    1    3    3    0  502 -0.42108218165E+03 -0.14694954865E+03  0.25617785625E+03  0.51434770105E+03  0.46999998093E+01 0.  1.
</event>
<event>
 5   0  0.2313036E-03  0.1000231E+04  0.7818609E-02  0.9308291E-01
       -1   -1    0    0    0  501  0.00000000000E+00  0.00000000000E+00  0.26167893124E+03  0.26167893129E+03  0.50400001928E-02 0. -1.
        1   -1    0    0  501    0  0.00000000000E+00  0.00000000000E+00 -0.95581152844E+03  0.95581152846E+03  0.50400001928E-02 0.  1.
    10030    2    1    2    0    0  0.00000000000E+00  0.00000000000E+00 -0.69413259720E+03  0.12174904597E+04  0.10002314518E+04 0.  0.
        3    1    3    3  502    0 -0.26598767387E+03  0.39005468617E+03 -0.14623191731E+03  0.49424273864E+03  0.10100000352E+00 0. -1.
       -3    1    3    3    0  502  0.26598767387E+03 -0.39005468617E+03 -0.54790067990E+03  0.72324772111E+03  0.10100000352E+00 0.  1.
</event>
<event>
 5   0  0.2405022E-03  0.9992641E+03  0.7818609E-02  0.9309352E-01
       -1   -1    0    0    0  501  0.00000000000E+00  0.00000000000E+00  0.30692931392E+03  0.30692931396E+03  0.50400001928E-02 0. -1.
        1   -1    0    0  501    0  0.00000000000E+00  0.00000000000E+00 -0.81332145513E+03  0.81332145514E+03  0.50400001928E-02 0.  1.
    10030    2    1    2    0    0  0.00000000000E+00  0.00000000000E+00 -0.50639214121E+03  0.11202507691E+04  0.99926412174E+03 0.  0.
        4    1    3    3  502    0 -0.14050189088E+03  0.17284040143E+02 -0.79036693209E+03  0.80294521583E+03  0.12699999809E+01 0.  1.
       -4    1    3    3    0  502  0.14050189088E+03 -0.17284040143E+02  0.28397479088E+03  0.31730555327E+03  0.12699999809E+01 0. -1.
</event>
<event>
 5   0  0.2350769E-03  0.9993341E+03  0.7818609E-02  0.9309275E-01
       -1   -1    0    0    0  501  0.00000000000E+00  0.00000000000E+00  0.11725730055E+04  0.11725730055E+04  0.50400001928E-02 0. -1.
        1   -1    0    0  501    0  0.00000000000E+00  0.00000000000E+00 -0.21292248951E+03  0.21292248956E+03  0.50400001928E-02 0.  1.
    10030    2    1    2    0    0  0.00000000000E+00  0.00000000000E+00  0.95965051601E+03  0.13854954951E+04  0.99933410531E+03 0.  0.
        2    1    3    3  502    0  0.62801875214E+02 -0.40092535951E+03  0.75661153218E+02  0.41280725471E+03  0.25500000920E-02 0.  1.
       -2    1    3    3    0  502 -0.62801875214E+02  0.40092535951E+03  0.88398936279E+03  0.97268824038E+03  0.25500000920E-02 0. -1.
</event>
<event>
 5   0  0.3826483E-03  0.1000410E+04  0.7818609E-02  0.9308095E-01
        2   -1    0    0  501    0  0.00000000000E+00  0.00000000000E+00  0.99857836036E+03  0.99857836037E+03  0.25500000920E-02 0. -1.
       -2   -1    0    0    0  501  0.00000000000E+00  0.00000000000E+00 -0.25056129463E+03  0.25056129464E+03  0.25500000920E-02 0.  1.
    10030    2    1    2    0    0  0.00000000000E+00  0.00000000000E+00  0.74801706573E+03  0.12491396550E+04  0.10004100895E+04 0.  0.
        4    1    3    3  502    0 -0.22545967341E+03  0.33818681332E+03  0.73804523972E+03  0.84256440336E+03  0.12699999809E+01 0. -1.
       -4    1    3    3    0  502  0.22545967341E+03 -0.33818681332E+03  0.99718260093E+01  0.40657525165E+03  0.12699999809E+01 0.  1.
</event>
<event>
 5   0  0.1548000E-03  0.9998396E+03  0.7818609E-02  0.9308721E-01
        3   -1    0    0  501    0  0.00000000000E+00  0.00000000000E+00  0.12770111579E+03  0.12770115573E+03  0.10100000352E+00 0.  1.
       -3   -1    0    0    0  501  0.00000000000E+00  0.00000000000E+00 -0.19570677694E+04  0.19570677720E+04  0.10100000352E+00 0. -1.
    10030    2    1    2    0    0  0.00000000000E+00  0.00000000000E+00 -0.18293666536E+04  0.20847689277E+04  0.99983955149E+03 0.  0.
        2    1    3    3  502    0  0.41853386485E+03 -0.11750619855E+03 -0.14294188127E+04  0.14940603886E+04  0.25500000920E-02 0. -1.
       -2    1    3    3    0  502 -0.41853386485E+03  0.11750619855E+03 -0.39994784088E+03  0.59070853909E+03  0.25500000920E-02 0.  1.
</event>
<event>
 5   0  0.2313036E-03  0.1001599E+04  0.7818609E-02  0.9306792E-01
        1   -1    0    0  501    0  0.00000000000E+00  0.00000000000E+00  0.13932030672E+04  0.13932030673E+04  0.50400001928E-02 0.  1.
       -1   -1    0    0    0  501  0.00000000000E+00  0.00000000000E+00 -0.18001704083E+03  0.18001704090E+03  0.50400001928E-02 0. -1.
    10030    2    1    2    0    0  0.00000000000E+00  0.00000000000E+00  0.12131860264E+04  0.15732201082E+04  0.10015993081E+04 0.  0.
        3    1    3    3  502    0 -0.36871140999E+03 -0.33453057871E+03  0.69178088816E+03  0.85230253981E+03  0.10100000352E+00 0. -1.
       -3    1    3    3    0  502  0.36871140999E+03  0.33453057871E+03  0.52140513826E+03  0.72091756835E+03  0.10100000352E+00 0.  1.
</event>
<event>
 5   0  0.3895011E-03  0.9818859E+03  0.7818609E-02  0.9328638E-01
       -2   -1    0    0    0  501  0.00000000000E+00  0.00000000000E+00  0.56239805914E+03  0.56239805914E+03  0.25500000920E-02 0. -1.
        2   -1    0    0  501    0  0.00000000000E+00  0.00000000000E+00 -0.42856652620E+03  0.42856652621E+03  0.25500000920E-02 0.  1.
    10030    2    1    2    0    0  0.00000000000E+00  0.00000000000E+00  0.13383153293E+03  0.99096458535E+03  0.98188590489E+03 0.  0.
        2    1    3    3  502    0  0.48783484648E+03 -0.13236824326E+02  0.12095457606E+03  0.50278033020E+03  0.25500000920E-02 0.  1.
       -2    1    3    3    0  502 -0.48783484648E+03  0.13236824326E+02  0.12876956874E+02  0.48818425516E+03  0.25500000920E-02 0. -1.
</event>
<event>
 5   0  0.3873874E-03  0.9979060E+03  0.7818609E-02  0.9310844E-01
        2   -1    0    0  501    0  0.00000000000E+00  0.00000000000E+00  0.11154843924E+04  0.11154843924E+04  0.25500000920E-02 0.  1.
       -2   -1    0    0    0  501  0.00000000000E+00  0.00000000000E+00 -0.22318024563E+03  0.22318024565E+03  0.25500000920E-02 0. -1.
    10030    2    1    2    0    0  0.00000000000E+00  0.00000000000E+00  0.89230414674E+03  0.13386646380E+04  0.99790596892E+03 0.  0.
        5    1    3    3  502    0 -0.11254863785E+03  0.46545131542E+02  0.10952068392E+04  0.11019681282E+04  0.46999998093E+01 0.  1.
       -5    1    3    3    0  502  0.11254863785E+03 -0.46545131542E+02 -0.20290269241E+03  0.23669650977E+03  0.46999998093E+01 0. -1.
</event>
<event>
 5   0  0.4140860E-03  0.1002516E+04  0.7818609E-02  0.9305790E-01
       -2   -1    0    0    0  501  0.00000000000E+00  0.00000000000E+00  0.15411575410E+03  0.15411575412E+03  0.25500000920E-02 0. -1.
        2   -1    0    0  501    0  0.00000000000E+00  0.00000000000E+00 -0.16303301523E+04  0.16303301523E+04  0.25500000920E-02 0.  1.
    10030    2    1    2    0    0  0.00000000000E+00  0.00000000000E+00 -0.14762143982E+04  0.17844459065E+04  0.10025159567E+04 0.  0.
        3    1    3    3  502    0 -0.43173615053E+03  0.17608731934E+03 -0.10656246349E+04  0.11631675375E+04  0.10100000352E+00 0.  1.
       -3    1    3    3    0  502  0.43173615053E+03 -0.17608731934E+03 -0.41058976335E+03  0.62127836891E+03  0.10100000352E+00 0. -1.
</event>
<event>
 5   0  0.1548000E-03  0.1005928E+04  0.7818609E-02  0.9302067E-01
       -4   -1    0    0    0  501  0.00000000000E+00  0.00000000000E+00  0.46471938616E+03  0.46472112151E+03  0.12699999809E+01 0.  1.
        4   -1    0    0  501    0  0.00000000000E+00  0.00000000000E+00 -0.54435243879E+03  0.54435392028E+03  0.12699999809E+01 0. -1.
    10030    2    1    2    0    0  0.00000000000E+00  0.00000000000E+00 -0.79633052634E+02  0.10090750418E+04  0.10059279382E+04 0.  0.
        5    1    3    3  502    0  0.86264692402E+02 -0.29203966577E+03  0.36171304399E+03  0.47285006051E+03  0.46999998093E+01 0.  1.
       -5    1    3    3    0  502 -0.86264692402E+02  0.29203966577E+03 -0.44134609662E+03  0.53622498127E+03  0.46999998093E+01 0. -1.
</event>
<event>
 5   0  0.4140860E-03  0.9342927E+03  0.7818609E-02  0.9383701E-01
        2   -1    0    0  501    0  0.00000000000E+00  0.00000000000E+00  0.58788811259E+03  0.58788811260E+03  0.25500000920E-02 0.  1.
       -2   -1    0    0    0  501  0.00000000000E+00  0.00000000000E+00 -0.37120276462E+03  0.37120276463E+03  0.25500000920E-02 0. -1.
    10030    2    1    2    0    0  0.00000000000E+00  0.00000000000E+00  0.21668534797E+03  0.95909087723E+03  0.93429265798E+03 0.  0.
        3    1    3    3  502    0  0.12525627379E+03  0.44173902595E+03  0.20017191754E+02  0.45959025157E+03  0.10100000352E+00 0.  1.
       -3    1    3    3    0  502 -0.12525627379E+03 -0.44173902595E+03  0.19666815621E+03  0.49950062566E+03  0.10100000352E+00 0. -1.
</event>
<event>
 5   0  0.2327595E-03  0.1055220E+04  0.7818609E-02  0.9249972E-01
        1   -1    0    0  501    0  0.00000000000E+00  0.00000000000E+00  0.86754873410E+03  0.86754873411E+03  0.50400001928E-02 0.  1.
       -1   -1    0    0    0  501  0.00000000000E+00  0.00000000000E+00 -0.32087195359E+03  0.32087195363E+03  0.50400001928E-02 0. -1.
    10030    2    1    2    0    0  0.00000000000E+00  0.00000000000E+00  0.54667678051E+03  0.11884206877E+04  0.10552195168E+04 0.  0.
        5    1    3    3  502    0 -0.40376392693E+03 -0.33954141880E+03  0.28012232084E+03  0.59733097057E+03  0.46999998093E+01 0.  1.
       -5    1    3    3    0  502  0.40376392693E+03  0.33954141880E+03  0.26655445967E+03  0.59108971717E+03  0.46999998093E+01 0. -1.
</event>
<event>
 5   0  0.2313036E-03  0.9978133E+03  0.7818609E-02  0.9310946E-01
       -1   -1    0    0    0  501  0.00000000000E+00  0.00000000000E+00  0.19536930076E+03  0.19536930082E+03  0.50400001928E-02 0. -1.
        1   -1    0    0  501    0  0.00000000000E+00  0.00000000000E+00 -0.12740377292E+04  0.12740377292E+04  0.50400001928E-02 0.  1.
    10030    2    1    2    0    0  0.00000000000E+00  0.00000000000E+00 -0.10786684285E+04  0.14694070300E+04  0.99781332994E+03 0.  0.
        3    1    3    3  502    0  0.29564068954E+03  0.30547895349E+03 -0.92387617522E+03  0.10169896783E+04  0.10100000352E+00 0.  1.
       -3    1    3    3    0  502 -0.29564068954E+03 -0.30547895349E+03 -0.15479225323E+03  0.45241735179E+03  0.10100000352E+00 0. -1.
</event>
<event>
 5   0  0.1548000E-03  0.9947004E+03  0.7818609E-02  0.9314376E-01
       -3   -1    0    0    0  501  0.00000000000E+00  0.00000000000E+00  0.12063775764E+04  0.12063775807E+04  0.10100000352E+00 0.  1.
        3   -1    0    0  501    0  0.00000000000E+00  0.00000000000E+00 -0.20504129089E+03  0.20504131577E+03  0.10100000352E+00 0. -1.
    10030    2    1    2    0    0  0.00000000000E+00  0.00000000000E+00  0.10013362855E+04  0.14114188964E+04  0.99470042951E+03 0.  0.
        5    1    3    3  502    0 -0.45662995858E+03  0.75959061624E+02  0.75864371033E+03  0.88873115583E+03  0.46999998093E+01 0.  1.
       -5    1    3    3    0  502  0.45662995858E+03 -0.75959061624E+02  0.24269257521E+03  0.52268774060E+03  0.46999998093E+01 0. -1.
</event>
<event>
 5   0  0.2405022E-03  0.9901496E+03  0.7818609E-02  0.9319415E-01
       -1   -1    0    0    0  501  0.00000000000E+00  0.00000000000E+00  0.63633593402E+03  0.63633593404E+03  0.50400001928E-02 0.  1.
        1   -1    0    0  501    0  0.00000000000E+00  0.00000000000E+00 -0.38517243619E+03  0.38517243622E+03  0.50400001928E-02 0. -1.
    10030    2    1    2    0    0  0.00000000000E+00  0.00000000000E+00  0.25116349783E+03  0.10215083703E+04  0.99014960883E+03 0.  0.
        4    1    3    3  502    0 -0.20510754665E+03  0.38143679840E+03 -0.12187800243E+03  0.44990998793E+03  0.12699999809E+01 0. -1.
       -4    1    3    3    0  502  0.20510754665E+03 -0.38143679840E+03  0.37304150026E+03  0.57159838233E+03  0.12699999809E+01 0.  1.
</event>
<event>
 5   0  0.3826483E-03  0.9989835E+03  0.7818609E-02  0.9309660E-01
        2   -1    0    0  501    0  0.00000000000E+00  0.00000000000E+00  0.21098723085E+04  0.21098723085E+04  0.25500000920E-02 0.  1.
       -2   -1    0    0    0  501  0.00000000000E+00  0.00000000000E+00 -0.11824981323E+03  0.11824981325E+03  0.25500000920E-02 0. -1.
    10030    2    1    2    0    0  0.00000000000E+00  0.00000000000E+00  0.19916224953E+04  0.22281221218E+04  0.99898349625E+03 0.  0.
        4    1    3    3  502    0 -0.26610231677E+03  0.20610377765E+03  0.18189463406E+04  0.18498261035E+04  0.12699999809E+01 0.  1.
       -4    1    3    3    0  502  0.26610231677E+03 -0.20610377765E+03  0.17267615464E+03  0.37829601827E+03  0.12699999809E+01 0. -1.
</event>
<event>
 5   0  0.2405022E-03  0.1000793E+04  0.7818609E-02  0.9307675E-01
        1   -1    0    0  501    0  0.00000000000E+00  0.00000000000E+00  0.22711629472E+04  0.22711629472E+04  0.50400001928E-02 0.  1.
       -1   -1    0    0    0  501  0.00000000000E+00  0.00000000000E+00 -0.11025043510E+03  0.11025043521E+03  0.50400001928E-02 0. -1.
    10030    2    1    2    0    0  0.00000000000E+00  0.00000000000E+00  0.21609125121E+04  0.23814133824E+04  0.10007930920E+04 0.  0.
        4    1    3    3  502    0  0.47928780278E+03  0.71272552197E+02  0.78326766778E+03  0.92103551879E+03  0.12699999809E+01 0.  1.
       -4    1    3    3    0  502 -0.47928780278E+03 -0.71272552197E+02  0.13776448443E+04  0.14603778636E+04  0.12699999809E+01 0. -1.
</event>
<event>
 5   0  0.3873874E-03  0.1034387E+04  0.7818609E-02  0.9271613E-01
        2   -1    0    0  501    0  0.00000000000E+00  0.00000000000E+00  0.95585858086E+03  0.95585858087E+03  0.25500000920E-02 0.  1.
       -2   -1    0    0    0  501  0.00000000000E+00  0.00000000000E+00 -0.27984187377E+03  0.27984187379E+03  0.25500000920E-02 0. -1.
    10030    2    1    2    0    0  0.00000000000E+00  0.00000000000E+00  0.67601670709E+03  0.12357004547E+04  0.10343872705E+04 0.  0.
        5    1    3    3  502    0 -0.48807957006E+03 -0.61325918475E+02  0.14730021945E+03  0.51351921058E+03  0.46999998093E+01 0. -1.
       -5    1    3    3    0  502  0.48807957006E+03  0.61325918475E+02  0.52871648764E+03  0.72218124407E+03  0.46999998093E+01 0.  1.
</event>
<event>
 5   0  0.2313036E-03  0.9930827E+03  0.7818609E-02  0.9316164E-01
       -1   -1    0    0    0  501  0.00000000000E+00  0.00000000000E+00  0.25904658375E+03  0.25904658380E+03  0.50400001928E-02 0. -1.
        1   -1    0    0  501    0  0.00000000000E+00  0.00000000000E+00 -0.95177215307E+03  0.95177215309E+03  0.50400001928E-02 0.  1.
    10030    2    1    2    0    0  0.00000000000E+00  0.00000000000E+00 -0.69272556933E+03  0.12108187369E+04  0.99308272525E+03 0.  0.
        3    1    3    3  502    0 -0.37556573848E+02  0.47672614303E+03 -0.50937373001E+03  0.69867010721E+03  0.10100000352E+00 0.  1.
       -3    1    3    3    0  502  0.37556573848E+02 -0.47672614303E+03 -0.18335183932E+03  0.51214862967E+03  0.10100000352E+00 0. -1.
</event>
<event>
 5   0  0.3895011E-03  0.9507025E+03  0.7818609E-02  0.9364330E-01
       -2   -1    0    0    0  501  0.00000000000E+00  0.00000000000E+00  0.21567210185E+03  0.21567210187E+03  0.25500000920E-02 0.  1.
        2   -1    0    0  501    0  0.00000000000E+00  0.00000000000E+00 -0.10476961618E+04  0.10476961618E+04  0.25500000920E-02 0. -1.
    10030    2    1    2    0    0  0.00000000000E+00  0.00000000000E+00 -0.83202405995E+03  0.12633682637E+04  0.95070254724E+03 0.  0.
        2    1    3    3  502    0  0.32034646059E+03 -0.34792861504E+03 -0.47950207985E+03  0.67349715705E+03  0.25500000920E-02 0. -1.
       -2    1    3    3    0  502 -0.32034646059E+03  0.34792861504E+03 -0.35252198010E+03  0.58987110663E+03  0.25500000920E-02 0.  1.
</event>
<event>
 5   0  0.3826483E-03  0.1002514E+04  0.7818609E-02  0.9305791E-01
        2   -1    0    0  501    0  0.00000000000E+00  0.00000000000E+00  0.88612216168E+03  0.88612216169E+03  0.25500000920E-02 0.  1.
       -2   -1    0    0    0  501  0.00000000000E+00  0.00000000000E+00 -0.28354862892E+03  0.28354862893E+03  0.25500000920E-02 0. -1.
    10030    2    1    2    0    0  0.00000000000E+00  0.00000000000E+00  0.60257353276E+03  0.11696707906E+04  0.10025142872E+04 0.  0.
        4    1    3    3  502    0 -0.33786829383E+03 -0.12220412847E+03 -0.10651800285E+03  0.37474862351E+03  0.12699999809E+01 0. -1.
       -4    1    3    3    0  502  0.33786829383E+03  0.12220412847E+03  0.70909153561E+03  0.79492216711E+03  0.12699999809E+01 0.  1.
</event>
<event>
 5   0  0.3895011E-03  0.9977167E+03  0.7818609E-02  0.9311053E-01
       -2   -1    0    0    0  501  0.00000000000E+00  0.00000000000E+00  0.22308097486E+03  0.22308097488E+03  0.25500000920E-02 0.  1.
        2   -1    0    0  501    0  0.00000000000E+00  0.00000000000E+00 -0.11155574696E+04  0.11155574696E+04  0.25500000920E-02 0. -1.
    10030    2    1    2    0    0  0.00000000000E+00  0.00000000000E+00 -0.89247649474E+03  0.13386384445E+04  0.99771668893E+03 0.  0.
        2    1    3    3  502    0 -0.37475313616E+03 -0.15168499121E+03 -0.54122781297E+02  0.40789401207E+03  0.25500000920E-02 0.  1.
       -2    1    3    3    0  502  0.37475313616E+03  0.15168499121E+03 -0.83835371345E+03  0.93074443242E+03  0.25500000920E-02 0. -1.
</event>
<event>
 5   0  0.2405022E-03  0.9990867E+03  0.7818609E-02  0.9309547E-01
        1   -1    0    0  501    0  0.00000000000E+00  0.00000000000E+00  0.11606916309E+04  0.11606916309E+04  0.50400001928E-02 0.  1.
       -1   -1    0    0    0  501  0.00000000000E+00  0.00000000000E+00 -0.21499555018E+03  0.21499555024E+03  0.50400001928E-02 0. -1.
    10030    2    1    2    0    0  0.00000000000E+00  0.00000000000E+00  0.94569608075E+03  0.13756871812E+04  0.99908665456E+03 0.  0.
        4    1    3    3  502    0 -0.46933264091E+03 -0.14920283893E+03  0.58811162849E+03  0.76707986249E+03  0.12699999809E+01 0.  1.
       -4    1    3    3    0  502  0.46933264091E+03  0.14920283893E+03  0.35758445225E+03  0.60860731869E+03  0.12699999809E+01 0. -1.
</event>
<event>
 5   0  0.3873874E-03  0.1000500E+04  0.7818609E-02  0.9307997E-01
       -2   -1    0    0    0  501  0.00000000000E+00  0.00000000000E+00  0.18363995938E+03  0.18363995940E+03  0.25500000920E-02 0.  1.
        2   -1    0    0  501    0  0.00000000000E+00  0.00000000000E+00 -0.13627206792E+04  0.13627206792E+04  0.25500000920E-02 0. -1.
    10030    2    1    2    0    0  0.00000000000E+00  0.00000000000E+00 -0.11790807198E+04  0.15463606386E+04  0.10004998154E+04 0.  0.
        5    1    3    3  502    0 -0.36629096936E+03 -0.16367619998E+03 -0.10513296788E+04  0.11252889212E+04  0.46999998093E+01 0. -1.
       -5    1    3    3    0  502  0.36629096936E+03  0.16367619998E+03 -0.12775104098E+03  0.42107171735E+03  0.46999998093E+01 0.  1.
</event>
<event>
 5   0  0.2350769E-03  0.9899077E+03  0.7818609E-02  0.9319684E-01
       -1   -1    0    0    0  501  0.00000000000E+00  0.00000000000E+00  0.36915821917E+03  0.36915821920E+03  0.50400001928E-02 0.  1.
        1   -1    0    0  501    0  0.00000000000E+00  0.00000000000E+00 -0.66361600675E+03  0.66361600677E+03  0.50400001928E-02 0. -1.
    10030    2    1    2    0    0  0.00000000000E+00  0.00000000000E+00 -0.29445778759E+03  0.10327742260E+04  0.98990767911E+03 0.  0.
        2    1    3    3  502    0  0.28452555893E+03 -0.31056121711E+03 -0.41844014963E+03  0.59371308061E+03  0.25500000920E-02 0. -1.
       -2    1    3    3    0  502 -0.28452555893E+03  0.31056121711E+03  0.12398236205E+03  0.43906114536E+03  0.25500000920E-02 0.  1.
</event>
<event>
 5   0  0.2378609E-03  0.1000999E+04  0.7818609E-02  0.9307450E-01
        1   -1    0    0  501    0  0.00000000000E+00  0.00000000000E+00  0.24211359727E+04  0.24211359727E+04  0.50400001928E-02 0.  1.
       -1   -1    0    0    0  501  0.00000000000E+00  0.00000000000E+00 -0.10346370169E+03  0.10346370181E+03  0.50400001928E-02 0. -1.
    10030    2    1    2    0    0  0.00000000000E+00  0.00000000000E+00  0.23176722710E+04  0.25245996745E+04  0.10009988815E+04 0.  0.
        1    1    3    3  502    0  0.33078447855E+03  0.78998546273E+02  0.23271203693E+03  0.41208498361E+03  0.50400001928E-02 0. -1.
       -1    1    3    3    0  502 -0.33078447855E+03 -0.78998546273E+02  0.20849602341E+04  0.21125146909E+04  0.50400001928E-02 0.  1.
</event>
<event>
 5   0  0.2327595E-03  0.9983587E+03  0.7818609E-02  0.9310347E-01
        1   -1    0    0  501    0  0.00000000000E+00  0.00000000000E+00  0.16282137161E+04  0.16282137161E+04  0.50400001928E-02 0.  1.
       -1   -1    0    0    0  501  0.00000000000E+00  0.00000000000E+00 -0.15303889127E+03  0.15303889135E+03  0.50400001928E-02 0. -1.
    10030    2    1    2    0    0  0.00000000000E+00  0.00000000000E+00  0.14751748248E+04  0.17812526075E+04  0.99835869695E+03 0.  0.
        5    1    3    3  502    0 -0.26622472217E+03 -0.24139218250E+03  0.13556771087E+04  0.14025078615E+04  0.46999998093E+01 0.  1.
       -5    1    3    3    0  502  0.26622472217E+03  0.24139218250E+03  0.11949771617E+03  0.37874474602E+03  0.46999998093E+01 0. -1.
</event>
<event>
 5   0  0.2405022E-03  0.1032665E+04  0.7818609E-02  0.9273426E-01
       -1   -1    0    0    0  501  0.00000000000E+00  0.00000000000E+00  0.13213539567E+03  0.13213539576E+03  0.50400001928E-02 0. -1.
        1   -1    0    0  501    0  0.00000000000E+00  0.00000000000E+00 -0.20176232630E+04  0.20176232630E+04  0.50400001928E-02 0.  1.
    10030    2    1    2    0    0  0.00000000000E+00  0.00000000000E+00 -0.18854878673E+04  0.21497586588E+04  0.10326653829E+04 0.  0.
        4    1    3    3  502    0  0.28307051084E+03 -0.15395656039E+02 -0.18411178196E+04  0.18628157126E+04  0.12699999809E+01 0. -1.
       -4    1    3    3    0  502 -0.28307051084E+03  0.15395656039E+02 -0.44370047683E+02  0.28694294618E+03  0.12699999809E+01 0.  1.
</event>
<event>
 5   0  0.4026829E-03  0.9690927E+03  0.7818609E-02  0.9343108E-01
        2   -1    0    0  501    0  0.00000000000E+00  0.00000000000E+00  0.65174520752E+03  0.65174520752E+03  0.25500000920E-02 0. -1.
       -2   -1    0    0    0  501  0.00000000000E+00  0.00000000000E+00 -0.36024070093E+03  0.36024070094E+03  0.25500000920E-02 0.  1.
    10030    2    1    2    0    0  0.00000000000E+00  0.00000000000E+00  0.29150450659E+03  0.10119859085E+04  0.96909266923E+03 0.  0.
        1    1    3    3  502    0 -0.37708383327E+03 -0.26701705145E+03 -0.66341496760E+01  0.46209775486E+03  0.50400001928E-02 0.  1.
       -1    1    3    3    0  502  0.37708383327E+03  0.26701705145E+03  0.29813865627E+03  0.54988815360E+03  0.50400001928E-02 0. -1.
</event>
<event>
 5   0  0.2378609E-03  0.9828894E+03  0.7818609E-02  0.9327513E-01
        1   -1    0    0  501    0  0.00000000000E+00  0.00000000000E+00  0.97034955925E+03  0.97034955926E+03  0.50400001928E-02 0.  1.
       -1   -1    0    0    0  501  0.00000000000E+00  0.00000000000E+00 -0.24889780831E+03  0.24889780836E+03  0.50400001928E-02 0. -1.
    10030    2    1    2    0    0  0.00000000000E+00  0.00000000000E+00  0.72145175094E+03  0.12192473676E+04  0.98288937044E+03 0.  0.
        1    1    3    3  502    0  0.18759501269E+03 -0.45069588324E+03  0.29056280172E+03  0.56810686471E+03  0.50400001928E-02 0. -1.
       -1    1    3    3    0  502 -0.18759501269E+03  0.45069588324E+03  0.43088894921E+03  0.65114050292E+03  0.50400001928E-02 0.  1.
</event>
<event>
 5   0  0.4140860E-03  0.9903281E+03  0.7818609E-02  0.9319217E-01
       -2   -1    0    0    0  501  0.00000000000E+00  0.00000000000E+00  0.31876424983E+03  0.31876424984E+03  0.25500000920E-02 0. -1.
        2   -1    0    0  501    0  0.00000000000E+00  0.00000000000E+00 -0.76918115187E+03  0.76918115187E+03  0.25500000920E-02 0.  1.
    10030    2    1    2    0    0  0.00000000000E+00  0.00000000000E+00 -0.45041690204E+03  0.10879454017E+04  0.99032813323E+03 0.  0.
        3    1    3    3  502    0 -0.14320616520E+03  0.63885995823E+02 -0.74118360084E+03  0.75758997259E+03  0.10100000352E+00 0.  1.
       -3    1    3    3    0  502  0.14320616520E+03 -0.63885995823E+02  0.29076669881E+03  0.33035542912E+03  0.10100000352E+00 0. -1.
</event>
<event>
 5   0  0.4026829E-03  0.1004593E+04  0.7818609E-02  0.9303522E-01
       -2   -1    0    0    0  501  0.00000000000E+00  0.00000000000E+00  0.17080523719E+03  0.17080523720E+03  0.25500000920E-02 0. -1.
        2   -1    0    0  501    0  0.00000000000E+00  0.00000000000E+00 -0.14771303405E+04  0.14771303405E+04  0.25500000920E-02 0.  1.
    10030    2    1    2    0    0  0.00000000000E+00  0.00000000000E+00 -0.13063251033E+04  0.16479355777E+04  0.10045926501E+04 0.  0.
        1    1    3    3  502    0 -0.48450645209E+03  0.12334775091E+03 -0.73252186676E+03  0.88687623436E+03  0.50400001928E-02 0.  1.
       -1    1    3    3    0  502  0.48450645209E+03 -0.12334775091E+03 -0.57380323651E+03  0.76105934330E+03  0.50400001928E-02 0. -1.
</event>
<event>
 5   0  0.4026829E-03  0.9512113E+03  0.7818609E-02  0.9363736E-01
       -2   -1    0    0    0  501  0.00000000000E+00  0.00000000000E+00  0.57459216623E+03  0.57459216624E+03  0.25500000920E-02 0.  1.
        2   -1    0    0  501    0  0.00000000000E+00  0.00000000000E+00 -0.39367177803E+03  0.39367177804E+03  0.25500000920E-02 0. -1.
    10030    2    1    2    0    0  0.00000000000E+00  0.00000000000E+00  0.18092038820E+03  0.96826394428E+03  0.95121126934E+03 0.  0.
        1    1    3    3  502    0 -0.81029647936E+02  0.28002848324E+03  0.47298824224E+03  0.55560744469E+03  0.50400001928E-02 0.  1.
       -1    1    3    3    0  502  0.81029647936E+02 -0.28002848324E+03 -0.29206785403E+03  0.41265649959E+03  0.50400001928E-02 0. -1.
</event>
<event>
 5   0  0.3873874E-03  0.9926346E+03  0.7818609E-02  0.9316660E-01
        2   -1    0    0  501    0  0.00000000000E+00  0.00000000000E+00  0.17191254045E+04  0.17191254045E+04  0.25500000920E-02 0. -1.
       -2   -1    0    0    0  501  0.00000000000E+00  0.00000000000E+00 -0.14328848208E+03  0.14328848210E+03  0.25500000920E-02 0.  1.
    10030    2    1    2    0    0  0.00000000000E+00  0.00000000000E+00  0.15758369225E+04  0.18624138866E+04  0.99263461503E+03 0.  0.
        5    1    3    3  502    0 -0.33996084698E+03 -0.34970335947E+02  0.14631342542E+04  0.15025246213E+04  0.46999998093E+01 0. -1.
       -5    1    3    3    0  502  0.33996084698E+03  0.34970335947E+02  0.11270266829E+03  0.35988926534E+03  0.46999998093E+01 0.  1.
</event>
<event>
 5   0  0.2327595E-03  0.1011341E+04  0.7818609E-02  0.9296193E-01
        1   -1    0    0  501    0  0.00000000000E+00  0.00000000000E+00  0.11352272244E+04  0.11352272244E+04  0.50400001928E-02 0.  1.
       -1   -1    0    0    0  501  0.00000000000E+00  0.00000000000E+00 -0.22524371551E+03  0.22524371557E+03  0.50400001928E-02 0. -1.
    10030    2    1    2    0    0  0.00000000000E+00  0.00000000000E+00  0.90998350890E+03  0.13604709400E+04  0.10113412837E+04 0.  0.
        5    1    3    3  502    0  0.39514602330E+03 -0.23390358164E+03  0.17016996924E+03  0.48972561058E+03  0.46999998093E+01 0. -1.
       -5    1    3    3    0  502 -0.39514602330E+03  0.23390358164E+03  0.73981353966E+03  0.87074532941E+03  0.46999998093E+01 0.  1.
</event>
<event>
 5   0  0.4140860E-03  0.9974242E+03  0.7818609E-02  0.9311374E-01
        2   -1    0    0  501    0  0.00000000000E+00  0.00000000000E+00  0.77003659205E+03  0.77003659206E+03  0.25500000920E-02 0.  1.
       -2   -1    0    0    0  501  0.00000000000E+00  0.00000000000E+00 -0.32298953656E+03  0.32298953657E+03  0.25500000920E-02 0. -1.
    10030    2    1    2    0    0  0.00000000000E+00  0.00000000000E+00  0.44704705549E+03  0.10930261286E+04  0.99742420666E+03 0.  0.
        3    1    3    3  502    0 -0.24836041650E+03  0.59501736027E+02 -0.24589184929E+03  0.35452244615E+03  0.10100000352E+00 0. -1.
       -3    1    3    3    0  502  0.24836041650E+03 -0.59501736027E+02  0.69293890478E+03  0.73850368248E+03  0.10100000352E+00 0.  1.
</event>
<event>
 5   0  0.2350769E-03  0.9708969E+03  0.7818609E-02  0.9341053E-01
       -1   -1    0    0    0  501  0.00000000000E+00  0.00000000000E+00  0.50728406228E+03  0.50728406230E+03  0.50400001928E-02 0. -1.
        1   -1    0    0  501    0  0.00000000000E+00  0.00000000000E+00 -0.46455274104E+03  0.46455274107E+03  0.50400001928E-02 0.  1.
    10030    2    1    2    0    0  0.00000000000E+00  0.00000000000E+00  0.42731321236E+02  0.97183680337E+03  0.97089690832E+03 0.  0.
        2    1    3    3  502    0 -0.13150973449E+03 -0.44825510277E+03 -0.11079531229E+03  0.48010733035E+03  0.25500000920E-02 0.  1.
       -2    1    3    3    0  502  0.13150973449E+03  0.44825510277E+03  0.15352663352E+03  0.49172947302E+03  0.25500000920E-02 0. -1.
</event>
<event>
 5   0  0.2378609E-03  0.9959111E+03  0.7818609E-02  0.9313041E-01
        1   -1    0    0  501    0  0.00000000000E+00  0.00000000000E+00  0.60140179958E+03  0.60140179960E+03  0.50400001928E-02 0.  1.
       -1   -1    0    0    0  501  0.00000000000E+00  0.00000000000E+00 -0.41230291368E+03  0.41230291371E+03  0.50400001928E-02 0. -1.
    10030    2    1    2    0    0  0.00000000000E+00  0.00000000000E+00  0.18909888590E+03  0.10137047133E+04  0.99591106889E+03 0.  0.
        1    1    3    3  502    0 -0.15528291861E+03 -0.41953428147E+03  0.31717603231E+03  0.54838164962E+03  0.50400001928E-02 0.  1.
       -1    1    3    3    0  502  0.15528291861E+03  0.41953428147E+03 -0.12807714641E+03  0.46532306369E+03  0.50400001928E-02 0. -1.
</event>
<event>
 5   0  0.2313036E-03  0.1002387E+04  0.7818609E-02  0.9305930E-01
        1   -1    0    0  501    0  0.00000000000E+00  0.00000000000E+00  0.30830088688E+03  0.30830088692E+03  0.50400001928E-02 0. -1.
       -1   -1    0    0    0  501  0.00000000000E+00  0.00000000000E+00 -0.81477239393E+03  0.81477239394E+03  0.50400001928E-02 0.  1.
    10030    2    1    2    0    0  0.00000000000E+00  0.00000000000E+00 -0.50647150705E+03  0.11230732809E+04  0.10023872539E+04 0.  0.
        3    1    3    3  502    0 -0.79690999193E+02 -0.75520546671E+02 -0.80113362089E+03  0.80862172679E+03  0.10100000352E+00 0.  1.
       -3    1    3    3    0  502  0.79690999193E+02  0.75520546671E+02  0.29466211384E+03  0.31445155407E+03  0.10100000352E+00 0. -1.
</event>
<event>
 5   0  0.2313036E-03  0.9959829E+03  0.7818609E-02  0.9312962E-01
       -1   -1    0    0    0  501  0.00000000000E+00  0.00000000000E+00  0.19963297509E+03  0.19963297515E+03  0.50400001928E-02 0.  1.
        1   -1    0    0  501    0  0.00000000000E+00  0.00000000000E+00 -0.12422571214E+04  0.12422571214E+04  0.50400001928E-02 0. -1.
    10030    2    1    2    0    0  0.00000000000E+00  0.00000000000E+00 -0.10426241463E+04  0.14418900966E+04  0.99598290151E+03 0.  0.
        3    1    3    3  502    0  0.27329693986E+03  0.15949649687E+03 -0.10780017316E+04  0.11234847989E+04  0.10100000352E+00 0. -1.
       -3    1    3    3    0  502 -0.27329693986E+03 -0.15949649687E+03  0.35377585259E+02  0.31840529768E+03  0.10100000352E+00 0.  1.
</event>
<event>
 5   0  0.3895011E-03  0.1009504E+04  0.7818609E-02  0.9298182E-01
       -2   -1    0    0    0  501  0.00000000000E+00  0.00000000000E+00  0.52092695993E+03  0.52092695994E+03  0.25500000920E-02 0. -1.
        2   -1    0    0  501    0  0.00000000000E+00  0.00000000000E+00 -0.48907946364E+03  0.48907946365E+03  0.25500000920E-02 0.  1.
    10030    2    1    2    0    0  0.00000000000E+00  0.00000000000E+00  0.31847496289E+02  0.10100064236E+04  0.10095041915E+04 0.  0.
        2    1    3    3  502    0 -0.39876181485E+03  0.20940019356E+02 -0.29297766275E+03  0.49526294054E+03  0.25500000920E-02 0.  1.
       -2    1    3    3    0  502  0.39876181485E+03 -0.20940019356E+02  0.32482515904E+03  0.51474348305E+03  0.25500000920E-02 0. -1.
</event>
<event>
 5   0  0.2327595E-03  0.1001206E+04  0.7818609E-02  0.9307223E-01
       -1   -1    0    0    0  501  0.00000000000E+00  0.00000000000E+00  0.74496567637E+03  0.74496567638E+03  0.50400001928E-02 0.  1.
        1   -1    0    0  501    0  0.00000000000E+00  0.00000000000E+00 -0.33639617834E+03  0.33639617838E+03  0.50400001928E-02 0. -1.
    10030    2    1    2    0    0  0.00000000000E+00  0.00000000000E+00  0.40856949803E+03  0.10813618548E+04  0.10012064853E+04 0.  0.
        5    1    3    3  502    0  0.24375871468E+03 -0.73123290717E+01  0.67644431965E+03  0.71907634415E+03  0.46999998093E+01 0.  1.
       -5    1    3    3    0  502 -0.24375871468E+03  0.73123290717E+01 -0.26787482162E+03  0.36228551061E+03  0.46999998093E+01 0. -1.
</event>
<event>
 5   0  0.3873874E-03  0.1000180E+04  0.7818609E-02  0.9308347E-01
        2   -1    0    0  501    0  0.00000000000E+00  0.00000000000E+00  0.76679727955E+03  0.76679727956E+03  0.25500000920E-02 0.  1.
       -2   -1    0    0    0  501  0.00000000000E+00  0.00000000000E+00 -0.32614891301E+03  0.32614891302E+03  0.25500000920E-02 0. -1.
    10030    2    1    2    0    0  0.00000000000E+00  0.00000000000E+00  0.44064836654E+03  0.10929461926E+04  0.10001801822E+04 0.  0.
        5    1    3    3  502    0  0.30656335012E+03 -0.20517978787E+03 -0.14861131057E+03  0.39772760102E+03  0.46999998093E+01 0. -1.
       -5    1    3    3    0  502 -0.30656335012E+03  0.20517978787E+03  0.58925967711E+03  0.69521859156E+03  0.46999998093E+01 0.  1.
</event>
<event>
 5   0  0.1548000E-03  0.1001939E+04  0.7818609E-02  0.9306420E-01
       -4   -1    0    0    0  501  0.00000000000E+00  0.00000000000E+00  0.12635422198E+03  0.12636060427E+03  0.12699999809E+01 0. -1.
        4   -1    0    0  501    0  0.00000000000E+00  0.00000000000E+00 -0.19861898018E+04  0.19861902078E+04  0.12699999809E+01 0.  1.
    10030    2    1    2    0    0  0.00000000000E+00  0.00000000000E+00 -0.18598355798E+04  0.21125508121E+04  0.10019393942E+04 0.  0.
        5    1    3    3  502    0 -0.22607150829E+03  0.29186160931E+03 -0.21597068130E+03  0.42773467364E+03  0.46999998093E+01 0. -1.
       -5    1    3    3    0  502  0.22607150829E+03 -0.29186160931E+03 -0.16438648985E+04  0.16848161385E+04  0.46999998093E+01 0.  1.
</event>
<event>
 5   0  0.1548000E-03  0.1000785E+04  0.7818609E-02  0.9307684E-01
        4   -1    0    0  501    0  0.00000000000E+00  0.00000000000E+00  0.61637630906E+03  0.61637761743E+03  0.12699999809E+01 0.  1.
       -4   -1    0    0    0  501  0.00000000000E+00  0.00000000000E+00 -0.40623108656E+03  0.40623307175E+03  0.12699999809E+01 0. -1.
    10030    2    1    2    0    0  0.00000000000E+00  0.00000000000E+00  0.21014522250E+03  0.10226106892E+04  0.10007854950E+04 0.  0.
        2    1    3    3  502    0  0.31971703186E+03 -0.26342458203E+03 -0.18172874644E+03  0.45236802293E+03  0.25500000920E-02 0. -1.
       -2    1    3    3    0  502 -0.31971703186E+03  0.26342458203E+03  0.39187396894E+03  0.57024266626E+03  0.25500000920E-02 0.  1.
</event>
<event>
 5   0  0.2378609E-03  0.1003464E+04  0.7818609E-02  0.9304754E-01
       -1   -1    0    0    0  501  0.00000000000E+00  0.00000000000E+00  0.19571081699E+03  0.19571081706E+03  0.50400001928E-02 0.  1.
        1   -1    0    0  501    0  0.00000000000E+00  0.00000000000E+00 -0.12862600133E+04  0.12862600133E+04  0.50400001928E-02 0. -1.
    10030    2    1    2    0    0  0.00000000000E+00  0.00000000000E+00 -0.10905491963E+04  0.14819708304E+04  0.10034639966E+04 0.  0.
        1    1    3    3  502    0 -0.46459206257E+03  0.15699982515E+03 -0.70185096127E+03  0.85620645966E+03  0.50400001928E-02 0. -1.
       -1    1    3    3    0  502  0.46459206257E+03 -0.15699982515E+03 -0.38869823504E+03  0.62576437071E+03  0.50400001928E-02 0.  1.
</event>
<event>
 5   0  0.2350769E-03  0.9164872E+03  0.7818609E-02  0.9405203E-01
        1   -1    0    0  501    0  0.00000000000E+00  0.00000000000E+00  0.37402203322E+03  0.37402203326E+03  0.50400001928E-02 0. -1.
       -1   -1    0    0    0  501  0.00000000000E+00  0.00000000000E+00 -0.56142995809E+03  0.56142995811E+03  0.50400001928E-02 0.  1.
    10030    2    1    2    0    0  0.00000000000E+00  0.00000000000E+00 -0.18740792487E+03  0.93545199137E+03  0.91648715095E+03 0.  0.
        2    1    3    3  502    0  0.61909199127E+02 -0.39774135286E+03 -0.31722463404E+03  0.51250600109E+03  0.25500000920E-02 0.  1.
       -2    1    3    3    0  502 -0.61909199127E+02  0.39774135286E+03  0.12981670917E+03  0.42294599028E+03  0.25500000920E-02 0. -1.
</event>
<event>
 5   0  0.4026829E-03  0.1022854E+04  0.7818609E-02  0.9283828E-01
       -2   -1    0    0    0  501  0.00000000000E+00  0.00000000000E+00  0.25578325442E+03  0.25578325444E+03  0.25500000920E-02 0.  1.
        2   -1    0    0  501    0  0.00000000000E+00  0.00000000000E+00 -0.10225744940E+04  0.10225744940E+04  0.25500000920E-02 0. -1.
    10030    2    1    2    0    0  0.00000000000E+00  0.00000000000E+00 -0.76679123953E+03  0.12783577484E+04  0.10228537177E+04 0.  0.
        1    1    3    3  502    0  0.38871186702E+03 -0.21141532294E+03 -0.70389946676E+03  0.83142517021E+03  0.50400001928E-02 0. -1.
       -1    1    3    3    0  502 -0.38871186702E+03  0.21141532294E+03 -0.62891772772E+02  0.44693257818E+03  0.50400001928E-02 0.  1.
</event>
<event>
 5   0  0.4026829E-03  0.9856255E+03  0.7818609E-02  0.9324452E-01
       -2   -1    0    0    0  501  0.00000000000E+00  0.00000000000E+00  0.18103011169E+03  0.18103011171E+03  0.25500000920E-02 0. -1.
        2   -1    0    0  501    0  0.00000000000E+00  0.00000000000E+00 -0.13415692430E+04  0.13415692430E+04  0.25500000920E-02 0.  1.
    10030    2    1    2    0    0  0.00000000000E+00  0.00000000000E+00 -0.11605391313E+04  0.15225993547E+04  0.98562554737E+03 0.  0.
        1    1    3    3  502    0  0.63423788271E+01  0.31148197097E+03  0.96016394541E+01  0.31169445859E+03  0.50400001928E-02 0. -1.
       -1    1    3    3    0  502 -0.63423788271E+01 -0.31148197097E+03 -0.11701407707E+04  0.12109048961E+04  0.50400001928E-02 0.  1.
</event>
<event>
 5   0  0.1548000E-03  0.1000972E+04  0.7818609E-02  0.9307479E-01
        3   -1    0    0  501    0  0.00000000000E+00  0.00000000000E+00  0.63926178514E+03  0.63926179312E+03  0.10100000352E+00 0. -1.
       -3   -1    0    0    0  501  0.00000000000E+00  0.00000000000E+00 -0.39183689331E+03  0.39183690632E+03  0.10100000352E+00 0.  1.
    10030    2    1    2    0    0  0.00000000000E+00  0.00000000000E+00  0.24742489184E+03  0.10310986994E+04  0.10009722528E+04 0.  0.
        2    1    3    3  502    0  0.43666101169E+03  0.15191969136E+02 -0.12772988309E+03  0.45521265151E+03  0.25500000920E-02 0.  1.
       -2    1    3    3    0  502 -0.43666101169E+03 -0.15191969136E+02  0.37515477493E+03  0.57588604794E+03  0.25500000920E-02 0. -1.
</event>
<event>
 5   0  0.2405022E-03  0.9941611E+03  0.7818609E-02  0.9314972E-01
        1   -1    0    0  501    0  0.00000000000E+00  0.00000000000E+00  0.16708755820E+04  0.16708755820E+04  0.50400001928E-02 0. -1.
       -1   -1    0    0    0  501  0.00000000000E+00  0.00000000000E+00 -0.14788000558E+03  0.14788000566E+03  0.50400001928E-02 0.  1.
    10030    2    1    2    0    0  0.00000000000E+00  0.00000000000E+00  0.15229955764E+04  0.18187555876E+04  0.99416113476E+03 0.  0.
        4    1    3    3  502    0  0.28007919425E+03 -0.40629543471E+03  0.65223361757E+03  0.81788180082E+03  0.12699999809E+01 0. -1.
       -4    1    3    3    0  502 -0.28007919425E+03  0.40629543471E+03  0.87076195882E+03  0.10008737868E+04  0.12699999809E+01 0.  1.
</event>
<event>
 5   0  0.3873874E-03  0.9986924E+03  0.7818609E-02  0.9309980E-01
        2   -1    0    0  501    0  0.00000000000E+00  0.00000000000E+00  0.17307755258E+04  0.17307755258E+04  0.25500000920E-02 0.  1.
       -2   -1    0    0    0  501  0.00000000000E+00  0.00000000000E+00 -0.14406642363E+03  0.14406642365E+03  0.25500000920E-02 0. -1.
    10030    2    1    2    0    0  0.00000000000E+00  0.00000000000E+00  0.15867091022E+04  0.18748419494E+04  0.99869242538E+03 0.  0.
        5    1    3    3  502    0  0.38257368433E+03  0.24179384397E+02  0.19268625880E+03  0.42906567201E+03  0.46999998093E+01 0. -1.
       -5    1    3    3    0  502 -0.38257368433E+03 -0.24179384397E+02  0.13940228434E+04  0.14457762774E+04  0.46999998093E+01 0.  1.
</event>
<event>
 5   0  0.2327595E-03  0.1003110E+04  0.7818609E-02  0.9305140E-01
        1   -1    0    0  501    0  0.00000000000E+00  0.00000000000E+00  0.65443581812E+03  0.65443581814E+03  0.50400001928E-02 0.  1.
       -1   -1    0    0    0  501  0.00000000000E+00  0.00000000000E+00 -0.38438847674E+03  0.38438847677E+03  0.50400001928E-02 0. -1.
    10030    2    1    2    0    0  0.00000000000E+00  0.00000000000E+00  0.27004734138E+03  0.10388242949E+04  0.10031103375E+04 0.  0.
        5    1    3    3  502    0 -0.14901828811E+02 -0.22804736740E+03 -0.32731005330E+03  0.39922628580E+03  0.46999998093E+01 0. -1.
       -5    1    3    3    0  502  0.14901828811E+02  0.22804736740E+03  0.59735739468E+03  0.63959800911E+03  0.46999998093E+01 0.  1.
</event>
<event>
 5   0  0.2350769E-03  0.9745065E+03  0.7818609E-02  0.9336956E-01
       -1   -1    0    0    0  501  0.00000000000E+00  0.00000000000E+00  0.24878012306E+03  0.24878012311E+03  0.50400001928E-02 0. -1.
        1   -1    0    0  501    0  0.00000000000E+00  0.00000000000E+00 -0.95431950063E+03  0.95431950064E+03  0.50400001928E-02 0.  1.
    10030    2    1    2    0    0  0.00000000000E+00  0.00000000000E+00 -0.70553937757E+03  0.12030996238E+04  0.97450648607E+03 0.  0.
        2    1    3    3  502    0 -0.15202231516E+02 -0.38084462292E+03 -0.72752314464E+03  0.82131824565E+03  0.25500000920E-02 0.  1.
       -2    1    3    3    0  502  0.15202231516E+02  0.38084462292E+03  0.21983767074E+02  0.38178137810E+03  0.25500000920E-02 0. -1.
</event>
<event>
 5   0  0.3873874E-03  0.9623545E+03  0.7818609E-02  0.9350826E-01
        2   -1    0    0  501    0  0.00000000000E+00  0.00000000000E+00  0.85467655450E+03  0.85467655450E+03  0.25500000920E-02 0. -1.
       -2   -1    0    0    0  501  0.00000000000E+00  0.00000000000E+00 -0.27089959648E+03  0.27089959649E+03  0.25500000920E-02 0.  1.
    10030    2    1    2    0    0  0.00000000000E+00  0.00000000000E+00  0.58377695802E+03  0.11255761510E+04  0.96235447470E+03 0.  0.
        5    1    3    3  502    0 -0.28589670448E+03  0.38415859690E+03  0.34668165299E+03  0.59120640365E+03  0.46999998093E+01 0. -1.
       -5    1    3    3    0  502  0.28589670448E+03 -0.38415859690E+03  0.23709530503E+03  0.53436974734E+03  0.46999998093E+01 0.  1.
</event>
<event>
 5   0  0.4026829E-03  0.9983297E+03  0.7818609E-02  0.9310379E-01
       -2   -1    0    0    0  501  0.00000000000E+00  0.00000000000E+00  0.55212677754E+03  0.55212677755E+03  0.25500000920E-02 0.  1.
        2   -1    0    0  501    0  0.00000000000E+00  0.00000000000E+00 -0.45128323567E+03  0.45128323567E+03  0.25500000920E-02 0. -1.
    10030    2    1    2    0    0  0.00000000000E+00  0.00000000000E+00  0.10084354188E+03  0.10034100132E+04  0.99832972244E+03 0.  0.
        1    1    3    3  502    0  0.72854964445E+01 -0.27636499975E+03  0.46815058644E+03  0.54368710042E+03  0.50400001928E-02 0.  1.
       -1    1    3    3    0  502 -0.72854964445E+01  0.27636499975E+03 -0.36730704457E+03  0.45972291281E+03  0.50400001928E-02 0. -1.
</event>
<event>
 5   0  0.2350769E-03  0.9989859E+03  0.7818609E-02  0.9309658E-01
       -1   -1    0    0    0  501  0.00000000000E+00  0.00000000000E+00  0.39779521011E+03  0.39779521014E+03  0.50400001928E-02 0. -1.
        1   -1    0    0  501    0  0.00000000000E+00  0.00000000000E+00 -0.62719012430E+03  0.62719012432E+03  0.50400001928E-02 0.  1.
    10030    2    1    2    0    0  0.00000000000E+00  0.00000000000E+00 -0.22939491420E+03  0.10249853345E+04  0.99898594044E+03 0.  0.
        2    1    3    3  502    0 -0.26843374248E+03  0.26999965209E+03 -0.44643357178E+03  0.58673624419E+03  0.25500000920E-02 0.  1.
       -2    1    3    3    0  502  0.26843374248E+03 -0.26999965209E+03  0.21703865758E+03  0.43824909027E+03  0.25500000920E-02 0. -1.
</event>
<event>
 5   0  0.2327595E-03  0.1003769E+04  0.7818609E-02  0.9304420E-01
        1   -1    0    0  501    0  0.00000000000E+00  0.00000000000E+00  0.52203415792E+03  0.52203415795E+03  0.50400001928E-02 0.  1.
       -1   -1    0    0    0  501  0.00000000000E+00  0.00000000000E+00 -0.48251281439E+03  0.48251281442E+03  0.50400001928E-02 0. -1.
    10030    2    1    2    0    0  0.00000000000E+00  0.00000000000E+00  0.39521343528E+02  0.10045469724E+04  0.10037692380E+04 0.  0.
        5    1    3    3  502    0  0.40156934421E+03 -0.10790692486E+03  0.30098416070E+03  0.51333750849E+03  0.46999998093E+01 0.  1.
       -5    1    3    3    0  502 -0.40156934421E+03  0.10790692486E+03 -0.26146281717E+03  0.49120946387E+03  0.46999998093E+01 0. -1.
</event>
<event>
 5   0  0.2313036E-03  0.9992324E+03  0.7818609E-02  0.9309387E-01
        1   -1    0    0  501    0  0.00000000000E+00  0.00000000000E+00  0.44045334002E+03  0.44045334005E+03  0.50400001928E-02 0. -1.
       -1   -1    0    0    0  501  0.00000000000E+00  0.00000000000E+00 -0.56672601917E+03  0.56672601919E+03  0.50400001928E-02 0.  1.
    10030    2    1    2    0    0  0.00000000000E+00  0.00000000000E+00 -0.12627267915E+03  0.10071793592E+04  0.99923244151E+03 0.  0.
        3    1    3    3  502    0  0.41145678376E+03 -0.15235969480E+03  0.17773321439E+03  0.47339124115E+03  0.10100000352E+00 0. -1.
       -3    1    3    3    0  502 -0.41145678376E+03  0.15235969480E+03 -0.30400589354E+03  0.53378811808E+03  0.10100000352E+00 0.  1.
</event>
<event>
 5   0  0.2313036E-03  0.9995820E+03  0.7818609E-02  0.9309003E-01
       -1   -1    0    0    0  501  0.00000000000E+00  0.00000000000E+00  0.46854175623E+03  0.46854175626E+03  0.50400001928E-02 0. -1.
        1   -1    0    0  501    0  0.00000000000E+00  0.00000000000E+00 -0.53312443895E+03  0.53312443898E+03  0.50400001928E-02 0.  1.
    10030    2    1    2    0    0  0.00000000000E+00  0.00000000000E+00 -0.64582682722E+02  0.10016661952E+04  0.99958203453E+03 0.  0.
        3    1    3    3  502    0  0.22907065211E+03 -0.99860771363E+02 -0.46602809416E+03  0.52879838508E+03  0.10100000352E+00 0.  1.
       -3    1    3    3    0  502 -0.22907065211E+03  0.99860771363E+02  0.40144541143E+03  0.47286781015E+03  0.10100000352E+00 0. -1.
</event>
<event>
 5   0  0.2327595E-03  0.9850771E+03  0.7818609E-02  0.9325065E-01
       -1   -1    0    0    0  501  0.00000000000E+00  0.00000000000E+00  0.24256747679E+03  0.24256747684E+03  0.50400001928E-02 0. -1.
        1   -1    0    0  501    0  0.00000000000E+00  0.00000000000E+00 -0.10001102239E+04  0.10001102239E+04  0.50400001928E-02 0.  1.
    10030    2    1    2    0    0  0.00000000000E+00  0.00000000000E+00 -0.75754274707E+03  0.12426777007E+04  0.98507708034E+03 0.  0.
        5    1    3    3  502    0 -0.25694047335E+03 -0.38362239957E+03 -0.59502835576E+03  0.75317022409E+03  0.46999998093E+01 0.  1.
       -5    1    3    3    0  502  0.25694047335E+03  0.38362239957E+03 -0.16251439131E+03  0.48950747663E+03  0.46999998093E+01 0. -1.
</event>
<event>
 5   0  0.2405022E-03  0.9798907E+03  0.7818609E-02  0.9330879E-01
       -1   -1    0    0    0  501  0.00000000000E+00  0.00000000000E+00  0.22326411655E+03  0.22326411661E+03  0.50400001928E-02 0.  1.
        1   -1    0    0  501    0  0.00000000000E+00  0.00000000000E+00 -0.10751680873E+04  0.10751680873E+04  0.50400001928E-02 0. -1.
    10030    2    1    2    0    0  0.00000000000E+00  0.00000000000E+00 -0.85190397073E+03  0.12984322039E+04  0.97989071472E+03 0.  0.
        4    1    3    3  502    0 -0.72881220154E+02 -0.39259071528E+03 -0.80215693782E+03  0.89604492508E+03  0.12699999809E+01 0. -1.
       -4    1    3    3    0  502  0.72881220154E+02  0.39259071528E+03 -0.49747032910E+02  0.40238727882E+03  0.12699999809E+01 0.  1.
</event>
<event>
 5   0  0.2327595E-03  0.9962749E+03  0.7818609E-02  0.9312640E-01
       -1   -1    0    0    0  501  0.00000000000E+00  0.00000000000E+00  0.44484147623E+03  0.44484147626E+03  0.50400001928E-02 0. -1.
        1   -1    0    0  501    0  0.00000000000E+00  0.00000000000E+00 -0.55781872160E+03  0.55781872162E+03  0.50400001928E-02 0.  1.
    10030    2    1    2    0    0  0.00000000000E+00  0.00000000000E+00 -0.11297724537E+03  0.10026601979E+04  0.99627486892E+03 0.  0.
        5    1    3    3  502    0 -0.42764302831E+03 -0.15081803997E+03 -0.26395097106E+03  0.52470643789E+03  0.46999998093E+01 0.  1.
       -5    1    3    3    0  502  0.42764302831E+03  0.15081803997E+03  0.15097372569E+03  0.47795375999E+03  0.46999998093E+01 0. -1.
</event>
<event>
 5   0  0.3826483E-03  0.9887722E+03  0.7818609E-02  0.9320946E-01
       -2   -1    0    0    0  501  0.00000000000E+00  0.00000000000E+00  0.25169036969E+03  0.25169036971E+03  0.25500000920E-02 0. -1.
        2   -1    0    0  501    0  0.00000000000E+00  0.00000000000E+00 -0.97110428142E+03  0.97110428143E+03  0.25500000920E-02 0.  1.
    10030    2    1    2    0    0  0.00000000000E+00  0.00000000000E+00 -0.71941391173E+03  0.12227946511E+04  0.98877215902E+03 0.  0.
        4    1    3    3  502    0  0.14958299500E+03  0.46975285976E+03 -0.31388031312E+03  0.58443586946E+03  0.12699999809E+01 0.  1.
       -4    1    3    3    0  502 -0.14958299500E+03 -0.46975285976E+03 -0.40553359861E+03  0.63835878168E+03  0.12699999809E+01 0. -1.
</event>
<event>
 5   0  0.2313036E-03  0.1000402E+04  0.7818609E-02  0.9308104E-01
       -1   -1    0    0    0  501  0.00000000000E+00  0.00000000000E+00  0.16847873276E+03  0.16847873283E+03  0.50400001928E-02 0. -1.
        1   -1    0    0  501    0  0.00000000000E+00  0.00000000000E+00 -0.14850591052E+04  0.14850591052E+04  0.50400001928E-02 0.  1.
    10030    2    1    2    0    0  0.00000000000E+00  0.00000000000E+00 -0.13165803724E+04  0.16535378380E+04  0.10004016717E+04 0.  0.
        3    1    3    3  502    0  0.11983259624E+03 -0.22799015705E+03 -0.13670272283E+04  0.13910797303E+04  0.10100000352E+00 0.  1.
       -3    1    3    3    0  502 -0.11983259624E+03  0.22799015705E+03  0.50446855920E+02  0.26245810772E+03  0.10100000352E+00 0. -1.
</event>
<event>
 5   0  0.4140860E-03  0.1000035E+04  0.7818609E-02  0.9308506E-01
        2   -1    0    0  501    0  0.00000000000E+00  0.00000000000E+00  0.10802296798E+04  0.10802296798E+04  0.25500000920E-02 0. -1.
       -2   -1    0    0    0  501  0.00000000000E+00  0.00000000000E+00 -0.23144866277E+03  0.23144866278E+03  0.25500000920E-02 0.  1.
    10030    2    1    2    0    0  0.00000000000E+00  0.00000000000E+00  0.84878101702E+03  0.13116783426E+04  0.10000354291E+04 0.  0.
        3    1    3    3  502    0 -0.17905961757E+03 -0.43315247421E+03  0.19594696199E+03  0.50801440400E+03  0.10100000352E+00 0.  1.
       -3    1    3    3    0  502  0.17905961757E+03  0.43315247421E+03  0.65283405503E+03  0.80366393857E+03  0.10100000352E+00 0. -1.
</event>
<event>
 5   0  0.4140860E-03  0.1007186E+04  0.7818609E-02  0.9300699E-01
       -2   -1    0    0    0  501  0.00000000000E+00  0.00000000000E+00  0.24317379109E+03  0.24317379111E+03  0.25500000920E-02 0.  1.
        2   -1    0    0  501    0  0.00000000000E+00  0.00000000000E+00 -0.10428989100E+04  0.10428989100E+04  0.25500000920E-02 0. -1.
    10030    2    1    2    0    0  0.00000000000E+00  0.00000000000E+00 -0.79972511890E+03  0.12860727011E+04  0.10071855473E+04 0.  0.
        3    1    3    3  502    0 -0.27894961239E+03  0.41212771468E+03 -0.30142103333E+03  0.58182195644E+03  0.10100000352E+00 0.  1.
       -3    1    3    3    0  502  0.27894961239E+03 -0.41212771468E+03 -0.49830408557E+03  0.70425074466E+03  0.10100000352E+00 0. -1.
</event>
<event>
 5   0  0.1548000E-03  0.1002902E+04  0.7818609E-02  0.9305367E-01
        4   -1    0    0  501    0  0.00000000000E+00  0.00000000000E+00  0.38296687060E+03  0.38296897639E+03  0.12699999809E+01 0. -1.
       -4   -1    0    0    0  501  0.00000000000E+00  0.00000000000E+00 -0.65658835403E+03  0.65658958227E+03  0.12699999809E+01 0.  1.
    10030    2    1    2    0    0  0.00000000000E+00  0.00000000000E+00 -0.27362148343E+03  0.10395585587E+04  0.10029024283E+04 0.  0.
        4    1    3    3  502    0  0.48589024763E+03  0.11428977726E+03 -0.18652432758E+03  0.53286435761E+03  0.12699999809E+01 0. -1.
       -4    1    3    3    0  502 -0.48589024763E+03 -0.11428977726E+03 -0.87097155853E+02  0.50669420106E+03  0.12699999809E+01 0.  1.
</event>
<event>
 5   0  0.3873874E-03  0.1008129E+04  0.7818609E-02  0.9299673E-01
       -2   -1    0    0    0  501  0.00000000000E+00  0.00000000000E+00  0.61223844944E+03  0.61223844944E+03  0.25500000920E-02 0.  1.
        2   -1    0    0  501    0  0.00000000000E+00  0.00000000000E+00 -0.41500374169E+03  0.41500374170E+03  0.25500000920E-02 0. -1.
    10030    2    1    2    0    0  0.00000000000E+00  0.00000000000E+00  0.19723470775E+03  0.10272421911E+04  0.10081294507E+04 0.  0.
        5    1    3    3  502    0  0.26683112871E+03 -0.84575664599E+02 -0.32850411700E+03  0.43161202390E+03  0.46999998093E+01 0. -1.
       -5    1    3    3    0  502 -0.26683112871E+03  0.84575664599E+02  0.52573882474E+03  0.59563016724E+03  0.46999998093E+01 0.  1.
</event>
<event>
 5   0  0.2327595E-03  0.9971997E+03  0.7818609E-02  0.9311621E-01
        1   -1    0    0  501    0  0.00000000000E+00  0.00000000000E+00  0.37486782593E+03  0.37486782596E+03  0.50400001928E-02 0.  1.
       -1   -1    0    0    0  501  0.00000000000E+00  0.00000000000E+00 -0.66317192607E+03  0.66317192609E+03  0.50400001928E-02 0. -1.
    10030    2    1    2    0    0  0.00000000000E+00  0.00000000000E+00 -0.28830410015E+03  0.10380397521E+04  0.99719971554E+03 0.  0.
        5    1    3    3  502    0 -0.11585127922E+03 -0.22448082241E+03 -0.59160104535E+03  0.64329390281E+03  0.46999998093E+01 0. -1.
       -5    1    3    3    0  502  0.11585127922E+03  0.22448082241E+03  0.30329694521E+03  0.39474584925E+03  0.46999998093E+01 0.  1.
</event>
<event>
 5   0  0.2350769E-03  0.9679060E+03  0.7818609E-02  0.9344463E-01
       -1   -1    0    0    0  501  0.00000000000E+00  0.00000000000E+00  0.34934456738E+03  0.34934456742E+03  0.50400001928E-02 0.  1.
        1   -1    0    0  501    0  0.00000000000E+00  0.00000000000E+00 -0.67042830470E+03  0.67042830472E+03  0.50400001928E-02 0. -1.
    10030    2    1    2    0    0  0.00000000000E+00  0.00000000000E+00 -0.32108373732E+03  0.10197728721E+04  0.96790595843E+03 0.  0.
        2    1    3    3  502    0  0.13539527465E+03 -0.45689411704E+03 -0.24948338325E+03  0.53789039135E+03  0.25500000920E-02 0. -1.
       -2    1    3    3    0  502 -0.13539527465E+03  0.45689411704E+03 -0.71600354073E+02  0.48188248079E+03  0.25500000920E-02 0.  1.
</event>
<event>
 5   0  0.3873874E-03  0.9978352E+03  0.7818609E-02  0.9310922E-01
       -2   -1    0    0    0  501  0.00000000000E+00  0.00000000000E+00  0.99689266047E+02  0.99689266080E+02  0.25500000920E-02 0. -1.
        2   -1    0    0  501    0  0.00000000000E+00  0.00000000000E+00 -0.24969466900E+04  0.24969466900E+04  0.25500000920E-02 0.  1.
    10030    2    1    2    0    0  0.00000000000E+00  0.00000000000E+00 -0.23972574239E+04  0.25966359561E+04  0.99783522272E+03 0.  0.
        5    1    3    3  502    0  0.97134859655E+02 -0.26904449833E+03 -0.22623063076E+04  0.22803227934E+04  0.46999998093E+01 0.  1.
       -5    1    3    3    0  502 -0.97134859655E+02  0.26904449833E+03 -0.13495111637E+03  0.31631316262E+03  0.46999998093E+01 0. -1.
</event>
<event>
 5   0  0.4026829E-03  0.9974984E+03  0.7818609E-02  0.9311293E-01
       -2   -1    0    0    0  501  0.00000000000E+00  0.00000000000E+00  0.37101649824E+03  0.37101649825E+03  0.25500000920E-02 0.  1.
        2   -1    0    0  501    0  0.00000000000E+00  0.00000000000E+00 -0.67045738003E+03  0.67045738003E+03  0.25500000920E-02 0. -1.
    10030    2    1    2    0    0  0.00000000000E+00  0.00000000000E+00 -0.29944088179E+03  0.10414738783E+04  0.99749836965E+03 0.  0.
        1    1    3    3  502    0  0.40180060437E+03  0.52664142744E+02 -0.45328470361E+03  0.60801666108E+03  0.50400001928E-02 0. -1.
       -1    1    3    3    0  502 -0.40180060437E+03 -0.52664142744E+02  0.15384382182E+03  0.43345721720E+03  0.50400001928E-02 0.  1.
</event>
<event>
 5   0  0.2350769E-03  0.9917664E+03  0.7818609E-02  0.9317622E-01
        1   -1    0    0  501    0  0.00000000000E+00  0.00000000000E+00  0.74960521969E+03  0.74960521971E+03  0.50400001928E-02 0. -1.
       -1   -1    0    0    0  501  0.00000000000E+00  0.00000000000E+00 -0.32803952102E+03  0.32803952106E+03  0.50400001928E-02 0.  1.
    10030    2    1    2    0    0  0.00000000000E+00  0.00000000000E+00  0.42156569867E+03  0.10776447408E+04  0.99176637824E+03 0.  0.
        2    1    3    3  502    0 -0.21701868568E+03  0.29331245716E+03 -0.15410938483E+03  0.39607955003E+03  0.25500000920E-02 0.  1.
       -2    1    3    3    0  502  0.21701868568E+03 -0.29331245716E+03  0.57567508350E+03  0.68156519073E+03  0.25500000920E-02 0. -1.
</event>
<event>
 5   0  0.4026829E-03  0.9989363E+03  0.7818609E-02  0.9309712E-01
        2   -1    0    0  501    0  0.00000000000E+00  0.00000000000E+00  0.15563769435E+04  0.15563769435E+04  0.25500000920E-02 0. -1.
       -2   -1    0    0    0  501  0.00000000000E+00  0.00000000000E+00 -0.16028793035E+03  0.16028793037E+03  0.25500000920E-02 0.  1.
    10030    2    1    2    0    0  0.00000000000E+00  0.00000000000E+00  0.13960890131E+04  0.17166648739E+04  0.99893631256E+03 0.  0.
        1    1    3    3  502    0 -0.31580011186E+03 -0.31213103924E+03  0.10910985750E+04  0.11779862464E+04  0.50400001928E-02 0. -1.
       -1    1    3    3    0  502  0.31580011186E+03  0.31213103924E+03  0.30499043813E+03  0.53867862746E+03  0.50400001928E-02 0.  1.
</event>
<event>
 5   0  0.2405022E-03  0.9888414E+03  0.7818609E-02  0.9320869E-01
       -1   -1    0    0    0  501  0.00000000000E+00  0.00000000000E+00  0.57527447478E+03  0.57527447480E+03  0.50400001928E-02 0.  1.
        1   -1    0    0  501    0  0.00000000000E+00  0.00000000000E+00 -0.42493073341E+03  0.42493073344E+03  0.50400001928E-02 0. -1.
    10030    2    1    2    0    0  0.00000000000E+00  0.00000000000E+00  0.15034374137E+03  0.10002052082E+04  0.98884135129E+03 0.  0.
        4    1    3    3  502    0 -0.26792702248E+03 -0.26237008441E+03 -0.25075348576E+03  0.45111181994E+03  0.12699999809E+01 0. -1.
       -4    1    3    3    0  502  0.26792702248E+03  0.26237008441E+03  0.40109722713E+03  0.54909338830E+03  0.12699999809E+01 0.  1.
</event>
<event>
 5   0  0.1548000E-03  0.9975940E+03  0.7818609E-02  0.9311188E-01
        3   -1    0    0  501    0  0.00000000000E+00  0.00000000000E+00  0.10870901215E+04  0.10870901262E+04  0.10100000352E+00 0.  1.
       -3   -1    0    0    0  501  0.00000000000E+00  0.00000000000E+00 -0.22886640388E+03  0.22886642617E+03  0.10100000352E+00 0. -1.
    10030    2    1    2    0    0  0.00000000000E+00  0.00000000000E+00  0.85822371761E+03  0.13159565524E+04  0.99759395458E+03 0.  0.
        5    1    3    3  502    0  0.48314436910E+02  0.45413067164E+03  0.16460274247E+03  0.48547410288E+03  0.46999998093E+01 0.  1.
       -5    1    3    3    0  502 -0.48314436910E+02 -0.45413067164E+03  0.69362097514E+03  0.83048244947E+03  0.46999998093E+01 0. -1.
</event>
<event>
 5   0  0.4140860E-03  0.1005332E+04  0.7818609E-02  0.9302716E-01
        2   -1    0    0  501    0  0.00000000000E+00  0.00000000000E+00  0.77041323120E+03  0.77041323121E+03  0.25500000920E-02 0. -1.
       -2   -1    0    0    0  501  0.00000000000E+00  0.00000000000E+00 -0.32797097727E+03  0.32797097728E+03  0.25500000920E-02 0.  1.
    10030    2    1    2    0    0  0.00000000000E+00  0.00000000000E+00  0.44244225393E+03  0.10983842085E+04  0.10053321448E+04 0.  0.
        3    1    3    3  502    0 -0.54567173092E+02  0.38931197988E+03  0.56347592169E+03  0.68705641586E+03  0.10100000352E+00 0. -1.
       -3    1    3    3    0  502  0.54567173092E+02 -0.38931197988E+03 -0.12103366776E+03  0.41132779263E+03  0.10100000352E+00 0.  1.
</event>
<event>
 5   0  0.2405022E-03  0.1004676E+04  0.7818609E-02  0.9303431E-01
       -1   -1    0    0    0  501  0.00000000000E+00  0.00000000000E+00  0.12628323649E+03  0.12628323659E+03  0.50400001928E-02 0. -1.
        1   -1    0    0  501    0  0.00000000000E+00  0.00000000000E+00 -0.19982356180E+04  0.19982356180E+04  0.50400001928E-02 0.  1.
    10030    2    1    2    0    0  0.00000000000E+00  0.00000000000E+00 -0.18719523815E+04  0.21245188546E+04  0.10046763881E+04 0.  0.
        4    1    3    3  502    0  0.16421801122E+03  0.47429302485E+03 -0.97934516906E+03  0.11004726265E+04  0.12699999809E+01 0. -1.
       -4    1    3    3    0  502 -0.16421801122E+03 -0.47429302485E+03 -0.89260721241E+03  0.10240462280E+04  0.12699999809E+01 0.  1.
</event>
<event>
 5   0  0.4140860E-03  0.9992103E+03  0.7818609E-02  0.9309411E-01
       -2   -1    0    0    0  501  0.00000000000E+00  0.00000000000E+00  0.76294943395E+03  0.76294943396E+03  0.25500000920E-02 0. -1.
        2   -1    0    0  501    0  0.00000000000E+00  0.00000000000E+00 -0.32715838805E+03  0.32715838806E+03  0.25500000920E-02 0.  1.
    10030    2    1    2    0    0  0.00000000000E+00  0.00000000000E+00  0.43579104591E+03  0.10901078220E+04  0.99921030215E+03 0.  0.
        3    1    3    3  502    0  0.22911051408E+03 -0.44384936155E+03  0.22941098081E+03  0.54965743125E+03  0.10100000352E+00 0.  1.
       -3    1    3    3    0  502 -0.22911051408E+03  0.44384936155E+03  0.20638006510E+03  0.54045039077E+03  0.10100000352E+00 0. -1.
</event>
<event>
 5   0  0.3826483E-03  0.9968871E+03  0.7818609E-02  0.9311966E-01
        2   -1    0    0  501    0  0.00000000000E+00  0.00000000000E+00  0.97909995530E+03  0.97909995530E+03  0.25500000920E-02 0. -1.
       -2   -1    0    0    0  501  0.00000000000E+00  0.00000000000E+00 -0.25374935500E+03  0.25374935501E+03  0.25500000920E-02 0.  1.
    10030    2    1    2    0    0  0.00000000000E+00  0.00000000000E+00  0.72535060030E+03  0.12328493103E+04  0.99688711927E+03 0.  0.
        4    1    3    3  502    0 -0.58897268314E+02  0.18377898622E+03 -0.20566932307E+03  0.28203738643E+03  0.12699999809E+01 0.  1.
       -4    1    3    3    0  502  0.58897268314E+02 -0.18377898622E+03  0.93101992337E+03  0.95081192388E+03  0.12699999809E+01 0. -1.
</event>
<event>
 5   0  0.3895011E-03  0.9951259E+03  0.7818609E-02  0.9313907E-01
       -2   -1    0    0    0  501  0.00000000000E+00  0.00000000000E+00  0.10482957494E+03  0.10482957497E+03  0.25500000920E-02 0. -1.
        2   -1    0    0  501    0  0.00000000000E+00  0.00000000000E+00 -0.23616322542E+04  0.23616322542E+04  0.25500000920E-02 0.  1.
    10030    2    1    2    0    0  0.00000000000E+00  0.00000000000E+00 -0.22568026793E+04  0.24664618292E+04  0.99512593257E+03 0.  0.
        2    1    3    3  502    0 -0.42242838621E+03 -0.21406137661E+03 -0.75006102668E+03  0.88705104598E+03  0.25500000920E-02 0. -1.
       -2    1    3    3    0  502  0.42242838621E+03  0.21406137661E+03 -0.15067416526E+04  0.15794107832E+04  0.25500000920E-02 0.  1.
</event>
<event>
 5   0  0.3895011E-03  0.1070569E+04  0.7818609E-02  0.9234362E-01
       -2   -1    0    0    0  501  0.00000000000E+00  0.00000000000E+00  0.23866581002E+03  0.23866581003E+03  0.25500000920E-02 0. -1.
        2   -1    0    0  501    0  0.00000000000E+00  0.00000000000E+00 -0.12005461102E+04  0.12005461102E+04  0.25500000920E-02 0.  1.
    10030    2    1    2    0    0  0.00000000000E+00  0.00000000000E+00 -0.96188030020E+03  0.14392119203E+04  0.10705686524E+04 0.  0.
        2    1    3    3  502    0  0.17831003929E+03 -0.36513287708E+03 -0.94936777740E+03  0.10326740361E+04  0.25500000920E-02 0.  1.
       -2    1    3    3    0  502 -0.17831003929E+03  0.36513287708E+03 -0.12512522800E+02  0.40653788417E+03  0.25500000920E-02 0. -1.
</event>
<event>
 5   0  0.2350769E-03  0.1004766E+04  0.7818609E-02  0.9303333E-01
       -1   -1    0    0    0  501  0.00000000000E+00  0.00000000000E+00  0.14604596995E+03  0.14604597003E+03  0.50400001928E-02 0.  1.
        1   -1    0    0  501    0  0.00000000000E+00  0.00000000000E+00 -0.17281438291E+04  0.17281438291E+04  0.50400001928E-02 0. -1.
    10030    2    1    2    0    0  0.00000000000E+00  0.00000000000E+00 -0.15820978592E+04  0.18741897992E+04  0.10047655285E+04 0.  0.
        2    1    3    3  502    0  0.47384340969E+03 -0.10303181863E+03 -0.54609504201E+03  0.73031700478E+03  0.25500000920E-02 0.  1.
       -2    1    3    3    0  502 -0.47384340969E+03  0.10303181863E+03 -0.10360028172E+04  0.11438727944E+04  0.25500000920E-02 0. -1.
</event>
<event>
 5   0  0.3895011E-03  0.9993979E+03  0.7818609E-02  0.9309205E-01
       -2   -1    0    0    0  501  0.00000000000E+00  0.00000000000E+00  0.48843160505E+03  0.48843160505E+03  0.25500000920E-02 0. -1.
        2   -1    0    0  501    0  0.00000000000E+00  0.00000000000E+00 -0.51122619146E+03  0.51122619146E+03  0.25500000920E-02 0.  1.
    10030    2    1    2    0    0  0.00000000000E+00  0.00000000000E+00 -0.22794586411E+02  0.99965779652E+03  0.99939787721E+03 0.  0.
        2    1    3    3  502    0  0.31970036783E+03  0.32755948323E+03  0.18914297573E+03  0.49525610094E+03  0.25500000920E-02 0. -1.
       -2    1    3    3    0  502 -0.31970036783E+03 -0.32755948323E+03 -0.21193756214E+03  0.50440169557E+03  0.25500000920E-02 0.  1.
</event>
<event>
 5   0  0.3873874E-03  0.9995944E+03  0.7818609E-02  0.9308990E-01
        2   -1    0    0  501    0  0.00000000000E+00  0.00000000000E+00  0.67752216412E+03  0.67752216413E+03  0.25500000920E-02 0.  1.
       -2   -1    0    0    0  501  0.00000000000E+00  0.00000000000E+00 -0.36869233972E+03  0.36869233972E+03  0.25500000920E-02 0. -1.
    10030    2    1    2    0    0  0.00000000000E+00  0.00000000000E+00  0.30882982441E+03  0.10462145039E+04  0.99959438155E+03 0.  0.
        5    1    3    3  502    0 -0.17874125463E+03  0.44019264233E+03  0.31675245157E+03  0.57102732338E+03  0.46999998093E+01 0.  1.
       -5    1    3    3    0  502  0.17874125463E+03 -0.44019264233E+03 -0.79226271663E+01  0.47518718048E+03  0.46999998093E+01 0. -1.
</event>
<event>
 5   0  0.3873874E-03  0.1006215E+04  0.7818609E-02  0.9301754E-01
       -2   -1    0    0    0  501  0.00000000000E+00  0.00000000000E+00  0.12451885854E+03  0.12451885857E+03  0.25500000920E-02 0.  1.
        2   -1    0    0  501    0  0.00000000000E+00  0.00000000000E+00 -0.20327620864E+04  0.20327620864E+04  0.25500000920E-02 0. -1.
    10030    2    1    2    0    0  0.00000000000E+00  0.00000000000E+00 -0.19082432279E+04  0.21572809450E+04  0.10062151156E+04 0.  0.
        5    1    3    3  502    0 -0.49536589912E+03  0.40674695424E+01 -0.11421455343E+04  0.12449588064E+04  0.46999998093E+01 0. -1.
       -5    1    3    3    0  502  0.49536589912E+03 -0.40674695424E+01 -0.76609769363E+03  0.91232213856E+03  0.46999998093E+01 0.  1.
</event>
<event>
 5   0  0.4140860E-03  0.1021901E+04  0.7818609E-02  0.9284845E-01
        2   -1    0    0  501    0  0.00000000000E+00  0.00000000000E+00  0.70147554874E+03  0.70147554874E+03  0.25500000920E-02 0.  1.
       -2   -1    0    0    0  501  0.00000000000E+00  0.00000000000E+00 -0.37217314357E+03  0.37217314358E+03  0.25500000920E-02 0. -1.
    10030    2    1    2    0    0  0.00000000000E+00  0.00000000000E+00  0.32930240517E+03  0.10736486923E+04  0.10219008956E+04 0.  0.
        3    1    3    3  502    0  0.45810025599E+02  0.21932321671E+03 -0.31780723998E+03  0.38884789291E+03  0.10100000352E+00 0. -1.
       -3    1    3    3    0  502 -0.45810025599E+02 -0.21932321671E+03  0.64710964515E+03  0.68480079942E+03  0.10100000352E+00 0.  1.
</event>
<event>
 5   0  0.2327595E-03  0.1016394E+04  0.7818609E-02  0.9290744E-01
       -1   -1    0    0    0  501  0.00000000000E+00  0.00000000000E+00  0.22949401698E+03  0.22949401703E+03  0.50400001928E-02 0.  1.
        1   -1    0    0  501    0  0.00000000000E+00  0.00000000000E+00 -0.11253645645E+04  0.11253645646E+04  0.50400001928E-02 0. -1.
    10030    2    1    2    0    0  0.00000000000E+00  0.00000000000E+00 -0.89587054756E+03  0.13548585816E+04  0.10163944796E+04 0.  0.
        5    1    3    3  502    0 -0.49633681181E+03 -0.98359681568E+02 -0.51070672826E+03  0.71893553953E+03  0.46999998093E+01 0. -1.
       -5    1    3    3    0  502  0.49633681181E+03  0.98359681568E+02 -0.38516381930E+03  0.63592304205E+03  0.46999998093E+01 0.  1.
</event>
<event>
 5   0  0.2378609E-03  0.1003179E+04  0.7818609E-02  0.9305065E-01
       -1   -1    0    0    0  501  0.00000000000E+00  0.00000000000E+00  0.19146259771E+03  0.19146259778E+03  0.50400001928E-02 0. -1.
        1   -1    0    0  501    0  0.00000000000E+00  0.00000000000E+00 -0.13140538625E+04  0.13140538625E+04  0.50400001928E-02 0.  1.
    10030    2    1    2    0    0  0.00000000000E+00  0.00000000000E+00 -0.11225912648E+04  0.15055164603E+04  0.10031792783E+04 0.  0.
        1    1    3    3  502    0  0.18182595930E+03 -0.36935276820E+03 -0.13125941584E+03  0.43210089230E+03  0.50400001928E-02 0. -1.
       -1    1    3    3    0  502 -0.18182595930E+03  0.36935276820E+03 -0.99133184893E+03  0.10734155680E+04  0.50400001928E-02 0.  1.
</event>
<event>
 5   0  0.4140860E-03  0.9954972E+03  0.7818609E-02  0.9313497E-01
       -2   -1    0    0    0  501  0.00000000000E+00  0.00000000000E+00  0.28085164492E+03  0.28085164493E+03  0.25500000920E-02 0.  1.
        2   -1    0    0  501    0  0.00000000000E+00  0.00000000000E+00 -0.88215139696E+03  0.88215139696E+03  0.25500000920E-02 0. -1.
    10030    2    1    2    0    0  0.00000000000E+00  0.00000000000E+00 -0.60129975204E+03  0.11630030419E+04  0.99549720425E+03 0.  0.
        3    1    3    3  502    0  0.44193521415E+03 -0.16688731222E+03 -0.11743147236E+03  0.48677332445E+03  0.10100000352E+00 0.  1.
       -3    1    3    3    0  502 -0.44193521415E+03  0.16688731222E+03 -0.48386827967E+03  0.67622971745E+03  0.10100000352E+00 0. -1.
</event>
<event>
 5   0  0.1548000E-03  0.1018886E+04  0.7818609E-02  0.9288070E-01
       -4   -1    0    0    0  501  0.00000000000E+00  0.00000000000E+00  0.45385995654E+03  0.45386173340E+03  0.12699999809E+01 0.  1.
        4   -1    0    0  501    0  0.00000000000E+00  0.00000000000E+00 -0.57182994644E+03  0.57183135673E+03  0.12699999809E+01 0. -1.
    10030    2    1    2    0    0  0.00000000000E+00  0.00000000000E+00 -0.11796998990E+03  0.10256930901E+04  0.10188863512E+04 0.  0.
        1    1    3    3  502    0  0.93875298399E+02  0.33228123019E+03 -0.43606576943E+03  0.55621645326E+03  0.50400001928E-02 0. -1.
       -1    1    3    3    0  502 -0.93875298399E+02 -0.33228123019E+03  0.31809577953E+03  0.46947663687E+03  0.50400001928E-02 0.  1.
</event>
<event>
 5   0  0.3826483E-03  0.9998217E+03  0.7818609E-02  0.9308740E-01
        2   -1    0    0  501    0  0.00000000000E+00  0.00000000000E+00  0.45200182947E+03  0.45200182948E+03  0.25500000920E-02 0. -1.
       -2   -1    0    0    0  501  0.00000000000E+00  0.00000000000E+00 -0.55289792882E+03  0.55289792883E+03  0.25500000920E-02 0.  1.
    10030    2    1    2    0    0  0.00000000000E+00  0.00000000000E+00 -0.10089609935E+03  0.10048997583E+04  0.99982173481E+03 0.  0.
        4    1    3    3  502    0  0.15568405357E+03  0.29831353062E+03 -0.42202937992E+03  0.53975818429E+03  0.12699999809E+01 0.  1.
       -4    1    3    3    0  502 -0.15568405357E+03 -0.29831353062E+03  0.32113328058E+03  0.46514157402E+03  0.12699999809E+01 0. -1.
</event>
<event>
 5   0  0.1548000E-03  0.9912580E+03  0.7818609E-02  0.9318185E-01
       -3   -1    0    0    0  501  0.00000000000E+00  0.00000000000E+00  0.36942575355E+03  0.36942576736E+03  0.10100000352E+00 0.  1.
        3   -1    0    0  501    0  0.00000000000E+00  0.00000000000E+00 -0.66494582391E+03  0.66494583158E+03  0.10100000352E+00 0. -1.
    10030    2    1    2    0    0  0.00000000000E+00  0.00000000000E+00 -0.29552007036E+03  0.10343715989E+04  0.99125803538E+03 0.  0.
        1    1    3    3  502    0 -0.14096772990E+03  0.18633933773E+03 -0.60386814074E+03  0.64749593132E+03  0.50400001928E-02 0. -1.
       -1    1    3    3    0  502  0.14096772990E+03 -0.18633933773E+03  0.30834807038E+03  0.38687566761E+03  0.50400001928E-02 0.  1.
</event>
<event>
 5   0  0.2405022E-03  0.9959393E+03  0.7818609E-02  0.9313010E-01
        1   -1    0    0  501    0  0.00000000000E+00  0.00000000000E+00  0.50455988693E+03  0.50455988696E+03  0.50400001928E-02 0.  1.
       -1   -1    0    0    0  501  0.00000000000E+00  0.00000000000E+00 -0.49146550178E+03  0.49146550180E+03  0.50400001928E-02 0. -1.
    10030    2    1    2    0    0  0.00000000000E+00  0.00000000000E+00  0.13094385152E+02  0.99602538876E+03  0.99593931147E+03 0.  0.
        4    1    3    3  502    0  0.48686909422E+03 -0.10449298551E+03  0.99922262860E+01  0.49805798499E+03  0.12699999809E+01 0.  1.
       -4    1    3    3    0  502 -0.48686909422E+03  0.10449298551E+03  0.31021588663E+01  0.49796740377E+03  0.12699999809E+01 0. -1.
</event>
<event>
 5   0  0.3826483E-03  0.9972863E+03  0.7818609E-02  0.9311526E-01
        2   -1    0    0  501    0  0.00000000000E+00  0.00000000000E+00  0.30836568951E+03  0.30836568952E+03  0.25500000920E-02 0.  1.
       -2   -1    0    0    0  501  0.00000000000E+00  0.00000000000E+00 -0.80633164366E+03  0.80633164366E+03  0.25500000920E-02 0. -1.
    10030    2    1    2    0    0  0.00000000000E+00  0.00000000000E+00 -0.49796595415E+03  0.11146973332E+04  0.99728634458E+03 0.  0.
        4    1    3    3  502    0  0.18332259025E+02  0.12050710025E+03  0.29145486635E+03  0.31592021928E+03  0.12699999809E+01 0.  1.
       -4    1    3    3    0  502 -0.18332259025E+02 -0.12050710025E+03 -0.78942082050E+03  0.79877711389E+03  0.12699999809E+01 0. -1.
</event>
<event>
 5   0  0.4026829E-03  0.1002381E+04  0.7818609E-02  0.9305937E-01
        2   -1    0    0  501    0  0.00000000000E+00  0.00000000000E+00  0.45875013843E+03  0.45875013843E+03  0.25500000920E-02 0.  1.
       -2   -1    0    0    0  501  0.00000000000E+00  0.00000000000E+00 -0.54755741228E+03  0.54755741228E+03  0.25500000920E-02 0. -1.
    10030    2    1    2    0    0  0.00000000000E+00  0.00000000000E+00 -0.88807273851E+02  0.10063075507E+04  0.10023812422E+04 0.  0.
        1    1    3    3  502    0 -0.45054682636E+03 -0.45363315034E+02 -0.26005137368E+03  0.52218482367E+03  0.50400001928E-02 0. -1.
       -1    1    3    3    0  502  0.45054682636E+03  0.45363315034E+02  0.17124409983E+03  0.48412272705E+03  0.50400001928E-02 0.  1.
</event>
<event>
 5   0  0.3895011E-03  0.9932918E+03  0.7818609E-02  0.9315933E-01
        2   -1    0    0  501    0  0.00000000000E+00  0.00000000000E+00  0.66341788958E+03  0.66341788958E+03  0.25500000920E-02 0.  1.
       -2   -1    0    0    0  501  0.00000000000E+00  0.00000000000E+00 -0.37179753432E+03  0.37179753433E+03  0.25500000920E-02 0. -1.
    10030    2    1    2    0    0  0.00000000000E+00  0.00000000000E+00  0.29162035526E+03  0.10352154239E+04  0.99329177098E+03 0.  0.
        2    1    3    3  502    0  0.22143833229E+03  0.42142955249E+03 -0.16513391300E+01  0.47606777842E+03  0.25500000920E-02 0. -1.
       -2    1    3    3    0  502 -0.22143833229E+03 -0.42142955249E+03  0.29327169439E+03  0.55914764549E+03  0.25500000920E-02 0.  1.
</event>
<event>
 5   0  0.2313036E-03  0.9888099E+03  0.7818609E-02  0.9320904E-01
        1   -1    0    0  501    0  0.00000000000E+00  0.00000000000E+00  0.88082979016E+03  0.88082979018E+03  0.50400001928E-02 0.  1.
       -1   -1    0    0    0  501  0.00000000000E+00  0.00000000000E+00 -0.27750679900E+03  0.27750679905E+03  0.50400001928E-02 0. -1.
    10030    2    1    2    0    0  0.00000000000E+00  0.00000000000E+00  0.60332299116E+03  0.11583365892E+04  0.98880990199E+03 0.  0.
        3    1    3    3  502    0  0.40616798018E+03 -0.20079919713E+03  0.69894391666E+02  0.45845172251E+03  0.10100000352E+00 0. -1.
       -3    1    3    3    0  502 -0.40616798018E+03  0.20079919713E+03  0.53342859950E+03  0.69988486671E+03  0.10100000352E+00 0.  1.
</event>
<event>
 5   0  0.1548000E-03  0.9982504E+03  0.7818609E-02  0.9310466E-01
       -3   -1    0    0    0  501  0.00000000000E+00  0.00000000000E+00  0.73594028444E+03  0.73594029137E+03  0.10100000352E+00 0. -1.
        3   -1    0    0  501    0  0.00000000000E+00  0.00000000000E+00 -0.33851382373E+03  0.33851383880E+03  0.10100000352E+00 0.  1.
    10030    2    1    2    0    0  0.00000000000E+00  0.00000000000E+00  0.39742646070E+03  0.10744541302E+04  0.99825041256E+03 0.  0.
        1    1    3    3  502    0 -0.12354150845E+03 -0.48320324910E+03  0.17778442645E+03  0.52948577560E+03  0.50400001928E-02 0.  1.
       -1    1    3    3    0  502  0.12354150845E+03  0.48320324910E+03  0.21964203425E+03  0.54496835457E+03  0.50400001928E-02 0. -1.
</event>
<event>
 5   0  0.2378609E-03  0.1008919E+04  0.7818609E-02  0.9298817E-01
       -1   -1    0    0    0  501  0.00000000000E+00  0.00000000000E+00  0.25262315830E+03  0.25262315835E+03  0.50400001928E-02 0. -1.
        1   -1    0    0  501    0  0.00000000000E+00  0.00000000000E+00 -0.10073474981E+04  0.10073474982E+04  0.50400001928E-02 0.  1.
    10030    2    1    2    0    0  0.00000000000E+00  0.00000000000E+00 -0.75472433984E+03  0.12599706565E+04  0.10089188402E+04 0.  0.
        1    1    3    3  502    0 -0.48519503343E+03  0.13804937227E+03 -0.38077238591E+03  0.63202805282E+03  0.50400001928E-02 0.  1.
       -1    1    3    3    0  502  0.48519503343E+03 -0.13804937227E+03 -0.37395195392E+03  0.62794260368E+03  0.50400001928E-02 0. -1.
</event>
<event>
 5   0  0.2350769E-03  0.9970401E+03  0.7818609E-02  0.9311797E-01
        1   -1    0    0  501    0  0.00000000000E+00  0.00000000000E+00  0.19915087837E+04  0.19915087837E+04  0.50400001928E-02 0. -1.
       -1   -1    0    0    0  501  0.00000000000E+00  0.00000000000E+00 -0.12479093820E+03  0.12479093830E+03  0.50400001928E-02 0.  1.
    10030    2    1    2    0    0  0.00000000000E+00  0.00000000000E+00  0.18667178455E+04  0.21162997221E+04  0.99704011890E+03 0.  0.
        2    1    3    3  502    0 -0.71467920005E+02 -0.51845101889E+02 -0.10806283423E+03  0.13954624441E+03  0.25500000920E-02 0.  1.
       -2    1    3    3    0  502  0.71467920005E+02  0.51845101889E+02  0.19747806798E+04  0.19767534776E+04  0.25500000920E-02 0. -1.
</event>
<event>
 5   0  0.3895011E-03  0.1006201E+04  0.7818609E-02  0.9301770E-01
       -2   -1    0    0    0  501  0.00000000000E+00  0.00000000000E+00  0.33220252261E+03  0.33220252262E+03  0.25500000920E-02 0.  1.
        2   -1    0    0  501    0  0.00000000000E+00  0.00000000000E+00 -0.76191473227E+03  0.76191473227E+03  0.25500000920E-02 0. -1.
    10030    2    1    2    0    0  0.00000000000E+00  0.00000000000E+00 -0.42971220966E+03  0.10941172549E+04  0.10062007674E+04 0.  0.
        2    1    3    3  502    0  0.30093524077E+03 -0.35636276089E+03 -0.98245207301E+01  0.46653291170E+03  0.25500000920E-02 0.  1.
       -2    1    3    3    0  502 -0.30093524077E+03  0.35636276089E+03 -0.41988768893E+03  0.62758434319E+03  0.25500000920E-02 0. -1.
</event>
<event>
 5   0  0.3873874E-03  0.9997189E+03  0.7818609E-02  0.9308853E-01
       -2   -1    0    0    0  501  0.00000000000E+00  0.00000000000E+00  0.16774669167E+03  0.16774669169E+03  0.25500000920E-02 0.  1.
        2   -1    0    0  501    0  0.00000000000E+00  0.00000000000E+00 -0.14895045247E+04  0.14895045247E+04  0.25500000920E-02 0. -1.
    10030    2    1    2    0    0  0.00000000000E+00  0.00000000000E+00 -0.13217578330E+04  0.16572512164E+04  0.99971887301E+03 0.  0.
        5    1    3    3  502    0  0.31528513561E+03 -0.10958082332E+03 -0.44117439902E+02  0.33672111915E+03  0.46999998093E+01 0.  1.
       -5    1    3    3    0  502 -0.31528513561E+03  0.10958082332E+03 -0.12776403931E+04  0.13205300973E+04  0.46999998093E+01 0. -1.
</event>
<event>
 5   0  0.2378609E-03  0.9802464E+03  0.7818609E-02  0.9330480E-01
        1   -1    0    0  501    0  0.00000000000E+00  0.00000000000E+00  0.49590294721E+03  0.49590294724E+03  0.50400001928E-02 0.  1.
       -1   -1    0    0    0  501  0.00000000000E+00  0.00000000000E+00 -0.48441081098E+03  0.48441081101E+03  0.50400001928E-02 0. -1.
    10030    2    1    2    0    0  0.00000000000E+00  0.00000000000E+00  0.11492136236E+02  0.98031375825E+03  0.98024639526E+03 0.  0.
        1    1    3    3  502    0 -0.20974127672E+03  0.19003168985E+03  0.40592016766E+03  0.49484808664E+03  0.50400001928E-02 0.  1.
       -1    1    3    3    0  502  0.20974127672E+03 -0.19003168985E+03 -0.39442803143E+03  0.48546567161E+03  0.50400001928E-02 0. -1.
</event>
<event>
 5   0  0.4026829E-03  0.1008314E+04  0.7818609E-02  0.9299473E-01
       -2   -1    0    0    0  501  0.00000000000E+00  0.00000000000E+00  0.10638667949E+04  0.10638667949E+04  0.25500000920E-02 0. -1.
        2   -1    0    0  501    0  0.00000000000E+00  0.00000000000E+00 -0.23891541091E+03  0.23891541092E+03  0.25500000920E-02 0.  1.
    10030    2    1    2    0    0  0.00000000000E+00  0.00000000000E+00  0.82495138398E+03  0.13027822058E+04  0.10083137854E+04 0.  0.
        1    1    3    3  502    0  0.27054950404E+03  0.37490464402E+03  0.67224859956E+03  0.81588522838E+03  0.50400001928E-02 0.  1.
       -1    1    3    3    0  502 -0.27054950404E+03 -0.37490464402E+03  0.15270278442E+03  0.48689697744E+03  0.50400001928E-02 0. -1.
</event>
<event>
 5   0  0.2378609E-03  0.1000418E+04  0.7818609E-02  0.9308086E-01
        1   -1    0    0  501    0  0.00000000000E+00  0.00000000000E+00  0.48990149439E+03  0.48990149442E+03  0.50400001928E-02 0.  1.
       -1   -1    0    0    0  501  0.00000000000E+00  0.00000000000E+00 -0.51073384348E+03  0.51073384351E+03  0.50400001928E-02 0. -1.
    10030    2    1    2    0    0  0.00000000000E+00  0.00000000000E+00 -0.20832349090E+02  0.10006353379E+04  0.10004184588E+04 0.  0.
        1    1    3    3  502    0 -0.21596238168E+03 -0.80216175397E+01  0.44079710229E+03  0.49092380474E+03  0.50400001928E-02 0.  1.
       -1    1    3    3    0  502  0.21596238168E+03  0.80216175397E+01 -0.46162945138E+03  0.50971153318E+03  0.50400001928E-02 0. -1.
</event>
<event>
 5   0  0.3873874E-03  0.9928936E+03  0.7818609E-02  0.9316373E-01
        2   -1    0    0  501    0  0.00000000000E+00  0.00000000000E+00  0.92742867898E+03  0.92742867899E+03  0.25500000920E-02 0. -1.
       -2   -1    0    0    0  501  0.00000000000E+00  0.00000000000E+00 -0.26574488725E+03  0.26574488726E+03  0.25500000920E-02 0.  1.
    10030    2    1    2    0    0  0.00000000000E+00  0.00000000000E+00  0.66168379174E+03  0.11931735662E+04  0.99289360908E+03 0.  0.
        5    1    3    3  502    0 -0.20616105918E+03 -0.42466785665E+03  0.14626181033E+03  0.49422644400E+03  0.46999998093E+01 0.  1.
       -5    1    3    3    0  502  0.20616105918E+03  0.42466785665E+03  0.51542198140E+03  0.69894712225E+03  0.46999998093E+01 0. -1.
</event>
<event>
 5   0  0.3826483E-03  0.9969986E+03  0.7818609E-02  0.9311843E-01
        2   -1    0    0  501    0  0.00000000000E+00  0.00000000000E+00  0.88437915672E+03  0.88437915673E+03  0.25500000920E-02 0. -1.
       -2   -1    0    0    0  501  0.00000000000E+00  0.00000000000E+00 -0.28098980978E+03  0.28098980980E+03  0.25500000920E-02 0.  1.
    10030    2    1    2    0    0  0.00000000000E+00  0.00000000000E+00  0.60338934694E+03  0.11653689665E+04  0.99699855774E+03 0.  0.
        4    1    3    3  502    0 -0.24521852668E+03 -0.42982032791E+03  0.23134536881E+03  0.54625994973E+03  0.12699999809E+01 0. -1.
       -4    1    3    3    0  502  0.24521852668E+03  0.42982032791E+03  0.37204397813E+03  0.61910901679E+03  0.12699999809E+01 0.  1.
</event>
<event>
 5   0  0.3873874E-03  0.1042847E+04  0.7818609E-02  0.9262760E-01
       -2   -1    0    0    0  501  0.00000000000E+00  0.00000000000E+00  0.31244415306E+03  0.31244415307E+03  0.25500000920E-02 0.  1.
        2   -1    0    0  501    0  0.00000000000E+00  0.00000000000E+00 -0.87018000287E+03  0.87018000288E+03  0.25500000920E-02 0. -1.
    10030    2    1    2    0    0  0.00000000000E+00  0.00000000000E+00 -0.55773584981E+03  0.11826241559E+04  0.10428473599E+04 0.  0.
        5    1    3    3  502    0  0.13744704978E+03  0.45730473905E+03 -0.51631534462E+03  0.70329434872E+03  0.46999998093E+01 0. -1.
       -5    1    3    3    0  502 -0.13744704978E+03 -0.45730473905E+03 -0.41420505195E+02  0.47932980723E+03  0.46999998093E+01 0.  1.
</event>
<event>
 5   0  0.3873874E-03  0.9961258E+03  0.7818609E-02  0.9312804E-01
       -2   -1    0    0    0  501  0.00000000000E+00  0.00000000000E+00  0.76436796365E+03  0.76436796366E+03  0.25500000920E-02 0.  1.
        2   -1    0    0  501    0  0.00000000000E+00  0.00000000000E+00 -0.32453826169E+03  0.32453826170E+03  0.25500000920E-02 0. -1.
    10030    2    1    2    0    0  0.00000000000E+00  0.00000000000E+00  0.43982970197E+03  0.10889062254E+04  0.99612579571E+03 0.  0.
        5    1    3    3  502    0 -0.49594317951E+03  0.21318936516E+02  0.17577541069E+03  0.52662436267E+03  0.46999998093E+01 0.  1.
       -5    1    3    3    0  502  0.49594317951E+03 -0.21318936516E+02  0.26405429127E+03  0.56228186268E+03  0.46999998093E+01 0. -1.
</event>
<event>
 5   0  0.1548000E-03  0.1003285E+04  0.7818609E-02  0.9304949E-01
        4   -1    0    0  501    0  0.00000000000E+00  0.00000000000E+00  0.55896504089E+03  0.55896648365E+03  0.12699999809E+01 0.  1.
       -4   -1    0    0    0  501  0.00000000000E+00  0.00000000000E+00 -0.45019559590E+03  0.45019738723E+03  0.12699999809E+01 0. -1.
    10030    2    1    2    0    0  0.00000000000E+00  0.00000000000E+00  0.10876944499E+03  0.10091638709E+04  0.10032850672E+04 0.  0.
        4    1    3    3  502    0  0.15179616565E+03 -0.26061568335E+03  0.45758388357E+03  0.54803944540E+03  0.12699999809E+01 0.  1.
       -4    1    3    3    0  502 -0.15179616565E+03  0.26061568335E+03 -0.34881443858E+03  0.46112442548E+03  0.12699999809E+01 0. -1.
</event>
<event>
 5   0  0.4026829E-03  0.1004083E+04  0.7818609E-02  0.9304078E-01
       -2   -1    0    0    0  501  0.00000000000E+00  0.00000000000E+00  0.52127896223E+03  0.52127896224E+03  0.25500000920E-02 0.  1.
        2   -1    0    0  501    0  0.00000000000E+00  0.00000000000E+00 -0.48351367572E+03  0.48351367573E+03  0.25500000920E-02 0. -1.
    10030    2    1    2    0    0  0.00000000000E+00  0.00000000000E+00  0.37765286510E+02  0.10047926380E+04  0.10040826801E+04 0.  0.
        1    1    3    3  502    0 -0.39639465612E+03  0.30377575664E+03 -0.32506109240E+02  0.50046486478E+03  0.50400001928E-02 0. -1.
       -1    1    3    3    0  502  0.39639465612E+03 -0.30377575664E+03  0.70271395750E+02  0.50432777319E+03  0.50400001928E-02 0.  1.
</event>
<event>
 5   0  0.2350769E-03  0.1005745E+04  0.7818609E-02  0.9302267E-01
        1   -1    0    0  501    0  0.00000000000E+00  0.00000000000E+00  0.69533767734E+03  0.69533767736E+03  0.50400001928E-02 0.  1.
       -1   -1    0    0    0  501  0.00000000000E+00  0.00000000000E+00 -0.36368019264E+03  0.36368019267E+03  0.50400001928E-02 0. -1.
    10030    2    1    2    0    0  0.00000000000E+00  0.00000000000E+00  0.33165748470E+03  0.10590178700E+04  0.10057445808E+04 0.  0.
        2    1    3    3  502    0 -0.12314473656E+03 -0.40644593129E+03  0.44938377273E+03  0.61831116471E+03  0.25500000920E-02 0.  1.
       -2    1    3    3    0  502  0.12314473656E+03  0.40644593129E+03 -0.11772628803E+03  0.44070670532E+03  0.25500000920E-02 0. -1.
</event>
<event>
 5   0  0.3826483E-03  0.9938873E+03  0.7818609E-02  0.9315275E-01
        2   -1    0    0  501    0  0.00000000000E+00  0.00000000000E+00  0.13197830930E+04  0.13197830930E+04  0.25500000920E-02 0.  1.
       -2   -1    0    0    0  501  0.00000000000E+00  0.00000000000E+00 -0.18711636379E+03  0.18711636380E+03  0.25500000920E-02 0. -1.
    10030    2    1    2    0    0  0.00000000000E+00  0.00000000000E+00  0.11326667292E+04  0.15068994568E+04  0.99388734446E+03 0.  0.
        4    1    3    3  502    0 -0.15688257211E+03  0.47039676204E+03  0.61583907682E+03  0.79066088598E+03  0.12699999809E+01 0.  1.
       -4    1    3    3    0  502  0.15688257211E+03 -0.47039676204E+03  0.51682765242E+03  0.71623857086E+03  0.12699999809E+01 0. -1.
</event>
<event>
 5   0  0.2313036E-03  0.9587999E+03  0.7818609E-02  0.9354924E-01
        1   -1    0    0  501    0  0.00000000000E+00  0.00000000000E+00  0.56854311563E+03  0.56854311565E+03  0.50400001928E-02 0.  1.
       -1   -1    0    0    0  501  0.00000000000E+00  0.00000000000E+00 -0.40423377182E+03  0.40423377185E+03  0.50400001928E-02 0. -1.
    10030    2    1    2    0    0  0.00000000000E+00  0.00000000000E+00  0.16430934380E+03  0.97277688750E+03  0.95879993346E+03 0.  0.
        3    1    3    3  502    0 -0.11953927054E+02  0.47023548878E+03  0.17602369509E+03  0.50224362884E+03  0.10100000352E+00 0.  1.
       -3    1    3    3    0  502  0.11953927054E+02 -0.47023548878E+03 -0.11714351292E+02  0.47053325866E+03  0.10100000352E+00 0. -1.
</event>
<event>
 5   0  0.4140860E-03  0.1020034E+04  0.7818609E-02  0.9286841E-01
        2   -1    0    0  501    0  0.00000000000E+00  0.00000000000E+00  0.99267526515E+03  0.99267526515E+03  0.25500000920E-02 0. -1.
       -2   -1    0    0    0  501  0.00000000000E+00  0.00000000000E+00 -0.26203661707E+03  0.26203661708E+03  0.25500000920E-02 0.  1.
    10030    2    1    2    0    0  0.00000000000E+00  0.00000000000E+00  0.73063864808E+03  0.12547118822E+04  0.10200338589E+04 0.  0.
        3    1    3    3  502    0 -0.23618247817E+03 -0.43916270872E+03  0.49706429491E+03  0.70407312916E+03  0.10100000352E+00 0.  1.
       -3    1    3    3    0  502  0.23618247817E+03  0.43916270872E+03  0.23357435317E+03  0.55063875307E+03  0.10100000352E+00 0. -1.
</event>
<event>
 5   0  0.2405022E-03  0.9900622E+03  0.7818609E-02  0.9319512E-01
        1   -1    0    0  501    0  0.00000000000E+00  0.00000000000E+00  0.83474998233E+03  0.83474998235E+03  0.50400001928E-02 0.  1.
       -1   -1    0    0    0  501  0.00000000000E+00  0.00000000000E+00 -0.29356786696E+03  0.29356786700E+03  0.50400001928E-02 0. -1.
    10030    2    1    2    0    0  0.00000000000E+00  0.00000000000E+00  0.54118211537E+03  0.11283178493E+04  0.99006216328E+03 0.  0.
        4    1    3    3  502    0 -0.13473637248E+03 -0.74788590874E+02  0.80671661053E+03  0.82130416168E+03  0.12699999809E+01 0.  1.
       -4    1    3    3    0  502  0.13473637248E+03  0.74788590874E+02 -0.26553449516E+03  0.30701368766E+03  0.12699999809E+01 0. -1.
</event>
<event>
 5   0  0.4026829E-03  0.9996905E+03  0.7818609E-02  0.9308884E-01
       -2   -1    0    0    0  501  0.00000000000E+00  0.00000000000E+00  0.39496965808E+03  0.39496965809E+03  0.25500000920E-02 0. -1.
        2   -1    0    0  501    0  0.00000000000E+00  0.00000000000E+00 -0.63256823147E+03  0.63256823148E+03  0.25500000920E-02 0.  1.
    10030    2    1    2    0    0  0.00000000000E+00  0.00000000000E+00 -0.23759857339E+03  0.10275378896E+04  0.99969046830E+03 0.  0.
        1    1    3    3  502    0 -0.35324923601E+03 -0.12066423340E+03 -0.46047505200E+03  0.59277496025E+03  0.50400001928E-02 0.  1.
       -1    1    3    3    0  502  0.35324923601E+03  0.12066423340E+03  0.22287647861E+03  0.43476292931E+03  0.50400001928E-02 0. -1.
</event>
<event>
 5   0  0.2327595E-03  0.1044690E+04  0.7818609E-02  0.9260844E-01
       -1   -1    0    0    0  501  0.00000000000E+00  0.00000000000E+00  0.19628468286E+03  0.19628468292E+03  0.50400001928E-02 0.  1.
        1   -1    0    0  501    0  0.00000000000E+00  0.00000000000E+00 -0.13900429326E+04  0.13900429326E+04  0.50400001928E-02 0. -1.
    10030    2    1    2    0    0  0.00000000000E+00  0.00000000000E+00 -0.11937582497E+04  0.15863276155E+04  0.10446896884E+04 0.  0.
        5    1    3    3  502    0 -0.19912568234E+03 -0.45679222235E+03 -0.83461451580E+03  0.97206669100E+03  0.46999998093E+01 0. -1.
       -5    1    3    3    0  502  0.19912568234E+03  0.45679222235E+03 -0.35914373391E+03  0.61426092451E+03  0.46999998093E+01 0.  1.
</event>
<event>
 5   0  0.2405022E-03  0.9939321E+03  0.7818609E-02  0.9315225E-01
        1   -1    0    0  501    0  0.00000000000E+00  0.00000000000E+00  0.15260540327E+04  0.15260540327E+04  0.50400001928E-02 0.  1.
       -1   -1    0    0    0  501  0.00000000000E+00  0.00000000000E+00 -0.16183913158E+03  0.16183913166E+03  0.50400001928E-02 0. -1.
    10030    2    1    2    0    0  0.00000000000E+00  0.00000000000E+00  0.13642149011E+04  0.16878931644E+04  0.99393210930E+03 0.  0.
        4    1    3    3  502    0  0.18793015104E+03  0.14856011115E+03 -0.57312449021E+02  0.24632129020E+03  0.12699999809E+01 0. -1.
       -4    1    3    3    0  502 -0.18793015104E+03 -0.14856011115E+03  0.14215273501E+04  0.14415718742E+04  0.12699999809E+01 0.  1.
</event>
<event>
 5   0  0.4140860E-03  0.9978732E+03  0.7818609E-02  0.9310881E-01
        2   -1    0    0  501    0  0.00000000000E+00  0.00000000000E+00  0.13598025392E+04  0.13598025392E+04  0.25500000920E-02 0. -1.
       -2   -1    0    0    0  501  0.00000000000E+00  0.00000000000E+00 -0.18306901434E+03  0.18306901435E+03  0.25500000920E-02 0.  1.
    10030    2    1    2    0    0  0.00000000000E+00  0.00000000000E+00  0.11767335249E+04  0.15428715535E+04  0.99787315939E+03 0.  0.
        3    1    3    3  502    0 -0.13260396486E+03 -0.25358619400E+03  0.12203055044E+04  0.12534094716E+04  0.10100000352E+00 0. -1.
       -3    1    3    3    0  502  0.13260396486E+03  0.25358619400E+03 -0.43571979519E+02  0.28946208195E+03  0.10100000352E+00 0.  1.
</event>
<event>
 5   0  0.2327595E-03  0.9839239E+03  0.7818609E-02  0.9326355E-01
        1   -1    0    0  501    0  0.00000000000E+00  0.00000000000E+00  0.88474909098E+03  0.88474909099E+03  0.50400001928E-02 0.  1.
       -1   -1    0    0    0  501  0.00000000000E+00  0.00000000000E+00 -0.27355389275E+03  0.27355389280E+03  0.50400001928E-02 0. -1.
    10030    2    1    2    0    0  0.00000000000E+00  0.00000000000E+00  0.61119519823E+03  0.11583029838E+04  0.98392389539E+03 0.  0.
        5    1    3    3  502    0 -0.20804628628E+03 -0.44472991115E+03  0.26957139784E+03  0.56014174959E+03  0.46999998093E+01 0. -1.
       -5    1    3    3    0  502  0.20804628628E+03  0.44472991115E+03  0.34162380039E+03  0.59816123420E+03  0.46999998093E+01 0.  1.
</event>
<event>
 5   0  0.2313036E-03  0.9921275E+03  0.7818609E-02  0.9317222E-01
       -1   -1    0    0    0  501  0.00000000000E+00  0.00000000000E+00  0.29484382287E+03  0.29484382292E+03  0.50400001928E-02 0. -1.
        1   -1    0    0  501    0  0.00000000000E+00  0.00000000000E+00 -0.83460872096E+03  0.83460872097E+03  0.50400001928E-02 0.  1.
    10030    2    1    2    0    0  0.00000000000E+00  0.00000000000E+00 -0.53976489808E+03  0.11294525439E+04  0.99212746343E+03 0.  0.
        3    1    3    3  502    0  0.12276825078E+03  0.45444951458E+03 -0.44801002443E+03  0.64985336568E+03  0.10100000352E+00 0. -1.
       -3    1    3    3    0  502 -0.12276825078E+03 -0.45444951458E+03 -0.91754873655E+02  0.47959917821E+03  0.10100000352E+00 0.  1.
</event>
<event>
 5   0  0.2350769E-03  0.9969924E+03  0.7818609E-02  0.9311850E-01
        1   -1    0    0  501    0  0.00000000000E+00  0.00000000000E+00  0.67941040410E+03  0.67941040412E+03  0.50400001928E-02 0. -1.
       -1   -1    0    0    0  501  0.00000000000E+00  0.00000000000E+00 -0.36575604327E+03  0.36575604331E+03  0.50400001928E-02 0.  1.
    10030    2    1    2    0    0  0.00000000000E+00  0.00000000000E+00  0.31365436082E+03  0.10451664474E+04  0.99699239955E+03 0.  0.
        2    1    3    3  502    0  0.27984763383E+02 -0.69550094992E+02  0.67346689626E+03  0.67762675792E+03  0.25500000920E-02 0. -1.
       -2    1    3    3    0  502 -0.27984763383E+02  0.69550094992E+02 -0.35981253543E+03  0.36753968950E+03  0.25500000920E-02 0.  1.
</event>
<event>
 5   0  0.3895011E-03  0.1008177E+04  0.7818609E-02  0.9299622E-01
       -2   -1    0    0    0  501  0.00000000000E+00  0.00000000000E+00  0.73788037945E+03  0.73788037946E+03  0.25500000920E-02 0. -1.
        2   -1    0    0  501    0  0.00000000000E+00  0.00000000000E+00 -0.34437189769E+03  0.34437189770E+03  0.25500000920E-02 0.  1.
    10030    2    1    2    0    0  0.00000000000E+00  0.00000000000E+00  0.39350848177E+03  0.10822522772E+04  0.10081771006E+04 0.  0.
        2    1    3    3  502    0 -0.42980160677E+02 -0.86028841818E+02  0.72794186868E+03  0.73426672267E+03  0.25500000920E-02 0. -1.
       -2    1    3    3    0  502  0.42980160677E+02  0.86028841818E+02 -0.33443338692E+03  0.34798555448E+03  0.25500000920E-02 0.  1.
</event>
<event>
 5   0  0.2350769E-03  0.9890301E+03  0.7818609E-02  0.9320659E-01
        1   -1    0    0  501    0  0.00000000000E+00  0.00000000000E+00  0.36018993078E+03  0.36018993082E+03  0.50400001928E-02 0.  1.
       -1   -1    0    0    0  501  0.00000000000E+00  0.00000000000E+00 -0.67893385666E+03  0.67893385668E+03  0.50400001928E-02 0. -1.
    10030    2    1    2    0    0  0.00000000000E+00  0.00000000000E+00 -0.31874392588E+03  0.10391237875E+04  0.98903010847E+03 0.  0.
        2    1    3    3  502    0 -0.42936965411E+02 -0.41143896974E+03 -0.44405630038E+03  0.60688681542E+03  0.25500000920E-02 0. -1.
       -2    1    3    3    0  502  0.42936965411E+02  0.41143896974E+03  0.12531237450E+03  0.43223697208E+03  0.25500000920E-02 0.  1.
</event>
<event>
 5   0  0.2350769E-03  0.9963151E+03  0.7818609E-02  0.9312596E-01
       -1   -1    0    0    0  501  0.00000000000E+00  0.00000000000E+00  0.33637930613E+03  0.33637930617E+03  0.50400001928E-02 0.  1.
        1   -1    0    0  501    0  0.00000000000E+00  0.00000000000E+00 -0.73774138465E+03  0.73774138467E+03  0.50400001928E-02 0. -1.
    10030    2    1    2    0    0  0.00000000000E+00  0.00000000000E+00 -0.40136207852E+03  0.10741206908E+04  0.99631508089E+03 0.  0.
        2    1    3    3  502    0 -0.11490519064E+03 -0.17073512593E+03  0.28840662832E+03  0.35430505123E+03  0.25500000920E-02 0.  1.
       -2    1    3    3    0  502  0.11490519064E+03  0.17073512593E+03 -0.68976870685E+03  0.71981563960E+03  0.25500000920E-02 0. -1.
</event>
<event>
 5   0  0.2313036E-03  0.1000810E+04  0.7818609E-02  0.9307656E-01
       -1   -1    0    0    0  501  0.00000000000E+00  0.00000000000E+00  0.69283545143E+03  0.69283545144E+03  0.50400001928E-02 0. -1.
        1   -1    0    0  501    0  0.00000000000E+00  0.00000000000E+00 -0.36142118589E+03  0.36142118593E+03  0.50400001928E-02 0.  1.
    10030    2    1    2    0    0  0.00000000000E+00  0.00000000000E+00  0.33141426554E+03  0.10542566374E+04  0.10008104926E+04 0.  0.
        3    1    3    3  502    0  0.47041692333E+03  0.70486977906E+02  0.20227518929E+01  0.47567278410E+03  0.10100000352E+00 0.  1.
       -3    1    3    3    0  502 -0.47041692333E+03 -0.70486977906E+02  0.32939151364E+03  0.57858385327E+03  0.10100000352E+00 0. -1.
</event>
<event>
 5   0  0.4026829E-03  0.1005068E+04  0.7818609E-02  0.9303003E-01
        2   -1    0    0  501    0  0.00000000000E+00  0.00000000000E+00  0.10418770488E+04  0.10418770488E+04  0.25500000920E-02 0. -1.
       -2   -1    0    0    0  501  0.00000000000E+00  0.00000000000E+00 -0.24238997159E+03  0.24238997161E+03  0.25500000920E-02 0.  1.
    10030    2    1    2    0    0  0.00000000000E+00  0.00000000000E+00  0.79948707716E+03  0.12842670204E+04  0.10050682529E+04 0.  0.
        1    1    3    3  502    0  0.15541146312E+03 -0.12036126416E+02 -0.21071822585E+03  0.26210639431E+03  0.50400001928E-02 0.  1.
       -1    1    3    3    0  502 -0.15541146312E+03  0.12036126416E+02  0.10102053030E+04  0.10221606261E+04  0.50400001928E-02 0. -1.
</event>
<event>
 5   0  0.1548000E-03  0.9932051E+03  0.7818609E-02  0.9316029E-01
        3   -1    0    0  501    0  0.00000000000E+00  0.00000000000E+00  0.55153155408E+03  0.55153156333E+03  0.10100000352E+00 0.  1.
       -3   -1    0    0    0  501  0.00000000000E+00  0.00000000000E+00 -0.44714413566E+03  0.44714414706E+03  0.10100000352E+00 0. -1.
    10030    2    1    2    0    0  0.00000000000E+00  0.00000000000E+00  0.10438741843E+03  0.99867571039E+03  0.99320513561E+03 0.  0.
        5    1    3    3  502    0 -0.44044993022E+03  0.22776954352E+03  0.79116443996E+02  0.50215197669E+03  0.46999998093E+01 0. -1.
       -5    1    3    3    0  502  0.44044993022E+03 -0.22776954352E+03  0.25270974432E+02  0.49652373370E+03  0.46999998093E+01 0.  1.
</event>
<event>
 5   0  0.3826483E-03  0.9976521E+03  0.7818609E-02  0.9311124E-01
        2   -1    0    0  501    0  0.00000000000E+00  0.00000000000E+00  0.53680599273E+03  0.53680599274E+03  0.25500000920E-02 0. -1.
       -2   -1    0    0    0  501  0.00000000000E+00  0.00000000000E+00 -0.46353323787E+03  0.46353323787E+03  0.25500000920E-02 0.  1.
    10030    2    1    2    0    0  0.00000000000E+00  0.00000000000E+00  0.73272754863E+02  0.10003392306E+04  0.99765208349E+03 0.  0.
        4    1    3    3  502    0  0.23247909669E+03  0.24960771955E+03  0.40158823817E+03  0.52690157523E+03  0.12699999809E+01 0. -1.
       -4    1    3    3    0  502 -0.23247909669E+03 -0.24960771955E+03 -0.32831548330E+03  0.47343765538E+03  0.12699999809E+01 0.  1.
</event>
<event>
 5   0  0.2378609E-03  0.9937716E+03  0.7818609E-02  0.9315402E-01
       -1   -1    0    0    0  501  0.00000000000E+00  0.00000000000E+00  0.27091665256E+03  0.27091665260E+03  0.50400001928E-02 0.  1.
        1   -1    0    0  501    0  0.00000000000E+00  0.00000000000E+00 -0.91133379901E+03  0.91133379902E+03  0.50400001928E-02 0. -1.
    10030    2    1    2    0    0  0.00000000000E+00  0.00000000000E+00 -0.64041714645E+03  0.11822504516E+04  0.99377160801E+03 0.  0.
        1    1    3    3  502    0 -0.15763321396E+02 -0.72227292742E+02  0.26433748340E+03  0.27448054444E+03  0.50400001928E-02 0.  1.
       -1    1    3    3    0  502  0.15763321396E+02  0.72227292742E+02 -0.90475462985E+03  0.90776990718E+03  0.50400001928E-02 0. -1.
</event>
<event>
 5   0  0.4026829E-03  0.1011784E+04  0.7818609E-02  0.9295714E-01
        2   -1    0    0  501    0  0.00000000000E+00  0.00000000000E+00  0.74430532402E+03  0.74430532402E+03  0.25500000920E-02 0.  1.
       -2   -1    0    0    0  501  0.00000000000E+00  0.00000000000E+00 -0.34384648557E+03  0.34384648558E+03  0.25500000920E-02 0. -1.
    10030    2    1    2    0    0  0.00000000000E+00  0.00000000000E+00  0.40045883845E+03  0.10881518096E+04  0.10117841071E+04 0.  0.
        1    1    3    3  502    0  0.27515581492E+03  0.14101198329E+03  0.63086636888E+03  0.70255781066E+03  0.50400001928E-02 0.  1.
       -1    1    3    3    0  502 -0.27515581492E+03 -0.14101198329E+03 -0.23040753043E+03  0.38559399894E+03  0.50400001928E-02 0. -1.
</event>
<event>
 5   0  0.3826483E-03  0.1003167E+04  0.7818609E-02  0.9305078E-01
        2   -1    0    0  501    0  0.00000000000E+00  0.00000000000E+00  0.57233935047E+03  0.57233935048E+03  0.25500000920E-02 0. -1.
       -2   -1    0    0    0  501  0.00000000000E+00  0.00000000000E+00 -0.43957487640E+03  0.43957487640E+03  0.25500000920E-02 0.  1.
    10030    2    1    2    0    0  0.00000000000E+00  0.00000000000E+00  0.13276447407E+03  0.10119142269E+04  0.10031669836E+04 0.  0.
        4    1    3    3  502    0 -0.29550421242E+03  0.34559247658E+03 -0.14718895318E+03  0.47793629310E+03  0.12699999809E+01 0.  1.
       -4    1    3    3    0  502  0.29550421242E+03 -0.34559247658E+03  0.27995342725E+03  0.53397793378E+03  0.12699999809E+01 0. -1.
</event>
<event>
 5   0  0.3873874E-03  0.9995468E+03  0.7818609E-02  0.9309042E-01
        2   -1    0    0  501    0  0.00000000000E+00  0.00000000000E+00  0.95387028831E+03  0.95387028831E+03  0.25500000920E-02 0.  1.
       -2   -1    0    0    0  501  0.00000000000E+00  0.00000000000E+00 -0.26185262379E+03  0.26185262380E+03  0.25500000920E-02 0. -1.
    10030    2    1    2    0    0  0.00000000000E+00  0.00000000000E+00  0.69201766451E+03  0.12157229121E+04  0.99954677281E+03 0.  0.
        5    1    3    3  502    0  0.34883786924E+03 -0.35541101940E+03  0.29517939723E+03  0.57892816331E+03  0.46999998093E+01 0.  1.
       -5    1    3    3    0  502 -0.34883786924E+03  0.35541101940E+03  0.39683826728E+03  0.63679474880E+03  0.46999998093E+01 0. -1.
</event>
<event>
 5   0  0.4026829E-03  0.1007735E+04  0.7818609E-02  0.9300102E-01
       -2   -1    0    0    0  501  0.00000000000E+00  0.00000000000E+00  0.12654130920E+03  0.12654130923E+03  0.25500000920E-02 0. -1.
        2   -1    0    0  501    0  0.00000000000E+00  0.00000000000E+00 -0.20063199996E+04  0.20063199996E+04  0.25500000920E-02 0.  1.
    10030    2    1    2    0    0  0.00000000000E+00  0.00000000000E+00 -0.18797786904E+04  0.21328613088E+04  0.10077348053E+04 0.  0.
        1    1    3    3  502    0  0.75848591577E+02  0.11092069887E+03 -0.19676977220E+04  0.19722805925E+04  0.50400001928E-02 0.  1.
       -1    1    3    3    0  502 -0.75848591577E+02 -0.11092069887E+03  0.87919031675E+02  0.16058071627E+03  0.50400001928E-02 0. -1.
</event>
<event>
 5   0  0.3873874E-03  0.9991762E+03  0.7818609E-02  0.9309449E-01
       -2   -1    0    0    0  501  0.00000000000E+00  0.00000000000E+00  0.68752172451E+03  0.68752172452E+03  0.25500000920E-02 0. -1.
        2   -1    0    0  501    0  0.00000000000E+00  0.00000000000E+00 -0.36302601191E+03  0.36302601192E+03  0.25500000920E-02 0.  1.
    10030    2    1    2    0    0  0.00000000000E+00  0.00000000000E+00  0.32449571260E+03  0.10505477364E+04  0.99917620019E+03 0.  0.
        5    1    3    3  502    0  0.28317696984E+03 -0.93873672802E+02  0.58355494817E+03  0.65540821648E+03  0.46999998093E+01 0. -1.
       -5    1    3    3    0  502 -0.28317696984E+03  0.93873672802E+02 -0.25905923557E+03  0.39513951995E+03  0.46999998093E+01 0.  1.
</event>
<event>
 5   0  0.4026829E-03  0.9791948E+03  0.7818609E-02  0.9331663E-01
       -2   -1    0    0    0  501  0.00000000000E+00  0.00000000000E+00  0.14197504906E+03  0.14197504908E+03  0.25500000920E-02 0.  1.
        2   -1    0    0  501    0  0.00000000000E+00  0.00000000000E+00 -0.16883643253E+04  0.16883643253E+04  0.25500000920E-02 0. -1.
    10030    2    1    2    0    0  0.00000000000E+00  0.00000000000E+00 -0.15463892763E+04  0.18303393744E+04  0.97919478744E+03 0.  0.
        1    1    3    3  502    0 -0.18332640679E+01  0.40474354131E+03 -0.25827405876E+03  0.48013142424E+03  0.50400001928E-02 0. -1.
       -1    1    3    3    0  502  0.18332640679E+01 -0.40474354131E+03 -0.12881152175E+04  0.13502079502E+04  0.50400001928E-02 0.  1.
</event>
<event>
 5   0  0.2405022E-03  0.1010336E+04  0.7818609E-02  0.9297281E-01
        1   -1    0    0  501    0  0.00000000000E+00  0.00000000000E+00  0.31431999272E+03  0.31431999276E+03  0.50400001928E-02 0. -1.
       -1   -1    0    0    0  501  0.00000000000E+00  0.00000000000E+00 -0.81189428878E+03  0.81189428879E+03  0.50400001928E-02 0.  1.
    10030    2    1    2    0    0  0.00000000000E+00  0.00000000000E+00 -0.49757429605E+03  0.11262142816E+04  0.10103357996E+04 0.  0.
        4    1    3    3  502    0 -0.28772494064E+03  0.41521964379E+03 -0.24878218989E+03  0.56310495021E+03  0.12699999809E+01 0.  1.
       -4    1    3    3    0  502  0.28772494064E+03 -0.41521964379E+03 -0.24879210617E+03  0.56310933134E+03  0.12699999809E+01 0. -1.
</event>
<event>
 5   0  0.2313036E-03  0.9968711E+03  0.7818609E-02  0.9311983E-01
        1   -1    0    0  501    0  0.00000000000E+00  0.00000000000E+00  0.52980703770E+03  0.52980703772E+03  0.50400001928E-02 0.  1.
       -1   -1    0    0    0  501  0.00000000000E+00  0.00000000000E+00 -0.46892165199E+03  0.46892165202E+03  0.50400001928E-02 0. -1.
    10030    2    1    2    0    0  0.00000000000E+00  0.00000000000E+00  0.60885385703E+02  0.99872868974E+03  0.99687108771E+03 0.  0.
        3    1    3    3  502    0  0.44926658453E+03  0.87867086840E+02 -0.16709696438E+03  0.48732175678E+03  0.10100000352E+00 0.  1.
       -3    1    3    3    0  502 -0.44926658453E+03 -0.87867086840E+02  0.22798235009E+03  0.51140693296E+03  0.10100000352E+00 0. -1.
</event>
<event>
 5   0  0.4026829E-03  0.1003800E+04  0.7818609E-02  0.9304386E-01
       -2   -1    0    0    0  501  0.00000000000E+00  0.00000000000E+00  0.27691018242E+03  0.27691018244E+03  0.25500000920E-02 0.  1.
        2   -1    0    0  501    0  0.00000000000E+00  0.00000000000E+00 -0.90969492625E+03  0.90969492625E+03  0.25500000920E-02 0. -1.
    10030    2    1    2    0    0  0.00000000000E+00  0.00000000000E+00 -0.63278474382E+03  0.11866051087E+04  0.10038003546E+04 0.  0.
        1    1    3    3  502    0 -0.49464280134E+03 -0.75441573165E+02 -0.36279471466E+03  0.61804768172E+03  0.50400001928E-02 0. -1.
       -1    1    3    3    0  502  0.49464280134E+03  0.75441573165E+02 -0.26999002917E+03  0.56855742696E+03  0.50400001928E-02 0.  1.
</event>
<event>
 5   0  0.2350769E-03  0.9784260E+03  0.7818609E-02  0.9332528E-01
        1   -1    0    0  501    0  0.00000000000E+00  0.00000000000E+00  0.10646713645E+04  0.10646713645E+04  0.50400001928E-02 0. -1.
       -1   -1    0    0    0  501  0.00000000000E+00  0.00000000000E+00 -0.22479175210E+03  0.22479175216E+03  0.50400001928E-02 0.  1.
    10030    2    1    2    0    0  0.00000000000E+00  0.00000000000E+00  0.83987961241E+03  0.12894631167E+04  0.97842596345E+03 0.  0.
        2    1    3    3  502    0  0.47759563822E+02  0.42080261304E+03  0.97193895325E+02  0.43451406004E+03  0.25500000920E-02 0.  1.
       -2    1    3    3    0  502 -0.47759563822E+02 -0.42080261304E+03  0.74268571709E+03  0.85494905664E+03  0.25500000920E-02 0. -1.
</event>
<event>
 5   0  0.3895011E-03  0.1057995E+04  0.7818609E-02  0.9247128E-01
       -2   -1    0    0    0  501  0.00000000000E+00  0.00000000000E+00  0.33199671664E+03  0.33199671665E+03  0.25500000920E-02 0.  1.
        2   -1    0    0  501    0  0.00000000000E+00  0.00000000000E+00 -0.84289559125E+03  0.84289559125E+03  0.25500000920E-02 0. -1.
    10030    2    1    2    0    0  0.00000000000E+00  0.00000000000E+00 -0.51089887461E+03  0.11748923079E+04  0.10579954041E+04 0.  0.
        2    1    3    3  502    0  0.49962938935E+03 -0.11055779427E+03 -0.10651958143E+03  0.52268439217E+03  0.25500000920E-02 0.  1.
       -2    1    3    3    0  502 -0.49962938935E+03  0.11055779427E+03 -0.40437929318E+03  0.65220791573E+03  0.25500000920E-02 0. -1.
</event>
<event>
 5   0  0.2405022E-03  0.9989941E+03  0.7818609E-02  0.9309649E-01
        1   -1    0    0  501    0  0.00000000000E+00  0.00000000000E+00  0.54817418658E+03  0.54817418660E+03  0.50400001928E-02 0. -1.
       -1   -1    0    0    0  501  0.00000000000E+00  0.00000000000E+00 -0.45514240004E+03  0.45514240007E+03  0.50400001928E-02 0.  1.
    10030    2    1    2    0    0  0.00000000000E+00  0.00000000000E+00  0.93031786541E+02  0.10033165867E+04  0.99899412400E+03 0.  0.
        4    1    3    3  502    0 -0.37781173359E+03  0.23915084010E+03 -0.17707006552E+03  0.48092645109E+03  0.12699999809E+01 0.  1.
       -4    1    3    3    0  502  0.37781173359E+03 -0.23915084010E+03  0.27010185206E+03  0.52239013557E+03  0.12699999809E+01 0. -1.
</event>
<event>
 5   0  0.3873874E-03  0.1028889E+04  0.7818609E-02  0.9277415E-01
        2   -1    0    0  501    0  0.00000000000E+00  0.00000000000E+00  0.19545883634E+04  0.19545883634E+04  0.25500000920E-02 0. -1.
       -2   -1    0    0    0  501  0.00000000000E+00  0.00000000000E+00 -0.13540103235E+03  0.13540103238E+03  0.25500000920E-02 0.  1.
    10030    2    1    2    0    0  0.00000000000E+00  0.00000000000E+00  0.18191873311E+04  0.20899893958E+04  0.10288892696E+04 0.  0.
        5    1    3    3  502    0  0.18439650924E+03 -0.50198223813E+02 -0.60574233449E+02  0.20053244637E+03  0.46999998093E+01 0.  1.
       -5    1    3    3    0  502 -0.18439650924E+03  0.50198223813E+02  0.18797615645E+04  0.18894569494E+04  0.46999998093E+01 0. -1.
</event>
<event>
 5   0  0.2405022E-03  0.9891267E+03  0.7818609E-02  0.9320551E-01
        1   -1    0    0  501    0  0.00000000000E+00  0.00000000000E+00  0.49260116026E+03  0.49260116029E+03  0.50400001928E-02 0. -1.
       -1   -1    0    0    0  501  0.00000000000E+00  0.00000000000E+00 -0.49653333989E+03  0.49653333992E+03  0.50400001928E-02 0.  1.
    10030    2    1    2    0    0  0.00000000000E+00  0.00000000000E+00 -0.39321796302E+01  0.98913450020E+03  0.98912668423E+03 0.  0.
        4    1    3    3  502    0 -0.20847949435E+03  0.12482390801E+03  0.42878849372E+03  0.49285483950E+03  0.12699999809E+01 0. -1.
       -4    1    3    3    0  502  0.20847949435E+03 -0.12482390801E+03 -0.43272067335E+03  0.49627966070E+03  0.12699999809E+01 0.  1.
</event>
<event>
 5   0  0.4026829E-03  0.9978372E+03  0.7818609E-02  0.9310920E-01
        2   -1    0    0  501    0  0.00000000000E+00  0.00000000000E+00  0.21538389611E+03  0.21538389612E+03  0.25500000920E-02 0.  1.
       -2   -1    0    0    0  501  0.00000000000E+00  0.00000000000E+00 -0.11557028678E+04  0.11557028678E+04  0.25500000920E-02 0. -1.
    10030    2    1    2    0    0  0.00000000000E+00  0.00000000000E+00 -0.94031897167E+03  0.13710867639E+04  0.99783723406E+03 0.  0.
        1    1    3    3  502    0 -0.11153064280E+02 -0.29279038421E+03  0.84710438154E+02  0.30500239062E+03  0.50400001928E-02 0.  1.
       -1    1    3    3    0  502  0.11153064280E+02  0.29279038421E+03 -0.10250294098E+04  0.10660843733E+04  0.50400001928E-02 0. -1.
</event>
<event>
 5   0  0.2350769E-03  0.1001757E+04  0.7818609E-02  0.9306620E-01
        1   -1    0    0  501    0  0.00000000000E+00  0.00000000000E+00  0.69266322777E+03  0.69266322779E+03  0.50400001928E-02 0.  1.
       -1   -1    0    0    0  501  0.00000000000E+00  0.00000000000E+00 -0.36219520620E+03  0.36219520624E+03  0.50400001928E-02 0. -1.
    10030    2    1    2    0    0  0.00000000000E+00  0.00000000000E+00  0.33046802156E+03  0.10548584340E+04  0.10017570577E+04 0.  0.
        2    1    3    3  502    0  0.41278222119E+02  0.10835900744E+03  0.67833515185E+03  0.68817450139E+03  0.25500000920E-02 0.  1.
       -2    1    3    3    0  502 -0.41278222119E+02 -0.10835900744E+03 -0.34786713029E+03  0.36668393264E+03  0.25500000920E-02 0. -1.
</event>
<event>
 5   0  0.2350769E-03  0.1028953E+04  0.7818609E-02  0.9277348E-01
        1   -1    0    0  501    0  0.00000000000E+00  0.00000000000E+00  0.17954548646E+04  0.17954548646E+04  0.50400001928E-02 0. -1.
       -1   -1    0    0    0  501  0.00000000000E+00  0.00000000000E+00 -0.14741993035E+03  0.14741993043E+03  0.50400001928E-02 0.  1.
    10030    2    1    2    0    0  0.00000000000E+00  0.00000000000E+00  0.16480349343E+04  0.19428747951E+04  0.10289525376E+04 0.  0.
        2    1    3    3  502    0  0.12581428879E+03 -0.23521414032E+03  0.16546800236E+04  0.16760432297E+04  0.25500000920E-02 0. -1.
       -2    1    3    3    0  502 -0.12581428879E+03  0.23521414032E+03 -0.66450893717E+01  0.26683156539E+03  0.25500000920E-02 0.  1.
</event>
<event>
 5   0  0.2313036E-03  0.1012832E+04  0.7818609E-02  0.9294582E-01
        1   -1    0    0  501    0  0.00000000000E+00  0.00000000000E+00  0.13268870524E+04  0.13268870525E+04  0.50400001928E-02 0. -1.
       -1   -1    0    0    0  501  0.00000000000E+00  0.00000000000E+00 -0.19327724619E+03  0.19327724626E+03  0.50400001928E-02 0.  1.
    10030    2    1    2    0    0  0.00000000000E+00  0.00000000000E+00  0.11336098062E+04  0.15201642987E+04  0.10128318233E+04 0.  0.
        3    1    3    3  502    0 -0.98255064551E+02 -0.41984823971E+03  0.96540881690E+03  0.10573271944E+04  0.10100000352E+00 0. -1.
       -3    1    3    3    0  502  0.98255064551E+02  0.41984823971E+03  0.16820098934E+03  0.46283710429E+03  0.10100000352E+00 0.  1.
</event>
<event>
 5   0  0.2327595E-03  0.1002831E+04  0.7818609E-02  0.9305446E-01
        1   -1    0    0  501    0  0.00000000000E+00  0.00000000000E+00  0.61508101109E+03  0.61508101111E+03  0.50400001928E-02 0.  1.
       -1   -1    0    0    0  501  0.00000000000E+00  0.00000000000E+00 -0.40875473621E+03  0.40875473624E+03  0.50400001928E-02 0. -1.
    10030    2    1    2    0    0  0.00000000000E+00  0.00000000000E+00  0.20632627488E+03  0.10238357473E+04  0.10028305469E+04 0.  0.
        5    1    3    3  502    0  0.18974281957E+03  0.16604384967E+03  0.54562546426E+03  0.60108413291E+03  0.46999998093E+01 0.  1.
       -5    1    3    3    0  502 -0.18974281957E+03 -0.16604384967E+03 -0.33929918938E+03  0.42275161443E+03  0.46999998093E+01 0. -1.
</event>
<event>
 5   0  0.2405022E-03  0.9986718E+03  0.7818609E-02  0.9310003E-01
        1   -1    0    0  501    0  0.00000000000E+00  0.00000000000E+00  0.12044658326E+04  0.12044658326E+04  0.50400001928E-02 0.  1.
       -1   -1    0    0    0  501  0.00000000000E+00  0.00000000000E+00 -0.20700990096E+03  0.20700990102E+03  0.50400001928E-02 0. -1.
    10030    2    1    2    0    0  0.00000000000E+00  0.00000000000E+00  0.99745593165E+03  0.14114757336E+04  0.99867182352E+03 0.  0.
        4    1    3    3  502    0  0.11256797235E+03 -0.43805880513E+03  0.19968548436E+03  0.49441174209E+03  0.12699999809E+01 0. -1.
       -4    1    3    3    0  502 -0.11256797235E+03  0.43805880513E+03  0.79777044728E+03  0.91706399156E+03  0.12699999809E+01 0.  1.
</event>
<event>
 5   0  0.3826483E-03  0.9967684E+03  0.7818609E-02  0.9312096E-01
        2   -1    0    0  501    0  0.00000000000E+00  0.00000000000E+00  0.15348695673E+04  0.15348695673E+04  0.25500000920E-02 0. -1.
       -2   -1    0    0    0  501  0.00000000000E+00  0.00000000000E+00 -0.16182926669E+03  0.16182926671E+03  0.25500000920E-02 0.  1.
    10030    2    1    2    0    0  0.00000000000E+00  0.00000000000E+00  0.13730403006E+04  0.16966988340E+04  0.99676841156E+03 0.  0.
        4    1    3    3  502    0 -0.13577130088E+03  0.40644885269E+03  0.25337576656E+03  0.49783070212E+03  0.12699999809E+01 0.  1.
       -4    1    3    3    0  502  0.13577130088E+03 -0.40644885269E+03  0.11196645341E+04  0.11988681319E+04  0.12699999809E+01 0. -1.
</event>
<event>
 5   0  0.4026829E-03  0.1004806E+04  0.7818609E-02  0.9303289E-01
        2   -1    0    0  501    0  0.00000000000E+00  0.00000000000E+00  0.15671188634E+04  0.15671188634E+04  0.25500000920E-02 0. -1.
       -2   -1    0    0    0  501  0.00000000000E+00  0.00000000000E+00 -0.16106563526E+03  0.16106563528E+03  0.25500000920E-02 0.  1.
    10030    2    1    2    0    0  0.00000000000E+00  0.00000000000E+00  0.14060532281E+04  0.17281844986E+04  0.10048064396E+04 0.  0.
        1    1    3    3  502    0  0.74498025167E+02 -0.46471547071E+03  0.10053535839E+04  0.11100658779E+04  0.50400001928E-02 0. -1.
       -1    1    3    3    0  502 -0.74498025167E+02  0.46471547071E+03  0.40069964418E+03  0.61811862077E+03  0.50400001928E-02 0.  1.
</event>
<event>
 5   0  0.3873874E-03  0.9170981E+03  0.7818609E-02  0.9404457E-01
        2   -1    0    0  501    0  0.00000000000E+00  0.00000000000E+00  0.23433017035E+03  0.23433017037E+03  0.25500000920E-02 0. -1.
       -2   -1    0    0    0  501  0.00000000000E+00  0.00000000000E+00 -0.89731183572E+03  0.89731183572E+03  0.25500000920E-02 0.  1.
    10030    2    1    2    0    0  0.00000000000E+00  0.00000000000E+00 -0.66298166536E+03  0.11316420061E+04  0.91709810889E+03 0.  0.
        5    1    3    3  502    0 -0.24483165718E+03  0.26684709447E+03  0.15540283656E+02  0.36251000345E+03  0.46999998093E+01 0. -1.
       -5    1    3    3    0  502  0.24483165718E+03 -0.26684709447E+03 -0.67852194902E+03  0.76913200264E+03  0.46999998093E+01 0.  1.
</event>
<event>
 5   0  0.3895011E-03  0.9961488E+03  0.7818609E-02  0.9312779E-01
        2   -1    0    0  501    0  0.00000000000E+00  0.00000000000E+00  0.32415976945E+03  0.32415976946E+03  0.25500000920E-02 0.  1.
       -2   -1    0    0    0  501  0.00000000000E+00  0.00000000000E+00 -0.76529579123E+03  0.76529579123E+03  0.25500000920E-02 0. -1.
    10030    2    1    2    0    0  0.00000000000E+00  0.00000000000E+00 -0.44113602178E+03  0.10894555607E+04  0.99614879863E+03 0.  0.
        2    1    3    3  502    0 -0.23474781718E+03 -0.18068975025E+03 -0.65847605893E+03  0.72204296528E+03  0.25500000920E-02 0. -1.
       -2    1    3    3    0  502  0.23474781718E+03  0.18068975025E+03  0.21734003714E+03  0.36741259542E+03  0.25500000920E-02 0.  1.
</event>
<event>
 5   0  0.2350769E-03  0.9944347E+03  0.7818609E-02  0.9314670E-01
        1   -1    0    0  501    0  0.00000000000E+00  0.00000000000E+00  0.43457878577E+03  0.43457878580E+03  0.50400001928E-02 0. -1.
       -1   -1    0    0    0  501  0.00000000000E+00  0.00000000000E+00 -0.56888434749E+03  0.56888434751E+03  0.50400001928E-02 0.  1.
    10030    2    1    2    0    0  0.00000000000E+00  0.00000000000E+00 -0.13430556172E+03  0.10034631333E+04  0.99443465145E+03 0.  0.
        2    1    3    3  502    0 -0.44292803428E+03 -0.55764764901E+01  0.16074884353E+03  0.47122874630E+03  0.25500000920E-02 0. -1.
       -2    1    3    3    0  502  0.44292803428E+03  0.55764764901E+01 -0.29505440526E+03  0.53223438700E+03  0.25500000920E-02 0.  1.
</event>
<event>
 5   0  0.2378609E-03  0.9992678E+03  0.7818609E-02  0.9309348E-01
        1   -1    0    0  501    0  0.00000000000E+00  0.00000000000E+00  0.40637413654E+03  0.40637413658E+03  0.50400001928E-02 0. -1.
       -1   -1    0    0    0  501  0.00000000000E+00  0.00000000000E+00 -0.61429602226E+03  0.61429602228E+03  0.50400001928E-02 0.  1.
    10030    2    1    2    0    0  0.00000000000E+00  0.00000000000E+00 -0.20792188572E+03  0.10206701589E+04  0.99926776323E+03 0.  0.
        1    1    3    3  502    0 -0.27154733498E+03  0.38175962512E+03 -0.28133409382E+03  0.54646796693E+03  0.50400001928E-02 0.  1.
       -1    1    3    3    0  502  0.27154733498E+03 -0.38175962512E+03  0.73412208100E+02  0.47420219193E+03  0.50400001928E-02 0. -1.
</event>
<event>
 5   0  0.3873874E-03  0.9999283E+03  0.7818609E-02  0.9308623E-01
        2   -1    0    0  501    0  0.00000000000E+00  0.00000000000E+00  0.66226710037E+03  0.66226710038E+03  0.25500000920E-02 0.  1.
       -2   -1    0    0    0  501  0.00000000000E+00  0.00000000000E+00 -0.37743709669E+03  0.37743709670E+03  0.25500000920E-02 0. -1.
    10030    2    1    2    0    0  0.00000000000E+00  0.00000000000E+00  0.28483000368E+03  0.10397041971E+04  0.99992834065E+03 0.  0.
        5    1    3    3  502    0  0.23118691222E+03 -0.43307306970E+03  0.44089041471E+02  0.49291541431E+03  0.46999998093E+01 0. -1.
       -5    1    3    3    0  502 -0.23118691222E+03  0.43307306970E+03  0.24074096221E+03  0.54678878278E+03  0.46999998093E+01 0.  1.
</event>
<event>
 5   0  0.4026829E-03  0.9948268E+03  0.7818609E-02  0.9314237E-01
       -2   -1    0    0    0  501  0.00000000000E+00  0.00000000000E+00  0.37828156188E+03  0.37828156189E+03  0.25500000920E-02 0. -1.
        2   -1    0    0  501    0  0.00000000000E+00  0.00000000000E+00 -0.65406324447E+03  0.65406324447E+03  0.25500000920E-02 0.  1.
    10030    2    1    2    0    0  0.00000000000E+00  0.00000000000E+00 -0.27578168259E+03  0.10323448064E+04  0.99482675012E+03 0.  0.
        1    1    3    3  502    0  0.16417041917E+03  0.82068347909E+02  0.34185700931E+03  0.38801205535E+03  0.50400001928E-02 0. -1.
       -1    1    3    3    0  502 -0.16417041917E+03 -0.82068347909E+02 -0.61763869190E+03  0.64433275100E+03  0.50400001928E-02 0.  1.
</event>
<event>
 5   0  0.2327595E-03  0.9901161E+03  0.7818609E-02  0.9319452E-01
        1   -1    0    0  501    0  0.00000000000E+00  0.00000000000E+00  0.11647641719E+04  0.11647641720E+04  0.50400001928E-02 0. -1.
       -1   -1    0    0    0  501  0.00000000000E+00  0.00000000000E+00 -0.21041380947E+03  0.21041380953E+03  0.50400001928E-02 0.  1.
    10030    2    1    2    0    0  0.00000000000E+00  0.00000000000E+00  0.95435036248E+03  0.13751779815E+04  0.99011608733E+03 0.  0.
        5    1    3    3  502    0  0.11273809717E+03  0.35977609075E+03  0.31616314830E+02  0.37837864024E+03  0.46999998093E+01 0.  1.
       -5    1    3    3    0  502 -0.11273809717E+03 -0.35977609075E+03  0.92273404765E+03  0.99679934125E+03  0.46999998093E+01 0. -1.
</event>
<event>
 5   0  0.2313036E-03  0.1000069E+04  0.7818609E-02  0.9308470E-01
        1   -1    0    0  501    0  0.00000000000E+00  0.00000000000E+00  0.53951163903E+03  0.53951163905E+03  0.50400001928E-02 0. -1.
       -1   -1    0    0    0  501  0.00000000000E+00  0.00000000000E+00 -0.46344562169E+03  0.46344562171E+03  0.50400001928E-02 0.  1.
    10030    2    1    2    0    0  0.00000000000E+00  0.00000000000E+00  0.76066017341E+02  0.10029572608E+04  0.10000686116E+04 0.  0.
        3    1    3    3  502    0  0.23598177922E+03 -0.86130112319E+02 -0.39556810710E+03  0.46859357009E+03  0.10100000352E+00 0.  1.
       -3    1    3    3    0  502 -0.23598177922E+03  0.86130112319E+02  0.47163412445E+03  0.53436369068E+03  0.10100000352E+00 0. -1.
</event>
<event>
 5   0  0.3873874E-03  0.9988192E+03  0.7818609E-02  0.9309841E-01
        2   -1    0    0  501    0  0.00000000000E+00  0.00000000000E+00  0.39409985502E+03  0.39409985503E+03  0.25500000920E-02 0.  1.
       -2   -1    0    0    0  501  0.00000000000E+00  0.00000000000E+00 -0.63285984140E+03  0.63285984140E+03  0.25500000920E-02 0. -1.
    10030    2    1    2    0    0  0.00000000000E+00  0.00000000000E+00 -0.23875998638E+03  0.10269596964E+04  0.99881924641E+03 0.  0.
        5    1    3    3  502    0 -0.16209145498E+03  0.31500524306E+03 -0.48127076245E+03  0.59761658254E+03  0.46999998093E+01 0. -1.
       -5    1    3    3    0  502  0.16209145498E+03 -0.31500524306E+03  0.24251077608E+03  0.42934311389E+03  0.46999998093E+01 0.  1.
</event>
<event>
 5   0  0.2313036E-03  0.1003135E+04  0.7818609E-02  0.9305113E-01
        1   -1    0    0  501    0  0.00000000000E+00  0.00000000000E+00  0.82024767399E+03  0.82024767401E+03  0.50400001928E-02 0.  1.
       -1   -1    0    0    0  501  0.00000000000E+00  0.00000000000E+00 -0.30670025187E+03  0.30670025191E+03  0.50400001928E-02 0. -1.
    10030    2    1    2    0    0  0.00000000000E+00  0.00000000000E+00  0.51354742212E+03  0.11269479259E+04  0.10031354211E+04 0.  0.
        3    1    3    3  502    0  0.32498891531E+03  0.22346947689E+03 -0.91331890820E+02  0.40484308893E+03  0.10100000352E+00 0. -1.
       -3    1    3    3    0  502 -0.32498891531E+03 -0.22346947689E+03  0.60487931294E+03  0.72210483699E+03  0.10100000352E+00 0.  1.
</event>
<event>
 5   0  0.3873874E-03  0.1006439E+04  0.7818609E-02  0.9301511E-01
       -2   -1    0    0    0  501  0.00000000000E+00  0.00000000000E+00  0.23072975522E+03  0.23072975523E+03  0.25500000920E-02 0.  1.
        2   -1    0    0  501    0  0.00000000000E+00  0.00000000000E+00 -0.10975173177E+04  0.10975173177E+04  0.25500000920E-02 0. -1.
    10030    2    1    2    0    0  0.00000000000E+00  0.00000000000E+00 -0.86678756251E+03  0.13282470730E+04  0.10064390733E+04 0.  0.
        5    1    3    3  502    0  0.13261397144E+02 -0.16012543462E+03  0.19593670577E+03  0.25343500574E+03  0.46999998093E+01 0.  1.
       -5    1    3    3    0  502 -0.13261397144E+02  0.16012543462E+03 -0.10627242683E+04  0.10748120672E+04  0.46999998093E+01 0. -1.
</event>
<event>
 5   0  0.2350769E-03  0.9974908E+03  0.7818609E-02  0.9311301E-01
        1   -1    0    0  501    0  0.00000000000E+00  0.00000000000E+00  0.57470351129E+03  0.57470351131E+03  0.50400001928E-02 0. -1.
       -1   -1    0    0    0  501  0.00000000000E+00  0.00000000000E+00 -0.43282661937E+03  0.43282661940E+03  0.50400001928E-02 0.  1.
    10030    2    1    2    0    0  0.00000000000E+00  0.00000000000E+00  0.14187689192E+03  0.10075301307E+04  0.99749080790E+03 0.  0.
        2    1    3    3  502    0  0.11075063635E+03  0.56023399008E+02  0.55885573400E+03  0.57247188239E+03  0.25500000920E-02 0. -1.
       -2    1    3    3    0  502 -0.11075063635E+03 -0.56023399008E+02 -0.41697884208E+03  0.43505824833E+03  0.25500000920E-02 0.  1.
</event>
<event>
 5   0  0.4026829E-03  0.1021401E+04  0.7818609E-02  0.9285379E-01
       -2   -1    0    0    0  501  0.00000000000E+00  0.00000000000E+00  0.19109747110E+03  0.19109747111E+03  0.25500000920E-02 0.  1.
        2   -1    0    0  501    0  0.00000000000E+00  0.00000000000E+00 -0.13648282405E+04  0.13648282405E+04  0.25500000920E-02 0. -1.
    10030    2    1    2    0    0  0.00000000000E+00  0.00000000000E+00 -0.11737307694E+04  0.15559257116E+04  0.10214014397E+04 0.  0.
        1    1    3    3  502    0  0.69673574895E+02  0.48183208844E+03 -0.35186497771E+03  0.60068754861E+03  0.50400001928E-02 0.  1.
       -1    1    3    3    0  502 -0.69673574895E+02 -0.48183208844E+03 -0.82186579172E+03  0.95523816303E+03  0.50400001928E-02 0. -1.
</event>
<event>
 5   0  0.2350769E-03  0.9671765E+03  0.7818609E-02  0.9345296E-01
        1   -1    0    0  501    0  0.00000000000E+00  0.00000000000E+00  0.57652934034E+03  0.57652934037E+03  0.50400001928E-02 0.  1.
       -1   -1    0    0    0  501  0.00000000000E+00  0.00000000000E+00 -0.40562996924E+03  0.40562996927E+03  0.50400001928E-02 0. -1.
    10030    2    1    2    0    0  0.00000000000E+00  0.00000000000E+00  0.17089937110E+03  0.98215930964E+03  0.96717646501E+03 0.  0.
        2    1    3    3  502    0 -0.65350343852E+02  0.40550652694E+01 -0.40110787681E+03  0.40641683017E+03  0.25500000920E-02 0. -1.
       -2    1    3    3    0  502  0.65350343852E+02 -0.40550652694E+01  0.57200724791E+03  0.57574247947E+03  0.25500000920E-02 0.  1.
</event>
<event>
 5   0  0.3826483E-03  0.1007481E+04  0.7818609E-02  0.9300378E-01
        2   -1    0    0  501    0  0.00000000000E+00  0.00000000000E+00  0.64738671916E+03  0.64738671917E+03  0.25500000920E-02 0.  1.
       -2   -1    0    0    0  501  0.00000000000E+00  0.00000000000E+00 -0.39196704675E+03  0.39196704676E+03  0.25500000920E-02 0. -1.
    10030    2    1    2    0    0  0.00000000000E+00  0.00000000000E+00  0.25541967241E+03  0.10393537659E+04  0.10074805416E+04 0.  0.
        4    1    3    3  502    0 -0.21892430555E+03 -0.42131695754E+03  0.30130952650E+03  0.56233875371E+03  0.12699999809E+01 0.  1.
       -4    1    3    3    0  502  0.21892430555E+03  0.42131695754E+03 -0.45889854088E+02  0.47701501221E+03  0.12699999809E+01 0. -1.
</event>
<event>
 5   0  0.2405022E-03  0.9716338E+03  0.7818609E-02  0.9340215E-01
       -1   -1    0    0    0  501  0.00000000000E+00  0.00000000000E+00  0.44365923853E+03  0.44365923856E+03  0.50400001928E-02 0. -1.
        1   -1    0    0  501    0  0.00000000000E+00  0.00000000000E+00 -0.53198046653E+03  0.53198046655E+03  0.50400001928E-02 0.  1.
    10030    2    1    2    0    0  0.00000000000E+00  0.00000000000E+00 -0.88321227999E+02  0.97563970511E+03  0.97163377611E+03 0.  0.
        4    1    3    3  502    0  0.38567361233E+03 -0.29060903492E+03 -0.97470833872E+02  0.49264583909E+03  0.12699999809E+01 0. -1.
       -4    1    3    3    0  502 -0.38567361233E+03  0.29060903492E+03  0.91496058724E+01  0.48299386602E+03  0.12699999809E+01 0.  1.
</event>
<event>
 5   0  0.1548000E-03  0.1001921E+04  0.7818609E-02  0.9306441E-01
       -4   -1    0    0    0  501  0.00000000000E+00  0.00000000000E+00  0.75156131332E+03  0.75156238635E+03  0.12699999809E+01 0. -1.
        4   -1    0    0  501    0  0.00000000000E+00  0.00000000000E+00 -0.33391733728E+03  0.33391975239E+03  0.12699999809E+01 0.  1.
    10030    2    1    2    0    0  0.00000000000E+00  0.00000000000E+00  0.41764397604E+03  0.10854821387E+04  0.10019206470E+04 0.  0.
        4    1    3    3  502    0  0.21347544778E+03  0.23268013733E+03  0.63016317724E+03  0.70485392527E+03  0.12699999809E+01 0. -1.
       -4    1    3    3    0  502 -0.21347544778E+03 -0.23268013733E+03 -0.21251920120E+03  0.38062821347E+03  0.12699999809E+01 0.  1.
</event>
<event>
 5   0  0.2313036E-03  0.9907597E+03  0.7818609E-02  0.9318738E-01
        1   -1    0    0  501    0  0.00000000000E+00  0.00000000000E+00  0.53687905808E+03  0.53687905810E+03  0.50400001928E-02 0.  1.
       -1   -1    0    0    0  501  0.00000000000E+00  0.00000000000E+00 -0.45708841539E+03  0.45708841542E+03  0.50400001928E-02 0. -1.
    10030    2    1    2    0    0  0.00000000000E+00  0.00000000000E+00  0.79790642685E+02  0.99396747352E+03  0.99075970435E+03 0.  0.
        3    1    3    3  502    0 -0.30867356973E+01 -0.37339194596E+03 -0.28668915674E+03  0.47076719941E+03  0.10100000352E+00 0. -1.
       -3    1    3    3    0  502  0.30867356973E+01  0.37339194596E+03  0.36647979943E+03  0.52320027411E+03  0.10100000352E+00 0.  1.
</event>
<event>
 5   0  0.2350769E-03  0.1001101E+04  0.7818609E-02  0.9307338E-01
        1   -1    0    0  501    0  0.00000000000E+00  0.00000000000E+00  0.46382290896E+03  0.46382290899E+03  0.50400001928E-02 0. -1.
       -1   -1    0    0    0  501  0.00000000000E+00  0.00000000000E+00 -0.54018676739E+03  0.54018676742E+03  0.50400001928E-02 0.  1.
    10030    2    1    2    0    0  0.00000000000E+00  0.00000000000E+00 -0.76363858432E+02  0.10040096764E+04  0.10011013892E+04 0.  0.
        2    1    3    3  502    0 -0.11788628095E+03 -0.40303617205E+03  0.23503501573E+03  0.48122426148E+03  0.25500000920E-02 0. -1.
       -2    1    3    3    0  502  0.11788628095E+03  0.40303617205E+03 -0.31139887416E+03  0.52278541492E+03  0.25500000920E-02 0.  1.
</event>
<event>
 5   0  0.2313036E-03  0.1001430E+04  0.7818609E-02  0.9306977E-01
        1   -1    0    0  501    0  0.00000000000E+00  0.00000000000E+00  0.84159814369E+03  0.84159814371E+03  0.50400001928E-02 0. -1.
       -1   -1    0    0    0  501  0.00000000000E+00  0.00000000000E+00 -0.29790431922E+03  0.29790431926E+03  0.50400001928E-02 0.  1.
    10030    2    1    2    0    0  0.00000000000E+00  0.00000000000E+00  0.54369382448E+03  0.11395024630E+04  0.10014304211E+04 0.  0.
        3    1    3    3  502    0 -0.14210059348E+03  0.14405156081E+03 -0.24931004339E+03  0.32109023463E+03  0.10100000352E+00 0.  1.
       -3    1    3    3    0  502  0.14210059348E+03 -0.14405156081E+03  0.79300386787E+03  0.81841222834E+03  0.10100000352E+00 0. -1.
</event>
<event>
 5   0  0.2327595E-03  0.9857753E+03  0.7818609E-02  0.9324285E-01
        1   -1    0    0  501    0  0.00000000000E+00  0.00000000000E+00  0.40649658678E+03  0.40649658681E+03  0.50400001928E-02 0. -1.
       -1   -1    0    0    0  501  0.00000000000E+00  0.00000000000E+00 -0.59763900348E+03  0.59763900350E+03  0.50400001928E-02 0.  1.
    10030    2    1    2    0    0  0.00000000000E+00  0.00000000000E+00 -0.19114241670E+03  0.10041355903E+04  0.98577525850E+03 0.  0.
        5    1    3    3  502    0 -0.46819941459E+03 -0.14585326467E+03 -0.14580770044E+03  0.51163057193E+03  0.46999998093E+01 0. -1.
       -5    1    3    3    0  502  0.46819941459E+03  0.14585326467E+03 -0.45334716260E+02  0.49250501838E+03  0.46999998093E+01 0.  1.
</event>
<event>
 5   0  0.2327595E-03  0.9910443E+03  0.7818609E-02  0.9318422E-01
        1   -1    0    0  501    0  0.00000000000E+00  0.00000000000E+00  0.11950277987E+04  0.11950277988E+04  0.50400001928E-02 0.  1.
       -1   -1    0    0    0  501  0.00000000000E+00  0.00000000000E+00 -0.20546985461E+03  0.20546985467E+03  0.50400001928E-02 0. -1.
    10030    2    1    2    0    0  0.00000000000E+00  0.00000000000E+00  0.98955794414E+03  0.14004976534E+04  0.99104427371E+03 0.  0.
        5    1    3    3  502    0 -0.41006991091E+03 -0.26289863003E+03  0.62311226657E+03  0.79092604475E+03  0.46999998093E+01 0.  1.
       -5    1    3    3    0  502  0.41006991091E+03  0.26289863003E+03  0.36644567757E+03  0.60957160868E+03  0.46999998093E+01 0. -1.
</event>
<event>
 5   0  0.2327595E-03  0.1005326E+04  0.7818609E-02  0.9302723E-01
        1   -1    0    0  501    0  0.00000000000E+00  0.00000000000E+00  0.10114893986E+04  0.10114893986E+04  0.50400001928E-02 0. -1.
       -1   -1    0    0    0  501  0.00000000000E+00  0.00000000000E+00 -0.24979990181E+03  0.24979990186E+03  0.50400001928E-02 0.  1.
    10030    2    1    2    0    0  0.00000000000E+00  0.00000000000E+00  0.76168949675E+03  0.12612893004E+04  0.10053257233E+04 0.  0.
        5    1    3    3  502    0  0.46848670356E+03  0.17428836877E+03  0.44713310921E+03  0.67067602778E+03  0.46999998093E+01 0. -1.
       -5    1    3    3    0  502 -0.46848670356E+03 -0.17428836877E+03  0.31455638754E+03  0.59061327266E+03  0.46999998093E+01 0.  1.
</event>
<event>
 5   0  0.3826483E-03  0.9838353E+03  0.7818609E-02  0.9326454E-01
       -2   -1    0    0    0  501  0.00000000000E+00  0.00000000000E+00  0.30884444813E+03  0.30884444814E+03  0.25500000920E-02 0. -1.
        2   -1    0    0  501    0  0.00000000000E+00  0.00000000000E+00 -0.78351080902E+03  0.78351080902E+03  0.25500000920E-02 0.  1.
    10030    2    1    2    0    0  0.00000000000E+00  0.00000000000E+00 -0.47466636088E+03  0.10923552572E+04  0.98383527773E+03 0.  0.
        4    1    3    3  502    0  0.25128846000E+03  0.41761708972E+03 -0.16342146186E+03  0.51406041556E+03  0.12699999809E+01 0. -1.
       -4    1    3    3    0  502 -0.25128846000E+03 -0.41761708972E+03 -0.31124489903E+03  0.57829484160E+03  0.12699999809E+01 0.  1.
</event>
<event>
 5   0  0.2405022E-03  0.1003502E+04  0.7818609E-02  0.9304713E-01
       -1   -1    0    0    0  501  0.00000000000E+00  0.00000000000E+00  0.60580264046E+03  0.60580264048E+03  0.50400001928E-02 0.  1.
        1   -1    0    0  501    0  0.00000000000E+00  0.00000000000E+00 -0.41557082182E+03  0.41557082186E+03  0.50400001928E-02 0. -1.
    10030    2    1    2    0    0  0.00000000000E+00  0.00000000000E+00  0.19023181863E+03  0.10213734623E+04  0.10035016715E+04 0.  0.
        4    1    3    3  502    0  0.58173730282E+02 -0.15852813810E+03  0.57601006026E+03  0.60025374292E+03  0.12699999809E+01 0.  1.
       -4    1    3    3    0  502 -0.58173730282E+02  0.15852813810E+03 -0.38577824163E+03  0.42111971941E+03  0.12699999809E+01 0. -1.
</event>
<event>
 5   0  0.4140860E-03  0.9974980E+03  0.7818609E-02  0.9311293E-01
       -2   -1    0    0    0  501  0.00000000000E+00  0.00000000000E+00  0.11071301485E+03  0.11071301488E+03  0.25500000920E-02 0. -1.
        2   -1    0    0  501    0  0.00000000000E+00  0.00000000000E+00 -0.22468050819E+04  0.22468050819E+04  0.25500000920E-02 0.  1.
    10030    2    1    2    0    0  0.00000000000E+00  0.00000000000E+00 -0.21360920670E+04  0.23575180968E+04  0.99749799885E+03 0.  0.
        3    1    3    3  502    0  0.17256182835E+03  0.25422920209E+03 -0.19965482157E+04  0.20200531824E+04  0.10100000352E+00 0.  1.
       -3    1    3    3    0  502 -0.17256182835E+03 -0.25422920209E+03 -0.13954385133E+03  0.33746491439E+03  0.10100000352E+00 0. -1.
</event>
<event>
 5   0  0.4026829E-03  0.1000653E+04  0.7818609E-02  0.9307829E-01
        2   -1    0    0  501    0  0.00000000000E+00  0.00000000000E+00  0.67733711372E+03  0.67733711373E+03  0.25500000920E-02 0. -1.
       -2   -1    0    0    0  501  0.00000000000E+00  0.00000000000E+00 -0.36957443013E+03  0.36957443013E+03  0.25500000920E-02 0.  1.
    10030    2    1    2    0    0  0.00000000000E+00  0.00000000000E+00  0.30776268360E+03  0.10469115439E+04  0.10006527426E+04 0.  0.
        1    1    3    3  502    0  0.49583359567E+03  0.51826957112E+02  0.19813928232E+03  0.53646636736E+03  0.50400001928E-02 0.  1.
       -1    1    3    3    0  502 -0.49583359567E+03 -0.51826957112E+02  0.10962340128E+03  0.51044517650E+03  0.50400001928E-02 0. -1.
</event>
<event>
 5   0  0.2405022E-03  0.9926167E+03  0.7818609E-02  0.9316680E-01
        1   -1    0    0  501    0  0.00000000000E+00  0.00000000000E+00  0.60884620854E+03  0.60884620856E+03  0.50400001928E-02 0. -1.
       -1   -1    0    0    0  501  0.00000000000E+00  0.00000000000E+00 -0.40457179231E+03  0.40457179234E+03  0.50400001928E-02 0.  1.
    10030    2    1    2    0    0  0.00000000000E+00  0.00000000000E+00  0.20427441623E+03  0.10134180009E+04  0.99261674750E+03 0.  0.
        4    1    3    3  502    0 -0.10704668924E+03 -0.17980883709E+03 -0.35732721319E+03  0.41409487048E+03  0.12699999809E+01 0.  1.
       -4    1    3    3    0  502  0.10704668924E+03  0.17980883709E+03  0.56160162942E+03  0.59932313041E+03  0.12699999809E+01 0. -1.
</event>
<event>
 5   0  0.4026829E-03  0.9890122E+03  0.7818609E-02  0.9320679E-01
        2   -1    0    0  501    0  0.00000000000E+00  0.00000000000E+00  0.13184263431E+04  0.13184263431E+04  0.25500000920E-02 0.  1.
       -2   -1    0    0    0  501  0.00000000000E+00  0.00000000000E+00 -0.18547588456E+03  0.18547588458E+03  0.25500000920E-02 0. -1.
    10030    2    1    2    0    0  0.00000000000E+00  0.00000000000E+00  0.11329504585E+04  0.15039022276E+04  0.98901221878E+03 0.  0.
        1    1    3    3  502    0 -0.73560610589E+02 -0.45020778000E+03  0.27620953587E+03  0.53328221078E+03  0.50400001928E-02 0. -1.
       -1    1    3    3    0  502  0.73560610589E+02  0.45020778000E+03  0.85674092261E+03  0.97062001685E+03  0.50400001928E-02 0.  1.
</event>
<event>
 5   0  0.4026829E-03  0.9966893E+03  0.7818609E-02  0.9312183E-01
        2   -1    0    0  501    0  0.00000000000E+00  0.00000000000E+00  0.16330928758E+04  0.16330928758E+04  0.25500000920E-02 0. -1.
       -2   -1    0    0    0  501  0.00000000000E+00  0.00000000000E+00 -0.15207181067E+03  0.15207181069E+03  0.25500000920E-02 0.  1.
    10030    2    1    2    0    0  0.00000000000E+00  0.00000000000E+00  0.14810210652E+04  0.17851646865E+04  0.99668930092E+03 0.  0.
        1    1    3    3  502    0  0.89223144079E+02 -0.27032423721E+03  0.78862758229E+01  0.28477737978E+03  0.50400001928E-02 0.  1.
       -1    1    3    3    0  502 -0.89223144079E+02  0.27032423721E+03  0.14731347893E+04  0.15003873067E+04  0.50400001928E-02 0. -1.
</event>
<event>
 5   0  0.2350769E-03  0.9849911E+03  0.7818609E-02  0.9325161E-01
        1   -1    0    0  501    0  0.00000000000E+00  0.00000000000E+00  0.10549391243E+04  0.10549391243E+04  0.50400001928E-02 0.  1.
       -1   -1    0    0    0  501  0.00000000000E+00  0.00000000000E+00 -0.22992024527E+03  0.22992024533E+03  0.50400001928E-02 0. -1.
    10030    2    1    2    0    0  0.00000000000E+00  0.00000000000E+00  0.82501887898E+03  0.12848593696E+04  0.98499109081E+03 0.  0.
        2    1    3    3  502    0  0.18974958310E+03 -0.79875739761E+02 -0.17109601586E+03  0.26769177189E+03  0.25500000920E-02 0. -1.
       -2    1    3    3    0  502 -0.18974958310E+03  0.79875739761E+02  0.99611489484E+03  0.10171675977E+04  0.25500000920E-02 0.  1.
</event>
<event>
 5   0  0.4026829E-03  0.9998811E+03  0.7818609E-02  0.9308675E-01
        2   -1    0    0  501    0  0.00000000000E+00  0.00000000000E+00  0.15371227596E+04  0.15371227596E+04  0.25500000920E-02 0. -1.
       -2   -1    0    0    0  501  0.00000000000E+00  0.00000000000E+00 -0.16260284683E+03  0.16260284685E+03  0.25500000920E-02 0.  1.
    10030    2    1    2    0    0  0.00000000000E+00  0.00000000000E+00  0.13745199128E+04  0.16997256064E+04  0.99988106623E+03 0.  0.
        1    1    3    3  502    0 -0.75758311885E+02  0.36344363646E+03  0.11807615935E+03  0.38958000223E+03  0.50400001928E-02 0.  1.
       -1    1    3    3    0  502  0.75758311885E+02 -0.36344363646E+03  0.12564437534E+04  0.13101456042E+04  0.50400001928E-02 0. -1.
</event>
<event>
 5   0  0.2405022E-03  0.9936842E+03  0.7818609E-02  0.9315499E-01
       -1   -1    0    0    0  501  0.00000000000E+00  0.00000000000E+00  0.11307875465E+03  0.11307875476E+03  0.50400001928E-02 0.  1.
        1   -1    0    0  501    0  0.00000000000E+00  0.00000000000E+00 -0.21830102512E+04  0.21830102512E+04  0.50400001928E-02 0. -1.
    10030    2    1    2    0    0  0.00000000000E+00  0.00000000000E+00 -0.20699314965E+04  0.22960890060E+04  0.99368421688E+03 0.  0.
        4    1    3    3  502    0  0.24387892533E+03  0.42034699352E+03 -0.12737828635E+04  0.13633388872E+04  0.12699999809E+01 0. -1.
       -4    1    3    3    0  502 -0.24387892533E+03 -0.42034699352E+03 -0.79614863304E+03  0.93275011872E+03  0.12699999809E+01 0.  1.
</event>
<event>
 5   0  0.1548000E-03  0.1009166E+04  0.7818609E-02  0.9298549E-01
       -4   -1    0    0    0  501  0.00000000000E+00  0.00000000000E+00  0.50641211813E+03  0.50641371060E+03  0.12699999809E+01 0.  1.
        4   -1    0    0  501    0  0.00000000000E+00  0.00000000000E+00 -0.50275710002E+03  0.50275870407E+03  0.12699999809E+01 0. -1.
    10030    2    1    2    0    0  0.00000000000E+00  0.00000000000E+00  0.36550181095E+01  0.10091724147E+04  0.10091657958E+04 0.  0.
        3    1    3    3  502    0 -0.38473034394E+03  0.25345135566E+03  0.20761725350E+03  0.50533153611E+03  0.10100000352E+00 0.  1.
       -3    1    3    3    0  502  0.38473034394E+03 -0.25345135566E+03 -0.20396223539E+03  0.50384087856E+03  0.10100000352E+00 0. -1.
</event>
<event>
 5   0  0.2405022E-03  0.9916514E+03  0.7818609E-02  0.9317749E-01
        1   -1    0    0  501    0  0.00000000000E+00  0.00000000000E+00  0.72310574530E+03  0.72310574532E+03  0.50400001928E-02 0.  1.
       -1   -1    0    0    0  501  0.00000000000E+00  0.00000000000E+00 -0.33998227453E+03  0.33998227456E+03  0.50400001928E-02 0. -1.
    10030    2    1    2    0    0  0.00000000000E+00  0.00000000000E+00  0.38312347077E+03  0.10630880199E+04  0.99165142271E+03 0.  0.
        4    1    3    3  502    0  0.39540245304E+03  0.12466338100E+03 -0.99980307222E+02  0.42647594676E+03  0.12699999809E+01 0. -1.
       -4    1    3    3    0  502 -0.39540245304E+03 -0.12466338100E+03  0.48310377800E+03  0.63661207312E+03  0.12699999809E+01 0.  1.
</event>
<event>
 5   0  0.4026829E-03  0.1025654E+04  0.7818609E-02  0.9280847E-01
       -2   -1    0    0    0  501  0.00000000000E+00  0.00000000000E+00  0.16900635585E+03  0.16900635587E+03  0.25500000920E-02 0. -1.
        2   -1    0    0  501    0  0.00000000000E+00  0.00000000000E+00 -0.15561031324E+04  0.15561031324E+04  0.25500000920E-02 0.  1.
    10030    2    1    2    0    0  0.00000000000E+00  0.00000000000E+00 -0.13870967765E+04  0.17251094882E+04  0.10256535862E+04 0.  0.
        1    1    3    3  502    0 -0.30949969726E+03  0.12294215714E+03 -0.37612686619E+02  0.33514109092E+03  0.50400001928E-02 0. -1.
       -1    1    3    3    0  502  0.30949969726E+03 -0.12294215714E+03 -0.13494840899E+04  0.13899683973E+04  0.50400001928E-02 0.  1.
</event>
<event>
 5   0  0.2378609E-03  0.9979577E+03  0.7818609E-02  0.9310788E-01
        1   -1    0    0  501    0  0.00000000000E+00  0.00000000000E+00  0.59799582317E+03  0.59799582319E+03  0.50400001928E-02 0.  1.
       -1   -1    0    0    0  501  0.00000000000E+00  0.00000000000E+00 -0.41635727779E+03  0.41635727782E+03  0.50400001928E-02 0. -1.
    10030    2    1    2    0    0  0.00000000000E+00  0.00000000000E+00  0.18163854538E+03  0.10143531010E+04  0.99795774076E+03 0.  0.
        1    1    3    3  502    0 -0.13725763365E+03  0.44413960372E+03  0.27512748255E+03  0.54018031922E+03  0.50400001928E-02 0.  1.
       -1    1    3    3    0  502  0.13725763365E+03 -0.44413960372E+03 -0.93488937165E+02  0.47417278179E+03  0.50400001928E-02 0. -1.
</event>
<event>
 5   0  0.2350769E-03  0.9993824E+03  0.7818609E-02  0.9309222E-01
       -1   -1    0    0    0  501  0.00000000000E+00  0.00000000000E+00  0.23385461984E+03  0.23385461990E+03  0.50400001928E-02 0. -1.
        1   -1    0    0  501    0  0.00000000000E+00  0.00000000000E+00 -0.10677202223E+04  0.10677202223E+04  0.50400001928E-02 0.  1.
    10030    2    1    2    0    0  0.00000000000E+00  0.00000000000E+00 -0.83386560249E+03  0.13015748422E+04  0.99938242277E+03 0.  0.
        2    1    3    3  502    0  0.47989257654E+02 -0.49728517056E+03 -0.40418564161E+03  0.64262083891E+03  0.25500000920E-02 0. -1.
       -2    1    3    3    0  502 -0.47989257654E+02  0.49728517056E+03 -0.42967996087E+03  0.65895400332E+03  0.25500000920E-02 0.  1.
</event>
<event>
 5   0  0.3895011E-03  0.9523009E+03  0.7818609E-02  0.9362465E-01
       -2   -1    0    0    0  501  0.00000000000E+00  0.00000000000E+00  0.15467992231E+03  0.15467992233E+03  0.25500000920E-02 0. -1.
        2   -1    0    0  501    0  0.00000000000E+00  0.00000000000E+00 -0.14657314594E+04  0.14657314594E+04  0.25500000920E-02 0.  1.
    10030    2    1    2    0    0  0.00000000000E+00  0.00000000000E+00 -0.13110515371E+04  0.16204113817E+04  0.95230085223E+03 0.  0.
        2    1    3    3  502    0  0.36863707402E+03 -0.20159220282E+03 -0.10367185359E+04  0.11186232749E+04  0.25500000920E-02 0.  1.
       -2    1    3    3    0  502 -0.36863707402E+03  0.20159220282E+03 -0.27433300123E+03  0.50178810682E+03  0.25500000920E-02 0. -1.
</event>
<event>
 5   0  0.3895011E-03  0.9957056E+03  0.7818609E-02  0.9313267E-01
        2   -1    0    0  501    0  0.00000000000E+00  0.00000000000E+00  0.55991451239E+03  0.55991451240E+03  0.25500000920E-02 0. -1.
       -2   -1    0    0    0  501  0.00000000000E+00  0.00000000000E+00 -0.44267011502E+03  0.44267011503E+03  0.25500000920E-02 0.  1.
    10030    2    1    2    0    0  0.00000000000E+00  0.00000000000E+00  0.11724439737E+03  0.10025846274E+04  0.99570562238E+03 0.  0.
        2    1    3    3  502    0 -0.36870778151E+03 -0.82510863992E+02  0.38505936741E+03  0.53946657659E+03  0.25500000920E-02 0. -1.
       -2    1    3    3    0  502  0.36870778151E+03  0.82510863992E+02 -0.26781497003E+03  0.46311805083E+03  0.25500000920E-02 0.  1.
</event>
<event>
 5   0  0.3873874E-03  0.9990669E+03  0.7818609E-02  0.9309569E-01
       -2   -1    0    0    0  501  0.00000000000E+00  0.00000000000E+00  0.10016870827E+04  0.10016870827E+04  0.25500000920E-02 0.  1.
        2   -1    0    0  501    0  0.00000000000E+00  0.00000000000E+00 -0.24911338695E+03  0.24911338697E+03  0.25500000920E-02 0. -1.
    10030    2    1    2    0    0  0.00000000000E+00  0.00000000000E+00  0.75257369573E+03  0.12508004697E+04  0.99906688834E+03 0.  0.
        5    1    3    3  502    0 -0.16748765235E+03  0.39118105818E+03  0.70380730951E+03  0.82246066951E+03  0.46999998093E+01 0.  1.
       -5    1    3    3    0  502  0.16748765235E+03 -0.39118105818E+03  0.48766386220E+02  0.42833980015E+03  0.46999998093E+01 0. -1.
</event>
<event>
 5   0  0.4026829E-03  0.9891861E+03  0.7818609E-02  0.9320485E-01
       -2   -1    0    0    0  501  0.00000000000E+00  0.00000000000E+00  0.13299750672E+03  0.13299750675E+03  0.25500000920E-02 0. -1.
        2   -1    0    0  501    0  0.00000000000E+00  0.00000000000E+00 -0.18392998898E+04  0.18392998898E+04  0.25500000920E-02 0.  1.
    10030    2    1    2    0    0  0.00000000000E+00  0.00000000000E+00 -0.17063023831E+04  0.19722973965E+04  0.98918612906E+03 0.  0.
        1    1    3    3  502    0 -0.80383665045E+02  0.42773964606E+03 -0.13216000616E+04  0.13914199442E+04  0.50400001928E-02 0.  1.
       -1    1    3    3    0  502  0.80383665045E+02 -0.42773964606E+03 -0.38470232150E+03  0.58087745232E+03  0.50400001928E-02 0. -1.
</event>
<event>
 5   0  0.2313036E-03  0.1012784E+04  0.7818609E-02  0.9294634E-01
        1   -1    0    0  501    0  0.00000000000E+00  0.00000000000E+00  0.16276639149E+04  0.16276639149E+04  0.50400001928E-02 0. -1.
       -1   -1    0    0    0  501  0.00000000000E+00  0.00000000000E+00 -0.15754643769E+03  0.15754643778E+03  0.50400001928E-02 0.  1.
    10030    2    1    2    0    0  0.00000000000E+00  0.00000000000E+00  0.14701174772E+04  0.17852103527E+04  0.10127835932E+04 0.  0.
        3    1    3    3  502    0 -0.25383360014E+03 -0.39017147956E+03  0.10865674784E+04  0.11820719840E+04  0.10100000352E+00 0.  1.
       -3    1    3    3    0  502  0.25383360014E+03  0.39017147956E+03  0.38354999886E+03  0.60313836875E+03  0.10100000352E+00 0. -1.
</event>
<event>
 5   0  0.3826483E-03  0.1005934E+04  0.7818609E-02  0.9302060E-01
       -2   -1    0    0    0  501  0.00000000000E+00  0.00000000000E+00  0.16667040536E+03  0.16667040538E+03  0.25500000920E-02 0. -1.
        2   -1    0    0  501    0  0.00000000000E+00  0.00000000000E+00 -0.15178216796E+04  0.15178216796E+04  0.25500000920E-02 0.  1.
    10030    2    1    2    0    0  0.00000000000E+00  0.00000000000E+00 -0.13511512743E+04  0.16844920850E+04  0.10059343013E+04 0.  0.
        4    1    3    3  502    0  0.16741096248E+03 -0.27903937434E+03 -0.33356179334E+02  0.32711412441E+03  0.12699999809E+01 0. -1.
       -4    1    3    3    0  502 -0.16741096248E+03  0.27903937434E+03 -0.13177950949E+04  0.13573779606E+04  0.12699999809E+01 0.  1.
</event>
<event>
 5   0  0.3873874E-03  0.1006577E+04  0.7818609E-02  0.9301361E-01
       -2   -1    0    0    0  501  0.00000000000E+00  0.00000000000E+00  0.21918236367E+03  0.21918236369E+03  0.25500000920E-02 0. -1.
        2   -1    0    0  501    0  0.00000000000E+00  0.00000000000E+00 -0.11556550677E+04  0.11556550677E+04  0.25500000920E-02 0.  1.
    10030    2    1    2    0    0  0.00000000000E+00  0.00000000000E+00 -0.93647270401E+03  0.13748374314E+04  0.10065767916E+04 0.  0.
        5    1    3    3  502    0 -0.26070398633E+03  0.33280171474E+03 -0.84117608523E+03  0.94144720839E+03  0.46999998093E+01 0.  1.
       -5    1    3    3    0  502  0.26070398633E+03 -0.33280171474E+03 -0.95296618776E+02  0.43339022298E+03  0.46999998093E+01 0. -1.
</event>
<event>
 5   0  0.4026829E-03  0.9966896E+03  0.7818609E-02  0.9312183E-01
        2   -1    0    0  501    0  0.00000000000E+00  0.00000000000E+00  0.90077425854E+03  0.90077425854E+03  0.25500000920E-02 0. -1.
       -2   -1    0    0    0  501  0.00000000000E+00  0.00000000000E+00 -0.27570452767E+03  0.27570452768E+03  0.25500000920E-02 0.  1.
    10030    2    1    2    0    0  0.00000000000E+00  0.00000000000E+00  0.62506973087E+03  0.11764787862E+04  0.99668960363E+03 0.  0.
        1    1    3    3  502    0  0.24186315522E+03 -0.17329350268E+03  0.78442243414E+03  0.83895588628E+03  0.50400001928E-02 0. -1.
       -1    1    3    3    0  502 -0.24186315522E+03  0.17329350268E+03 -0.15935270327E+03  0.33752289994E+03  0.50400001928E-02 0.  1.
</event>
<event>
 5   0  0.2378609E-03  0.1015234E+04  0.7818609E-02  0.9291992E-01
        1   -1    0    0  501    0  0.00000000000E+00  0.00000000000E+00  0.88230823521E+03  0.88230823522E+03  0.50400001928E-02 0. -1.
       -1   -1    0    0    0  501  0.00000000000E+00  0.00000000000E+00 -0.29204673914E+03  0.29204673918E+03  0.50400001928E-02 0.  1.
    10030    2    1    2    0    0  0.00000000000E+00  0.00000000000E+00  0.59026149607E+03  0.11743549744E+04  0.10152344420E+04 0.  0.
        1    1    3    3  502    0 -0.25478158092E+03  0.30453386630E+03  0.66095965768E+03  0.77105265631E+03  0.50400001928E-02 0. -1.
       -1    1    3    3    0  502  0.25478158092E+03 -0.30453386630E+03 -0.70698161610E+02  0.40330231809E+03  0.50400001928E-02 0.  1.
</event>
<event>
 5   0  0.1548000E-03  0.9888282E+03  0.7818609E-02  0.9320883E-01
        4   -1    0    0  501    0  0.00000000000E+00  0.00000000000E+00  0.24404594964E+03  0.24404925412E+03  0.12699999809E+01 0.  1.
       -4   -1    0    0    0  501  0.00000000000E+00  0.00000000000E+00 -0.10016259169E+04  0.10016267221E+04  0.12699999809E+01 0. -1.
    10030    2    1    2    0    0  0.00000000000E+00  0.00000000000E+00 -0.75757996729E+03  0.12456759762E+04  0.98882821098E+03 0.  0.
        4    1    3    3  502    0 -0.23894226751E+03  0.52640099129E+02 -0.92001236377E+03  0.95199199031E+03  0.12699999809E+01 0. -1.
       -4    1    3    3    0  502  0.23894226751E+03 -0.52640099129E+02  0.16243239647E+03  0.29368398588E+03  0.12699999809E+01 0.  1.
</event>
<event>
 5   0  0.2350769E-03  0.1015398E+04  0.7818609E-02  0.9291816E-01
       -1   -1    0    0    0  501  0.00000000000E+00  0.00000000000E+00  0.11693194293E+04  0.11693194293E+04  0.50400001928E-02 0. -1.
        1   -1    0    0  501    0  0.00000000000E+00  0.00000000000E+00 -0.22043446512E+03  0.22043446518E+03  0.50400001928E-02 0.  1.
    10030    2    1    2    0    0  0.00000000000E+00  0.00000000000E+00  0.94888496416E+03  0.13897538945E+04  0.10153980559E+04 0.  0.
        2    1    3    3  502    0  0.37079325949E+03  0.31300085308E+03  0.27004996866E+03  0.55532347411E+03  0.25500000920E-02 0. -1.
       -2    1    3    3    0  502 -0.37079325949E+03 -0.31300085308E+03  0.67883499549E+03  0.83443042036E+03  0.25500000920E-02 0.  1.
</event>
<event>
 5   0  0.3895011E-03  0.1004748E+04  0.7818609E-02  0.9303352E-01
       -2   -1    0    0    0  501  0.00000000000E+00  0.00000000000E+00  0.28181344835E+03  0.28181344836E+03  0.25500000920E-02 0. -1.
        2   -1    0    0  501    0  0.00000000000E+00  0.00000000000E+00 -0.89555631980E+03  0.89555631981E+03  0.25500000920E-02 0.  1.
    10030    2    1    2    0    0  0.00000000000E+00  0.00000000000E+00 -0.61374287145E+03  0.11773697682E+04  0.10047483559E+04 0.  0.
        2    1    3    3  502    0  0.21443018962E+03 -0.40287448376E+03 -0.55292734233E+03  0.71694965080E+03  0.25500000920E-02 0.  1.
       -2    1    3    3    0  502 -0.21443018962E+03  0.40287448376E+03 -0.60815529125E+02  0.46042011737E+03  0.25500000920E-02 0. -1.
</event>
<event>
 5   0  0.3826483E-03  0.9964272E+03  0.7818609E-02  0.9312472E-01
       -2   -1    0    0    0  501  0.00000000000E+00  0.00000000000E+00  0.21232440616E+03  0.21232440617E+03  0.25500000920E-02 0. -1.
        2   -1    0    0  501    0  0.00000000000E+00  0.00000000000E+00 -0.11690450268E+04  0.11690450268E+04  0.25500000920E-02 0.  1.
    10030    2    1    2    0    0  0.00000000000E+00  0.00000000000E+00 -0.95672062061E+03  0.13813694329E+04  0.99642719974E+03 0.  0.
        4    1    3    3  502    0 -0.12058349610E+02 -0.37464165416E+03 -0.93334747553E+03  0.10058036070E+04  0.12699999809E+01 0.  1.
       -4    1    3    3    0  502  0.12058349610E+02  0.37464165416E+03 -0.23373145080E+02  0.37556582597E+03  0.12699999809E+01 0. -1.
</event>
<event>
 5   0  0.3873874E-03  0.1002145E+04  0.7818609E-02  0.9306195E-01
        2   -1    0    0  501    0  0.00000000000E+00  0.00000000000E+00  0.13244364510E+04  0.13244364510E+04  0.25500000920E-02 0. -1.
       -2   -1    0    0    0  501  0.00000000000E+00  0.00000000000E+00 -0.18957017279E+03  0.18957017281E+03  0.25500000920E-02 0.  1.
    10030    2    1    2    0    0  0.00000000000E+00  0.00000000000E+00  0.11348662783E+04  0.15140066239E+04  0.10021449933E+04 0.  0.
        5    1    3    3  502    0  0.24628308626E+03  0.42708611697E+03  0.43235978099E+03  0.65575527456E+03  0.46999998093E+01 0.  1.
       -5    1    3    3    0  502 -0.24628308626E+03 -0.42708611697E+03  0.70250649726E+03  0.85825134930E+03  0.46999998093E+01 0. -1.
</event>
<event>
 5   0  0.2405022E-03  0.1019040E+04  0.7818609E-02  0.9287905E-01
       -1   -1    0    0    0  501  0.00000000000E+00  0.00000000000E+00  0.54525713008E+03  0.54525713010E+03  0.50400001928E-02 0.  1.
        1   -1    0    0  501    0  0.00000000000E+00  0.00000000000E+00 -0.47612538448E+03  0.47612538450E+03  0.50400001928E-02 0. -1.
    10030    2    1    2    0    0  0.00000000000E+00  0.00000000000E+00  0.69131745601E+02  0.10213825146E+04  0.10190402558E+04 0.  0.
        4    1    3    3  502    0  0.28619636940E+03  0.35349774852E+03  0.26474591585E+03  0.52627087410E+03  0.12699999809E+01 0.  1.
       -4    1    3    3    0  502 -0.28619636940E+03 -0.35349774852E+03 -0.19561417025E+03  0.49511164051E+03  0.12699999809E+01 0. -1.
</event>
<event>
 5   0  0.2405022E-03  0.1016253E+04  0.7818609E-02  0.9290897E-01
       -1   -1    0    0    0  501  0.00000000000E+00  0.00000000000E+00  0.69809333479E+03  0.69809333481E+03  0.50400001928E-02 0.  1.
        1   -1    0    0  501    0  0.00000000000E+00  0.00000000000E+00 -0.36985371085E+03  0.36985371088E+03  0.50400001928E-02 0. -1.
    10030    2    1    2    0    0  0.00000000000E+00  0.00000000000E+00  0.32823962395E+03  0.10679470457E+04  0.10162527450E+04 0.  0.
        4    1    3    3  502    0 -0.88719006748E+02  0.15364237880E+03  0.66448480992E+03  0.68776356274E+03  0.12699999809E+01 0.  1.
       -4    1    3    3    0  502  0.88719006748E+02 -0.15364237880E+03 -0.33624518597E+03  0.38018348295E+03  0.12699999809E+01 0. -1.
</event>
<event>
 5   0  0.3895011E-03  0.9549216E+03  0.7818609E-02  0.9359416E-01
       -2   -1    0    0    0  501  0.00000000000E+00  0.00000000000E+00  0.82083993118E+03  0.82083993118E+03  0.25500000920E-02 0.  1.
        2   -1    0    0  501    0  0.00000000000E+00  0.00000000000E+00 -0.27772629463E+03  0.27772629464E+03  0.25500000920E-02 0. -1.
    10030    2    1    2    0    0  0.00000000000E+00  0.00000000000E+00  0.54311363655E+03  0.10985662258E+04  0.95492163569E+03 0.  0.
        2    1    3    3  502    0 -0.37648918256E+02  0.86633219373E+02  0.80998309849E+03  0.81547248610E+03  0.25500000920E-02 0.  1.
       -2    1    3    3    0  502  0.37648918256E+02 -0.86633219373E+02 -0.26686946194E+03  0.28309373972E+03  0.25500000920E-02 0. -1.
</event>
<event>
 5   0  0.4026829E-03  0.9975687E+03  0.7818609E-02  0.9311215E-01
        2   -1    0    0  501    0  0.00000000000E+00  0.00000000000E+00  0.23617266666E+04  0.23617266666E+04  0.25500000920E-02 0. -1.
       -2   -1    0    0    0  501  0.00000000000E+00  0.00000000000E+00 -0.10534064745E+03  0.10534064748E+03  0.25500000920E-02 0.  1.
    10030    2    1    2    0    0  0.00000000000E+00  0.00000000000E+00  0.22563860191E+04  0.24670673140E+04  0.99756867673E+03 0.  0.
        1    1    3    3  502    0 -0.12424487045E+03  0.69441795602E+01  0.23227209586E+04  0.23260519472E+04  0.50400001928E-02 0. -1.
       -1    1    3    3    0  502  0.12424487045E+03 -0.69441795602E+01 -0.66334939499E+02  0.14101536685E+03  0.50400001928E-02 0.  1.
</event>
<event>
 5   0  0.3826483E-03  0.9901758E+03  0.7818609E-02  0.9319386E-01
        2   -1    0    0  501    0  0.00000000000E+00  0.00000000000E+00  0.18983741142E+03  0.18983741144E+03  0.25500000920E-02 0.  1.
       -2   -1    0    0    0  501  0.00000000000E+00  0.00000000000E+00 -0.12911681725E+04  0.12911681725E+04  0.25500000920E-02 0. -1.
    10030    2    1    2    0    0  0.00000000000E+00  0.00000000000E+00 -0.11013307611E+04  0.14810055839E+04  0.99017578962E+03 0.  0.
        4    1    3    3  502    0 -0.18995564504E+03 -0.32901168942E+03 -0.10254848215E+04  0.10935961645E+04  0.12699999809E+01 0. -1.
       -4    1    3    3    0  502  0.18995564504E+03  0.32901168942E+03 -0.75845939566E+02  0.38740941948E+03  0.12699999809E+01 0.  1.
</event>
<event>
 5   0  0.2350769E-03  0.9985115E+03  0.7818609E-02  0.9310179E-01
        1   -1    0    0  501    0  0.00000000000E+00  0.00000000000E+00  0.89548430893E+03  0.89548430894E+03  0.50400001928E-02 0.  1.
       -1   -1    0    0    0  501  0.00000000000E+00  0.00000000000E+00 -0.27834802978E+03  0.27834802983E+03  0.50400001928E-02 0. -1.
    10030    2    1    2    0    0  0.00000000000E+00  0.00000000000E+00  0.61713627914E+03  0.11738323388E+04  0.99851147841E+03 0.  0.
        2    1    3    3  502    0 -0.34859084528E+03  0.34793504921E+03  0.40466375101E+03  0.63743793994E+03  0.25500000920E-02 0.  1.
       -2    1    3    3    0  502  0.34859084528E+03 -0.34793504921E+03  0.21247252814E+03  0.53639439884E+03  0.25500000920E-02 0. -1.
</event>
<event>
 5   0  0.3873874E-03  0.1001870E+04  0.7818609E-02  0.9306496E-01
        2   -1    0    0  501    0  0.00000000000E+00  0.00000000000E+00  0.10621183530E+03  0.10621183533E+03  0.25500000920E-02 0. -1.
       -2   -1    0    0    0  501  0.00000000000E+00  0.00000000000E+00 -0.23625993479E+04  0.23625993479E+04  0.25500000920E-02 0.  1.
    10030    2    1    2    0    0  0.00000000000E+00  0.00000000000E+00 -0.22563875126E+04  0.24688111832E+04  0.10018702767E+04 0.  0.
        5    1    3    3  502    0 -0.12969534446E+03  0.35703606579E+03 -0.19328163743E+04  0.19697961472E+04  0.46999998093E+01 0.  1.
       -5    1    3    3    0  502  0.12969534446E+03 -0.35703606579E+03 -0.32357113823E+03  0.49901503599E+03  0.46999998093E+01 0. -1.
</event>
<event>
 5   0  0.2405022E-03  0.1020497E+04  0.7818609E-02  0.9286346E-01
        1   -1    0    0  501    0  0.00000000000E+00  0.00000000000E+00  0.10739821049E+04  0.10739821049E+04  0.50400001928E-02 0. -1.
       -1   -1    0    0    0  501  0.00000000000E+00  0.00000000000E+00 -0.24241872654E+03  0.24241872659E+03  0.50400001928E-02 0.  1.
    10030    2    1    2    0    0  0.00000000000E+00  0.00000000000E+00  0.83156337839E+03  0.13164008315E+04  0.10204966913E+04 0.  0.
        4    1    3    3  502    0  0.47561165344E+03 -0.12230338341E+03  0.59446431889E+03  0.77107327915E+03  0.12699999809E+01 0. -1.
       -4    1    3    3    0  502 -0.47561165344E+03  0.12230338341E+03  0.23709905950E+03  0.54532755239E+03  0.12699999809E+01 0.  1.
</event>
<event>
 5   0  0.2378609E-03  0.9871145E+03  0.7818609E-02  0.9322791E-01
        1   -1    0    0  501    0  0.00000000000E+00  0.00000000000E+00  0.10970317875E+04  0.10970317875E+04  0.50400001928E-02 0.  1.
       -1   -1    0    0    0  501  0.00000000000E+00  0.00000000000E+00 -0.22205261842E+03  0.22205261848E+03  0.50400001928E-02 0. -1.
    10030    2    1    2    0    0  0.00000000000E+00  0.00000000000E+00  0.87497916904E+03  0.13190844060E+04  0.98711454440E+03 0.  0.
        1    1    3    3  502    0 -0.36828345236E+03 -0.31343145969E+03  0.56928187984E+03  0.74696307803E+03  0.50400001928E-02 0. -1.
       -1    1    3    3    0  502  0.36828345236E+03  0.31343145969E+03  0.30569728920E+03  0.57212132792E+03  0.50400001928E-02 0.  1.
</event>
<event>
 5   0  0.2378609E-03  0.9926296E+03  0.7818609E-02  0.9316666E-01
       -1   -1    0    0    0  501  0.00000000000E+00  0.00000000000E+00  0.35300280674E+03  0.35300280677E+03  0.50400001928E-02 0.  1.
        1   -1    0    0  501    0  0.00000000000E+00  0.00000000000E+00 -0.69780863032E+03  0.69780863034E+03  0.50400001928E-02 0. -1.
    10030    2    1    2    0    0  0.00000000000E+00  0.00000000000E+00 -0.34480582358E+03  0.10508114371E+04  0.99262964916E+03 0.  0.
        1    1    3    3  502    0  0.14163139506E+03  0.37819438303E+03 -0.47782346973E+03  0.62562425758E+03  0.50400001928E-02 0. -1.
       -1    1    3    3    0  502 -0.14163139506E+03 -0.37819438303E+03  0.13301764615E+03  0.42518717953E+03  0.50400001928E-02 0.  1.
</event>
<event>
 5   0  0.1548000E-03  0.9953975E+03  0.7818609E-02  0.9313607E-01
        4   -1    0    0  501    0  0.00000000000E+00  0.00000000000E+00  0.62326255574E+03  0.62326384965E+03  0.12699999809E+01 0.  1.
       -4   -1    0    0    0  501  0.00000000000E+00  0.00000000000E+00 -0.39742859184E+03  0.39743062100E+03  0.12699999809E+01 0. -1.
    10030    2    1    2    0    0  0.00000000000E+00  0.00000000000E+00  0.22583396390E+03  0.10206944707E+04  0.99539752018E+03 0.  0.
        5    1    3    3  502    0  0.42593010184E+03  0.49129939585E+02  0.37202786522E+03  0.56767686681E+03  0.46999998093E+01 0.  1.
       -5    1    3    3    0  502 -0.42593010184E+03 -0.49129939585E+02 -0.14619390132E+03  0.45301760385E+03  0.46999998093E+01 0. -1.
</event>
<event>
 5   0  0.1548000E-03  0.9962850E+03  0.7818609E-02  0.9312629E-01
        3   -1    0    0  501    0  0.00000000000E+00  0.00000000000E+00  0.47495226975E+03  0.47495228049E+03  0.10100000352E+00 0. -1.
       -3   -1    0    0    0  501  0.00000000000E+00  0.00000000000E+00 -0.52246504430E+03  0.52246505406E+03  0.10100000352E+00 0.  1.
    10030    2    1    2    0    0  0.00000000000E+00  0.00000000000E+00 -0.47512774547E+02  0.99741733456E+03  0.99628503729E+03 0.  0.
        5    1    3    3  502    0  0.47755223143E+03  0.14080317953E+03 -0.81756095709E+01  0.49796646444E+03  0.46999998093E+01 0. -1.
       -5    1    3    3    0  502 -0.47755223143E+03 -0.14080317953E+03 -0.39337164977E+02  0.49945087012E+03  0.46999998093E+01 0.  1.
</event>
<event>
 5   0  0.2378609E-03  0.9910961E+03  0.7818609E-02  0.9318365E-01
       -1   -1    0    0    0  501  0.00000000000E+00  0.00000000000E+00  0.54293029710E+03  0.54293029712E+03  0.50400001928E-02 0. -1.
        1   -1    0    0  501    0  0.00000000000E+00  0.00000000000E+00 -0.45230086923E+03  0.45230086925E+03  0.50400001928E-02 0.  1.
    10030    2    1    2    0    0  0.00000000000E+00  0.00000000000E+00  0.90629427875E+02  0.99523116638E+03  0.99109605051E+03 0.  0.
        1    1    3    3  502    0 -0.19058030913E+03 -0.45720161740E+03  0.59993230032E+02  0.49895226311E+03  0.50400001928E-02 0. -1.
       -1    1    3    3    0  502  0.19058030913E+03  0.45720161740E+03  0.30636197843E+02  0.49627890327E+03  0.50400001928E-02 0.  1.
</event>
<event>
 5   0  0.4140860E-03  0.9790794E+03  0.7818609E-02  0.9331792E-01
       -2   -1    0    0    0  501  0.00000000000E+00  0.00000000000E+00  0.36889765856E+03  0.36889765856E+03  0.25500000920E-02 0.  1.
        2   -1    0    0  501    0  0.00000000000E+00  0.00000000000E+00 -0.64963584234E+03  0.64963584235E+03  0.25500000920E-02 0. -1.
    10030    2    1    2    0    0  0.00000000000E+00  0.00000000000E+00 -0.28073818379E+03  0.10185335009E+04  0.97907944757E+03 0.  0.
        3    1    3    3  502    0 -0.43215095430E+03 -0.18090112701E+02 -0.37888412812E+03  0.57500860187E+03  0.10100000352E+00 0. -1.
       -3    1    3    3    0  502  0.43215095430E+03  0.18090112701E+02  0.98145944331E+02  0.44352489904E+03  0.10100000352E+00 0.  1.
</event>
<event>
 5   0  0.2313036E-03  0.1003965E+04  0.7818609E-02  0.9304207E-01
        1   -1    0    0  501    0  0.00000000000E+00  0.00000000000E+00  0.14010619077E+04  0.14010619077E+04  0.50400001928E-02 0. -1.
       -1   -1    0    0    0  501  0.00000000000E+00  0.00000000000E+00 -0.17985384038E+03  0.17985384045E+03  0.50400001928E-02 0.  1.
    10030    2    1    2    0    0  0.00000000000E+00  0.00000000000E+00  0.12212080673E+04  0.15809157482E+04  0.10039648694E+04 0.  0.
        3    1    3    3  502    0 -0.14860528789E+03 -0.23505248172E+03  0.12686836296E+04  0.12988038201E+04  0.10100000352E+00 0. -1.
       -3    1    3    3    0  502  0.14860528789E+03  0.23505248172E+03 -0.47475562296E+02  0.28211192809E+03  0.10100000352E+00 0.  1.
</event>
<event>
 5   0  0.3826483E-03  0.9998821E+03  0.7818609E-02  0.9308674E-01
       -2   -1    0    0    0  501  0.00000000000E+00  0.00000000000E+00  0.31610952477E+03  0.31610952478E+03  0.25500000920E-02 0. -1.
        2   -1    0    0  501    0  0.00000000000E+00  0.00000000000E+00 -0.79067858000E+03  0.79067858000E+03  0.25500000920E-02 0.  1.
    10030    2    1    2    0    0  0.00000000000E+00  0.00000000000E+00 -0.47456905523E+03  0.11067881048E+04  0.99988205339E+03 0.  0.
        4    1    3    3  502    0 -0.11671959999E+03  0.46605437167E+03 -0.39030086892E+03  0.61900446166E+03  0.12699999809E+01 0.  1.
       -4    1    3    3    0  502  0.11671959999E+03 -0.46605437167E+03 -0.84268186310E+02  0.48778364312E+03  0.12699999809E+01 0. -1.
</event>
<event>
 5   0  0.4140860E-03  0.1001174E+04  0.7818609E-02  0.9307259E-01
       -2   -1    0    0    0  501  0.00000000000E+00  0.00000000000E+00  0.16487178623E+03  0.16487178625E+03  0.25500000920E-02 0. -1.
        2   -1    0    0  501    0  0.00000000000E+00  0.00000000000E+00 -0.15198911296E+04  0.15198911296E+04  0.25500000920E-02 0.  1.
    10030    2    1    2    0    0  0.00000000000E+00  0.00000000000E+00 -0.13550193433E+04  0.16847629158E+04  0.10011736421E+04 0.  0.
        3    1    3    3  502    0 -0.26868755651E+03 -0.34100701542E+03 -0.25813283013E+03  0.50508549354E+03  0.10100000352E+00 0. -1.
       -3    1    3    3    0  502  0.26868755651E+03  0.34100701542E+03 -0.10968865132E+04  0.11796774223E+04  0.10100000352E+00 0.  1.
</event>
<event>
 5   0  0.3895011E-03  0.1016104E+04  0.7818609E-02  0.9291056E-01
        2   -1    0    0  501    0  0.00000000000E+00  0.00000000000E+00  0.21406076191E+03  0.21406076192E+03  0.25500000920E-02 0. -1.
       -2   -1    0    0    0  501  0.00000000000E+00  0.00000000000E+00 -0.12058110140E+04  0.12058110140E+04  0.25500000920E-02 0.  1.
    10030    2    1    2    0    0  0.00000000000E+00  0.00000000000E+00 -0.99175025208E+03  0.14198717759E+04  0.10161039797E+04 0.  0.
        2    1    3    3  502    0  0.63725685596E+02  0.13019247055E+03 -0.11763029218E+04  0.11852002389E+04  0.25500000920E-02 0.  1.
       -2    1    3    3    0  502 -0.63725685596E+02 -0.13019247055E+03  0.18455266971E+03  0.23467153704E+03  0.25500000920E-02 0. -1.
</event>
<event>
 5   0  0.2327595E-03  0.1014428E+04  0.7818609E-02  0.9292861E-01
       -1   -1    0    0    0  501  0.00000000000E+00  0.00000000000E+00  0.24077676493E+03  0.24077676498E+03  0.50400001928E-02 0.  1.
        1   -1    0    0  501    0  0.00000000000E+00  0.00000000000E+00 -0.10684829420E+04  0.10684829421E+04  0.50400001928E-02 0. -1.
    10030    2    1    2    0    0  0.00000000000E+00  0.00000000000E+00 -0.82770617712E+03  0.13092597070E+04  0.10144276538E+04 0.  0.
        5    1    3    3  502    0  0.16946021860E+03 -0.28935121848E+03 -0.90497954179E+03  0.96511706771E+03  0.46999998093E+01 0. -1.
       -5    1    3    3    0  502 -0.16946021860E+03  0.28935121848E+03  0.77273364673E+02  0.34414263933E+03  0.46999998093E+01 0.  1.
</event>
<event>
 5   0  0.2378609E-03  0.1008578E+04  0.7818609E-02  0.9299187E-01
        1   -1    0    0  501    0  0.00000000000E+00  0.00000000000E+00  0.17750385113E+03  0.17750385120E+03  0.50400001928E-02 0. -1.
       -1   -1    0    0    0  501  0.00000000000E+00  0.00000000000E+00 -0.14326854792E+04  0.14326854792E+04  0.50400001928E-02 0.  1.
    10030    2    1    2    0    0  0.00000000000E+00  0.00000000000E+00 -0.12551816280E+04  0.16101893304E+04  0.10085775926E+04 0.  0.
        1    1    3    3  502    0 -0.22261482334E+03  0.41429037181E+03 -0.33707553294E+03  0.57863095897E+03  0.50400001928E-02 0. -1.
       -1    1    3    3    0  502  0.22261482334E+03 -0.41429037181E+03 -0.91810609508E+03  0.10315583714E+04  0.50400001928E-02 0.  1.
</event>
<event>
 5   0  0.3826483E-03  0.9951285E+03  0.7818609E-02  0.9313904E-01
       -2   -1    0    0    0  501  0.00000000000E+00  0.00000000000E+00  0.44270698524E+03  0.44270698524E+03  0.25500000920E-02 0. -1.
        2   -1    0    0  501    0  0.00000000000E+00  0.00000000000E+00 -0.55921903378E+03  0.55921903379E+03  0.25500000920E-02 0.  1.
    10030    2    1    2    0    0  0.00000000000E+00  0.00000000000E+00 -0.11651204855E+03  0.10019260190E+04  0.99512847922E+03 0.  0.
        4    1    3    3  502    0  0.30881153943E+03 -0.38577593165E+03  0.28686603351E+00  0.49415516947E+03  0.12699999809E+01 0.  1.
       -4    1    3    3    0  502 -0.30881153943E+03  0.38577593165E+03 -0.11679891458E+03  0.50777084956E+03  0.12699999809E+01 0. -1.
</event>
<event>
 5   0  0.3826483E-03  0.9998786E+03  0.7818609E-02  0.9308678E-01
        2   -1    0    0  501    0  0.00000000000E+00  0.00000000000E+00  0.87620582883E+03  0.87620582883E+03  0.25500000920E-02 0.  1.
       -2   -1    0    0    0  501  0.00000000000E+00  0.00000000000E+00 -0.28525179794E+03  0.28525179795E+03  0.25500000920E-02 0. -1.
    10030    2    1    2    0    0  0.00000000000E+00  0.00000000000E+00  0.59095403089E+03  0.11614576268E+04  0.99987856871E+03 0.  0.
        4    1    3    3  502    0  0.30208822543E+03 -0.84934470184E+02 -0.15660208155E+03  0.35070925995E+03  0.12699999809E+01 0. -1.
       -4    1    3    3    0  502 -0.30208822543E+03  0.84934470184E+02  0.74755611244E+03  0.81074836683E+03  0.12699999809E+01 0.  1.
</event>
<event>
 5   0  0.3873874E-03  0.9938691E+03  0.7818609E-02  0.9315295E-01
        2   -1    0    0  501    0  0.00000000000E+00  0.00000000000E+00  0.81664669631E+03  0.81664669632E+03  0.25500000920E-02 0. -1.
       -2   -1    0    0    0  501  0.00000000000E+00  0.00000000000E+00 -0.30238771027E+03  0.30238771028E+03  0.25500000920E-02 0.  1.
    10030    2    1    2    0    0  0.00000000000E+00  0.00000000000E+00  0.51425898604E+03  0.11190344066E+04  0.99386905497E+03 0.  0.
        5    1    3    3  502    0 -0.87520913329E+02  0.17879641172E+02  0.80750707907E+03  0.81244653029E+03  0.46999998093E+01 0. -1.
       -5    1    3    3    0  502  0.87520913329E+02 -0.17879641172E+02 -0.29324809303E+03  0.30658787631E+03  0.46999998093E+01 0.  1.
</event>
<event>
 5   0  0.4140860E-03  0.1056681E+04  0.7818609E-02  0.9248473E-01
       -2   -1    0    0    0  501  0.00000000000E+00  0.00000000000E+00  0.24280423873E+03  0.24280423874E+03  0.25500000920E-02 0.  1.
        2   -1    0    0  501    0  0.00000000000E+00  0.00000000000E+00 -0.11496663657E+04  0.11496663657E+04  0.25500000920E-02 0. -1.
    10030    2    1    2    0    0  0.00000000000E+00  0.00000000000E+00 -0.90686212696E+03  0.13924706044E+04  0.10566813460E+04 0.  0.
        3    1    3    3  502    0 -0.12532887177E+03  0.98621952060E+02  0.21032880960E+03  0.26395422686E+03  0.10100000352E+00 0.  1.
       -3    1    3    3    0  502  0.12532887177E+03 -0.98621952060E+02 -0.11171909366E+04  0.11285163776E+04  0.10100000352E+00 0. -1.
</event>
<event>
 5   0  0.3826483E-03  0.1053348E+04  0.7818609E-02  0.9251894E-01
       -2   -1    0    0    0  501  0.00000000000E+00  0.00000000000E+00  0.16144422211E+03  0.16144422213E+03  0.25500000920E-02 0. -1.
        2   -1    0    0  501    0  0.00000000000E+00  0.00000000000E+00 -0.17181507685E+04  0.17181507685E+04  0.25500000920E-02 0.  1.
    10030    2    1    2    0    0  0.00000000000E+00  0.00000000000E+00 -0.15567065464E+04  0.18795949906E+04  0.10533480228E+04 0.  0.
        4    1    3    3  502    0 -0.11824196436E+03  0.50329145590E+03 -0.95768732024E+03  0.10883244314E+04  0.12699999809E+01 0.  1.
       -4    1    3    3    0  502  0.11824196436E+03 -0.50329145590E+03 -0.59901922616E+03  0.79127055924E+03  0.12699999809E+01 0. -1.
</event>
<event>
 5   0  0.1548000E-03  0.1005899E+04  0.7818609E-02  0.9302099E-01
       -3   -1    0    0    0  501  0.00000000000E+00  0.00000000000E+00  0.29756264009E+03  0.29756265723E+03  0.10100000352E+00 0. -1.
        3   -1    0    0  501    0  0.00000000000E+00  0.00000000000E+00 -0.85010014025E+03  0.85010014625E+03  0.10100000352E+00 0.  1.
    10030    2    1    2    0    0  0.00000000000E+00  0.00000000000E+00 -0.55253750015E+03  0.11476628035E+04  0.10058987133E+04 0.  0.
        5    1    3    3  502    0  0.28757408875E+03  0.36640017421E+02 -0.74515549820E+03  0.79957498328E+03  0.46999998093E+01 0.  1.
       -5    1    3    3    0  502 -0.28757408875E+03 -0.36640017421E+02  0.19261799805E+03  0.34808782019E+03  0.46999998093E+01 0. -1.
</event>
<event>
 5   0  0.2327595E-03  0.1005309E+04  0.7818609E-02  0.9302741E-01
       -1   -1    0    0    0  501  0.00000000000E+00  0.00000000000E+00  0.28104458205E+03  0.28104458209E+03  0.50400001928E-02 0.  1.
        1   -1    0    0  501    0  0.00000000000E+00  0.00000000000E+00 -0.89900950660E+03  0.89900950662E+03  0.50400001928E-02 0. -1.
    10030    2    1    2    0    0  0.00000000000E+00  0.00000000000E+00 -0.61796492456E+03  0.11800540887E+04  0.10053094072E+04 0.  0.
        5    1    3    3  502    0  0.46992203673E+03 -0.13023429718E+03 -0.45203454148E+03  0.66493985401E+03  0.46999998093E+01 0. -1.
       -5    1    3    3    0  502 -0.46992203673E+03  0.13023429718E+03 -0.16593038308E+03  0.51511423470E+03  0.46999998093E+01 0.  1.
</event>
<event>
 5   0  0.2350769E-03  0.1000472E+04  0.7818609E-02  0.9308027E-01
       -1   -1    0    0    0  501  0.00000000000E+00  0.00000000000E+00  0.22451762029E+03  0.22451762034E+03  0.50400001928E-02 0.  1.
        1   -1    0    0  501    0  0.00000000000E+00  0.00000000000E+00 -0.11145501005E+04  0.11145501005E+04  0.50400001928E-02 0. -1.
    10030    2    1    2    0    0  0.00000000000E+00  0.00000000000E+00 -0.89003248025E+03  0.13390677209E+04  0.10004721611E+04 0.  0.
        2    1    3    3  502    0  0.13219502381E+03  0.33513678709E+03  0.19488360995E+02  0.36079355122E+03  0.25500000920E-02 0.  1.
       -2    1    3    3    0  502 -0.13219502381E+03 -0.33513678709E+03 -0.90952084124E+03  0.97827416967E+03  0.25500000920E-02 0. -1.
</event>
<event>
 5   0  0.1548000E-03  0.1000287E+04  0.7818609E-02  0.9308231E-01
       -3   -1    0    0    0  501  0.00000000000E+00  0.00000000000E+00  0.98594258135E+03  0.98594258653E+03  0.10100000352E+00 0.  1.
        3   -1    0    0  501    0  0.00000000000E+00  0.00000000000E+00 -0.25370977533E+03  0.25370979543E+03  0.10100000352E+00 0. -1.
    10030    2    1    2    0    0  0.00000000000E+00  0.00000000000E+00  0.73223280602E+03  0.12396523820E+04  0.10002865319E+04 0.  0.
        3    1    3    3  502    0  0.42602699340E+03  0.25805113685E+03  0.30995164799E+03  0.58665102287E+03  0.10100000352E+00 0.  1.
       -3    1    3    3    0  502 -0.42602699340E+03 -0.25805113685E+03  0.42228115803E+03  0.65300135909E+03  0.10100000352E+00 0. -1.
</event>
<event>
 5   0  0.3826483E-03  0.1009336E+04  0.7818609E-02  0.9298365E-01
       -2   -1    0    0    0  501  0.00000000000E+00  0.00000000000E+00  0.20356813973E+03  0.20356813975E+03  0.25500000920E-02 0. -1.
        2   -1    0    0  501    0  0.00000000000E+00  0.00000000000E+00 -0.12511267463E+04  0.12511267463E+04  0.25500000920E-02 0.  1.
    10030    2    1    2    0    0  0.00000000000E+00  0.00000000000E+00 -0.10475586066E+04  0.14546948861E+04  0.10093355128E+04 0.  0.
        4    1    3    3  502    0 -0.20654247254E+03 -0.33715952854E+03 -0.97576745720E+03  0.10528343099E+04  0.12699999809E+01 0.  1.
       -4    1    3    3    0  502  0.20654247254E+03  0.33715952854E+03 -0.71791149366E+02  0.40186057616E+03  0.12699999809E+01 0. -1.
</event>
<event>
 5   0  0.4140860E-03  0.9996252E+03  0.7818609E-02  0.9308956E-01
       -2   -1    0    0    0  501  0.00000000000E+00  0.00000000000E+00  0.15380123389E+03  0.15380123392E+03  0.25500000920E-02 0. -1.
        2   -1    0    0  501    0  0.00000000000E+00  0.00000000000E+00 -0.16242565225E+04  0.16242565225E+04  0.25500000920E-02 0.  1.
    10030    2    1    2    0    0  0.00000000000E+00  0.00000000000E+00 -0.14704552887E+04  0.17780577565E+04  0.99962524448E+03 0.  0.
        3    1    3    3  502    0 -0.39008486940E+03 -0.30423988831E+03 -0.60839409416E+03  0.78413742353E+03  0.10100000352E+00 0. -1.
       -3    1    3    3    0  502  0.39008486940E+03  0.30423988831E+03 -0.86206119449E+03  0.99392033294E+03  0.10100000352E+00 0.  1.
</event>
<event>
 5   0  0.2327595E-03  0.1003239E+04  0.7818609E-02  0.9304999E-01
       -1   -1    0    0    0  501  0.00000000000E+00  0.00000000000E+00  0.31726190306E+03  0.31726190310E+03  0.50400001928E-02 0. -1.
        1   -1    0    0  501    0  0.00000000000E+00  0.00000000000E+00 -0.79310550369E+03  0.79310550371E+03  0.50400001928E-02 0.  1.
    10030    2    1    2    0    0  0.00000000000E+00  0.00000000000E+00 -0.47584360063E+03  0.11103674068E+04  0.10032390771E+04 0.  0.
        5    1    3    3  502    0 -0.16821129831E+03  0.27669939998E+03 -0.66189673466E+03  0.73687649995E+03  0.46999998093E+01 0.  1.
       -5    1    3    3    0  502  0.16821129831E+03 -0.27669939998E+03  0.18605313403E+03  0.37349090686E+03  0.46999998093E+01 0. -1.
</event>
<event>
 5   0  0.3895011E-03  0.1001150E+04  0.7818609E-02  0.9307284E-01
       -2   -1    0    0    0  501  0.00000000000E+00  0.00000000000E+00  0.16302529792E+03  0.16302529794E+03  0.25500000920E-02 0. -1.
        2   -1    0    0  501    0  0.00000000000E+00  0.00000000000E+00 -0.15370342409E+04  0.15370342409E+04  0.25500000920E-02 0.  1.
    10030    2    1    2    0    0  0.00000000000E+00  0.00000000000E+00 -0.13740089430E+04  0.17000595388E+04  0.10011502686E+04 0.  0.
        2    1    3    3  502    0 -0.28892646738E+03  0.13931312409E+03 -0.34417098917E+02  0.32260066150E+03  0.25500000920E-02 0. -1.
       -2    1    3    3    0  502  0.28892646738E+03 -0.13931312409E+03 -0.13395918440E+04  0.13774588773E+04  0.25500000920E-02 0.  1.
</event>
<event>
 5   0  0.3826483E-03  0.1000282E+04  0.7818609E-02  0.9308236E-01
       -2   -1    0    0    0  501  0.00000000000E+00  0.00000000000E+00  0.21454896221E+03  0.21454896223E+03  0.25500000920E-02 0.  1.
        2   -1    0    0  501    0  0.00000000000E+00  0.00000000000E+00 -0.11658923483E+04  0.11658923483E+04  0.25500000920E-02 0. -1.
    10030    2    1    2    0    0  0.00000000000E+00  0.00000000000E+00 -0.95134338605E+03  0.13804413105E+04  0.10002819470E+04 0.  0.
        4    1    3    3  502    0 -0.25514369052E+03 -0.88244579754E+02  0.10535154756E+03  0.28980333010E+03  0.12699999809E+01 0.  1.
       -4    1    3    3    0  502  0.25514369052E+03  0.88244579754E+02 -0.10566949336E+04  0.10906379804E+04  0.12699999809E+01 0. -1.
</event>
<event>
 5   0  0.2378609E-03  0.9759607E+03  0.7818609E-02  0.9335311E-01
       -1   -1    0    0    0  501  0.00000000000E+00  0.00000000000E+00  0.30923425540E+03  0.30923425544E+03  0.50400001928E-02 0. -1.
        1   -1    0    0  501    0  0.00000000000E+00  0.00000000000E+00 -0.77004668982E+03  0.77004668984E+03  0.50400001928E-02 0.  1.
    10030    2    1    2    0    0  0.00000000000E+00  0.00000000000E+00 -0.46081243443E+03  0.10792809453E+04  0.97596068523E+03 0.  0.
        1    1    3    3  502    0  0.28554535634E+03  0.33518337407E+03 -0.46300826016E+03  0.63895281029E+03  0.50400001928E-02 0.  1.
       -1    1    3    3    0  502 -0.28554535634E+03 -0.33518337407E+03  0.21958257297E+01  0.44032813498E+03  0.50400001928E-02 0. -1.
</event>
<event>
 5   0  0.3895011E-03  0.1002028E+04  0.7818609E-02  0.9306324E-01
       -2   -1    0    0    0  501  0.00000000000E+00  0.00000000000E+00  0.47790920927E+03  0.47790920927E+03  0.25500000920E-02 0.  1.
        2   -1    0    0  501    0  0.00000000000E+00  0.00000000000E+00 -0.52523539818E+03  0.52523539819E+03  0.25500000920E-02 0. -1.
    10030    2    1    2    0    0  0.00000000000E+00  0.00000000000E+00 -0.47326188911E+02  0.10031446075E+04  0.10020276121E+04 0.  0.
        2    1    3    3  502    0  0.61212701967E+02  0.45080122647E+03 -0.23376865684E+03  0.51148462890E+03  0.25500000920E-02 0. -1.
       -2    1    3    3    0  502 -0.61212701967E+02 -0.45080122647E+03  0.18644246793E+03  0.49165997856E+03  0.25500000920E-02 0.  1.
</event>
<event>
 5   0  0.2327595E-03  0.9941264E+03  0.7818609E-02  0.9315010E-01
        1   -1    0    0  501    0  0.00000000000E+00  0.00000000000E+00  0.34723692475E+03  0.34723692479E+03  0.50400001928E-02 0. -1.
       -1   -1    0    0    0  501  0.00000000000E+00  0.00000000000E+00 -0.71153667206E+03  0.71153667208E+03  0.50400001928E-02 0.  1.
    10030    2    1    2    0    0  0.00000000000E+00  0.00000000000E+00 -0.36429974731E+03  0.10587735969E+04  0.99412636196E+03 0.  0.
        5    1    3    3  502    0  0.15116808598E+03 -0.98721182919E+02  0.31105415674E+03  0.35968658663E+03  0.46999998093E+01 0. -1.
       -5    1    3    3    0  502 -0.15116808598E+03  0.98721182919E+02 -0.67535390405E+03  0.69908701024E+03  0.46999998093E+01 0.  1.
</event>
<event>
 5   0  0.1548000E-03  0.1002113E+04  0.7818609E-02  0.9306230E-01
        3   -1    0    0  501    0  0.00000000000E+00  0.00000000000E+00  0.86259344756E+03  0.86259345347E+03  0.10100000352E+00 0.  1.
       -3   -1    0    0    0  501  0.00000000000E+00  0.00000000000E+00 -0.29104998377E+03  0.29105000129E+03  0.10100000352E+00 0. -1.
    10030    2    1    2    0    0  0.00000000000E+00  0.00000000000E+00  0.57154346379E+03  0.11536434548E+04  0.10021134116E+04 0.  0.
        1    1    3    3  502    0 -0.36849524994E+03  0.30349548238E+03  0.46096601659E+03  0.66361730352E+03  0.50400001928E-02 0.  1.
       -1    1    3    3    0  502  0.36849524994E+03 -0.30349548238E+03  0.11057744720E+03  0.49002615125E+03  0.50400001928E-02 0. -1.
</event>
<event>
 5   0  0.2378609E-03  0.1000829E+04  0.7818609E-02  0.9307636E-01
       -1   -1    0    0    0  501  0.00000000000E+00  0.00000000000E+00  0.93899896097E+03  0.93899896099E+03  0.50400001928E-02 0.  1.
        1   -1    0    0  501    0  0.00000000000E+00  0.00000000000E+00 -0.26668242276E+03  0.26668242281E+03  0.50400001928E-02 0. -1.
    10030    2    1    2    0    0  0.00000000000E+00  0.00000000000E+00  0.67231653821E+03  0.12056813838E+04  0.10008286925E+04 0.  0.
        1    1    3    3  502    0  0.37194112793E+03 -0.15862072745E+03 -0.18996071703E+02  0.40479820724E+03  0.50400001928E-02 0. -1.
       -1    1    3    3    0  502 -0.37194112793E+03  0.15862072745E+03  0.69131260992E+03  0.80088317655E+03  0.50400001928E-02 0.  1.
</event>
<event>
 5   0  0.3873874E-03  0.9930763E+03  0.7818609E-02  0.9316171E-01
       -2   -1    0    0    0  501  0.00000000000E+00  0.00000000000E+00  0.20851398396E+03  0.20851398398E+03  0.25500000920E-02 0.  1.
        2   -1    0    0  501    0  0.00000000000E+00  0.00000000000E+00 -0.11824154520E+04  0.11824154520E+04  0.25500000920E-02 0. -1.
    10030    2    1    2    0    0  0.00000000000E+00  0.00000000000E+00 -0.97390146805E+03  0.13909294360E+04  0.99307634472E+03 0.  0.
        5    1    3    3  502    0  0.18269927090E+03  0.40588478718E+03 -0.17879186422E+03  0.47969793075E+03  0.46999998093E+01 0.  1.
       -5    1    3    3    0  502 -0.18269927090E+03 -0.40588478718E+03 -0.79510960383E+03  0.91123150525E+03  0.46999998093E+01 0. -1.
</event>
<event>
 5   0  0.2327595E-03  0.1001420E+04  0.7818609E-02  0.9306988E-01
        1   -1    0    0  501    0  0.00000000000E+00  0.00000000000E+00  0.81259568974E+03  0.81259568976E+03  0.50400001928E-02 0.  1.
       -1   -1    0    0    0  501  0.00000000000E+00  0.00000000000E+00 -0.30853061486E+03  0.30853061490E+03  0.50400001928E-02 0. -1.
    10030    2    1    2    0    0  0.00000000000E+00  0.00000000000E+00  0.50406507488E+03  0.11211263047E+04  0.10014202870E+04 0.  0.
        5    1    3    3  502    0 -0.18446819349E+02  0.12120519382E+03 -0.29144157022E+03  0.31621395131E+03  0.46999998093E+01 0. -1.
       -5    1    3    3    0  502  0.18446819349E+02 -0.12120519382E+03  0.79550664511E+03  0.80491235334E+03  0.46999998093E+01 0.  1.
</event>
<event>
 5   0  0.4140860E-03  0.9973493E+03  0.7818609E-02  0.9311457E-01
       -2   -1    0    0    0  501  0.00000000000E+00  0.00000000000E+00  0.46332898759E+03  0.46332898759E+03  0.25500000920E-02 0.  1.
        2   -1    0    0  501    0  0.00000000000E+00  0.00000000000E+00 -0.53671673774E+03  0.53671673775E+03  0.25500000920E-02 0. -1.
    10030    2    1    2    0    0  0.00000000000E+00  0.00000000000E+00 -0.73387750157E+02  0.10000457253E+04  0.99734933243E+03 0.  0.
        3    1    3    3  502    0  0.46095397429E+03  0.33240820435E+02  0.15114355969E+03  0.48623852623E+03  0.10100000352E+00 0. -1.
       -3    1    3    3    0  502 -0.46095397429E+03 -0.33240820435E+02 -0.22453130985E+03  0.51380719911E+03  0.10100000352E+00 0.  1.
</event>
<event>
 5   0  0.2378609E-03  0.1003573E+04  0.7818609E-02  0.9304634E-01
       -1   -1    0    0    0  501  0.00000000000E+00  0.00000000000E+00  0.54725003293E+03  0.54725003295E+03  0.50400001928E-02 0.  1.
        1   -1    0    0  501    0  0.00000000000E+00  0.00000000000E+00 -0.46010018679E+03  0.46010018682E+03  0.50400001928E-02 0. -1.
    10030    2    1    2    0    0  0.00000000000E+00  0.00000000000E+00  0.87149846141E+02  0.10073502198E+04  0.10035733006E+04 0.  0.
        1    1    3    3  502    0  0.46441508382E+03  0.17055406820E+03  0.12767438226E+03  0.51095088626E+03  0.50400001928E-02 0. -1.
       -1    1    3    3    0  502 -0.46441508382E+03 -0.17055406820E+03 -0.40524536116E+02  0.49639933351E+03  0.50400001928E-02 0.  1.
</event>
<event>
 5   0  0.2313036E-03  0.1000983E+04  0.7818609E-02  0.9307467E-01
        1   -1    0    0  501    0  0.00000000000E+00  0.00000000000E+00  0.48384752416E+03  0.48384752418E+03  0.50400001928E-02 0.  1.
       -1   -1    0    0    0  501  0.00000000000E+00  0.00000000000E+00 -0.51770795083E+03  0.51770795086E+03  0.50400001928E-02 0. -1.
    10030    2    1    2    0    0  0.00000000000E+00  0.00000000000E+00 -0.33860426678E+02  0.10015554750E+04  0.10009829375E+04 0.  0.
        3    1    3    3  502    0  0.23521218149E+03  0.75153489752E+02 -0.45251688094E+03  0.51550398164E+03  0.10100000352E+00 0. -1.
       -3    1    3    3    0  502 -0.23521218149E+03 -0.75153489752E+02  0.41865645426E+03  0.48605149341E+03  0.10100000352E+00 0.  1.
</event>
<event>
 5   0  0.4140860E-03  0.1012273E+04  0.7818609E-02  0.9295186E-01
       -2   -1    0    0    0  501  0.00000000000E+00  0.00000000000E+00  0.38159846921E+03  0.38159846922E+03  0.25500000920E-02 0. -1.
        2   -1    0    0  501    0  0.00000000000E+00  0.00000000000E+00 -0.67131828671E+03  0.67131828672E+03  0.25500000920E-02 0.  1.
    10030    2    1    2    0    0  0.00000000000E+00  0.00000000000E+00 -0.28971981750E+03  0.10529167559E+04  0.10122727509E+04 0.  0.
        3    1    3    3  502    0  0.35377894796E+03  0.19597649087E+03 -0.46139365632E+03  0.61355557636E+03  0.10100000352E+00 0.  1.
       -3    1    3    3    0  502 -0.35377894796E+03 -0.19597649087E+03  0.17167383881E+03  0.43936117958E+03  0.10100000352E+00 0. -1.
</event>
<event>
 5   0  0.3873874E-03  0.9594576E+03  0.7818609E-02  0.9354164E-01
        2   -1    0    0  501    0  0.00000000000E+00  0.00000000000E+00  0.19229402688E+03  0.19229402690E+03  0.25500000920E-02 0. -1.
       -2   -1    0    0    0  501  0.00000000000E+00  0.00000000000E+00 -0.11968116678E+04  0.11968116678E+04  0.25500000920E-02 0.  1.
    10030    2    1    2    0    0  0.00000000000E+00  0.00000000000E+00 -0.10045176409E+04  0.13891056947E+04  0.95945762813E+03 0.  0.
        5    1    3    3  502    0 -0.31620172906E+01  0.13336292576E+03  0.16486579596E+03  0.21212847285E+03  0.46999998093E+01 0. -1.
       -5    1    3    3    0  502  0.31620172906E+01 -0.13336292576E+03 -0.11693834369E+04  0.11769772219E+04  0.46999998093E+01 0.  1.
</event>
<event>
 5   0  0.3873874E-03  0.9851836E+03  0.7818609E-02  0.9324946E-01
       -2   -1    0    0    0  501  0.00000000000E+00  0.00000000000E+00  0.71532291045E+03  0.71532291045E+03  0.25500000920E-02 0. -1.
        2   -1    0    0  501    0  0.00000000000E+00  0.00000000000E+00 -0.33921282090E+03  0.33921282091E+03  0.25500000920E-02 0.  1.
    10030    2    1    2    0    0  0.00000000000E+00  0.00000000000E+00  0.37611008955E+03  0.10545357314E+04  0.98518364240E+03 0.  0.
        5    1    3    3  502    0  0.35843792000E+02 -0.46844018518E+03  0.29637917761E+02  0.47076690696E+03  0.46999998093E+01 0. -1.
       -5    1    3    3    0  502 -0.35843792000E+02  0.46844018518E+03  0.34647217179E+03  0.58376882440E+03  0.46999998093E+01 0.  1.
</event>
<event>
 5   0  0.2405022E-03  0.1002257E+04  0.7818609E-02  0.9306073E-01
        1   -1    0    0  501    0  0.00000000000E+00  0.00000000000E+00  0.71734756227E+03  0.71734756228E+03  0.50400001928E-02 0. -1.
       -1   -1    0    0    0  501  0.00000000000E+00  0.00000000000E+00 -0.35008091764E+03  0.35008091767E+03  0.50400001928E-02 0.  1.
    10030    2    1    2    0    0  0.00000000000E+00  0.00000000000E+00  0.36726664463E+03  0.10674284800E+04  0.10022568391E+04 0.  0.
        4    1    3    3  502    0 -0.30940750051E+03 -0.16397404154E+03 -0.19815632780E+03  0.40235311707E+03  0.12699999809E+01 0.  1.
       -4    1    3    3    0  502  0.30940750051E+03  0.16397404154E+03  0.56542297242E+03  0.66507536289E+03  0.12699999809E+01 0. -1.
</event>
<event>
 5   0  0.2327595E-03  0.1000337E+04  0.7818609E-02  0.9308176E-01
       -1   -1    0    0    0  501  0.00000000000E+00  0.00000000000E+00  0.18320873411E+03  0.18320873418E+03  0.50400001928E-02 0.  1.
        1   -1    0    0  501    0  0.00000000000E+00  0.00000000000E+00 -0.13654826099E+04  0.13654826100E+04  0.50400001928E-02 0. -1.
    10030    2    1    2    0    0  0.00000000000E+00  0.00000000000E+00 -0.11822738758E+04  0.15486913441E+04  0.10003366243E+04 0.  0.
        5    1    3    3  502    0 -0.34317520746E+03 -0.15601228898E+03 -0.11000051799E+04  0.11628166421E+04  0.46999998093E+01 0. -1.
       -5    1    3    3    0  502  0.34317520746E+03  0.15601228898E+03 -0.82268695904E+02  0.38587470201E+03  0.46999998093E+01 0.  1.
</event>
<event>
 5   0  0.2350769E-03  0.1004189E+04  0.7818609E-02  0.9303962E-01
       -1   -1    0    0    0  501  0.00000000000E+00  0.00000000000E+00  0.15244411436E+04  0.15244411436E+04  0.50400001928E-02 0. -1.
        1   -1    0    0  501    0  0.00000000000E+00  0.00000000000E+00 -0.16537131023E+03  0.16537131030E+03  0.50400001928E-02 0.  1.
    10030    2    1    2    0    0  0.00000000000E+00  0.00000000000E+00  0.13590698333E+04  0.16898124539E+04  0.10041888853E+04 0.  0.
        2    1    3    3  502    0  0.13625497902E+03  0.33115112436E+03  0.87277821471E+02  0.36857008098E+03  0.25500000920E-02 0.  1.
       -2    1    3    3    0  502 -0.13625497902E+03 -0.33115112436E+03  0.12717920119E+04  0.13212423729E+04  0.25500000920E-02 0. -1.
</event>
<event>
 5   0  0.2378609E-03  0.1005347E+04  0.7818609E-02  0.9302700E-01
       -1   -1    0    0    0  501  0.00000000000E+00  0.00000000000E+00  0.17263684148E+03  0.17263684155E+03  0.50400001928E-02 0.  1.
        1   -1    0    0  501    0  0.00000000000E+00  0.00000000000E+00 -0.14636543935E+04  0.14636543935E+04  0.50400001928E-02 0. -1.
    10030    2    1    2    0    0  0.00000000000E+00  0.00000000000E+00 -0.12910175520E+04  0.16362912350E+04  0.10053470477E+04 0.  0.
        1    1    3    3  502    0 -0.37831871325E+03 -0.25136647582E+03 -0.99599065534E+03  0.10946723434E+04  0.50400001928E-02 0.  1.
       -1    1    3    3    0  502  0.37831871325E+03  0.25136647582E+03 -0.29502689667E+03  0.54161889160E+03  0.50400001928E-02 0. -1.
</event>
<event>
 5   0  0.1548000E-03  0.1042587E+04  0.7818609E-02  0.9263031E-01
        3   -1    0    0  501    0  0.00000000000E+00  0.00000000000E+00  0.83468376806E+03  0.83468377417E+03  0.10100000352E+00 0.  1.
       -3   -1    0    0    0  501  0.00000000000E+00  0.00000000000E+00 -0.32556861356E+03  0.32556862923E+03  0.10100000352E+00 0. -1.
    10030    2    1    2    0    0  0.00000000000E+00  0.00000000000E+00  0.50911515450E+03  0.11602524034E+04  0.10425868784E+04 0.  0.
        5    1    3    3  502    0  0.15523084020E+03  0.11831815480E+03  0.79246007390E+03  0.81615614819E+03  0.46999998093E+01 0.  1.
       -5    1    3    3    0  502 -0.15523084020E+03 -0.11831815480E+03 -0.28334491940E+03  0.34409625521E+03  0.46999998093E+01 0. -1.
</event>
<event>
 5   0  0.2405022E-03  0.1011995E+04  0.7818609E-02  0.9295486E-01
       -1   -1    0    0    0  501  0.00000000000E+00  0.00000000000E+00  0.22909867936E+03  0.22909867942E+03  0.50400001928E-02 0.  1.
        1   -1    0    0  501    0  0.00000000000E+00  0.00000000000E+00 -0.11175687614E+04  0.11175687614E+04  0.50400001928E-02 0. -1.
    10030    2    1    2    0    0  0.00000000000E+00  0.00000000000E+00 -0.88847008202E+03  0.13466674408E+04  0.10119951134E+04 0.  0.
        4    1    3    3  502    0 -0.97610314679E+02 -0.20542838378E+03  0.15724283407E+03  0.27650590620E+03  0.12699999809E+01 0.  1.
       -4    1    3    3    0  502  0.97610314679E+02  0.20542838378E+03 -0.10457129161E+04  0.10701615346E+04  0.12699999809E+01 0. -1.
</event>
<event>
 5   0  0.4140860E-03  0.9642857E+03  0.7818609E-02  0.9348607E-01
        2   -1    0    0  501    0  0.00000000000E+00  0.00000000000E+00  0.12222855174E+04  0.12222855174E+04  0.25500000920E-02 0.  1.
       -2   -1    0    0    0  501  0.00000000000E+00  0.00000000000E+00 -0.19018609849E+03  0.19018609851E+03  0.25500000920E-02 0. -1.
    10030    2    1    2    0    0  0.00000000000E+00  0.00000000000E+00  0.10320994189E+04  0.14124716159E+04  0.96428567098E+03 0.  0.
        3    1    3    3  502    0  0.35502153232E+03  0.24441379839E+03  0.83253595352E+03  0.93749374257E+03  0.10100000352E+00 0.  1.
       -3    1    3    3    0  502 -0.35502153232E+03 -0.24441379839E+03  0.19956346540E+03  0.47497787335E+03  0.10100000352E+00 0. -1.
</event>
<event>
 5   0  0.3873874E-03  0.9920490E+03  0.7818609E-02  0.9317309E-01
        2   -1    0    0  501    0  0.00000000000E+00  0.00000000000E+00  0.19899171498E+04  0.19899171498E+04  0.25500000920E-02 0. -1.
       -2   -1    0    0    0  501  0.00000000000E+00  0.00000000000E+00 -0.12364350041E+03  0.12364350044E+03  0.25500000920E-02 0.  1.
    10030    2    1    2    0    0  0.00000000000E+00  0.00000000000E+00  0.18662736494E+04  0.21135606502E+04  0.99204903500E+03 0.  0.
        5    1    3    3  502    0  0.35019182730E+03  0.16115751750E+03  0.26818805605E+03  0.46963068975E+03  0.46999998093E+01 0.  1.
       -5    1    3    3    0  502 -0.35019182730E+03 -0.16115751750E+03  0.15980855933E+04  0.16439299605E+04  0.46999998093E+01 0. -1.
</event>
<event>
 5   0  0.3873874E-03  0.1004134E+04  0.7818609E-02  0.9304022E-01
        2   -1    0    0  501    0  0.00000000000E+00  0.00000000000E+00  0.37623876598E+03  0.37623876598E+03  0.25500000920E-02 0. -1.
       -2   -1    0    0    0  501  0.00000000000E+00  0.00000000000E+00 -0.66997662537E+03  0.66997662538E+03  0.25500000920E-02 0.  1.
    10030    2    1    2    0    0  0.00000000000E+00  0.00000000000E+00 -0.29373785940E+03  0.10462153914E+04  0.10041338133E+04 0.  0.
        5    1    3    3  502    0  0.43340917098E+03  0.18243015577E+03 -0.33009323599E+03  0.57455017680E+03  0.46999998093E+01 0.  1.
       -5    1    3    3    0  502 -0.43340917098E+03 -0.18243015577E+03  0.36355376594E+02  0.47166521456E+03  0.46999998093E+01 0. -1.
</event>
<event>
 5   0  0.2378609E-03  0.9974606E+03  0.7818609E-02  0.9311334E-01
        1   -1    0    0  501    0  0.00000000000E+00  0.00000000000E+00  0.14246475639E+04  0.14246475639E+04  0.50400001928E-02 0.  1.
       -1   -1    0    0    0  501  0.00000000000E+00  0.00000000000E+00 -0.17459188663E+03  0.17459188670E+03  0.50400001928E-02 0. -1.
    10030    2    1    2    0    0  0.00000000000E+00  0.00000000000E+00  0.12500556773E+04  0.15992394506E+04  0.99746058774E+03 0.  0.
        1    1    3    3  502    0  0.29583221959E+03  0.38421540766E+03  0.43809440649E+03  0.65350202039E+03  0.50400001928E-02 0.  1.
       -1    1    3    3    0  502 -0.29583221959E+03 -0.38421540766E+03  0.81196127077E+03  0.94573743020E+03  0.50400001928E-02 0. -1.
</event>
<event>
 5   0  0.4026829E-03  0.9936983E+03  0.7818609E-02  0.9315483E-01
       -2   -1    0    0    0  501  0.00000000000E+00  0.00000000000E+00  0.39752890472E+03  0.39752890473E+03  0.25500000920E-02 0. -1.
        2   -1    0    0  501    0  0.00000000000E+00  0.00000000000E+00 -0.62098402417E+03  0.62098402417E+03  0.25500000920E-02 0.  1.
    10030    2    1    2    0    0  0.00000000000E+00  0.00000000000E+00 -0.22345511945E+03  0.10185129289E+04  0.99369834252E+03 0.  0.
        1    1    3    3  502    0 -0.35916045048E+03  0.19881043015E+02  0.23956670085E+03  0.43218478599E+03  0.50400001928E-02 0. -1.
       -1    1    3    3    0  502  0.35916045048E+03 -0.19881043015E+02 -0.46302182030E+03  0.58632814290E+03  0.50400001928E-02 0.  1.
</event>
<event>
 5   0  0.4026829E-03  0.9968757E+03  0.7818609E-02  0.9311978E-01
       -2   -1    0    0    0  501  0.00000000000E+00  0.00000000000E+00  0.28326062347E+03  0.28326062348E+03  0.25500000920E-02 0. -1.
        2   -1    0    0  501    0  0.00000000000E+00  0.00000000000E+00 -0.87707313136E+03  0.87707313136E+03  0.25500000920E-02 0.  1.
    10030    2    1    2    0    0  0.00000000000E+00  0.00000000000E+00 -0.59381250789E+03  0.11603337548E+04  0.99687568337E+03 0.  0.
        1    1    3    3  502    0  0.39005179160E+03  0.30234184492E+03 -0.21551741503E+03  0.53851531782E+03  0.50400001928E-02 0. -1.
       -1    1    3    3    0  502 -0.39005179160E+03 -0.30234184492E+03 -0.37829509286E+03  0.62181843703E+03  0.50400001928E-02 0.  1.
</event>
<event>
 5   0  0.2313036E-03  0.9918355E+03  0.7818609E-02  0.9317545E-01
       -1   -1    0    0    0  501  0.00000000000E+00  0.00000000000E+00  0.11534527130E+04  0.11534527130E+04  0.50400001928E-02 0. -1.
        1   -1    0    0  501    0  0.00000000000E+00  0.00000000000E+00 -0.21321586463E+03  0.21321586469E+03  0.50400001928E-02 0.  1.
    10030    2    1    2    0    0  0.00000000000E+00  0.00000000000E+00  0.94023684837E+03  0.13666685777E+04  0.99183550563E+03 0.  0.
        3    1    3    3  502    0  0.31448241602E+03 -0.14982238499E+03  0.95648361518E+03  0.10179424607E+04  0.10100000352E+00 0. -1.
       -3    1    3    3    0  502 -0.31448241602E+03  0.14982238499E+03 -0.16246766807E+02  0.34872611698E+03  0.10100000352E+00 0.  1.
</event>
<event>
 5   0  0.3826483E-03  0.9929291E+03  0.7818609E-02  0.9316334E-01
       -2   -1    0    0    0  501  0.00000000000E+00  0.00000000000E+00  0.21745077734E+03  0.21745077736E+03  0.25500000920E-02 0.  1.
        2   -1    0    0  501    0  0.00000000000E+00  0.00000000000E+00 -0.11334843841E+04  0.11334843841E+04  0.25500000920E-02 0. -1.
    10030    2    1    2    0    0  0.00000000000E+00  0.00000000000E+00 -0.91603360679E+03  0.13509351615E+04  0.99292912224E+03 0.  0.
        4    1    3    3  502    0 -0.91817717281E+02  0.27713880151E+03  0.88308552628E+02  0.30501872382E+03  0.12699999809E+01 0.  1.
       -4    1    3    3    0  502  0.91817717281E+02 -0.27713880151E+03 -0.10043421594E+04  0.10459164377E+04  0.12699999809E+01 0. -1.
</event>
<event>
 5   0  0.2350769E-03  0.1004144E+04  0.7818609E-02  0.9304012E-01
        1   -1    0    0  501    0  0.00000000000E+00  0.00000000000E+00  0.59483210748E+03  0.59483210750E+03  0.50400001928E-02 0.  1.
       -1   -1    0    0    0  501  0.00000000000E+00  0.00000000000E+00 -0.42377709701E+03  0.42377709704E+03  0.50400001928E-02 0. -1.
    10030    2    1    2    0    0  0.00000000000E+00  0.00000000000E+00  0.17105501047E+03  0.10186092045E+04  0.10041438617E+04 0.  0.
        2    1    3    3  502    0  0.12447690088E+03  0.19309270962E+03 -0.36733041045E+03  0.43325618727E+03  0.25500000920E-02 0. -1.
       -2    1    3    3    0  502 -0.12447690088E+03 -0.19309270962E+03  0.53838542092E+03  0.58535301727E+03  0.25500000920E-02 0.  1.
</event>
<event>
 5   0  0.3895011E-03  0.1004194E+04  0.7818609E-02  0.9303957E-01
        2   -1    0    0  501    0  0.00000000000E+00  0.00000000000E+00  0.21987769903E+03  0.21987769904E+03  0.25500000920E-02 0.  1.
       -2   -1    0    0    0  501  0.00000000000E+00  0.00000000000E+00 -0.11465530426E+04  0.11465530426E+04  0.25500000920E-02 0. -1.
    10030    2    1    2    0    0  0.00000000000E+00  0.00000000000E+00 -0.92667534355E+03  0.13664307416E+04  0.10041940944E+04 0.  0.
        2    1    3    3  502    0 -0.30527963580E+03 -0.35915292706E+03 -0.22798767230E+03  0.52360754366E+03  0.25500000920E-02 0.  1.
       -2    1    3    3    0  502  0.30527963580E+03  0.35915292706E+03 -0.69868767125E+03  0.84282319796E+03  0.25500000920E-02 0. -1.
</event>
<event>
 5   0  0.2378609E-03  0.9990066E+03  0.7818609E-02  0.9309635E-01
        1   -1    0    0  501    0  0.00000000000E+00  0.00000000000E+00  0.54793191652E+03  0.54793191655E+03  0.50400001928E-02 0.  1.
       -1   -1    0    0    0  501  0.00000000000E+00  0.00000000000E+00 -0.45535502537E+03  0.45535502540E+03  0.50400001928E-02 0. -1.
    10030    2    1    2    0    0  0.00000000000E+00  0.00000000000E+00  0.92576891150E+02  0.10032869419E+04  0.99900661014E+03 0.  0.
        1    1    3    3  502    0  0.12109829162E+03  0.27490835602E+03 -0.35450057323E+03  0.46466122809E+03  0.50400001928E-02 0. -1.
       -1    1    3    3    0  502 -0.12109829162E+03 -0.27490835602E+03  0.44707746438E+03  0.53862571386E+03  0.50400001928E-02 0.  1.
</event>
<event>
 5   0  0.3895011E-03  0.1001077E+04  0.7818609E-02  0.9307364E-01
       -2   -1    0    0    0  501  0.00000000000E+00  0.00000000000E+00  0.39160111241E+03  0.39160111242E+03  0.25500000920E-02 0.  1.
        2   -1    0    0  501    0  0.00000000000E+00  0.00000000000E+00 -0.63978079249E+03  0.63978079249E+03  0.25500000920E-02 0. -1.
    10030    2    1    2    0    0  0.00000000000E+00  0.00000000000E+00 -0.24817968008E+03  0.10313819049E+04  0.10010771600E+04 0.  0.
        2    1    3    3  502    0 -0.39430909780E+03  0.28018377616E+03  0.84764292806E+01  0.48379175571E+03  0.25500000920E-02 0.  1.
       -2    1    3    3    0  502  0.39430909780E+03 -0.28018377616E+03 -0.25665610936E+03  0.54759014921E+03  0.25500000920E-02 0. -1.
</event>
<event>
 5   0  0.3873874E-03  0.9925883E+03  0.7818609E-02  0.9316711E-01
       -2   -1    0    0    0  501  0.00000000000E+00  0.00000000000E+00  0.56193297072E+03  0.56193297073E+03  0.25500000920E-02 0.  1.
        2   -1    0    0  501    0  0.00000000000E+00  0.00000000000E+00 -0.43832252848E+03  0.43832252848E+03  0.25500000920E-02 0. -1.
    10030    2    1    2    0    0  0.00000000000E+00  0.00000000000E+00  0.12361044225E+03  0.10002554992E+04  0.99258829445E+03 0.  0.
        5    1    3    3  502    0  0.39760530413E+02  0.27937842648E+03 -0.34957918608E+03  0.44928933027E+03  0.46999998093E+01 0. -1.
       -5    1    3    3    0  502 -0.39760530413E+02 -0.27937842648E+03  0.47318962833E+03  0.55096616894E+03  0.46999998093E+01 0.  1.
</event>
<event>
 5   0  0.3873874E-03  0.1003740E+04  0.7818609E-02  0.9304452E-01
        2   -1    0    0  501    0  0.00000000000E+00  0.00000000000E+00  0.39073465259E+03  0.39073465260E+03  0.25500000920E-02 0. -1.
       -2   -1    0    0    0  501  0.00000000000E+00  0.00000000000E+00 -0.64461555366E+03  0.64461555367E+03  0.25500000920E-02 0.  1.
    10030    2    1    2    0    0  0.00000000000E+00  0.00000000000E+00 -0.25388090107E+03  0.10353502063E+04  0.10037402740E+04 0.  0.
        5    1    3    3  502    0  0.17207184229E+03 -0.31794714297E+03  0.23209059724E+03  0.42963617161E+03  0.46999998093E+01 0. -1.
       -5    1    3    3    0  502 -0.17207184229E+03  0.31794714297E+03 -0.48597149830E+03  0.60571403466E+03  0.46999998093E+01 0.  1.
</event>
<event>
 5   0  0.3873874E-03  0.1000868E+04  0.7818609E-02  0.9307593E-01
       -2   -1    0    0    0  501  0.00000000000E+00  0.00000000000E+00  0.26633479633E+03  0.26633479634E+03  0.25500000920E-02 0.  1.
        2   -1    0    0  501    0  0.00000000000E+00  0.00000000000E+00 -0.94029903138E+03  0.94029903138E+03  0.25500000920E-02 0. -1.
    10030    2    1    2    0    0  0.00000000000E+00  0.00000000000E+00 -0.67396423505E+03  0.12066338277E+04  0.10008683250E+04 0.  0.
        5    1    3    3  502    0  0.39058739938E+03  0.25302473414E+03 -0.55873223228E+03  0.72717524025E+03  0.46999998093E+01 0. -1.
       -5    1    3    3    0  502 -0.39058739938E+03 -0.25302473414E+03 -0.11523200277E+03  0.47945858748E+03  0.46999998093E+01 0.  1.
</event>
<event>
 5   0  0.2378609E-03  0.1003210E+04  0.7818609E-02  0.9305031E-01
        1   -1    0    0  501    0  0.00000000000E+00  0.00000000000E+00  0.26695272154E+04  0.26695272154E+04  0.50400001928E-02 0.  1.
       -1   -1    0    0    0  501  0.00000000000E+00  0.00000000000E+00 -0.94251822995E+02  0.94251823130E+02  0.50400001928E-02 0. -1.
    10030    2    1    2    0    0  0.00000000000E+00  0.00000000000E+00  0.25752753924E+04  0.27637790385E+04  0.10032104600E+04 0.  0.
        1    1    3    3  502    0  0.90866300420E+02  0.43029445467E+03  0.19522441703E+04  0.20011664855E+04  0.50400001928E-02 0. -1.
       -1    1    3    3    0  502 -0.90866300420E+02 -0.43029445467E+03  0.62303122211E+03  0.76261255302E+03  0.50400001928E-02 0.  1.
</event>
<event>
 5   0  0.2378609E-03  0.9944388E+03  0.7818609E-02  0.9314665E-01
       -1   -1    0    0    0  501  0.00000000000E+00  0.00000000000E+00  0.37572994969E+03  0.37572994973E+03  0.50400001928E-02 0.  1.
        1   -1    0    0  501    0  0.00000000000E+00  0.00000000000E+00 -0.65799160482E+03  0.65799160484E+03  0.50400001928E-02 0. -1.
    10030    2    1    2    0    0  0.00000000000E+00  0.00000000000E+00 -0.28226165513E+03  0.10337215546E+04  0.99443884197E+03 0.  0.
        1    1    3    3  502    0  0.25621549301E+03 -0.32170179816E+03  0.14935146520E+03  0.43754346753E+03  0.50400001928E-02 0.  1.
       -1    1    3    3    0  502 -0.25621549301E+03  0.32170179816E+03 -0.43161312033E+03  0.59617808704E+03  0.50400001928E-02 0. -1.
</event>
<event>
 5   0  0.2313036E-03  0.9949357E+03  0.7818609E-02  0.9314117E-01
        1   -1    0    0  501    0  0.00000000000E+00  0.00000000000E+00  0.90756326673E+03  0.90756326674E+03  0.50400001928E-02 0. -1.
       -1   -1    0    0    0  501  0.00000000000E+00  0.00000000000E+00 -0.27267992488E+03  0.27267992493E+03  0.50400001928E-02 0.  1.
    10030    2    1    2    0    0  0.00000000000E+00  0.00000000000E+00  0.63488334185E+03  0.11802431917E+04  0.99493574352E+03 0.  0.
        3    1    3    3  502    0 -0.23911744436E+03 -0.11302888878E+03  0.81724835713E+03  0.85898054072E+03  0.10100000352E+00 0. -1.
       -3    1    3    3    0  502  0.23911744436E+03  0.11302888878E+03 -0.18236501529E+03  0.32126265095E+03  0.10100000352E+00 0.  1.
</event>
<event>
 5   0  0.4026829E-03  0.1001730E+04  0.7818609E-02  0.9306650E-01
       -2   -1    0    0    0  501  0.00000000000E+00  0.00000000000E+00  0.15174182534E+03  0.15174182536E+03  0.25500000920E-02 0. -1.
        2   -1    0    0  501    0  0.00000000000E+00  0.00000000000E+00 -0.16532397344E+04  0.16532397344E+04  0.25500000920E-02 0.  1.
    10030    2    1    2    0    0  0.00000000000E+00  0.00000000000E+00 -0.15014979090E+04  0.18049815597E+04  0.10017297341E+04 0.  0.
        1    1    3    3  502    0  0.40572309858E+03  0.25887588868E+03 -0.50083052221E+03  0.69459280910E+03  0.50400001928E-02 0.  1.
       -1    1    3    3    0  502 -0.40572309858E+03 -0.25887588868E+03 -0.10006673868E+04  0.11103887506E+04  0.50400001928E-02 0. -1.
</event>
<event>
 5   0  0.2327595E-03  0.9575031E+03  0.7818609E-02  0.9356423E-01
       -1   -1    0    0    0  501  0.00000000000E+00  0.00000000000E+00  0.13004583403E+04  0.13004583403E+04  0.50400001928E-02 0.  1.
        1   -1    0    0  501    0  0.00000000000E+00  0.00000000000E+00 -0.17624790825E+03  0.17624790833E+03  0.50400001928E-02 0. -1.
    10030    2    1    2    0    0  0.00000000000E+00  0.00000000000E+00  0.11242104320E+04  0.14767062486E+04  0.95750313275E+03 0.  0.
        5    1    3    3  502    0 -0.32242447766E+03  0.17819283119E+03  0.90594293627E+02  0.37939378608E+03  0.46999998093E+01 0. -1.
       -5    1    3    3    0  502  0.32242447766E+03 -0.17819283119E+03  0.10336161384E+04  0.10973124625E+04  0.46999998093E+01 0.  1.
</event>
<event>
 5   0  0.4026829E-03  0.1004758E+04  0.7818609E-02  0.9303341E-01
       -2   -1    0    0    0  501  0.00000000000E+00  0.00000000000E+00  0.71662298301E+03  0.71662298302E+03  0.25500000920E-02 0.  1.
        2   -1    0    0  501    0  0.00000000000E+00  0.00000000000E+00 -0.35218628517E+03  0.35218628518E+03  0.25500000920E-02 0. -1.
    10030    2    1    2    0    0  0.00000000000E+00  0.00000000000E+00  0.36443669784E+03  0.10688092682E+04  0.10047582520E+04 0.  0.
        1    1    3    3  502    0  0.41956026397E+03 -0.14189588672E+03  0.43443992128E+03  0.62040575674E+03  0.50400001928E-02 0.  1.
       -1    1    3    3    0  502 -0.41956026397E+03  0.14189588672E+03 -0.70003223439E+02  0.44840351146E+03  0.50400001928E-02 0. -1.
</event>
<event>
 5   0  0.4140860E-03  0.1000027E+04  0.7818609E-02  0.9308516E-01
        2   -1    0    0  501    0  0.00000000000E+00  0.00000000000E+00  0.60579606789E+03  0.60579606790E+03  0.25500000920E-02 0.  1.
       -2   -1    0    0    0  501  0.00000000000E+00  0.00000000000E+00 -0.41270202080E+03  0.41270202081E+03  0.25500000920E-02 0. -1.
    10030    2    1    2    0    0  0.00000000000E+00  0.00000000000E+00  0.19309404709E+03  0.10184980887E+04  0.10000265225E+04 0.  0.
        3    1    3    3  502    0 -0.42412003834E+02 -0.39198770433E+02 -0.40929376664E+03  0.41334818166E+03  0.10100000352E+00 0. -1.
       -3    1    3    3    0  502  0.42412003834E+02  0.39198770433E+02  0.60238781373E+03  0.60514990705E+03  0.10100000352E+00 0.  1.
</event>
<event>
 5   0  0.3895011E-03  0.1001218E+04  0.7818609E-02  0.9307210E-01
        2   -1    0    0  501    0  0.00000000000E+00  0.00000000000E+00  0.10772780577E+04  0.10772780577E+04  0.25500000920E-02 0. -1.
       -2   -1    0    0    0  501  0.00000000000E+00  0.00000000000E+00 -0.23263213231E+03  0.23263213232E+03  0.25500000920E-02 0.  1.
    10030    2    1    2    0    0  0.00000000000E+00  0.00000000000E+00  0.84464592543E+03  0.13099101901E+04  0.10012182413E+04 0.  0.
        2    1    3    3  502    0  0.12307803955E+03 -0.39391002670E+03  0.79305507533E+03  0.89400764285E+03  0.25500000920E-02 0. -1.
       -2    1    3    3    0  502 -0.12307803955E+03  0.39391002670E+03  0.51590850103E+02  0.41590254721E+03  0.25500000920E-02 0.  1.
</event>
<event>
 5   0  0.2350769E-03  0.9994464E+03  0.7818609E-02  0.9309152E-01
       -1   -1    0    0    0  501  0.00000000000E+00  0.00000000000E+00  0.19230121553E+03  0.19230121560E+03  0.50400001928E-02 0. -1.
        1   -1    0    0  501    0  0.00000000000E+00  0.00000000000E+00 -0.12986047374E+04  0.12986047374E+04  0.50400001928E-02 0.  1.
    10030    2    1    2    0    0  0.00000000000E+00  0.00000000000E+00 -0.11063035219E+04  0.14909059530E+04  0.99944638588E+03 0.  0.
        2    1    3    3  502    0  0.27214206955E+03 -0.33731326633E+03 -0.92423552130E+03  0.10208098964E+04  0.25500000920E-02 0.  1.
       -2    1    3    3    0  502 -0.27214206955E+03  0.33731326633E+03 -0.18206800060E+03  0.47009605668E+03  0.25500000920E-02 0. -1.
</event>
<event>
 5   0  0.3873874E-03  0.9946854E+03  0.7818609E-02  0.9314393E-01
        2   -1    0    0  501    0  0.00000000000E+00  0.00000000000E+00  0.76276532108E+03  0.76276532108E+03  0.25500000920E-02 0.  1.
       -2   -1    0    0    0  501  0.00000000000E+00  0.00000000000E+00 -0.32428031274E+03  0.32428031275E+03  0.25500000920E-02 0. -1.
    10030    2    1    2    0    0  0.00000000000E+00  0.00000000000E+00  0.43848500834E+03  0.10870456338E+04  0.99468543142E+03 0.  0.
        5    1    3    3  502    0  0.15487597999E+03 -0.42839109333E+03  0.11581132507E+01  0.45555343183E+03  0.46999998093E+01 0. -1.
       -5    1    3    3    0  502 -0.15487597999E+03  0.42839109333E+03  0.43732689509E+03  0.63149220200E+03  0.46999998093E+01 0.  1.
</event>
<event>
 5   0  0.1548000E-03  0.9959007E+03  0.7818609E-02  0.9313052E-01
       -3   -1    0    0    0  501  0.00000000000E+00  0.00000000000E+00  0.14289947520E+04  0.14289947556E+04  0.10100000352E+00 0. -1.
        3   -1    0    0  501    0  0.00000000000E+00  0.00000000000E+00 -0.17351676062E+03  0.17351679001E+03  0.10100000352E+00 0.  1.
    10030    2    1    2    0    0  0.00000000000E+00  0.00000000000E+00  0.12554779914E+04  0.16025115456E+04  0.99590073145E+03 0.  0.
        2    1    3    3  502    0  0.24738370062E+03 -0.21826803202E+03  0.27572152913E+02  0.33105868477E+03  0.25500000920E-02 0.  1.
       -2    1    3    3    0  502 -0.24738370062E+03  0.21826803202E+03  0.12279058385E+04  0.12714528608E+04  0.25500000920E-02 0. -1.
</event>
<event>
 5   0  0.3873874E-03  0.1004797E+04  0.7818609E-02  0.9303299E-01
        2   -1    0    0  501    0  0.00000000000E+00  0.00000000000E+00  0.28530307200E+03  0.28530307201E+03  0.25500000920E-02 0.  1.
       -2   -1    0    0    0  501  0.00000000000E+00  0.00000000000E+00 -0.88468780955E+03  0.88468780955E+03  0.25500000920E-02 0. -1.
    10030    2    1    2    0    0  0.00000000000E+00  0.00000000000E+00 -0.59938473754E+03  0.11699908816E+04  0.10047967951E+04 0.  0.
        5    1    3    3  502    0 -0.96647445698E+02 -0.47919713482E+03 -0.43453955657E+03  0.65407747171E+03  0.46999998093E+01 0. -1.
       -5    1    3    3    0  502  0.96647445698E+02  0.47919713482E+03 -0.16484518098E+03  0.51591340985E+03  0.46999998093E+01 0.  1.
</event>
<event>
 5   0  0.4026829E-03  0.9970602E+03  0.7818609E-02  0.9311775E-01
       -2   -1    0    0    0  501  0.00000000000E+00  0.00000000000E+00  0.18860620237E+03  0.18860620239E+03  0.25500000920E-02 0.  1.
        2   -1    0    0  501    0  0.00000000000E+00  0.00000000000E+00 -0.13177311769E+04  0.13177311769E+04  0.25500000920E-02 0. -1.
    10030    2    1    2    0    0  0.00000000000E+00  0.00000000000E+00 -0.11291249745E+04  0.15063373793E+04  0.99706022494E+03 0.  0.
        1    1    3    3  502    0 -0.10655506916E+03  0.26754174631E+03  0.50232955972E+02  0.29232844315E+03  0.50400001928E-02 0.  1.
       -1    1    3    3    0  502  0.10655506916E+03 -0.26754174631E+03 -0.11793579305E+04  0.12140089361E+04  0.50400001928E-02 0. -1.
</event>
<event>
 5   0  0.3826483E-03  0.1002999E+04  0.7818609E-02  0.9305262E-01
       -2   -1    0    0    0  501  0.00000000000E+00  0.00000000000E+00  0.51318672190E+03  0.51318672191E+03  0.25500000920E-02 0. -1.
        2   -1    0    0  501    0  0.00000000000E+00  0.00000000000E+00 -0.49007832153E+03  0.49007832154E+03  0.25500000920E-02 0.  1.
    10030    2    1    2    0    0  0.00000000000E+00  0.00000000000E+00  0.23108400367E+02  0.10032650434E+04  0.10029988780E+04 0.  0.
        4    1    3    3  502    0  0.40920230995E+02  0.11174201251E+03  0.49885832880E+03  0.51285669322E+03  0.12699999809E+01 0. -1.
       -4    1    3    3    0  502 -0.40920230995E+02 -0.11174201251E+03 -0.47574992844E+03  0.49040835023E+03  0.12699999809E+01 0.  1.
</event>
<event>
 5   0  0.2350769E-03  0.1007267E+04  0.7818609E-02  0.9300610E-01
        1   -1    0    0  501    0  0.00000000000E+00  0.00000000000E+00  0.42384988563E+03  0.42384988566E+03  0.50400001928E-02 0. -1.
       -1   -1    0    0    0  501  0.00000000000E+00  0.00000000000E+00 -0.59843492062E+03  0.59843492064E+03  0.50400001928E-02 0.  1.
    10030    2    1    2    0    0  0.00000000000E+00  0.00000000000E+00 -0.17458503499E+03  0.10222848063E+04  0.10072667426E+04 0.  0.
        2    1    3    3  502    0 -0.13411777979E+03  0.77421069526E+02 -0.57367149163E+03  0.59420584075E+03  0.25500000920E-02 0.  1.
       -2    1    3    3    0  502  0.13411777979E+03 -0.77421069526E+02  0.39908645664E+03  0.42807896555E+03  0.25500000920E-02 0. -1.
</event>
<event>
 5   0  0.2350769E-03  0.1004909E+04  0.7818609E-02  0.9303177E-01
       -1   -1    0    0    0  501  0.00000000000E+00  0.00000000000E+00  0.68103157902E+03  0.68103157904E+03  0.50400001928E-02 0.  1.
        1   -1    0    0  501    0  0.00000000000E+00  0.00000000000E+00 -0.37070336560E+03  0.37070336563E+03  0.50400001928E-02 0. -1.
    10030    2    1    2    0    0  0.00000000000E+00  0.00000000000E+00  0.31032821342E+03  0.10517349447E+04  0.10049093461E+04 0.  0.
        2    1    3    3  502    0  0.31022175993E+02 -0.23632504209E+03 -0.30776875436E+03  0.38927304953E+03  0.25500000920E-02 0. -1.
       -2    1    3    3    0  502 -0.31022175993E+02  0.23632504209E+03  0.61809696779E+03  0.66246189514E+03  0.25500000920E-02 0.  1.
</event>
<event>
 5   0  0.3873874E-03  0.1000874E+04  0.7818609E-02  0.9307586E-01
       -2   -1    0    0    0  501  0.00000000000E+00  0.00000000000E+00  0.13050386157E+03  0.13050386160E+03  0.25500000920E-02 0.  1.
        2   -1    0    0  501    0  0.00000000000E+00  0.00000000000E+00 -0.19190039770E+04  0.19190039770E+04  0.25500000920E-02 0. -1.
    10030    2    1    2    0    0  0.00000000000E+00  0.00000000000E+00 -0.17885001154E+04  0.20495078386E+04  0.10008744764E+04 0.  0.
        5    1    3    3  502    0  0.90186494025E+02  0.11613963318E+03  0.85221074763E+02  0.17001982143E+03  0.46999998093E+01 0.  1.
       -5    1    3    3    0  502 -0.90186494025E+02 -0.11613963318E+03 -0.18737211902E+04  0.18794880171E+04  0.46999998093E+01 0. -1.
</event>
<event>
 5   0  0.4140860E-03  0.1009951E+04  0.7818609E-02  0.9297697E-01
       -2   -1    0    0    0  501  0.00000000000E+00  0.00000000000E+00  0.16647536228E+03  0.16647536230E+03  0.25500000920E-02 0. -1.
        2   -1    0    0  501    0  0.00000000000E+00  0.00000000000E+00 -0.15317602746E+04  0.15317602746E+04  0.25500000920E-02 0.  1.
    10030    2    1    2    0    0  0.00000000000E+00  0.00000000000E+00 -0.13652849123E+04  0.16982356369E+04  0.10099511803E+04 0.  0.
        3    1    3    3  502    0  0.98727563300E+02 -0.16493637184E+03 -0.14678325574E+04  0.14803660241E+04  0.10100000352E+00 0.  1.
       -3    1    3    3    0  502 -0.98727563300E+02  0.16493637184E+03  0.10254764502E+03  0.21786961287E+03  0.10100000352E+00 0. -1.
</event>
<event>
 5   0  0.2350769E-03  0.1002825E+04  0.7818609E-02  0.9305452E-01
       -1   -1    0    0    0  501  0.00000000000E+00  0.00000000000E+00  0.53800690560E+03  0.53800690563E+03  0.50400001928E-02 0. -1.
        1   -1    0    0  501    0  0.00000000000E+00  0.00000000000E+00 -0.46730744303E+03  0.46730744305E+03  0.50400001928E-02 0.  1.
    10030    2    1    2    0    0  0.00000000000E+00  0.00000000000E+00  0.70699462578E+02  0.10053143487E+04  0.10028252717E+04 0.  0.
        2    1    3    3  502    0 -0.27522046794E+03  0.40392611203E+03  0.14748451546E+03  0.51054313458E+03  0.25500000920E-02 0.  1.
       -2    1    3    3    0  502  0.27522046794E+03 -0.40392611203E+03 -0.76785052879E+02  0.49477121411E+03  0.25500000920E-02 0. -1.
</event>
<event>
 5   0  0.3826483E-03  0.1001362E+04  0.7818609E-02  0.9307052E-01
       -2   -1    0    0    0  501  0.00000000000E+00  0.00000000000E+00  0.49209279403E+03  0.49209279404E+03  0.25500000920E-02 0. -1.
        2   -1    0    0  501    0  0.00000000000E+00  0.00000000000E+00 -0.50941901982E+03  0.50941901982E+03  0.25500000920E-02 0.  1.
    10030    2    1    2    0    0  0.00000000000E+00  0.00000000000E+00 -0.17326225786E+02  0.10015118139E+04  0.10013619302E+04 0.  0.
        4    1    3    3  502    0 -0.44744456716E+03 -0.15377943076E+03  0.15514498471E+03  0.49792201516E+03  0.12699999809E+01 0.  1.
       -4    1    3    3    0  502  0.44744456716E+03  0.15377943076E+03 -0.17247121050E+03  0.50358979870E+03  0.12699999809E+01 0. -1.
</event>
<event>
 5   0  0.2350769E-03  0.1000921E+04  0.7818609E-02  0.9307536E-01
       -1   -1    0    0    0  501  0.00000000000E+00  0.00000000000E+00  0.75135746677E+03  0.75135746679E+03  0.50400001928E-02 0. -1.
        1   -1    0    0  501    0  0.00000000000E+00  0.00000000000E+00 -0.33334411514E+03  0.33334411517E+03  0.50400001928E-02 0.  1.
    10030    2    1    2    0    0  0.00000000000E+00  0.00000000000E+00  0.41801335164E+03  0.10847015820E+04  0.10009207560E+04 0.  0.
        2    1    3    3  502    0 -0.10838594306E+03  0.11699158026E+03  0.72308225588E+03  0.74046099916E+03  0.25500000920E-02 0. -1.
       -2    1    3    3    0  502  0.10838594306E+03 -0.11699158026E+03 -0.30506890424E+03  0.34424058280E+03  0.25500000920E-02 0.  1.
</event>
<event>
 5   0  0.2313036E-03  0.9857358E+03  0.7818609E-02  0.9324329E-01
        1   -1    0    0  501    0  0.00000000000E+00  0.00000000000E+00  0.11603826084E+03  0.11603826095E+03  0.50400001928E-02 0.  1.
       -1   -1    0    0    0  501  0.00000000000E+00  0.00000000000E+00 -0.20934369630E+04  0.20934369630E+04  0.50400001928E-02 0. -1.
    10030    2    1    2    0    0  0.00000000000E+00  0.00000000000E+00 -0.19773987021E+04  0.22094752239E+04  0.98573583577E+03 0.  0.
        3    1    3    3  502    0  0.48408305928E+03  0.45019623566E+02 -0.11701818694E+04  0.12671577615E+04  0.10100000352E+00 0. -1.
       -3    1    3    3    0  502 -0.48408305928E+03 -0.45019623566E+02 -0.80721683272E+03  0.94231746243E+03  0.10100000352E+00 0.  1.
</event>
<event>
 5   0  0.4026829E-03  0.9963678E+03  0.7818609E-02  0.9312537E-01
        2   -1    0    0  501    0  0.00000000000E+00  0.00000000000E+00  0.43078377177E+03  0.43078377178E+03  0.25500000920E-02 0.  1.
       -2   -1    0    0    0  501  0.00000000000E+00  0.00000000000E+00 -0.57612943200E+03  0.57612943200E+03  0.25500000920E-02 0. -1.
    10030    2    1    2    0    0  0.00000000000E+00  0.00000000000E+00 -0.14534566023E+03  0.10069132038E+04  0.99636782314E+03 0.  0.
        1    1    3    3  502    0  0.48373447218E+03 -0.85649881908E+02 -0.15632736874E+03  0.51553194672E+03  0.50400001928E-02 0. -1.
       -1    1    3    3    0  502 -0.48373447218E+03  0.85649881908E+02  0.10981708513E+02  0.49138125706E+03  0.50400001928E-02 0.  1.
</event>
<event>
 5   0  0.2350769E-03  0.1007875E+04  0.7818609E-02  0.9299950E-01
        1   -1    0    0  501    0  0.00000000000E+00  0.00000000000E+00  0.74376145917E+03  0.74376145919E+03  0.50400001928E-02 0. -1.
       -1   -1    0    0    0  501  0.00000000000E+00  0.00000000000E+00 -0.34144400117E+03  0.34144400121E+03  0.50400001928E-02 0.  1.
    10030    2    1    2    0    0  0.00000000000E+00  0.00000000000E+00  0.40231745800E+03  0.10852054604E+04  0.10078747711E+04 0.  0.
        2    1    3    3  502    0 -0.30153121848E+03  0.36340382630E+03  0.39064262068E+03  0.61284996025E+03  0.25500000920E-02 0. -1.
       -2    1    3    3    0  502  0.30153121848E+03 -0.36340382630E+03  0.11674837320E+02  0.47235550015E+03  0.25500000920E-02 0.  1.
</event>
<event>
 5   0  0.4026829E-03  0.9898642E+03  0.7818609E-02  0.9319732E-01
        2   -1    0    0  501    0  0.00000000000E+00  0.00000000000E+00  0.16912863180E+04  0.16912863180E+04  0.25500000920E-02 0.  1.
       -2   -1    0    0    0  501  0.00000000000E+00  0.00000000000E+00 -0.14483520438E+03  0.14483520440E+03  0.25500000920E-02 0. -1.
    10030    2    1    2    0    0  0.00000000000E+00  0.00000000000E+00  0.15464511136E+04  0.18361215224E+04  0.98986423222E+03 0.  0.
        1    1    3    3  502    0 -0.25090876094E+00 -0.16899534896E+03 -0.89659047923E+02  0.19130665390E+03  0.50400001928E-02 0. -1.
       -1    1    3    3    0  502  0.25090876094E+00  0.16899534896E+03  0.16361101616E+04  0.16448148685E+04  0.50400001928E-02 0.  1.
</event>
<event>
 5   0  0.4140860E-03  0.1046605E+04  0.7818609E-02  0.9258857E-01
       -2   -1    0    0    0  501  0.00000000000E+00  0.00000000000E+00  0.41538830975E+03  0.41538830975E+03  0.25500000920E-02 0. -1.
        2   -1    0    0  501    0  0.00000000000E+00  0.00000000000E+00 -0.65925121126E+03  0.65925121127E+03  0.25500000920E-02 0.  1.
    10030    2    1    2    0    0  0.00000000000E+00  0.00000000000E+00 -0.24386290152E+03  0.10746395210E+04  0.10466045029E+04 0.  0.
        3    1    3    3  502    0  0.66987978347E+02  0.27537137445E+03 -0.57363408349E+03  0.63982251840E+03  0.10100000352E+00 0.  1.
       -3    1    3    3    0  502 -0.66987978347E+02 -0.27537137445E+03  0.32977118197E+03  0.43481700262E+03  0.10100000352E+00 0. -1.
</event>
<event>
 5   0  0.2378609E-03  0.1055125E+04  0.7818609E-02  0.9250068E-01
       -1   -1    0    0    0  501  0.00000000000E+00  0.00000000000E+00  0.31202582636E+03  0.31202582640E+03  0.50400001928E-02 0.  1.
        1   -1    0    0  501    0  0.00000000000E+00  0.00000000000E+00 -0.89198492250E+03  0.89198492252E+03  0.50400001928E-02 0. -1.
    10030    2    1    2    0    0  0.00000000000E+00  0.00000000000E+00 -0.57995909615E+03  0.12040107489E+04  0.10551252676E+04 0.  0.
        1    1    3    3  502    0 -0.41983025073E+03 -0.62398208557E+02 -0.64751469193E+03  0.77422622802E+03  0.50400001928E-02 0. -1.
       -1    1    3    3    0  502  0.41983025073E+03  0.62398208557E+02  0.67555595780E+02  0.42978452090E+03  0.50400001928E-02 0.  1.
</event>
<event>
 5   0  0.2378609E-03  0.1006877E+04  0.7818609E-02  0.9301035E-01
       -1   -1    0    0    0  501  0.00000000000E+00  0.00000000000E+00  0.26447755584E+03  0.26447755588E+03  0.50400001928E-02 0.  1.
        1   -1    0    0  501    0  0.00000000000E+00  0.00000000000E+00 -0.95830512991E+03  0.95830512993E+03  0.50400001928E-02 0. -1.
    10030    2    1    2    0    0  0.00000000000E+00  0.00000000000E+00 -0.69382757408E+03  0.12227826858E+04  0.10068767522E+04 0.  0.
        1    1    3    3  502    0 -0.48365572639E+03 -0.13359439050E+03 -0.39668881782E+03  0.63963453710E+03  0.50400001928E-02 0. -1.
       -1    1    3    3    0  502  0.48365572639E+03  0.13359439050E+03 -0.29713875626E+03  0.58314814871E+03  0.50400001928E-02 0.  1.
</event>
<event>
 5   0  0.4026829E-03  0.9876637E+03  0.7818609E-02  0.9322179E-01
       -2   -1    0    0    0  501  0.00000000000E+00  0.00000000000E+00  0.44700523821E+03  0.44700523821E+03  0.25500000920E-02 0.  1.
        2   -1    0    0  501    0  0.00000000000E+00  0.00000000000E+00 -0.54556388537E+03  0.54556388538E+03  0.25500000920E-02 0. -1.
    10030    2    1    2    0    0  0.00000000000E+00  0.00000000000E+00 -0.98558647166E+02  0.99256912359E+03  0.98766373740E+03 0.  0.
        1    1    3    3  502    0 -0.14538144360E+03  0.21225393985E+03 -0.47289680827E+03  0.53834829843E+03  0.50400001928E-02 0. -1.
       -1    1    3    3    0  502  0.14538144360E+03 -0.21225393985E+03  0.37433816111E+03  0.45422082516E+03  0.50400001928E-02 0.  1.
</event>
<event>
 5   0  0.2350769E-03  0.1001692E+04  0.7818609E-02  0.9306691E-01
        1   -1    0    0  501    0  0.00000000000E+00  0.00000000000E+00  0.12185460893E+04  0.12185460893E+04  0.50400001928E-02 0.  1.
       -1   -1    0    0    0  501  0.00000000000E+00  0.00000000000E+00 -0.20585744343E+03  0.20585744350E+03  0.50400001928E-02 0. -1.
    10030    2    1    2    0    0  0.00000000000E+00  0.00000000000E+00  0.10126886459E+04  0.14244035328E+04  0.10016921338E+04 0.  0.
        2    1    3    3  502    0 -0.26989862352E+03  0.16714485827E+03 -0.44510555923E+02  0.32056802745E+03  0.25500000920E-02 0. -1.
       -2    1    3    3    0  502  0.26989862352E+03 -0.16714485827E+03  0.10571992018E+04  0.11038355054E+04  0.25500000920E-02 0.  1.
</event>
<event>
 5   0  0.2378609E-03  0.9982473E+03  0.7818609E-02  0.9310469E-01
        1   -1    0    0  501    0  0.00000000000E+00  0.00000000000E+00  0.97779303050E+03  0.97779303051E+03  0.50400001928E-02 0.  1.
       -1   -1    0    0    0  501  0.00000000000E+00  0.00000000000E+00 -0.25478237273E+03  0.25478237278E+03  0.50400001928E-02 0. -1.
    10030    2    1    2    0    0  0.00000000000E+00  0.00000000000E+00  0.72301065777E+03  0.12325754033E+04  0.99824732083E+03 0.  0.
        1    1    3    3  502    0 -0.33118125279E+03  0.32644827335E+03  0.58538144734E+03  0.74761014994E+03  0.50400001928E-02 0.  1.
       -1    1    3    3    0  502  0.33118125279E+03 -0.32644827335E+03  0.13762921043E+03  0.48496525335E+03  0.50400001928E-02 0. -1.
</event>
<event>
 5   0  0.4140860E-03  0.9993785E+03  0.7818609E-02  0.9309227E-01
        2   -1    0    0  501    0  0.00000000000E+00  0.00000000000E+00  0.91322266393E+03  0.91322266393E+03  0.25500000920E-02 0.  1.
       -2   -1    0    0    0  501  0.00000000000E+00  0.00000000000E+00 -0.27341560126E+03  0.27341560127E+03  0.25500000920E-02 0. -1.
    10030    2    1    2    0    0  0.00000000000E+00  0.00000000000E+00  0.63980706267E+03  0.11866382652E+04  0.99937845434E+03 0.  0.
        3    1    3    3  502    0  0.43645262248E+03 -0.22578875016E+03  0.21226499259E+03  0.53528299865E+03  0.10100000352E+00 0. -1.
       -3    1    3    3    0  502 -0.43645262248E+03  0.22578875016E+03  0.42754207009E+03  0.65135526655E+03  0.10100000352E+00 0.  1.
</event>
<event>
 5   0  0.2405022E-03  0.1000129E+04  0.7818609E-02  0.9308403E-01
        1   -1    0    0  501    0  0.00000000000E+00  0.00000000000E+00  0.10701337451E+04  0.10701337451E+04  0.50400001928E-02 0. -1.
       -1   -1    0    0    0  501  0.00000000000E+00  0.00000000000E+00 -0.23367593843E+03  0.23367593849E+03  0.50400001928E-02 0.  1.
    10030    2    1    2    0    0  0.00000000000E+00  0.00000000000E+00  0.83645780663E+03  0.13038096836E+04  0.10001290060E+04 0.  0.
        4    1    3    3  502    0 -0.39991533307E+03  0.17100688690E+03  0.73990694297E+03  0.85827706840E+03  0.12699999809E+01 0.  1.
       -4    1    3    3    0  502  0.39991533307E+03 -0.17100688690E+03  0.96550863661E+02  0.44553261515E+03  0.12699999809E+01 0. -1.
</event>
<event>
 5   0  0.2405022E-03  0.9935030E+03  0.7818609E-02  0.9315699E-01
        1   -1    0    0  501    0  0.00000000000E+00  0.00000000000E+00  0.96632870796E+03  0.96632870798E+03  0.50400001928E-02 0. -1.
       -1   -1    0    0    0  501  0.00000000000E+00  0.00000000000E+00 -0.25536037602E+03  0.25536037607E+03  0.50400001928E-02 0.  1.
    10030    2    1    2    0    0  0.00000000000E+00  0.00000000000E+00  0.71096833195E+03  0.12216890840E+04  0.99350301914E+03 0.  0.
        4    1    3    3  502    0  0.29139693869E+03  0.37363230799E+03  0.17207167569E+03  0.50410668705E+03  0.12699999809E+01 0. -1.
       -4    1    3    3    0  502 -0.29139693869E+03 -0.37363230799E+03  0.53889665626E+03  0.71758239699E+03  0.12699999809E+01 0.  1.
</event>
<event>
 5   0  0.2405022E-03  0.1003631E+04  0.7818609E-02  0.9304572E-01
        1   -1    0    0  501    0  0.00000000000E+00  0.00000000000E+00  0.77453792254E+03  0.77453792256E+03  0.50400001928E-02 0.  1.
       -1   -1    0    0    0  501  0.00000000000E+00  0.00000000000E+00 -0.32512102457E+03  0.32512102461E+03  0.50400001928E-02 0. -1.
    10030    2    1    2    0    0  0.00000000000E+00  0.00000000000E+00  0.44941689797E+03  0.10996589472E+04  0.10036305356E+04 0.  0.
        4    1    3    3  502    0 -0.15869587990E+03  0.26752481460E+03  0.65616621925E+03  0.72616088362E+03  0.12699999809E+01 0.  1.
       -4    1    3    3    0  502  0.15869587990E+03 -0.26752481460E+03 -0.20674932127E+03  0.37349806355E+03  0.12699999809E+01 0. -1.
</event>
<event>
 5   0  0.3895011E-03  0.9964610E+03  0.7818609E-02  0.9312435E-01
        2   -1    0    0  501    0  0.00000000000E+00  0.00000000000E+00  0.16268528192E+04  0.16268528192E+04  0.25500000920E-02 0.  1.
       -2   -1    0    0    0  501  0.00000000000E+00  0.00000000000E+00 -0.15258518895E+03  0.15258518897E+03  0.25500000920E-02 0. -1.
    10030    2    1    2    0    0  0.00000000000E+00  0.00000000000E+00  0.14742676302E+04  0.17794380082E+04  0.99646102750E+03 0.  0.
        2    1    3    3  502    0  0.43700069444E+02 -0.25553461536E+03 -0.22655240606E+02  0.26023238779E+03  0.25500000920E-02 0. -1.
       -2    1    3    3    0  502 -0.43700069444E+02  0.25553461536E+03  0.14969228709E+04  0.15192056204E+04  0.25500000920E-02 0.  1.
</event>
<event>
 5   0  0.3826483E-03  0.1000241E+04  0.7818609E-02  0.9308281E-01
        2   -1    0    0  501    0  0.00000000000E+00  0.00000000000E+00  0.63994295469E+03  0.63994295470E+03  0.25500000920E-02 0. -1.
       -2   -1    0    0    0  501  0.00000000000E+00  0.00000000000E+00 -0.39084780022E+03  0.39084780023E+03  0.25500000920E-02 0.  1.
    10030    2    1    2    0    0  0.00000000000E+00  0.00000000000E+00  0.24909515447E+03  0.10307907549E+04  0.10002405633E+04 0.  0.
        4    1    3    3  502    0 -0.14004474084E+03 -0.21568032278E+03  0.56658697732E+03  0.62221615765E+03  0.12699999809E+01 0. -1.
       -4    1    3    3    0  502  0.14004474084E+03  0.21568032278E+03 -0.31749182285E+03  0.40857459728E+03  0.12699999809E+01 0.  1.
</event>
<event>
 5   0  0.4140860E-03  0.9750524E+03  0.7818609E-02  0.9336338E-01
       -2   -1    0    0    0  501  0.00000000000E+00  0.00000000000E+00  0.22106701312E+03  0.22106701313E+03  0.25500000920E-02 0. -1.
        2   -1    0    0  501    0  0.00000000000E+00  0.00000000000E+00 -0.10751572637E+04  0.10751572637E+04  0.25500000920E-02 0.  1.
    10030    2    1    2    0    0  0.00000000000E+00  0.00000000000E+00 -0.85409025058E+03  0.12962242768E+04  0.97505241896E+03 0.  0.
        3    1    3    3  502    0 -0.29521938215E+03  0.29764366279E+03 -0.96201915749E+02  0.43011748673E+03  0.10100000352E+00 0. -1.
       -3    1    3    3    0  502  0.29521938215E+03 -0.29764366279E+03 -0.75788833483E+03  0.86610679010E+03  0.10100000352E+00 0.  1.
</event>
<event>
 5   0  0.2313036E-03  0.9983147E+03  0.7818609E-02  0.9310395E-01
       -1   -1    0    0    0  501  0.00000000000E+00  0.00000000000E+00  0.30722802888E+03  0.30722802892E+03  0.50400001928E-02 0.  1.
        1   -1    0    0  501    0  0.00000000000E+00  0.00000000000E+00 -0.81098738734E+03  0.81098738735E+03  0.50400001928E-02 0. -1.
    10030    2    1    2    0    0  0.00000000000E+00  0.00000000000E+00 -0.50375935846E+03  0.11182154163E+04  0.99831469285E+03 0.  0.
        3    1    3    3  502    0  0.28328071523E+03  0.22296645654E+03  0.13483346119E+03  0.38489229249E+03  0.10100000352E+00 0.  1.
       -3    1    3    3    0  502 -0.28328071523E+03 -0.22296645654E+03 -0.63859281965E+03  0.73332312378E+03  0.10100000352E+00 0. -1.
</event>
<event>
 5   0  0.3873874E-03  0.9986517E+03  0.7818609E-02  0.9310025E-01
       -2   -1    0    0    0  501  0.00000000000E+00  0.00000000000E+00  0.34298196326E+03  0.34298196326E+03  0.25500000920E-02 0. -1.
        2   -1    0    0  501    0  0.00000000000E+00  0.00000000000E+00 -0.72693700624E+03  0.72693700625E+03  0.25500000920E-02 0.  1.
    10030    2    1    2    0    0  0.00000000000E+00  0.00000000000E+00 -0.38395504299E+03  0.10699189695E+04  0.99865165412E+03 0.  0.
        5    1    3    3  502    0 -0.62302157076E+02 -0.30138303737E+03 -0.61321676220E+03  0.68612694265E+03  0.46999998093E+01 0.  1.
       -5    1    3    3    0  502  0.62302157076E+02  0.30138303737E+03  0.22926171921E+03  0.38379202686E+03  0.46999998093E+01 0. -1.
</event>
<event>
 5   0  0.1548000E-03  0.1000726E+04  0.7818609E-02  0.9307749E-01
        3   -1    0    0  501    0  0.00000000000E+00  0.00000000000E+00  0.91061848214E+03  0.91061848774E+03  0.10100000352E+00 0. -1.
       -3   -1    0    0    0  501  0.00000000000E+00  0.00000000000E+00 -0.27493727388E+03  0.27493729244E+03  0.10100000352E+00 0.  1.
    10030    2    1    2    0    0  0.00000000000E+00  0.00000000000E+00  0.63568120826E+03  0.11855557802E+04  0.10007256914E+04 0.  0.
        5    1    3    3  502    0  0.34834691414E+03  0.33454936137E+03  0.47263300881E+03  0.67577577554E+03  0.46999998093E+01 0. -1.
       -5    1    3    3    0  502 -0.34834691414E+03 -0.33454936137E+03  0.16304819944E+03  0.50978000464E+03  0.46999998093E+01 0.  1.
</event>
<event>
 5   0  0.3895011E-03  0.9989246E+03  0.7818609E-02  0.9309725E-01
        2   -1    0    0  501    0  0.00000000000E+00  0.00000000000E+00  0.80563015984E+03  0.80563015984E+03  0.25500000920E-02 0.  1.
       -2   -1    0    0    0  501  0.00000000000E+00  0.00000000000E+00 -0.30964904682E+03  0.30964904683E+03  0.25500000920E-02 0. -1.
    10030    2    1    2    0    0  0.00000000000E+00  0.00000000000E+00  0.49598111302E+03  0.11152792067E+04  0.99892464399E+03 0.  0.
        2    1    3    3  502    0 -0.14208483636E+03  0.47256180974E+03  0.16179826857E+03  0.51930862159E+03  0.25500000920E-02 0. -1.
       -2    1    3    3    0  502  0.14208483636E+03 -0.47256180974E+03  0.33418284446E+03  0.59597058508E+03  0.25500000920E-02 0.  1.
</event>
<event>
 5   0  0.2313036E-03  0.9905236E+03  0.7818609E-02  0.9319000E-01
        1   -1    0    0  501    0  0.00000000000E+00  0.00000000000E+00  0.57449481063E+03  0.57449481065E+03  0.50400001928E-02 0.  1.
       -1   -1    0    0    0  501  0.00000000000E+00  0.00000000000E+00 -0.42695640575E+03  0.42695640578E+03  0.50400001928E-02 0. -1.
    10030    2    1    2    0    0  0.00000000000E+00  0.00000000000E+00  0.14753840488E+03  0.10014512164E+04  0.99052357770E+03 0.  0.
        3    1    3    3  502    0  0.32203650666E+03  0.34582849360E+02  0.45257686118E+03  0.55653329691E+03  0.10100000352E+00 0.  1.
       -3    1    3    3    0  502 -0.32203650666E+03 -0.34582849360E+02 -0.30503845630E+03  0.44491791953E+03  0.10100000352E+00 0. -1.
</event>
<event>
 5   0  0.3873874E-03  0.1000777E+04  0.7818609E-02  0.9307693E-01
        2   -1    0    0  501    0  0.00000000000E+00  0.00000000000E+00  0.11272260194E+04  0.11272260194E+04  0.25500000920E-02 0.  1.
       -2   -1    0    0    0  501  0.00000000000E+00  0.00000000000E+00 -0.22212828663E+03  0.22212828665E+03  0.25500000920E-02 0. -1.
    10030    2    1    2    0    0  0.00000000000E+00  0.00000000000E+00  0.90509773276E+03  0.13493543060E+04  0.10007772666E+04 0.  0.
        5    1    3    3  502    0  0.30992736965E+03  0.87928168286E+02  0.96875891644E+03  0.10209320572E+04  0.46999998093E+01 0.  1.
       -5    1    3    3    0  502 -0.30992736965E+03 -0.87928168286E+02 -0.63661183676E+02  0.32842224885E+03  0.46999998093E+01 0. -1.
</event>
<event>
 5   0  0.2327595E-03  0.9866118E+03  0.7818609E-02  0.9323352E-01
        1   -1    0    0  501    0  0.00000000000E+00  0.00000000000E+00  0.12419682507E+04  0.12419682507E+04  0.50400001928E-02 0. -1.
       -1   -1    0    0    0  501  0.00000000000E+00  0.00000000000E+00 -0.19593956679E+03  0.19593956685E+03  0.50400001928E-02 0.  1.
    10030    2    1    2    0    0  0.00000000000E+00  0.00000000000E+00  0.10460286840E+04  0.14379078176E+04  0.98661182045E+03 0.  0.
        5    1    3    3  502    0  0.41856488844E+01 -0.40614659170E+03  0.11505111487E+03  0.42217463524E+03  0.46999998093E+01 0.  1.
       -5    1    3    3    0  502 -0.41856488844E+01  0.40614659170E+03  0.93097756908E+03  0.10157331824E+04  0.46999998093E+01 0. -1.
</event>
<event>
 5   0  0.3873874E-03  0.9954995E+03  0.7818609E-02  0.9313495E-01
        2   -1    0    0  501    0  0.00000000000E+00  0.00000000000E+00  0.21766848216E+04  0.21766848216E+04  0.25500000920E-02 0.  1.
       -2   -1    0    0    0  501  0.00000000000E+00  0.00000000000E+00 -0.11382208016E+03  0.11382208019E+03  0.25500000920E-02 0. -1.
    10030    2    1    2    0    0  0.00000000000E+00  0.00000000000E+00  0.20628627414E+04  0.22905069018E+04  0.99549946112E+03 0.  0.
        5    1    3    3  502    0 -0.88013307069E+02  0.22042068934E+03  0.20380449145E+04  0.20518237707E+04  0.46999998093E+01 0.  1.
       -5    1    3    3    0  502  0.88013307069E+02 -0.22042068934E+03  0.24817826891E+02  0.23868313103E+03  0.46999998093E+01 0. -1.
</event>
<event>
 5   0  0.4026829E-03  0.1019341E+04  0.7818609E-02  0.9287583E-01
       -2   -1    0    0    0  501  0.00000000000E+00  0.00000000000E+00  0.29335024666E+03  0.29335024667E+03  0.25500000920E-02 0.  1.
        2   -1    0    0  501    0  0.00000000000E+00  0.00000000000E+00 -0.88550742620E+03  0.88550742620E+03  0.25500000920E-02 0. -1.
    10030    2    1    2    0    0  0.00000000000E+00  0.00000000000E+00 -0.59215717954E+03  0.11788576729E+04  0.10193406141E+04 0.  0.
        1    1    3    3  502    0  0.17588871071E+03 -0.43511697010E+03 -0.52592711658E+03  0.70488506028E+03  0.50400001928E-02 0. -1.
       -1    1    3    3    0  502 -0.17588871071E+03  0.43511697010E+03 -0.66230062956E+02  0.47397261260E+03  0.50400001928E-02 0.  1.
</event>
<event>
 5   0  0.3826483E-03  0.1000986E+04  0.7818609E-02  0.9307464E-01
        2   -1    0    0  501    0  0.00000000000E+00  0.00000000000E+00  0.58983184888E+03  0.58983184889E+03  0.25500000920E-02 0.  1.
       -2   -1    0    0    0  501  0.00000000000E+00  0.00000000000E+00 -0.42468575931E+03  0.42468575932E+03  0.25500000920E-02 0. -1.
    10030    2    1    2    0    0  0.00000000000E+00  0.00000000000E+00  0.16514608957E+03  0.10145176082E+04  0.10009858872E+04 0.  0.
        4    1    3    3  502    0 -0.35907142089E+03 -0.14211656423E+02  0.43564613470E+03  0.56473305557E+03  0.12699999809E+01 0.  1.
       -4    1    3    3    0  502  0.35907142089E+03  0.14211656423E+02 -0.27050004512E+03  0.44978455264E+03  0.12699999809E+01 0. -1.
</event>
<event>
 5   0  0.2313036E-03  0.9889715E+03  0.7818609E-02  0.9320724E-01
       -1   -1    0    0    0  501  0.00000000000E+00  0.00000000000E+00  0.12229381478E+03  0.12229381488E+03  0.50400001928E-02 0.  1.
        1   -1    0    0  501    0  0.00000000000E+00  0.00000000000E+00 -0.19994154192E+04  0.19994154192E+04  0.50400001928E-02 0. -1.
    10030    2    1    2    0    0  0.00000000000E+00  0.00000000000E+00 -0.18771216044E+04  0.21217092341E+04  0.98897146382E+03 0.  0.
        3    1    3    3  502    0 -0.38064492969E+03 -0.22231671640E+03 -0.14192425320E+04  0.14861240391E+04  0.10100000352E+00 0. -1.
       -3    1    3    3    0  502  0.38064492969E+03  0.22231671640E+03 -0.45787907248E+03  0.63558519500E+03  0.10100000352E+00 0.  1.
</event>
<event>
 5   0  0.2405022E-03  0.9828541E+03  0.7818609E-02  0.9327553E-01
        1   -1    0    0  501    0  0.00000000000E+00  0.00000000000E+00  0.26642864772E+04  0.26642864772E+04  0.50400001928E-02 0.  1.
       -1   -1    0    0    0  501  0.00000000000E+00  0.00000000000E+00 -0.90643618983E+02  0.90643619123E+02  0.50400001928E-02 0. -1.
    10030    2    1    2    0    0  0.00000000000E+00  0.00000000000E+00  0.25736428582E+04  0.27549300963E+04  0.98285414685E+03 0.  0.
        4    1    3    3  502    0  0.21059711472E+03 -0.11541966161E+03  0.24886018124E+04  0.25001626820E+04  0.12699999809E+01 0.  1.
       -4    1    3    3    0  502 -0.21059711472E+03  0.11541966161E+03  0.85041045812E+02  0.25476741430E+03  0.12699999809E+01 0. -1.
</event>
<event>
 5   0  0.4026829E-03  0.9932635E+03  0.7818609E-02  0.9315964E-01
        2   -1    0    0  501    0  0.00000000000E+00  0.00000000000E+00  0.56979874649E+03  0.56979874649E+03  0.25500000920E-02 0.  1.
       -2   -1    0    0    0  501  0.00000000000E+00  0.00000000000E+00 -0.43286002666E+03  0.43286002667E+03  0.25500000920E-02 0. -1.
    10030    2    1    2    0    0  0.00000000000E+00  0.00000000000E+00  0.13693871982E+03  0.10026587732E+04  0.99326351106E+03 0.  0.
        1    1    3    3  502    0  0.29386789112E+03 -0.27027886713E+03 -0.22967857946E+03  0.46060965398E+03  0.50400001928E-02 0. -1.
       -1    1    3    3    0  502 -0.29386789112E+03  0.27027886713E+03  0.36661729929E+03  0.54204911918E+03  0.50400001928E-02 0.  1.
</event>
<event>
 5   0  0.2405022E-03  0.1003154E+04  0.7818609E-02  0.9305092E-01
       -1   -1    0    0    0  501  0.00000000000E+00  0.00000000000E+00  0.49930511953E+03  0.49930511956E+03  0.50400001928E-02 0.  1.
        1   -1    0    0  501    0  0.00000000000E+00  0.00000000000E+00 -0.50385941014E+03  0.50385941017E+03  0.50400001928E-02 0. -1.
    10030    2    1    2    0    0  0.00000000000E+00  0.00000000000E+00 -0.45542906140E+01  0.10031645297E+04  0.10031541916E+04 0.  0.
        4    1    3    3  502    0 -0.46937224795E+03 -0.54989726654E+02 -0.17033777452E+03  0.50234524733E+03  0.12699999809E+01 0. -1.
       -4    1    3    3    0  502  0.46937224795E+03  0.54989726654E+02  0.16578348391E+03  0.50081928240E+03  0.12699999809E+01 0.  1.
</event>
<event>
 5   0  0.3826483E-03  0.1010391E+04  0.7818609E-02  0.9297221E-01
        2   -1    0    0  501    0  0.00000000000E+00  0.00000000000E+00  0.14433496984E+04  0.14433496984E+04  0.25500000920E-02 0.  1.
       -2   -1    0    0    0  501  0.00000000000E+00  0.00000000000E+00 -0.17682647769E+03  0.17682647771E+03  0.25500000920E-02 0. -1.
    10030    2    1    2    0    0  0.00000000000E+00  0.00000000000E+00  0.12665232207E+04  0.16201761761E+04  0.10103909011E+04 0.  0.
        4    1    3    3  502    0  0.10512914995E+03 -0.45945902100E+03  0.92484602298E+03  0.10380252932E+04  0.12699999809E+01 0.  1.
       -4    1    3    3    0  502 -0.10512914995E+03  0.45945902100E+03  0.34167719773E+03  0.58215088293E+03  0.12699999809E+01 0. -1.
</event>
<event>
 5   0  0.3873874E-03  0.9974482E+03  0.7818609E-02  0.9311348E-01
       -2   -1    0    0    0  501  0.00000000000E+00  0.00000000000E+00  0.22342032786E+03  0.22342032788E+03  0.25500000920E-02 0. -1.
        2   -1    0    0  501    0  0.00000000000E+00  0.00000000000E+00 -0.11132637471E+04  0.11132637472E+04  0.25500000920E-02 0.  1.
    10030    2    1    2    0    0  0.00000000000E+00  0.00000000000E+00 -0.88984341929E+03  0.13366840750E+04  0.99744824707E+03 0.  0.
        5    1    3    3  502    0 -0.38476960833E+03  0.16719159251E+03 -0.83582980614E+02  0.42779537719E+03  0.46999998093E+01 0. -1.
       -5    1    3    3    0  502  0.38476960833E+03 -0.16719159251E+03 -0.80626043867E+03  0.90888869784E+03  0.46999998093E+01 0.  1.
</event>
<event>
 5   0  0.3873874E-03  0.9894598E+03  0.7818609E-02  0.9320181E-01
        2   -1    0    0  501    0  0.00000000000E+00  0.00000000000E+00  0.12223115615E+04  0.12223115615E+04  0.25500000920E-02 0.  1.
       -2   -1    0    0    0  501  0.00000000000E+00  0.00000000000E+00 -0.20024164927E+03  0.20024164928E+03  0.25500000920E-02 0. -1.
    10030    2    1    2    0    0  0.00000000000E+00  0.00000000000E+00  0.10220699123E+04  0.14225532108E+04  0.98945981830E+03 0.  0.
        5    1    3    3  502    0  0.16377942328E+03 -0.25527645373E+03 -0.50859869961E+02  0.30756882756E+03  0.46999998093E+01 0. -1.
       -5    1    3    3    0  502 -0.16377942328E+03  0.25527645373E+03  0.10729297822E+04  0.11149843832E+04  0.46999998093E+01 0.  1.
</event>
<event>
 5   0  0.2405022E-03  0.9881821E+03  0.7818609E-02  0.9321602E-01
       -1   -1    0    0    0  501  0.00000000000E+00  0.00000000000E+00  0.36192833730E+03  0.36192833733E+03  0.50400001928E-02 0. -1.
        1   -1    0    0  501    0  0.00000000000E+00  0.00000000000E+00 -0.67451463160E+03  0.67451463162E+03  0.50400001928E-02 0.  1.
    10030    2    1    2    0    0  0.00000000000E+00  0.00000000000E+00 -0.31258629431E+03  0.10364429690E+04  0.98818208671E+03 0.  0.
        4    1    3    3  502    0 -0.39076881233E+03 -0.22576452724E+03 -0.36724902752E+03  0.58184477961E+03  0.12699999809E+01 0.  1.
       -4    1    3    3    0  502  0.39076881233E+03  0.22576452724E+03  0.54662733214E+02  0.45459818934E+03  0.12699999809E+01 0. -1.
</event>
<event>
 5   0  0.2405022E-03  0.1004998E+04  0.7818609E-02  0.9303080E-01
       -1   -1    0    0    0  501  0.00000000000E+00  0.00000000000E+00  0.39105527253E+03  0.39105527256E+03  0.50400001928E-02 0. -1.
        1   -1    0    0  501    0  0.00000000000E+00  0.00000000000E+00 -0.64570199401E+03  0.64570199403E+03  0.50400001928E-02 0.  1.
    10030    2    1    2    0    0  0.00000000000E+00  0.00000000000E+00 -0.25464672148E+03  0.10367572666E+04  0.10049978493E+04 0.  0.
        4    1    3    3  502    0  0.33977259043E+03  0.25509516431E+03  0.14945475885E+03  0.45039681826E+03  0.12699999809E+01 0. -1.
       -4    1    3    3    0  502 -0.33977259043E+03 -0.25509516431E+03 -0.40410148033E+03  0.58636044833E+03  0.12699999809E+01 0.  1.
</event>
<event>
 5   0  0.1548000E-03  0.1055259E+04  0.7818609E-02  0.9249931E-01
       -3   -1    0    0    0  501  0.00000000000E+00  0.00000000000E+00  0.88261924309E+03  0.88261924887E+03  0.10100000352E+00 0. -1.
        3   -1    0    0  501    0  0.00000000000E+00  0.00000000000E+00 -0.31541692367E+03  0.31541693984E+03  0.10100000352E+00 0.  1.
    10030    2    1    2    0    0  0.00000000000E+00  0.00000000000E+00  0.56720231942E+03  0.11980361887E+04  0.10552593228E+04 0.  0.
        3    1    3    3  502    0  0.17714483867E+03 -0.46908413576E+03  0.47005614059E+03  0.68729397334E+03  0.10100000352E+00 0.  1.
       -3    1    3    3    0  502 -0.17714483867E+03  0.46908413576E+03  0.97146178837E+02  0.51074221536E+03  0.10100000352E+00 0. -1.
</event>
<event>
 5   0  0.2378609E-03  0.9955456E+03  0.7818609E-02  0.9313444E-01
       -1   -1    0    0    0  501  0.00000000000E+00  0.00000000000E+00  0.68481872144E+03  0.68481872145E+03  0.50400001928E-02 0.  1.
        1   -1    0    0  501    0  0.00000000000E+00  0.00000000000E+00 -0.36181514205E+03  0.36181514208E+03  0.50400001928E-02 0. -1.
    10030    2    1    2    0    0  0.00000000000E+00  0.00000000000E+00  0.32300357939E+03  0.10466338635E+04  0.99554564537E+03 0.  0.
        1    1    3    3  502    0 -0.15368567335E+03 -0.99532225231E+02 -0.32512484772E+03  0.37313820052E+03  0.50400001928E-02 0. -1.
       -1    1    3    3    0  502  0.15368567335E+03  0.99532225231E+02  0.64812842711E+03  0.67349566302E+03  0.50400001928E-02 0.  1.
</event>
<event>
 5   0  0.3873874E-03  0.1005956E+04  0.7818609E-02  0.9302036E-01
       -2   -1    0    0    0  501  0.00000000000E+00  0.00000000000E+00  0.37469081698E+03  0.37469081699E+03  0.25500000920E-02 0.  1.
        2   -1    0    0  501    0  0.00000000000E+00  0.00000000000E+00 -0.67518833417E+03  0.67518833418E+03  0.25500000920E-02 0. -1.
    10030    2    1    2    0    0  0.00000000000E+00  0.00000000000E+00 -0.30049751719E+03  0.10498791512E+04  0.10059560001E+04 0.  0.
        5    1    3    3  502    0 -0.10138568990E+03 -0.83494562477E+02 -0.65695162796E+03  0.66996860490E+03  0.46999998093E+01 0. -1.
       -5    1    3    3    0  502  0.10138568990E+03  0.83494562477E+02  0.35645411077E+03  0.37991054626E+03  0.46999998093E+01 0.  1.
</event>
<event>
 5   0  0.3826483E-03  0.9996218E+03  0.7818609E-02  0.9308960E-01
       -2   -1    0    0    0  501  0.00000000000E+00  0.00000000000E+00  0.33337288633E+03  0.33337288634E+03  0.25500000920E-02 0. -1.
        2   -1    0    0  501    0  0.00000000000E+00  0.00000000000E+00 -0.74934382998E+03  0.74934382999E+03  0.25500000920E-02 0.  1.
    10030    2    1    2    0    0  0.00000000000E+00  0.00000000000E+00 -0.41597094365E+03  0.10827167163E+04  0.99962175940E+03 0.  0.
        4    1    3    3  502    0 -0.48859113292E+01 -0.26456780698E+02 -0.74855721117E+03  0.74904161745E+03  0.12699999809E+01 0.  1.
       -4    1    3    3    0  502  0.48859113292E+01  0.26456780698E+02  0.33258626752E+03  0.33367509889E+03  0.12699999809E+01 0. -1.
</event>
<event>
 5   0  0.4026829E-03  0.9884210E+03  0.7818609E-02  0.9321336E-01
        2   -1    0    0  501    0  0.00000000000E+00  0.00000000000E+00  0.11439457520E+04  0.11439457520E+04  0.25500000920E-02 0.  1.
       -2   -1    0    0    0  501  0.00000000000E+00  0.00000000000E+00 -0.21351016131E+03  0.21351016132E+03  0.25500000920E-02 0. -1.
    10030    2    1    2    0    0  0.00000000000E+00  0.00000000000E+00  0.93043559066E+03  0.13574559133E+04  0.98842104802E+03 0.  0.
        1    1    3    3  502    0 -0.30972661461E+03 -0.12862648043E+03  0.96374615707E+03  0.10204322626E+04  0.50400001928E-02 0.  1.
       -1    1    3    3    0  502  0.30972661461E+03  0.12862648043E+03 -0.33310566412E+02  0.33702365069E+03  0.50400001928E-02 0. -1.
</event>
<event>
 5   0  0.4026829E-03  0.1007197E+04  0.7818609E-02  0.9300686E-01
       -2   -1    0    0    0  501  0.00000000000E+00  0.00000000000E+00  0.40457710728E+03  0.40457710729E+03  0.25500000920E-02 0. -1.
        2   -1    0    0  501    0  0.00000000000E+00  0.00000000000E+00 -0.62685599325E+03  0.62685599326E+03  0.25500000920E-02 0.  1.
    10030    2    1    2    0    0  0.00000000000E+00  0.00000000000E+00 -0.22227888597E+03  0.10314331005E+04  0.10071972685E+04 0.  0.
        1    1    3    3  502    0 -0.27376368689E+03  0.39969884696E+03 -0.25194660419E+03  0.54606118330E+03  0.50400001928E-02 0. -1.
       -1    1    3    3    0  502  0.27376368689E+03 -0.39969884696E+03  0.29667718220E+02  0.48537191724E+03  0.50400001928E-02 0.  1.
</event>
<event>
 5   0  0.2350769E-03  0.9934669E+03  0.7818609E-02  0.9315739E-01
       -1   -1    0    0    0  501  0.00000000000E+00  0.00000000000E+00  0.24675724493E+03  0.24675724499E+03  0.50400001928E-02 0. -1.
        1   -1    0    0  501    0  0.00000000000E+00  0.00000000000E+00 -0.99994690750E+03  0.99994690751E+03  0.50400001928E-02 0.  1.
    10030    2    1    2    0    0  0.00000000000E+00  0.00000000000E+00 -0.75318966256E+03  0.12467041525E+04  0.99346694764E+03 0.  0.
        2    1    3    3  502    0  0.13369613244E+03  0.17511607088E+03 -0.93527856404E+03  0.96087787281E+03  0.25500000920E-02 0.  1.
       -2    1    3    3    0  502 -0.13369613244E+03 -0.17511607088E+03  0.18208890147E+03  0.28582627968E+03  0.25500000920E-02 0. -1.
</event>
<event>
 5   0  0.2327595E-03  0.9990741E+03  0.7818609E-02  0.9309561E-01
        1   -1    0    0  501    0  0.00000000000E+00  0.00000000000E+00  0.97092818700E+03  0.97092818702E+03  0.50400001928E-02 0. -1.
       -1   -1    0    0    0  501  0.00000000000E+00  0.00000000000E+00 -0.25700896145E+03  0.25700896150E+03  0.50400001928E-02 0.  1.
    10030    2    1    2    0    0  0.00000000000E+00  0.00000000000E+00  0.71391922556E+03  0.12279371485E+04  0.99907406136E+03 0.  0.
        5    1    3    3  502    0  0.21376853534E+03 -0.99256655372E+02  0.89826403875E+03  0.92868145435E+03  0.46999998093E+01 0. -1.
       -5    1    3    3    0  502 -0.21376853534E+03  0.99256655372E+02 -0.18434481320E+03  0.29925569416E+03  0.46999998093E+01 0.  1.
</event>
<event>
 5   0  0.3873874E-03  0.1016149E+04  0.7818609E-02  0.9291009E-01
       -2   -1    0    0    0  501  0.00000000000E+00  0.00000000000E+00  0.38688969051E+03  0.38688969051E+03  0.25500000920E-02 0.  1.
        2   -1    0    0  501    0  0.00000000000E+00  0.00000000000E+00 -0.66721719690E+03  0.66721719691E+03  0.25500000920E-02 0. -1.
    10030    2    1    2    0    0  0.00000000000E+00  0.00000000000E+00 -0.28032750640E+03  0.10541068874E+04  0.10161485222E+04 0.  0.
        5    1    3    3  502    0  0.15865533080E+02 -0.26106218550E+03  0.31166625805E+03  0.40689449031E+03  0.46999998093E+01 0.  1.
       -5    1    3    3    0  502 -0.15865533080E+02  0.26106218550E+03 -0.59199376445E+03  0.64721239712E+03  0.46999998093E+01 0. -1.
</event>
<event>
 5   0  0.2405022E-03  0.1007065E+04  0.7818609E-02  0.9300829E-01
       -1   -1    0    0    0  501  0.00000000000E+00  0.00000000000E+00  0.62282931486E+03  0.62282931488E+03  0.50400001928E-02 0.  1.
        1   -1    0    0  501    0  0.00000000000E+00  0.00000000000E+00 -0.40708617011E+03  0.40708617014E+03  0.50400001928E-02 0. -1.
    10030    2    1    2    0    0  0.00000000000E+00  0.00000000000E+00  0.21574314475E+03  0.10299154850E+04  0.10070654407E+04 0.  0.
        4    1    3    3  502    0  0.26460403590E+03 -0.34380115646E+03  0.36926645946E+03  0.56971384219E+03  0.12699999809E+01 0.  1.
       -4    1    3    3    0  502 -0.26460403590E+03  0.34380115646E+03 -0.15352331471E+03  0.46020164282E+03  0.12699999809E+01 0. -1.
</event>
<event>
 5   0  0.3895011E-03  0.9999370E+03  0.7818609E-02  0.9308614E-01
        2   -1    0    0  501    0  0.00000000000E+00  0.00000000000E+00  0.11862305030E+04  0.11862305030E+04  0.25500000920E-02 0. -1.
       -2   -1    0    0    0  501  0.00000000000E+00  0.00000000000E+00 -0.21072505977E+03  0.21072505979E+03  0.25500000920E-02 0.  1.
    10030    2    1    2    0    0  0.00000000000E+00  0.00000000000E+00  0.97550544322E+03  0.13969555628E+04  0.99993698533E+03 0.  0.
        2    1    3    3  502    0 -0.44580573155E+03 -0.12817642746E+03  0.74835489458E+03  0.88045840054E+03  0.25500000920E-02 0. -1.
       -2    1    3    3    0  502  0.44580573155E+03  0.12817642746E+03  0.22715054864E+03  0.51649716224E+03  0.25500000920E-02 0.  1.
</event>
<event>
 5   0  0.2378609E-03  0.1000009E+04  0.7818609E-02  0.9308535E-01
       -1   -1    0    0    0  501  0.00000000000E+00  0.00000000000E+00  0.28813749209E+03  0.28813749214E+03  0.50400001928E-02 0. -1.
        1   -1    0    0  501    0  0.00000000000E+00  0.00000000000E+00 -0.86765649904E+03  0.86765649905E+03  0.50400001928E-02 0.  1.
    10030    2    1    2    0    0  0.00000000000E+00  0.00000000000E+00 -0.57951900695E+03  0.11557939912E+04  0.10000087353E+04 0.  0.
        1    1    3    3  502    0  0.22305529860E+03 -0.11372757445E+03 -0.78998397527E+03  0.82871123356E+03  0.50400001928E-02 0.  1.
       -1    1    3    3    0  502 -0.22305529860E+03  0.11372757445E+03  0.21046496832E+03  0.32708275763E+03  0.50400001928E-02 0. -1.
</event>
<event>
 5   0  0.4140860E-03  0.1003964E+04  0.7818609E-02  0.9304208E-01
       -2   -1    0    0    0  501  0.00000000000E+00  0.00000000000E+00  0.60180558924E+03  0.60180558924E+03  0.25500000920E-02 0. -1.
        2   -1    0    0  501    0  0.00000000000E+00  0.00000000000E+00 -0.41871635055E+03  0.41871635056E+03  0.25500000920E-02 0.  1.
    10030    2    1    2    0    0  0.00000000000E+00  0.00000000000E+00  0.18308923869E+03  0.10205219398E+04  0.10039638242E+04 0.  0.
        3    1    3    3  502    0 -0.48030983263E+03  0.84404951558E+01 -0.56518470503E+02  0.48369734854E+03  0.10100000352E+00 0.  1.
       -3    1    3    3    0  502  0.48030983263E+03 -0.84404951558E+01  0.23960770919E+03  0.53682459126E+03  0.10100000352E+00 0. -1.
</event>
<event>
 5   0  0.3873874E-03  0.1000281E+04  0.7818609E-02  0.9308236E-01
        2   -1    0    0  501    0  0.00000000000E+00  0.00000000000E+00  0.63703411798E+03  0.63703411798E+03  0.25500000920E-02 0.  1.
       -2   -1    0    0    0  501  0.00000000000E+00  0.00000000000E+00 -0.39266449147E+03  0.39266449148E+03  0.25500000920E-02 0. -1.
    10030    2    1    2    0    0  0.00000000000E+00  0.00000000000E+00  0.24436962651E+03  0.10296986095E+04  0.10002813164E+04 0.  0.
        5    1    3    3  502    0 -0.53477050183E+02 -0.46022145947E+03 -0.71647742601E+02  0.46884867033E+03  0.46999998093E+01 0. -1.
       -5    1    3    3    0  502  0.53477050183E+02  0.46022145947E+03  0.31601736911E+03  0.56084993913E+03  0.46999998093E+01 0.  1.
</event>
<event>
 5   0  0.2378609E-03  0.1002062E+04  0.7818609E-02  0.9306286E-01
       -1   -1    0    0    0  501  0.00000000000E+00  0.00000000000E+00  0.40641756755E+03  0.40641756758E+03  0.50400001928E-02 0.  1.
        1   -1    0    0  501    0  0.00000000000E+00  0.00000000000E+00 -0.61767054605E+03  0.61767054607E+03  0.50400001928E-02 0. -1.
    10030    2    1    2    0    0  0.00000000000E+00  0.00000000000E+00 -0.21125297850E+03  0.10240881136E+04  0.10020621955E+04 0.  0.
        1    1    3    3  502    0 -0.32000662435E+03  0.23276268008E+02 -0.49890466706E+03  0.59317104710E+03  0.50400001928E-02 0. -1.
       -1    1    3    3    0  502  0.32000662435E+03 -0.23276268008E+02  0.28765168856E+03  0.43091706654E+03  0.50400001928E-02 0.  1.
</event>
<event>
 5   0  0.2405022E-03  0.9972596E+03  0.7818609E-02  0.9311556E-01
        1   -1    0    0  501    0  0.00000000000E+00  0.00000000000E+00  0.68315012789E+03  0.68315012791E+03  0.50400001928E-02 0.  1.
       -1   -1    0    0    0  501  0.00000000000E+00  0.00000000000E+00 -0.36394878187E+03  0.36394878191E+03  0.50400001928E-02 0. -1.
    10030    2    1    2    0    0  0.00000000000E+00  0.00000000000E+00  0.31920134602E+03  0.10470989098E+04  0.99725955881E+03 0.  0.
        4    1    3    3  502    0 -0.23808632362E+03  0.14077705816E+03  0.59521655456E+03  0.65634414549E+03  0.12699999809E+01 0.  1.
       -4    1    3    3    0  502  0.23808632362E+03 -0.14077705816E+03 -0.27601520854E+03  0.39075476433E+03  0.12699999809E+01 0. -1.
</event>
<event>
 5   0  0.2327595E-03  0.1008179E+04  0.7818609E-02  0.9299620E-01
        1   -1    0    0  501    0  0.00000000000E+00  0.00000000000E+00  0.47305216489E+03  0.47305216492E+03  0.50400001928E-02 0. -1.
       -1   -1    0    0    0  501  0.00000000000E+00  0.00000000000E+00 -0.53716283266E+03  0.53716283268E+03  0.50400001928E-02 0.  1.
    10030    2    1    2    0    0  0.00000000000E+00  0.00000000000E+00 -0.64110667766E+02  0.10102149976E+04  0.10081786368E+04 0.  0.
        5    1    3    3  502    0  0.24406878065E+03 -0.30924710289E+03  0.28303268599E+03  0.48511125700E+03  0.46999998093E+01 0. -1.
       -5    1    3    3    0  502 -0.24406878065E+03  0.30924710289E+03 -0.34714335376E+03  0.52510374060E+03  0.46999998093E+01 0.  1.
</event>
<event>
 5   0  0.2327595E-03  0.9956679E+03  0.7818609E-02  0.9313309E-01
        1   -1    0    0  501    0  0.00000000000E+00  0.00000000000E+00  0.19753998474E+04  0.19753998474E+04  0.50400001928E-02 0. -1.
       -1   -1    0    0    0  501  0.00000000000E+00  0.00000000000E+00 -0.12546252358E+03  0.12546252368E+03  0.50400001928E-02 0.  1.
    10030    2    1    2    0    0  0.00000000000E+00  0.00000000000E+00  0.18499373238E+04  0.21008623711E+04  0.99566791660E+03 0.  0.
        5    1    3    3  502    0 -0.35454692888E+03  0.29948391257E+02  0.19034773640E+03  0.40355269999E+03  0.46999998093E+01 0.  1.
       -5    1    3    3    0  502  0.35454692888E+03 -0.29948391257E+02  0.16595895874E+04  0.16973096711E+04  0.46999998093E+01 0. -1.
</event>
<event>
 5   0  0.3873874E-03  0.9872140E+03  0.7818609E-02  0.9322680E-01
       -2   -1    0    0    0  501  0.00000000000E+00  0.00000000000E+00  0.69129819857E+03  0.69129819857E+03  0.25500000920E-02 0.  1.
        2   -1    0    0  501    0  0.00000000000E+00  0.00000000000E+00 -0.35244975911E+03  0.35244975912E+03  0.25500000920E-02 0. -1.
    10030    2    1    2    0    0  0.00000000000E+00  0.00000000000E+00  0.33884843946E+03  0.10437479577E+04  0.98721402657E+03 0.  0.
        5    1    3    3  502    0  0.20202772318E+03  0.34838378336E+03  0.47114236067E+03  0.61982552018E+03  0.46999998093E+01 0.  1.
       -5    1    3    3    0  502 -0.20202772318E+03 -0.34838378336E+03 -0.13229392121E+03  0.42392243752E+03  0.46999998093E+01 0. -1.
</event>
<event>
 5   0  0.3873874E-03  0.1005191E+04  0.7818609E-02  0.9302869E-01
        2   -1    0    0  501    0  0.00000000000E+00  0.00000000000E+00  0.64573068251E+03  0.64573068251E+03  0.25500000920E-02 0.  1.
       -2   -1    0    0    0  501  0.00000000000E+00  0.00000000000E+00 -0.39118844341E+03  0.39118844342E+03  0.25500000920E-02 0. -1.
    10030    2    1    2    0    0  0.00000000000E+00  0.00000000000E+00  0.25454223910E+03  0.10369191259E+04  0.10051912864E+04 0.  0.
        5    1    3    3  502    0 -0.36821442566E+03 -0.22072990778E+03  0.39681690314E+03  0.58462748829E+03  0.46999998093E+01 0.  1.
       -5    1    3    3    0  502  0.36821442566E+03  0.22072990778E+03 -0.14227466404E+03  0.45229163764E+03  0.46999998093E+01 0. -1.
</event>
<event>
 5   0  0.4140860E-03  0.9970176E+03  0.7818609E-02  0.9311822E-01
       -2   -1    0    0    0  501  0.00000000000E+00  0.00000000000E+00  0.12464489498E+04  0.12464489498E+04  0.25500000920E-02 0.  1.
        2   -1    0    0  501    0  0.00000000000E+00  0.00000000000E+00 -0.19937519739E+03  0.19937519740E+03  0.25500000920E-02 0. -1.
    10030    2    1    2    0    0  0.00000000000E+00  0.00000000000E+00  0.10470737524E+04  0.14458241472E+04  0.99701756335E+03 0.  0.
        3    1    3    3  502    0 -0.15517196560E+03  0.24762905509E+03  0.11092113510E+04  0.11470607304E+04  0.10100000352E+00 0. -1.
       -3    1    3    3    0  502  0.15517196560E+03 -0.24762905509E+03 -0.62137598631E+02  0.29876341676E+03  0.10100000352E+00 0.  1.
</event>
<event>
 5   0  0.3873874E-03  0.1076268E+04  0.7818609E-02  0.9228636E-01
        2   -1    0    0  501    0  0.00000000000E+00  0.00000000000E+00  0.13124531453E+04  0.13124531453E+04  0.25500000920E-02 0. -1.
       -2   -1    0    0    0  501  0.00000000000E+00  0.00000000000E+00 -0.22064664008E+03  0.22064664009E+03  0.25500000920E-02 0.  1.
    10030    2    1    2    0    0  0.00000000000E+00  0.00000000000E+00  0.10918065052E+04  0.15330997854E+04  0.10762683249E+04 0.  0.
        5    1    3    3  502    0  0.18757415870E+02 -0.23843611056E+03  0.12325494834E+04  0.12555492577E+04  0.46999998093E+01 0. -1.
       -5    1    3    3    0  502 -0.18757415870E+02  0.23843611056E+03 -0.14074297824E+03  0.27755052764E+03  0.46999998093E+01 0.  1.
</event>
<event>
 5   0  0.2350769E-03  0.1051494E+04  0.7818609E-02  0.9253802E-01
       -1   -1    0    0    0  501  0.00000000000E+00  0.00000000000E+00  0.27556494804E+03  0.27556494808E+03  0.50400001928E-02 0. -1.
        1   -1    0    0  501    0  0.00000000000E+00  0.00000000000E+00 -0.10030671917E+04  0.10030671917E+04  0.50400001928E-02 0.  1.
    10030    2    1    2    0    0  0.00000000000E+00  0.00000000000E+00 -0.72750224362E+03  0.12786321398E+04  0.10514944766E+04 0.  0.
        2    1    3    3  502    0 -0.19152343886E+03 -0.42279801077E+03 -0.66401249859E+03  0.81015553065E+03  0.25500000920E-02 0.  1.
       -2    1    3    3    0  502  0.19152343886E+03  0.42279801077E+03 -0.63489745027E+02  0.46847660910E+03  0.25500000920E-02 0. -1.
</event>
<event>
 5   0  0.4140860E-03  0.8856411E+03  0.7818609E-02  0.9443711E-01
        2   -1    0    0  501    0  0.00000000000E+00  0.00000000000E+00  0.15208669007E+04  0.15208669007E+04  0.25500000920E-02 0. -1.
       -2   -1    0    0    0  501  0.00000000000E+00  0.00000000000E+00 -0.12893307009E+03  0.12893307012E+03  0.25500000920E-02 0.  1.
    10030    2    1    2    0    0  0.00000000000E+00  0.00000000000E+00  0.13919338306E+04  0.16497999708E+04  0.88564109826E+03 0.  0.
        3    1    3    3  502    0  0.17112640453E+03  0.39720722584E+03  0.87300648663E+03  0.97426801368E+03  0.10100000352E+00 0.  1.
       -3    1    3    3    0  502 -0.17112640453E+03 -0.39720722584E+03  0.51892734395E+03  0.67553195712E+03  0.10100000352E+00 0. -1.
</event>
<event>
 5   0  0.3895011E-03  0.1022409E+04  0.7818609E-02  0.9284303E-01
       -2   -1    0    0    0  501  0.00000000000E+00  0.00000000000E+00  0.14817037973E+03  0.14817037975E+03  0.25500000920E-02 0. -1.
        2   -1    0    0  501    0  0.00000000000E+00  0.00000000000E+00 -0.17637136259E+04  0.17637136259E+04  0.25500000920E-02 0.  1.
    10030    2    1    2    0    0  0.00000000000E+00  0.00000000000E+00 -0.16155432462E+04  0.19118840056E+04  0.10224091504E+04 0.  0.
        2    1    3    3  502    0 -0.22958327448E+03 -0.42329740307E+03 -0.48691375386E+03  0.68481689164E+03  0.25500000920E-02 0. -1.
       -2    1    3    3    0  502  0.22958327448E+03  0.42329740307E+03 -0.11286294923E+04  0.12270671140E+04  0.25500000920E-02 0.  1.
</event>
<event>
 5   0  0.4140860E-03  0.1031627E+04  0.7818609E-02  0.9274522E-01
        2   -1    0    0  501    0  0.00000000000E+00  0.00000000000E+00  0.16136783756E+04  0.16136783756E+04  0.25500000920E-02 0. -1.
       -2   -1    0    0    0  501  0.00000000000E+00  0.00000000000E+00 -0.16488005200E+03  0.16488005202E+03  0.25500000920E-02 0.  1.
    10030    2    1    2    0    0  0.00000000000E+00  0.00000000000E+00  0.14487983236E+04  0.17785584276E+04  0.10316266272E+04 0.  0.
        3    1    3    3  502    0 -0.82864114018E+02  0.35476235249E+03  0.13539441304E+04  0.14021011043E+04  0.10100000352E+00 0. -1.
       -3    1    3    3    0  502  0.82864114018E+02 -0.35476235249E+03  0.94854193197E+02  0.37645732335E+03  0.10100000352E+00 0.  1.
</event>
<event>
 5   0  0.1548000E-03  0.9906349E+03  0.7818609E-02  0.9318876E-01
        4   -1    0    0  501    0  0.00000000000E+00  0.00000000000E+00  0.27029565550E+03  0.27029863907E+03  0.12699999809E+01 0.  1.
       -4   -1    0    0    0  501  0.00000000000E+00  0.00000000000E+00 -0.90766203570E+03  0.90766292420E+03  0.12699999809E+01 0. -1.
    10030    2    1    2    0    0  0.00000000000E+00  0.00000000000E+00 -0.63736638021E+03  0.11779615633E+04  0.99063491858E+03 0.  0.
        5    1    3    3  502    0  0.28671150688E+03  0.40360150813E+03 -0.33630551695E+03  0.59851579451E+03  0.46999998093E+01 0. -1.
       -5    1    3    3    0  502 -0.28671150688E+03 -0.40360150813E+03 -0.30106086326E+03  0.57944576875E+03  0.46999998093E+01 0.  1.
</event>
<event>
 5   0  0.3895011E-03  0.1038661E+04  0.7818609E-02  0.9267130E-01
        2   -1    0    0  501    0  0.00000000000E+00  0.00000000000E+00  0.22926709192E+04  0.22926709192E+04  0.25500000920E-02 0. -1.
       -2   -1    0    0    0  501  0.00000000000E+00  0.00000000000E+00 -0.11763756434E+03  0.11763756437E+03  0.25500000920E-02 0.  1.
    10030    2    1    2    0    0  0.00000000000E+00  0.00000000000E+00  0.21750333548E+04  0.24103084836E+04  0.10386611051E+04 0.  0.
        2    1    3    3  502    0 -0.13219339372E+02 -0.29856656573E+03  0.10191382089E+03  0.31575809095E+03  0.25500000920E-02 0.  1.
       -2    1    3    3    0  502  0.13219339372E+02  0.29856656573E+03  0.20731195340E+04  0.20945503926E+04  0.25500000920E-02 0. -1.
</event>
<event>
 5   0  0.2405022E-03  0.1003643E+04  0.7818609E-02  0.9304558E-01
        1   -1    0    0  501    0  0.00000000000E+00  0.00000000000E+00  0.72108698455E+03  0.72108698457E+03  0.50400001928E-02 0.  1.
       -1   -1    0    0    0  501  0.00000000000E+00  0.00000000000E+00 -0.34922941183E+03  0.34922941187E+03  0.50400001928E-02 0. -1.
    10030    2    1    2    0    0  0.00000000000E+00  0.00000000000E+00  0.37185757272E+03  0.10703163964E+04  0.10036429316E+04 0.  0.
        4    1    3    3  502    0 -0.34325627054E+03 -0.48548525931E+01 -0.20441241963E+03  0.39954284758E+03  0.12699999809E+01 0. -1.
       -4    1    3    3    0  502  0.34325627054E+03  0.48548525931E+01  0.57626999235E+03  0.67077354885E+03  0.12699999809E+01 0.  1.
</event>
<event>
 5   0  0.2405022E-03  0.9967743E+03  0.7818609E-02  0.9312090E-01
       -1   -1    0    0    0  501  0.00000000000E+00  0.00000000000E+00  0.16028832880E+03  0.16028832888E+03  0.50400001928E-02 0. -1.
        1   -1    0    0  501    0  0.00000000000E+00  0.00000000000E+00 -0.15496433242E+04  0.15496433242E+04  0.50400001928E-02 0.  1.
    10030    2    1    2    0    0  0.00000000000E+00  0.00000000000E+00 -0.13893549954E+04  0.17099316531E+04  0.99677427485E+03 0.  0.
        4    1    3    3  502    0  0.32343373154E+03  0.93198067345E+02 -0.64158552052E+02  0.34265608291E+03  0.12699999809E+01 0. -1.
       -4    1    3    3    0  502 -0.32343373154E+03 -0.93198067345E+02 -0.13251964433E+04  0.13672755702E+04  0.12699999809E+01 0.  1.
</event>
<event>
 5   0  0.3826483E-03  0.1005026E+04  0.7818609E-02  0.9303050E-01
       -2   -1    0    0    0  501  0.00000000000E+00  0.00000000000E+00  0.80438770188E+03  0.80438770188E+03  0.25500000920E-02 0. -1.
        2   -1    0    0  501    0  0.00000000000E+00  0.00000000000E+00 -0.31392718987E+03  0.31392718988E+03  0.25500000920E-02 0.  1.
    10030    2    1    2    0    0  0.00000000000E+00  0.00000000000E+00  0.49046051201E+03  0.11183148918E+04  0.10050257128E+04 0.  0.
        4    1    3    3  502    0 -0.69611311084E+02 -0.23615587859E+03 -0.24221622497E+03  0.34537754149E+03  0.12699999809E+01 0.  1.
       -4    1    3    3    0  502  0.69611311084E+02  0.23615587859E+03  0.73267673698E+03  0.77293735027E+03  0.12699999809E+01 0. -1.
</event>
<event>
 5   0  0.2313036E-03  0.9937605E+03  0.7818609E-02  0.9315415E-01
        1   -1    0    0  501    0  0.00000000000E+00  0.00000000000E+00  0.16888683438E+04  0.16888683438E+04  0.50400001928E-02 0. -1.
       -1   -1    0    0    0  501  0.00000000000E+00  0.00000000000E+00 -0.14618662231E+03  0.14618662240E+03  0.50400001928E-02 0.  1.
    10030    2    1    2    0    0  0.00000000000E+00  0.00000000000E+00  0.15426817215E+04  0.18350549662E+04  0.99376045160E+03 0.  0.
        3    1    3    3  502    0  0.18390989849E+03  0.31240361326E+03  0.14385494470E+03  0.39001682484E+03  0.10100000352E+00 0.  1.
       -3    1    3    3    0  502 -0.18390989849E+03 -0.31240361326E+03  0.13988267768E+04  0.14450381413E+04  0.10100000352E+00 0. -1.
</event>
<event>
 5   0  0.1548000E-03  0.1003113E+04  0.7818609E-02  0.9305137E-01
       -4   -1    0    0    0  501  0.00000000000E+00  0.00000000000E+00  0.27320119011E+03  0.27320414195E+03  0.12699999809E+01 0.  1.
        4   -1    0    0  501    0  0.00000000000E+00  0.00000000000E+00 -0.92077410732E+03  0.92077498316E+03  0.12699999809E+01 0. -1.
    10030    2    1    2    0    0  0.00000000000E+00  0.00000000000E+00 -0.64757291721E+03  0.11939791251E+04  0.10031128890E+04 0.  0.
        4    1    3    3  502    0  0.33615877117E+03 -0.31352895373E+02  0.11769371824E+03  0.35754600780E+03  0.12699999809E+01 0.  1.
       -4    1    3    3    0  502 -0.33615877117E+03  0.31352895373E+02 -0.76526663545E+03  0.83643311730E+03  0.12699999809E+01 0. -1.
</event>
<event>
 5   0  0.4026829E-03  0.1071054E+04  0.7818609E-02  0.9233873E-01
       -2   -1    0    0    0  501  0.00000000000E+00  0.00000000000E+00  0.11181950157E+04  0.11181950157E+04  0.25500000920E-02 0.  1.
        2   -1    0    0  501    0  0.00000000000E+00  0.00000000000E+00 -0.25647511543E+03  0.25647511545E+03  0.25500000920E-02 0. -1.
    10030    2    1    2    0    0  0.00000000000E+00  0.00000000000E+00  0.86171990030E+03  0.13746701312E+04  0.10710540523E+04 0.  0.
        1    1    3    3  502    0  0.25046378491E+03 -0.28915941286E+03  0.91185275784E+03  0.98884818128E+03  0.50400001928E-02 0.  1.
       -1    1    3    3    0  502 -0.25046378491E+03  0.28915941286E+03 -0.50132857543E+02  0.38582194991E+03  0.50400001928E-02 0. -1.
</event>
<event>
 5   0  0.4140860E-03  0.1017472E+04  0.7818609E-02  0.9289587E-01
       -2   -1    0    0    0  501  0.00000000000E+00  0.00000000000E+00  0.19188536969E+03  0.19188536970E+03  0.25500000920E-02 0. -1.
        2   -1    0    0  501    0  0.00000000000E+00  0.00000000000E+00 -0.13487866079E+04  0.13487866079E+04  0.25500000920E-02 0.  1.
    10030    2    1    2    0    0  0.00000000000E+00  0.00000000000E+00 -0.11569012382E+04  0.15406719776E+04  0.10174721950E+04 0.  0.
        3    1    3    3  502    0  0.41851537290E+03  0.15896631393E+03 -0.21256468364E+03  0.49558971059E+03  0.10100000352E+00 0. -1.
       -3    1    3    3    0  502 -0.41851537290E+03 -0.15896631393E+03 -0.94433655458E+03  0.10450822670E+04  0.10100000352E+00 0.  1.
</event>
<event>
 5   0  0.3895011E-03  0.9921887E+03  0.7818609E-02  0.9317154E-01
       -2   -1    0    0    0  501  0.00000000000E+00  0.00000000000E+00  0.84583807503E+03  0.84583807504E+03  0.25500000920E-02 0.  1.
        2   -1    0    0  501    0  0.00000000000E+00  0.00000000000E+00 -0.29096538456E+03  0.29096538457E+03  0.25500000920E-02 0. -1.
    10030    2    1    2    0    0  0.00000000000E+00  0.00000000000E+00  0.55487269048E+03  0.11368034596E+04  0.99218869331E+03 0.  0.
        2    1    3    3  502    0  0.50531049614E+02  0.27654950916E+03 -0.19089034045E+03  0.33981191868E+03  0.25500000920E-02 0. -1.
       -2    1    3    3    0  502 -0.50531049614E+02 -0.27654950916E+03  0.74576303093E+03  0.79699154092E+03  0.25500000920E-02 0.  1.
</event>
<event>
 5   0  0.2378609E-03  0.9940542E+03  0.7818609E-02  0.9315090E-01
       -1   -1    0    0    0  501  0.00000000000E+00  0.00000000000E+00  0.29158082901E+03  0.29158082905E+03  0.50400001928E-02 0. -1.
        1   -1    0    0  501    0  0.00000000000E+00  0.00000000000E+00 -0.84722971014E+03  0.84722971016E+03  0.50400001928E-02 0.  1.
    10030    2    1    2    0    0  0.00000000000E+00  0.00000000000E+00 -0.55564888113E+03  0.11388105392E+04  0.99405420633E+03 0.  0.
        1    1    3    3  502    0 -0.11972525476E+03  0.16306347472E+03 -0.79793199602E+03  0.82317635032E+03  0.50400001928E-02 0.  1.
       -1    1    3    3    0  502  0.11972525476E+03 -0.16306347472E+03  0.24228311489E+03  0.31563418890E+03  0.50400001928E-02 0. -1.
</event>
<event>
 5   0  0.3826483E-03  0.1000156E+04  0.7818609E-02  0.9308374E-01
       -2   -1    0    0    0  501  0.00000000000E+00  0.00000000000E+00  0.59134670148E+03  0.59134670149E+03  0.25500000920E-02 0. -1.
        2   -1    0    0  501    0  0.00000000000E+00  0.00000000000E+00 -0.42289550053E+03  0.42289550054E+03  0.25500000920E-02 0.  1.
    10030    2    1    2    0    0  0.00000000000E+00  0.00000000000E+00  0.16845120095E+03  0.10142422020E+04  0.10001557065E+04 0.  0.
        4    1    3    3  502    0 -0.49188030157E+03 -0.52305370201E+02  0.97462094861E+01  0.49475113373E+03  0.12699999809E+01 0.  1.
       -4    1    3    3    0  502  0.49188030157E+03  0.52305370201E+02  0.15870499146E+03  0.51949106830E+03  0.12699999809E+01 0. -1.
</event>
<event>
 5   0  0.2313036E-03  0.9914960E+03  0.7818609E-02  0.9317921E-01
       -1   -1    0    0    0  501  0.00000000000E+00  0.00000000000E+00  0.21375168171E+03  0.21375168177E+03  0.50400001928E-02 0.  1.
        1   -1    0    0  501    0  0.00000000000E+00  0.00000000000E+00 -0.11497737533E+04  0.11497737533E+04  0.50400001928E-02 0. -1.
    10030    2    1    2    0    0  0.00000000000E+00  0.00000000000E+00 -0.93602207157E+03  0.13635254351E+04  0.99149598767E+03 0.  0.
        3    1    3    3  502    0  0.25950320392E+03  0.76058612612E+02 -0.10394134060E+04  0.10740144618E+04  0.10100000352E+00 0. -1.
       -3    1    3    3    0  502 -0.25950320392E+03 -0.76058612612E+02  0.10339133442E+03  0.28951097325E+03  0.10100000352E+00 0.  1.
</event>
<event>
 5   0  0.4140860E-03  0.9933897E+03  0.7818609E-02  0.9315825E-01
        2   -1    0    0  501    0  0.00000000000E+00  0.00000000000E+00  0.40859344765E+03  0.40859344766E+03  0.25500000920E-02 0. -1.
       -2   -1    0    0    0  501  0.00000000000E+00  0.00000000000E+00 -0.60379278529E+03  0.60379278529E+03  0.25500000920E-02 0.  1.
    10030    2    1    2    0    0  0.00000000000E+00  0.00000000000E+00 -0.19519933763E+03  0.10123862330E+04  0.99338970362E+03 0.  0.
        3    1    3    3  502    0 -0.35223431887E+03 -0.18106094790E+03  0.20788858699E+03  0.44729157945E+03  0.10100000352E+00 0. -1.
       -3    1    3    3    0  502  0.35223431887E+03  0.18106094790E+03 -0.40308792462E+03  0.56509465351E+03  0.10100000352E+00 0.  1.
</event>
<event>
 5   0  0.4140860E-03  0.1000208E+04  0.7818609E-02  0.9308317E-01
        2   -1    0    0  501    0  0.00000000000E+00  0.00000000000E+00  0.51763244845E+03  0.51763244846E+03  0.25500000920E-02 0. -1.
       -2   -1    0    0    0  501  0.00000000000E+00  0.00000000000E+00 -0.48316873520E+03  0.48316873520E+03  0.25500000920E-02 0.  1.
    10030    2    1    2    0    0  0.00000000000E+00  0.00000000000E+00  0.34463713258E+02  0.10008011837E+04  0.10002076093E+04 0.  0.
        3    1    3    3  502    0 -0.21028135577E+03 -0.32531502699E+03 -0.29927166851E+03  0.48950143732E+03  0.10100000352E+00 0.  1.
       -3    1    3    3    0  502  0.21028135577E+03  0.32531502699E+03  0.33373538176E+03  0.51129974634E+03  0.10100000352E+00 0. -1.
</event>
<event>
 5   0  0.2405022E-03  0.1006885E+04  0.7818609E-02  0.9301026E-01
       -1   -1    0    0    0  501  0.00000000000E+00  0.00000000000E+00  0.11053345215E+03  0.11053345226E+03  0.50400001928E-02 0.  1.
        1   -1    0    0  501    0  0.00000000000E+00  0.00000000000E+00 -0.22930100751E+04  0.22930100751E+04  0.50400001928E-02 0. -1.
    10030    2    1    2    0    0  0.00000000000E+00  0.00000000000E+00 -0.21824766229E+04  0.24035435273E+04  0.10068849379E+04 0.  0.
        4    1    3    3  502    0 -0.46246016796E+03 -0.83030320789E+01 -0.15657529556E+04  0.16326427282E+04  0.12699999809E+01 0. -1.
       -4    1    3    3    0  502  0.46246016796E+03  0.83030320789E+01 -0.61672366737E+03  0.77090079912E+03  0.12699999809E+01 0.  1.
</event>
<event>
 5   0  0.2378609E-03  0.9986800E+03  0.7818609E-02  0.9309994E-01
        1   -1    0    0  501    0  0.00000000000E+00  0.00000000000E+00  0.27706445018E+03  0.27706445023E+03  0.50400001928E-02 0. -1.
       -1   -1    0    0    0  501  0.00000000000E+00  0.00000000000E+00 -0.89993665604E+03  0.89993665606E+03  0.50400001928E-02 0.  1.
    10030    2    1    2    0    0  0.00000000000E+00  0.00000000000E+00 -0.62287220586E+03  0.11770011063E+04  0.99868003854E+03 0.  0.
        1    1    3    3  502    0 -0.43232842794E+03 -0.22637987330E+03 -0.18679438889E+03  0.52253981704E+03  0.50400001928E-02 0. -1.
       -1    1    3    3    0  502  0.43232842794E+03  0.22637987330E+03 -0.43607781697E+03  0.65446128925E+03  0.50400001928E-02 0.  1.
</event>
<event>
 5   0  0.4026829E-03  0.1020214E+04  0.7818609E-02  0.9286648E-01
        2   -1    0    0  501    0  0.00000000000E+00  0.00000000000E+00  0.21924849539E+04  0.21924849539E+04  0.25500000920E-02 0.  1.
       -2   -1    0    0    0  501  0.00000000000E+00  0.00000000000E+00 -0.11868230069E+03  0.11868230071E+03  0.25500000920E-02 0. -1.
    10030    2    1    2    0    0  0.00000000000E+00  0.00000000000E+00  0.20738026532E+04  0.23111672546E+04  0.10202140140E+04 0.  0.
        1    1    3    3  502    0  0.31831697613E+03  0.57961276317E+02  0.14351617067E+03  0.35395211274E+03  0.50400001928E-02 0. -1.
       -1    1    3    3    0  502 -0.31831697613E+03 -0.57961276317E+02  0.19302864825E+04  0.19572151419E+04  0.50400001928E-02 0.  1.
</event>
<event>
 5   0  0.2405022E-03  0.1003271E+04  0.7818609E-02  0.9304965E-01
        1   -1    0    0  501    0  0.00000000000E+00  0.00000000000E+00  0.22564036748E+03  0.22564036753E+03  0.50400001928E-02 0.  1.
       -1   -1    0    0    0  501  0.00000000000E+00  0.00000000000E+00 -0.11152173618E+04  0.11152173618E+04  0.50400001928E-02 0. -1.
    10030    2    1    2    0    0  0.00000000000E+00  0.00000000000E+00 -0.88957699434E+03  0.13408577294E+04  0.10032707618E+04 0.  0.
        4    1    3    3  502    0 -0.22089120577E+02  0.28718965434E+03  0.10410016370E+03  0.30627485007E+03  0.12699999809E+01 0.  1.
       -4    1    3    3    0  502  0.22089120577E+02 -0.28718965434E+03 -0.99367715804E+03  0.10345828793E+04  0.12699999809E+01 0. -1.
</event>
<event>
 5   0  0.3873874E-03  0.9984045E+03  0.7818609E-02  0.9310296E-01
        2   -1    0    0  501    0  0.00000000000E+00  0.00000000000E+00  0.61159331654E+03  0.61159331654E+03  0.25500000920E-02 0.  1.
       -2   -1    0    0    0  501  0.00000000000E+00  0.00000000000E+00 -0.40746502213E+03  0.40746502214E+03  0.25500000920E-02 0. -1.
    10030    2    1    2    0    0  0.00000000000E+00  0.00000000000E+00  0.20412829441E+03  0.10190583387E+04  0.99840449571E+03 0.  0.
        5    1    3    3  502    0 -0.46797089258E+03 -0.11012039441E+03 -0.35094051274E+02  0.48205491389E+03  0.46999998093E+01 0. -1.
       -5    1    3    3    0  502  0.46797089258E+03  0.11012039441E+03  0.23922234568E+03  0.53700342479E+03  0.46999998093E+01 0.  1.
</event>
<event>
 5   0  0.2350769E-03  0.1003321E+04  0.7818609E-02  0.9304909E-01
        1   -1    0    0  501    0  0.00000000000E+00  0.00000000000E+00  0.55748709900E+03  0.55748709902E+03  0.50400001928E-02 0. -1.
       -1   -1    0    0    0  501  0.00000000000E+00  0.00000000000E+00 -0.45142476135E+03  0.45142476138E+03  0.50400001928E-02 0.  1.
    10030    2    1    2    0    0  0.00000000000E+00  0.00000000000E+00  0.10606233765E+03  0.10089118604E+04  0.10033214453E+04 0.  0.
        2    1    3    3  502    0 -0.15310865501E+03  0.20880635564E+03 -0.37903855008E+03  0.45903439615E+03  0.25500000920E-02 0.  1.
       -2    1    3    3    0  502  0.15310865501E+03 -0.20880635564E+03  0.48510088773E+03  0.54987746424E+03  0.25500000920E-02 0. -1.
</event>
<event>
 5   0  0.2327595E-03  0.9942144E+03  0.7818609E-02  0.9314913E-01
       -1   -1    0    0    0  501  0.00000000000E+00  0.00000000000E+00  0.27232037247E+03  0.27232037251E+03  0.50400001928E-02 0. -1.
        1   -1    0    0  501    0  0.00000000000E+00  0.00000000000E+00 -0.90744437609E+03  0.90744437611E+03  0.50400001928E-02 0.  1.
    10030    2    1    2    0    0  0.00000000000E+00  0.00000000000E+00 -0.63512400363E+03  0.11797647486E+04  0.99421444472E+03 0.  0.
        5    1    3    3  502    0  0.42443970618E+03  0.18795319256E+03 -0.52856215765E+03  0.70347388812E+03  0.46999998093E+01 0. -1.
       -5    1    3    3    0  502 -0.42443970618E+03 -0.18795319256E+03 -0.10656184598E+03  0.47629086049E+03  0.46999998093E+01 0.  1.
</event>
<event>
 5   0  0.2378609E-03  0.1004547E+04  0.7818609E-02  0.9303572E-01
        1   -1    0    0  501    0  0.00000000000E+00  0.00000000000E+00  0.53469970373E+03  0.53469970375E+03  0.50400001928E-02 0. -1.
       -1   -1    0    0    0  501  0.00000000000E+00  0.00000000000E+00 -0.47181365088E+03  0.47181365091E+03  0.50400001928E-02 0.  1.
    10030    2    1    2    0    0  0.00000000000E+00  0.00000000000E+00  0.62886052850E+02  0.10065133547E+04  0.10045469016E+04 0.  0.
        1    1    3    3  502    0  0.39532934381E+03 -0.30908562112E+03  0.52918791050E+02  0.50459846387E+03  0.50400001928E-02 0. -1.
       -1    1    3    3    0  502 -0.39532934381E+03  0.30908562112E+03  0.99672617996E+01  0.50191489079E+03  0.50400001928E-02 0.  1.
</event>
<event>
 5   0  0.3873874E-03  0.1004423E+04  0.7818609E-02  0.9303707E-01
       -2   -1    0    0    0  501  0.00000000000E+00  0.00000000000E+00  0.56083021629E+03  0.56083021629E+03  0.25500000920E-02 0. -1.
        2   -1    0    0  501    0  0.00000000000E+00  0.00000000000E+00 -0.44971974668E+03  0.44971974669E+03  0.25500000920E-02 0.  1.
    10030    2    1    2    0    0  0.00000000000E+00  0.00000000000E+00  0.11111046961E+03  0.10105499630E+04  0.10044230639E+04 0.  0.
        5    1    3    3  502    0  0.35249327113E+02  0.43119164795E+02 -0.44658091464E+03  0.45006486283E+03  0.46999998093E+01 0.  1.
       -5    1    3    3    0  502 -0.35249327113E+02 -0.43119164795E+02  0.55769138425E+03  0.56048510016E+03  0.46999998093E+01 0. -1.
</event>
<event>
 5   0  0.2350769E-03  0.1001108E+04  0.7818609E-02  0.9307330E-01
       -1   -1    0    0    0  501  0.00000000000E+00  0.00000000000E+00  0.37502166404E+03  0.37502166407E+03  0.50400001928E-02 0. -1.
        1   -1    0    0  501    0  0.00000000000E+00  0.00000000000E+00 -0.66810649759E+03  0.66810649761E+03  0.50400001928E-02 0.  1.
    10030    2    1    2    0    0  0.00000000000E+00  0.00000000000E+00 -0.29308483355E+03  0.10431281617E+04  0.10011082070E+04 0.  0.
        2    1    3    3  502    0  0.45203278362E+03 -0.15262175539E+03 -0.30431582063E+03  0.56589323761E+03  0.25500000920E-02 0.  1.
       -2    1    3    3    0  502 -0.45203278362E+03  0.15262175539E+03  0.11230987078E+02  0.47723492408E+03  0.25500000920E-02 0. -1.
</event>
<event>
 5   0  0.2313036E-03  0.1000670E+04  0.7818609E-02  0.9307811E-01
       -1   -1    0    0    0  501  0.00000000000E+00  0.00000000000E+00  0.24701965510E+03  0.24701965516E+03  0.50400001928E-02 0. -1.
        1   -1    0    0  501    0  0.00000000000E+00  0.00000000000E+00 -0.10134210687E+04  0.10134210688E+04  0.50400001928E-02 0.  1.
    10030    2    1    2    0    0  0.00000000000E+00  0.00000000000E+00 -0.76640141364E+03  0.12604407239E+04  0.10006696216E+04 0.  0.
        3    1    3    3  502    0 -0.81308345953E+02 -0.10382888509E+03  0.22473400602E+03  0.26057027490E+03  0.10100000352E+00 0. -1.
       -3    1    3    3    0  502  0.81308345953E+02  0.10382888509E+03 -0.99113541966E+03  0.99987044901E+03  0.10100000352E+00 0.  1.
</event>
<event>
 5   0  0.4140860E-03  0.9050274E+03  0.7818609E-02  0.9419319E-01
       -2   -1    0    0    0  501  0.00000000000E+00  0.00000000000E+00  0.16001623586E+03  0.16001623588E+03  0.25500000920E-02 0. -1.
        2   -1    0    0  501    0  0.00000000000E+00  0.00000000000E+00 -0.12796741393E+04  0.12796741393E+04  0.25500000920E-02 0.  1.
    10030    2    1    2    0    0  0.00000000000E+00  0.00000000000E+00 -0.11196579035E+04  0.14396903752E+04  0.90502737840E+03 0.  0.
        3    1    3    3  502    0  0.36730926123E+03  0.20366540218E+03 -0.82778252208E+03  0.92823467048E+03  0.10100000352E+00 0.  1.
       -3    1    3    3    0  502 -0.36730926123E+03 -0.20366540218E+03 -0.29187538141E+03  0.51145570473E+03  0.10100000352E+00 0. -1.
</event>
<event>
 5   0  0.3873874E-03  0.9980812E+03  0.7818609E-02  0.9310652E-01
       -2   -1    0    0    0  501  0.00000000000E+00  0.00000000000E+00  0.49421066097E+03  0.49421066097E+03  0.25500000920E-02 0. -1.
        2   -1    0    0  501    0  0.00000000000E+00  0.00000000000E+00 -0.50391777913E+03  0.50391777914E+03  0.25500000920E-02 0.  1.
    10030    2    1    2    0    0  0.00000000000E+00  0.00000000000E+00 -0.97071181646E+01  0.99812844011E+03  0.99808123658E+03 0.  0.
        5    1    3    3  502    0  0.49675970254E+03 -0.45712769684E+02 -0.17487023598E+02  0.49918708454E+03  0.46999998093E+01 0.  1.
       -5    1    3    3    0  502 -0.49675970254E+03  0.45712769684E+02  0.77799054336E+01  0.49894135557E+03  0.46999998093E+01 0. -1.
</event>
<event>
 5   0  0.4026829E-03  0.1010914E+04  0.7818609E-02  0.9296655E-01
       -2   -1    0    0    0  501  0.00000000000E+00  0.00000000000E+00  0.29443277175E+03  0.29443277176E+03  0.25500000920E-02 0. -1.
        2   -1    0    0  501    0  0.00000000000E+00  0.00000000000E+00 -0.86772516392E+03  0.86772516393E+03  0.25500000920E-02 0.  1.
    10030    2    1    2    0    0  0.00000000000E+00  0.00000000000E+00 -0.57329239217E+03  0.11621579357E+04  0.10109138937E+04 0.  0.
        1    1    3    3  502    0  0.41995867729E+03  0.25801525893E+03 -0.15786120641E+03  0.51754934546E+03  0.50400001928E-02 0. -1.
       -1    1    3    3    0  502 -0.41995867729E+03 -0.25801525893E+03 -0.41543118576E+03  0.64460859023E+03  0.50400001928E-02 0.  1.
</event>
<event>
 5   0  0.2405022E-03  0.9947992E+03  0.7818609E-02  0.9314267E-01
        1   -1    0    0  501    0  0.00000000000E+00  0.00000000000E+00  0.12410416211E+04  0.12410416211E+04  0.50400001928E-02 0.  1.
       -1   -1    0    0    0  501  0.00000000000E+00  0.00000000000E+00 -0.19935381759E+03  0.19935381765E+03  0.50400001928E-02 0. -1.
    10030    2    1    2    0    0  0.00000000000E+00  0.00000000000E+00  0.10416878035E+04  0.14403954388E+04  0.99479924609E+03 0.  0.
        4    1    3    3  502    0 -0.48656371404E+03 -0.94780912964E+02  0.46154780107E+03  0.67731503369E+03  0.12699999809E+01 0.  1.
       -4    1    3    3    0  502  0.48656371404E+03  0.94780912964E+02  0.58014000245E+03  0.76308040508E+03  0.12699999809E+01 0. -1.
</event>
<event>
 5   0  0.2313036E-03  0.9935221E+03  0.7818609E-02  0.9315678E-01
       -1   -1    0    0    0  501  0.00000000000E+00  0.00000000000E+00  0.37820664593E+03  0.37820664597E+03  0.50400001928E-02 0.  1.
        1   -1    0    0  501    0  0.00000000000E+00  0.00000000000E+00 -0.65247802885E+03  0.65247802887E+03  0.50400001928E-02 0. -1.
    10030    2    1    2    0    0  0.00000000000E+00  0.00000000000E+00 -0.27427138292E+03  0.10306846748E+04  0.99352207195E+03 0.  0.
        3    1    3    3  502    0 -0.49244575258E+03 -0.14292723008E+02 -0.70998256352E+02  0.49774276867E+03  0.10100000352E+00 0.  1.
       -3    1    3    3    0  502  0.49244575258E+03  0.14292723008E+02 -0.20327312657E+03  0.53294190616E+03  0.10100000352E+00 0. -1.
</event>
<event>
 5   0  0.2378609E-03  0.1011315E+04  0.7818609E-02  0.9296221E-01
        1   -1    0    0  501    0  0.00000000000E+00  0.00000000000E+00  0.92994965337E+03  0.92994965338E+03  0.50400001928E-02 0.  1.
       -1   -1    0    0    0  501  0.00000000000E+00  0.00000000000E+00 -0.27494999230E+03  0.27494999234E+03  0.50400001928E-02 0. -1.
    10030    2    1    2    0    0  0.00000000000E+00  0.00000000000E+00  0.65499966107E+03  0.12048996457E+04  0.10113152823E+04 0.  0.
        1    1    3    3  502    0 -0.13433246577E+03  0.16373533926E+03  0.87456094191E+03  0.89983960450E+03  0.50400001928E-02 0.  1.
       -1    1    3    3    0  502  0.13433246577E+03 -0.16373533926E+03 -0.21956128084E+03  0.30506004122E+03  0.50400001928E-02 0. -1.
</event>
<event>
 5   0  0.3895011E-03  0.1009389E+04  0.7818609E-02  0.9298306E-01
        2   -1    0    0  501    0  0.00000000000E+00  0.00000000000E+00  0.68701205114E+03  0.68701205114E+03  0.25500000920E-02 0.  1.
       -2   -1    0    0    0  501  0.00000000000E+00  0.00000000000E+00 -0.37076024542E+03  0.37076024543E+03  0.25500000920E-02 0. -1.
    10030    2    1    2    0    0  0.00000000000E+00  0.00000000000E+00  0.31625180571E+03  0.10577722966E+04  0.10093894327E+04 0.  0.
        2    1    3    3  502    0  0.25903784755E+03 -0.33382627944E+03 -0.13110386447E+03  0.44241249372E+03  0.25500000920E-02 0.  1.
       -2    1    3    3    0  502 -0.25903784755E+03  0.33382627944E+03  0.44735567019E+03  0.61535980285E+03  0.25500000920E-02 0. -1.
</event>
<event>
 5   0  0.2378609E-03  0.9946622E+03  0.7818609E-02  0.9314419E-01
        1   -1    0    0  501    0  0.00000000000E+00  0.00000000000E+00  0.77906300512E+03  0.77906300514E+03  0.50400001928E-02 0.  1.
       -1   -1    0    0    0  501  0.00000000000E+00  0.00000000000E+00 -0.31748165347E+03  0.31748165351E+03  0.50400001928E-02 0. -1.
    10030    2    1    2    0    0  0.00000000000E+00  0.00000000000E+00  0.46158135165E+03  0.10965446586E+04  0.99466217592E+03 0.  0.
        1    1    3    3  502    0 -0.28829495154E+02 -0.81599616704E+02 -0.30911673741E+03  0.32100279533E+03  0.50400001928E-02 0. -1.
       -1    1    3    3    0  502  0.28829495154E+02  0.81599616704E+02  0.77069808906E+03  0.77554186331E+03  0.50400001928E-02 0.  1.
</event>
<event>
 5   0  0.1548000E-03  0.1008943E+04  0.7818609E-02  0.9298791E-01
       -4   -1    0    0    0  501  0.00000000000E+00  0.00000000000E+00  0.29053418823E+03  0.29053696396E+03  0.12699999809E+01 0.  1.
        4   -1    0    0  501    0  0.00000000000E+00  0.00000000000E+00 -0.87593525302E+03  0.87593617369E+03  0.12699999809E+01 0. -1.
    10030    2    1    2    0    0  0.00000000000E+00  0.00000000000E+00 -0.58540106479E+03  0.11664731377E+04  0.10089426020E+04 0.  0.
        4    1    3    3  502    0 -0.40402799715E+03  0.10415774894E+03  0.35124645812E+02  0.41871567058E+03  0.12699999809E+01 0.  1.
       -4    1    3    3    0  502  0.40402799715E+03 -0.10415774894E+03 -0.62052571060E+03  0.74775746707E+03  0.12699999809E+01 0. -1.
</event>
<event>
 5   0  0.2405022E-03  0.1031152E+04  0.7818609E-02  0.9275022E-01
        1   -1    0    0  501    0  0.00000000000E+00  0.00000000000E+00  0.36199443559E+03  0.36199443563E+03  0.50400001928E-02 0.  1.
       -1   -1    0    0    0  501  0.00000000000E+00  0.00000000000E+00 -0.73431712652E+03  0.73431712653E+03  0.50400001928E-02 0. -1.
    10030    2    1    2    0    0  0.00000000000E+00  0.00000000000E+00 -0.37232269093E+03  0.10963115622E+04  0.10311521979E+04 0.  0.
        4    1    3    3  502    0 -0.37081823907E+03  0.64689392237E+02 -0.56073996292E+03  0.67536790182E+03  0.12699999809E+01 0. -1.
       -4    1    3    3    0  502  0.37081823907E+03 -0.64689392237E+02  0.18841727199E+03  0.42094366034E+03  0.12699999809E+01 0.  1.
</event>
<event>
 5   0  0.4026829E-03  0.1022903E+04  0.7818609E-02  0.9283776E-01
        2   -1    0    0  501    0  0.00000000000E+00  0.00000000000E+00  0.11000451334E+04  0.11000451334E+04  0.25500000920E-02 0. -1.
       -2   -1    0    0    0  501  0.00000000000E+00  0.00000000000E+00 -0.23779267792E+03  0.23779267793E+03  0.25500000920E-02 0.  1.
    10030    2    1    2    0    0  0.00000000000E+00  0.00000000000E+00  0.86225245544E+03  0.13378378113E+04  0.10229030807E+04 0.  0.
        1    1    3    3  502    0  0.33548790665E+02  0.75204863590E+02  0.10913176419E+04  0.10944201609E+04  0.50400001928E-02 0. -1.
       -1    1    3    3    0  502 -0.33548790665E+02 -0.75204863590E+02 -0.22906518649E+03  0.24341765045E+03  0.50400001928E-02 0.  1.
</event>
<event>
 5   0  0.4140860E-03  0.9557349E+03  0.7818609E-02  0.9358472E-01
        2   -1    0    0  501    0  0.00000000000E+00  0.00000000000E+00  0.78980271736E+03  0.78980271736E+03  0.25500000920E-02 0. -1.
       -2   -1    0    0    0  501  0.00000000000E+00  0.00000000000E+00 -0.28913209280E+03  0.28913209281E+03  0.25500000920E-02 0.  1.
    10030    2    1    2    0    0  0.00000000000E+00  0.00000000000E+00  0.50067062456E+03  0.10789348102E+04  0.95573492680E+03 0.  0.
        3    1    3    3  502    0 -0.61811050511E+02 -0.20087268840E+03 -0.23415719971E+03  0.31464272960E+03  0.10100000352E+00 0.  1.
       -3    1    3    3    0  502  0.61811050511E+02  0.20087268840E+03  0.73482782427E+03  0.76429208057E+03  0.10100000352E+00 0. -1.
</event>
<event>
 5   0  0.2350769E-03  0.1014867E+04  0.7818609E-02  0.9292388E-01
       -1   -1    0    0    0  501  0.00000000000E+00  0.00000000000E+00  0.24183118303E+03  0.24183118308E+03  0.50400001928E-02 0.  1.
        1   -1    0    0  501    0  0.00000000000E+00  0.00000000000E+00 -0.10647453437E+04  0.10647453437E+04  0.50400001928E-02 0. -1.
    10030    2    1    2    0    0  0.00000000000E+00  0.00000000000E+00 -0.82291416067E+03  0.13065765268E+04  0.10148667423E+04 0.  0.
        2    1    3    3  502    0  0.45635534785E+03  0.22186695390E+03 -0.40905630077E+03  0.65177619314E+03  0.25500000920E-02 0.  1.
       -2    1    3    3    0  502 -0.45635534785E+03 -0.22186695390E+03 -0.41385785991E+03  0.65480033366E+03  0.25500000920E-02 0. -1.
</event>
<event>
 5   0  0.1548000E-03  0.9990235E+03  0.7818609E-02  0.9309616E-01
       -3   -1    0    0    0  501  0.00000000000E+00  0.00000000000E+00  0.26576232088E+03  0.26576234007E+03  0.10100000352E+00 0.  1.
        3   -1    0    0  501    0  0.00000000000E+00  0.00000000000E+00 -0.93885380901E+03  0.93885381444E+03  0.10100000352E+00 0. -1.
    10030    2    1    2    0    0  0.00000000000E+00  0.00000000000E+00 -0.67309148813E+03  0.12046161545E+04  0.99902348737E+03 0.  0.
        4    1    3    3  502    0 -0.17884187211E+03 -0.72550578783E+02 -0.89207826306E+03  0.91271750396E+03  0.12699999809E+01 0. -1.
       -4    1    3    3    0  502  0.17884187211E+03  0.72550578783E+02  0.21898677493E+03  0.29189865055E+03  0.12699999809E+01 0.  1.
</event>
<event>
 5   0  0.2327595E-03  0.1049140E+04  0.7818609E-02  0.9256232E-01
        1   -1    0    0  501    0  0.00000000000E+00  0.00000000000E+00  0.12370259330E+04  0.12370259330E+04  0.50400001928E-02 0. -1.
       -1   -1    0    0    0  501  0.00000000000E+00  0.00000000000E+00 -0.22244776689E+03  0.22244776695E+03  0.50400001928E-02 0.  1.
    10030    2    1    2    0    0  0.00000000000E+00  0.00000000000E+00  0.10145781661E+04  0.14594737000E+04  0.10491399457E+04 0.  0.
        5    1    3    3  502    0  0.94445544405E+02 -0.21990505817E+03  0.11566182733E+04  0.11811291697E+04  0.46999998093E+01 0. -1.
       -5    1    3    3    0  502 -0.94445544405E+02  0.21990505817E+03 -0.14204010718E+03  0.27834453024E+03  0.46999998093E+01 0.  1.
</event>
<event>
 5   0  0.3873874E-03  0.1019907E+04  0.7818609E-02  0.9286976E-01
        2   -1    0    0  501    0  0.00000000000E+00  0.00000000000E+00  0.10123626647E+04  0.10123626647E+04  0.25500000920E-02 0. -1.
       -2   -1    0    0    0  501  0.00000000000E+00  0.00000000000E+00 -0.25687708661E+03  0.25687708662E+03  0.25500000920E-02 0.  1.
    10030    2    1    2    0    0  0.00000000000E+00  0.00000000000E+00  0.75548557812E+03  0.12692397514E+04  0.10199073917E+04 0.  0.
        5    1    3    3  502    0  0.28690306326E+02  0.24919997791E+03  0.93024479742E+03  0.96348390531E+03  0.46999998093E+01 0. -1.
       -5    1    3    3    0  502 -0.28690306326E+02 -0.24919997791E+03 -0.17475921930E+03  0.30575584605E+03  0.46999998093E+01 0.  1.
</event>
<event>
 5   0  0.4026829E-03  0.1006000E+04  0.7818609E-02  0.9301988E-01
        2   -1    0    0  501    0  0.00000000000E+00  0.00000000000E+00  0.17032555578E+04  0.17032555578E+04  0.25500000920E-02 0.  1.
       -2   -1    0    0    0  501  0.00000000000E+00  0.00000000000E+00 -0.14854437966E+03  0.14854437968E+03  0.25500000920E-02 0. -1.
    10030    2    1    2    0    0  0.00000000000E+00  0.00000000000E+00  0.15547111781E+04  0.18517999375E+04  0.10060000800E+04 0.  0.
        1    1    3    3  502    0  0.10662200752E+03 -0.10385219479E+03 -0.10707992180E+03  0.18335659391E+03  0.50400001928E-02 0. -1.
       -1    1    3    3    0  502 -0.10662200752E+03  0.10385219479E+03  0.16617910999E+04  0.16684433436E+04  0.50400001928E-02 0.  1.
</event>
<event>
 5   0  0.2327595E-03  0.9967234E+03  0.7818609E-02  0.9312146E-01
       -1   -1    0    0    0  501  0.00000000000E+00  0.00000000000E+00  0.93334849579E+03  0.93334849580E+03  0.50400001928E-02 0.  1.
        1   -1    0    0  501    0  0.00000000000E+00  0.00000000000E+00 -0.26610038223E+03  0.26610038227E+03  0.50400001928E-02 0. -1.
    10030    2    1    2    0    0  0.00000000000E+00  0.00000000000E+00  0.66724811356E+03  0.11994488781E+04  0.99672341503E+03 0.  0.
        5    1    3    3  502    0 -0.41449578852E+03 -0.16332229633E+03  0.64910741741E+02  0.45024040864E+03  0.46999998093E+01 0.  1.
       -5    1    3    3    0  502  0.41449578852E+03  0.16332229633E+03  0.60233737182E+03  0.74920846943E+03  0.46999998093E+01 0. -1.
</event>
<event>
 5   0  0.2350769E-03  0.9962429E+03  0.7818609E-02  0.9312675E-01
       -1   -1    0    0    0  501  0.00000000000E+00  0.00000000000E+00  0.12774980133E+04  0.12774980133E+04  0.50400001928E-02 0. -1.
        1   -1    0    0  501    0  0.00000000000E+00  0.00000000000E+00 -0.19422730857E+03  0.19422730864E+03  0.50400001928E-02 0.  1.
    10030    2    1    2    0    0  0.00000000000E+00  0.00000000000E+00  0.10832707048E+04  0.14717253220E+04  0.99624294405E+03 0.  0.
        2    1    3    3  502    0  0.78637299127E+02 -0.21719059911E+03 -0.11032605554E+03  0.25598324104E+03  0.25500000920E-02 0.  1.
       -2    1    3    3    0  502 -0.78637299127E+02  0.21719059911E+03  0.11935967603E+04  0.12157420809E+04  0.25500000920E-02 0. -1.
</event>
<event>
 5   0  0.3826483E-03  0.1004765E+04  0.7818609E-02  0.9303334E-01
        2   -1    0    0  501    0  0.00000000000E+00  0.00000000000E+00  0.84628980910E+03  0.84628980911E+03  0.25500000920E-02 0.  1.
       -2   -1    0    0    0  501  0.00000000000E+00  0.00000000000E+00 -0.29822897459E+03  0.29822897460E+03  0.25500000920E-02 0. -1.
    10030    2    1    2    0    0  0.00000000000E+00  0.00000000000E+00  0.54806083452E+03  0.11445187837E+04  0.10047649317E+04 0.  0.
        4    1    3    3  502    0  0.40980313437E+03 -0.64171338484E+02  0.59687776998E+03  0.72685710757E+03  0.12699999809E+01 0.  1.
       -4    1    3    3    0  502 -0.40980313437E+03  0.64171338484E+02 -0.48816935466E+02  0.41766167614E+03  0.12699999809E+01 0. -1.
</event>
<event>
 5   0  0.4026829E-03  0.9898165E+03  0.7818609E-02  0.9319785E-01
       -2   -1    0    0    0  501  0.00000000000E+00  0.00000000000E+00  0.25471113153E+03  0.25471113154E+03  0.25500000920E-02 0.  1.
        2   -1    0    0  501    0  0.00000000000E+00  0.00000000000E+00 -0.96161550536E+03  0.96161550536E+03  0.25500000920E-02 0. -1.
    10030    2    1    2    0    0  0.00000000000E+00  0.00000000000E+00 -0.70690437383E+03  0.12163266369E+04  0.98981649507E+03 0.  0.
        1    1    3    3  502    0 -0.31368681631E+03  0.19901410775E+03  0.48377053280E+02  0.37462831329E+03  0.50400001928E-02 0.  1.
       -1    1    3    3    0  502  0.31368681631E+03 -0.19901410775E+03 -0.75528142711E+03  0.84169832361E+03  0.50400001928E-02 0. -1.
</event>
<event>
 5   0  0.3873874E-03  0.9999916E+03  0.7818609E-02  0.9308554E-01
        2   -1    0    0  501    0  0.00000000000E+00  0.00000000000E+00  0.20026550901E+04  0.20026550901E+04  0.25500000920E-02 0. -1.
       -2   -1    0    0    0  501  0.00000000000E+00  0.00000000000E+00 -0.12483218185E+03  0.12483218188E+03  0.25500000920E-02 0.  1.
    10030    2    1    2    0    0  0.00000000000E+00  0.00000000000E+00  0.18778229083E+04  0.21274872720E+04  0.99999160882E+03 0.  0.
        5    1    3    3  502    0  0.89131293005E+02 -0.13106609816E+03  0.19477415533E+04  0.19541857532E+04  0.46999998093E+01 0. -1.
       -5    1    3    3    0  502 -0.89131293005E+02  0.13106609816E+03 -0.69918645085E+02  0.17330151877E+03  0.46999998093E+01 0.  1.
</event>
<event>
 5   0  0.3873874E-03  0.1002218E+04  0.7818609E-02  0.9306115E-01
        2   -1    0    0  501    0  0.00000000000E+00  0.00000000000E+00  0.89388825078E+03  0.89388825078E+03  0.25500000920E-02 0.  1.
       -2   -1    0    0    0  501  0.00000000000E+00  0.00000000000E+00 -0.28091931543E+03  0.28091931544E+03  0.25500000920E-02 0. -1.
    10030    2    1    2    0    0  0.00000000000E+00  0.00000000000E+00  0.61296893535E+03  0.11748075662E+04  0.10022184901E+04 0.  0.
        5    1    3    3  502    0  0.21541429741E+03 -0.22128758165E+03 -0.15607988374E+03  0.34605567967E+03  0.46999998093E+01 0. -1.
       -5    1    3    3    0  502 -0.21541429741E+03  0.22128758165E+03  0.76904881909E+03  0.82875188655E+03  0.46999998093E+01 0.  1.
</event>
<event>
 5   0  0.3873874E-03  0.9818385E+03  0.7818609E-02  0.9328691E-01
        2   -1    0    0  501    0  0.00000000000E+00  0.00000000000E+00  0.56065052946E+03  0.56065052947E+03  0.25500000920E-02 0.  1.
       -2   -1    0    0    0  501  0.00000000000E+00  0.00000000000E+00 -0.42986082276E+03  0.42986082276E+03  0.25500000920E-02 0. -1.
    10030    2    1    2    0    0  0.00000000000E+00  0.00000000000E+00  0.13078970671E+03  0.99051135223E+03  0.98183847527E+03 0.  0.
        5    1    3    3  502    0 -0.20738531909E+03  0.26416789835E+03  0.42658853684E+03  0.54294863372E+03  0.46999998093E+01 0.  1.
       -5    1    3    3    0  502  0.20738531909E+03 -0.26416789835E+03 -0.29579883014E+03  0.44756271851E+03  0.46999998093E+01 0. -1.
</event>
<event>
 5   0  0.2327595E-03  0.1006216E+04  0.7818609E-02  0.9301753E-01
        1   -1    0    0  501    0  0.00000000000E+00  0.00000000000E+00  0.44184604277E+03  0.44184604280E+03  0.50400001928E-02 0. -1.
       -1   -1    0    0    0  501  0.00000000000E+00  0.00000000000E+00 -0.57286388416E+03  0.57286388418E+03  0.50400001928E-02 0.  1.
    10030    2    1    2    0    0  0.00000000000E+00  0.00000000000E+00 -0.13101784139E+03  0.10147099270E+04  0.10062159615E+04 0.  0.
        5    1    3    3  502    0 -0.17279104485E+03  0.10412059650E+03 -0.53026557683E+03  0.56736365390E+03  0.46999998093E+01 0.  1.
       -5    1    3    3    0  502  0.17279104485E+03 -0.10412059650E+03  0.39924773544E+03  0.44734627309E+03  0.46999998093E+01 0. -1.
</event>
<event>
 5   0  0.4026829E-03  0.9947212E+03  0.7818609E-02  0.9314353E-01
       -2   -1    0    0    0  501  0.00000000000E+00  0.00000000000E+00  0.14724298216E+03  0.14724298218E+03  0.25500000920E-02 0.  1.
        2   -1    0    0  501    0  0.00000000000E+00  0.00000000000E+00 -0.16799956795E+04  0.16799956795E+04  0.25500000920E-02 0. -1.
    10030    2    1    2    0    0  0.00000000000E+00  0.00000000000E+00 -0.15327526973E+04  0.18272386617E+04  0.99472121499E+03 0.  0.
        1    1    3    3  502    0  0.22932380017E+03  0.41643113849E+03 -0.49788653402E+03  0.68840053691E+03  0.50400001928E-02 0.  1.
       -1    1    3    3    0  502 -0.22932380017E+03 -0.41643113849E+03 -0.10348661633E+04  0.11388381248E+04  0.50400001928E-02 0. -1.
</event>
<event>
 5   0  0.2350769E-03  0.1003466E+04  0.7818609E-02  0.9304752E-01
        1   -1    0    0  501    0  0.00000000000E+00  0.00000000000E+00  0.16749567518E+03  0.16749567525E+03  0.50400001928E-02 0. -1.
       -1   -1    0    0    0  501  0.00000000000E+00  0.00000000000E+00 -0.15029399907E+04  0.15029399907E+04  0.50400001928E-02 0.  1.
    10030    2    1    2    0    0  0.00000000000E+00  0.00000000000E+00 -0.13354443155E+04  0.16704356659E+04  0.10034658909E+04 0.  0.
        2    1    3    3  502    0  0.27464312066E+01 -0.16339166032E+03  0.12195370829E+03  0.20390459661E+03  0.25500000920E-02 0. -1.
       -2    1    3    3    0  502 -0.27464312066E+01  0.16339166032E+03 -0.14573980238E+04  0.14665310693E+04  0.25500000920E-02 0.  1.
</event>
<event>
 5   0  0.2350769E-03  0.1002282E+04  0.7818609E-02  0.9306046E-01
       -1   -1    0    0    0  501  0.00000000000E+00  0.00000000000E+00  0.24248402718E+03  0.24248402724E+03  0.50400001928E-02 0. -1.
        1   -1    0    0  501    0  0.00000000000E+00  0.00000000000E+00 -0.10357061808E+04  0.10357061808E+04  0.50400001928E-02 0.  1.
    10030    2    1    2    0    0  0.00000000000E+00  0.00000000000E+00 -0.79322215365E+03  0.12781902081E+04  0.10022818082E+04 0.  0.
        2    1    3    3  502    0  0.62986902597E+02 -0.19053078872E+02 -0.10301723600E+04  0.10322719899E+04  0.25500000920E-02 0.  1.
       -2    1    3    3    0  502 -0.62986902597E+02  0.19053078872E+02  0.23695020640E+03  0.24591821818E+03  0.25500000920E-02 0. -1.
</event>
<event>
 5   0  0.2313036E-03  0.9950798E+03  0.7818609E-02  0.9313958E-01
       -1   -1    0    0    0  501  0.00000000000E+00  0.00000000000E+00  0.21933561110E+03  0.21933561116E+03  0.50400001928E-02 0. -1.
        1   -1    0    0  501    0  0.00000000000E+00  0.00000000000E+00 -0.11286172270E+04  0.11286172270E+04  0.50400001928E-02 0.  1.
    10030    2    1    2    0    0  0.00000000000E+00  0.00000000000E+00 -0.90928161587E+03  0.13479528382E+04  0.99507979425E+03 0.  0.
        3    1    3    3  502    0 -0.47176599185E+03 -0.18045615409E+02 -0.66735093799E+03  0.81746319791E+03  0.10100000352E+00 0.  1.
       -3    1    3    3    0  502  0.47176599185E+03  0.18045615409E+02 -0.24193067789E+03  0.53048964024E+03  0.10100000352E+00 0. -1.
</event>
<event>
 5   0  0.4026829E-03  0.1001703E+04  0.7818609E-02  0.9306679E-01
        2   -1    0    0  501    0  0.00000000000E+00  0.00000000000E+00  0.16831188191E+04  0.16831188191E+04  0.25500000920E-02 0.  1.
       -2   -1    0    0    0  501  0.00000000000E+00  0.00000000000E+00 -0.14904003115E+03  0.14904003118E+03  0.25500000920E-02 0. -1.
    10030    2    1    2    0    0  0.00000000000E+00  0.00000000000E+00  0.15340787879E+04  0.18321588503E+04  0.10017027129E+04 0.  0.
        1    1    3    3  502    0  0.26094740560E+03  0.21834354855E+03  0.94794921885E+02  0.35320465869E+03  0.50400001928E-02 0. -1.
       -1    1    3    3    0  502 -0.26094740560E+03 -0.21834354855E+03  0.14392838661E+04  0.14789541916E+04  0.50400001928E-02 0.  1.
</event>
<event>
 5   0  0.2405022E-03  0.9998433E+03  0.7818609E-02  0.9308717E-01
       -1   -1    0    0    0  501  0.00000000000E+00  0.00000000000E+00  0.23463512201E+03  0.23463512206E+03  0.50400001928E-02 0. -1.
        1   -1    0    0  501    0  0.00000000000E+00  0.00000000000E+00 -0.10651503442E+04  0.10651503442E+04  0.50400001928E-02 0.  1.
    10030    2    1    2    0    0  0.00000000000E+00  0.00000000000E+00 -0.83051522221E+03  0.12997854663E+04  0.99984334976E+03 0.  0.
        4    1    3    3  502    0 -0.43318464667E+03 -0.18560622799E+03 -0.63209274779E+03  0.78844242954E+03  0.12699999809E+01 0.  1.
       -4    1    3    3    0  502  0.43318464667E+03  0.18560622799E+03 -0.19842247442E+03  0.51134303675E+03  0.12699999809E+01 0. -1.
</event>
<event>
 5   0  0.2405022E-03  0.1005136E+04  0.7818609E-02  0.9302929E-01
        1   -1    0    0  501    0  0.00000000000E+00  0.00000000000E+00  0.16828168415E+04  0.16828168415E+04  0.50400001928E-02 0. -1.
       -1   -1    0    0    0  501  0.00000000000E+00  0.00000000000E+00 -0.15009049115E+03  0.15009049123E+03  0.50400001928E-02 0.  1.
    10030    2    1    2    0    0  0.00000000000E+00  0.00000000000E+00  0.15327263503E+04  0.18329073327E+04  0.10051364213E+04 0.  0.
        4    1    3    3  502    0 -0.14776679445E+03 -0.24276000883E+02  0.16411855804E+04  0.16480036626E+04  0.12699999809E+01 0. -1.
       -4    1    3    3    0  502  0.14776679445E+03  0.24276000883E+02 -0.10845923002E+03  0.18490367016E+03  0.12699999809E+01 0.  1.
</event>
<event>
 5   0  0.2327595E-03  0.1001186E+04  0.7818609E-02  0.9307245E-01
       -1   -1    0    0    0  501  0.00000000000E+00  0.00000000000E+00  0.46532341440E+03  0.46532341442E+03  0.50400001928E-02 0. -1.
        1   -1    0    0  501    0  0.00000000000E+00  0.00000000000E+00 -0.53853633311E+03  0.53853633313E+03  0.50400001928E-02 0.  1.
    10030    2    1    2    0    0  0.00000000000E+00  0.00000000000E+00 -0.73212918714E+02  0.10038597476E+04  0.10011864268E+04 0.  0.
        5    1    3    3  502    0 -0.49632850166E+03  0.31712539524E+02 -0.93536659727E+02  0.50608187424E+03  0.46999998093E+01 0. -1.
       -5    1    3    3    0  502  0.49632850166E+03 -0.31712539524E+02  0.20323741014E+02  0.49777787332E+03  0.46999998093E+01 0.  1.
</event>
<event>
 5   0  0.3895011E-03  0.9940538E+03  0.7818609E-02  0.9315091E-01
       -2   -1    0    0    0  501  0.00000000000E+00  0.00000000000E+00  0.18737398017E+03  0.18737398019E+03  0.25500000920E-02 0.  1.
        2   -1    0    0  501    0  0.00000000000E+00  0.00000000000E+00 -0.13184101341E+04  0.13184101341E+04  0.25500000920E-02 0. -1.
    10030    2    1    2    0    0  0.00000000000E+00  0.00000000000E+00 -0.11310361539E+04  0.15057841143E+04  0.99405383022E+03 0.  0.
        2    1    3    3  502    0  0.12615747877E+03  0.34151268506E+02 -0.12919134058E+04  0.12985077076E+04  0.25500000920E-02 0. -1.
       -2    1    3    3    0  502 -0.12615747877E+03 -0.34151268506E+02  0.16087725188E+03  0.20727640669E+03  0.25500000920E-02 0.  1.
</event>
<event>
 5   0  0.3826483E-03  0.1013465E+04  0.7818609E-02  0.9293899E-01
       -2   -1    0    0    0  501  0.00000000000E+00  0.00000000000E+00  0.12207169152E+04  0.12207169152E+04  0.25500000920E-02 0.  1.
        2   -1    0    0  501    0  0.00000000000E+00  0.00000000000E+00 -0.21034989907E+03  0.21034989908E+03  0.25500000920E-02 0. -1.
    10030    2    1    2    0    0  0.00000000000E+00  0.00000000000E+00  0.10103670162E+04  0.14310668143E+04  0.10134647106E+04 0.  0.
        4    1    3    3  502    0 -0.40030436980E+03  0.30887508521E+02  0.94173075088E+03  0.10237460851E+04  0.12699999809E+01 0.  1.
       -4    1    3    3    0  502  0.40030436980E+03 -0.30887508521E+02  0.68636265297E+02  0.40732072925E+03  0.12699999809E+01 0. -1.
</event>
<event>
 5   0  0.3873874E-03  0.1000630E+04  0.7818609E-02  0.9307854E-01
        2   -1    0    0  501    0  0.00000000000E+00  0.00000000000E+00  0.96132086103E+03  0.96132086103E+03  0.25500000920E-02 0. -1.
       -2   -1    0    0    0  501  0.00000000000E+00  0.00000000000E+00 -0.26038656962E+03  0.26038656964E+03  0.25500000920E-02 0.  1.
    10030    2    1    2    0    0  0.00000000000E+00  0.00000000000E+00  0.70093429140E+03  0.12217074307E+04  0.10006298843E+04 0.  0.
        5    1    3    3  502    0 -0.47812515715E+03  0.99361538301E+02  0.48318809046E+03  0.68700014698E+03  0.46999998093E+01 0. -1.
       -5    1    3    3    0  502  0.47812515715E+03 -0.99361538301E+02  0.21774620095E+03  0.53470728368E+03  0.46999998093E+01 0.  1.
</event>
<event>
 5   0  0.4140860E-03  0.1005312E+04  0.7818609E-02  0.9302738E-01
        2   -1    0    0  501    0  0.00000000000E+00  0.00000000000E+00  0.45307066784E+03  0.45307066785E+03  0.25500000920E-02 0.  1.
       -2   -1    0    0    0  501  0.00000000000E+00  0.00000000000E+00 -0.55766840624E+03  0.55766840625E+03  0.25500000920E-02 0. -1.
    10030    2    1    2    0    0  0.00000000000E+00  0.00000000000E+00 -0.10459773840E+03  0.10107390741E+04  0.10053122843E+04 0.  0.
        3    1    3    3  502    0  0.35626769401E+03  0.11105619907E+03 -0.39087037917E+03  0.54040708050E+03  0.10100000352E+00 0. -1.
       -3    1    3    3    0  502 -0.35626769401E+03 -0.11105619907E+03  0.28627264076E+03  0.47033199359E+03  0.10100000352E+00 0.  1.
</event>
<event>
 5   0  0.3873874E-03  0.9983612E+03  0.7818609E-02  0.9310344E-01
       -2   -1    0    0    0  501  0.00000000000E+00  0.00000000000E+00  0.11152885566E+04  0.11152885566E+04  0.25500000920E-02 0.  1.
        2   -1    0    0  501    0  0.00000000000E+00  0.00000000000E+00 -0.22342313319E+03  0.22342313321E+03  0.25500000920E-02 0. -1.
    10030    2    1    2    0    0  0.00000000000E+00  0.00000000000E+00  0.89186542345E+03  0.13387116899E+04  0.99836118464E+03 0.  0.
        5    1    3    3  502    0 -0.31552049900E+03  0.35555994162E+03  0.24176583944E+03  0.53333748086E+03  0.46999998093E+01 0. -1.
       -5    1    3    3    0  502  0.31552049900E+03 -0.35555994162E+03  0.65009958402E+03  0.80537420899E+03  0.46999998093E+01 0.  1.
</event>
<event>
 5   0  0.3895011E-03  0.9920582E+03  0.7818609E-02  0.9317298E-01
        2   -1    0    0  501    0  0.00000000000E+00  0.00000000000E+00  0.11113072660E+04  0.11113072660E+04  0.25500000920E-02 0. -1.
       -2   -1    0    0    0  501  0.00000000000E+00  0.00000000000E+00 -0.22140128114E+03  0.22140128115E+03  0.25500000920E-02 0.  1.
    10030    2    1    2    0    0  0.00000000000E+00  0.00000000000E+00  0.88990598484E+03  0.13327085471E+04  0.99205816853E+03 0.  0.
        2    1    3    3  502    0  0.19722355307E+03 -0.39731634674E+03  0.14671278671E+03  0.46720664706E+03  0.25500000920E-02 0.  1.
       -2    1    3    3    0  502 -0.19722355307E+03  0.39731634674E+03  0.74319319813E+03  0.86550190007E+03  0.25500000920E-02 0. -1.
</event>
<event>
 5   0  0.2378609E-03  0.1001204E+04  0.7818609E-02  0.9307226E-01
        1   -1    0    0  501    0  0.00000000000E+00  0.00000000000E+00  0.85171663156E+03  0.85171663158E+03  0.50400001928E-02 0. -1.
       -1   -1    0    0    0  501  0.00000000000E+00  0.00000000000E+00 -0.29423187844E+03  0.29423187849E+03  0.50400001928E-02 0.  1.
    10030    2    1    2    0    0  0.00000000000E+00  0.00000000000E+00  0.55748475312E+03  0.11459485101E+04  0.10012036445E+04 0.  0.
        1    1    3    3  502    0  0.31310651531E+03 -0.26754906718E+03  0.60446075994E+03  0.73143079209E+03  0.50400001928E-02 0. -1.
       -1    1    3    3    0  502 -0.31310651531E+03  0.26754906718E+03 -0.46976006822E+02  0.41451771798E+03  0.50400001928E-02 0.  1.
</event>
<event>
 5   0  0.2405022E-03  0.1002033E+04  0.7818609E-02  0.9306318E-01
        1   -1    0    0  501    0  0.00000000000E+00  0.00000000000E+00  0.83673775256E+03  0.83673775257E+03  0.50400001928E-02 0.  1.
       -1   -1    0    0    0  501  0.00000000000E+00  0.00000000000E+00 -0.29999558269E+03  0.29999558273E+03  0.50400001928E-02 0. -1.
    10030    2    1    2    0    0  0.00000000000E+00  0.00000000000E+00  0.53674216987E+03  0.11367333353E+04  0.10020331924E+04 0.  0.
        4    1    3    3  502    0 -0.14574634198E+03  0.43629396079E+03  0.43132072918E+02  0.46201342517E+03  0.12699999809E+01 0. -1.
       -4    1    3    3    0  502  0.14574634198E+03 -0.43629396079E+03  0.49361009696E+03  0.67471991014E+03  0.12699999809E+01 0.  1.
</event>
<event>
 5   0  0.3826483E-03  0.1000602E+04  0.7818609E-02  0.9307885E-01
       -2   -1    0    0    0  501  0.00000000000E+00  0.00000000000E+00  0.11868275483E+03  0.11868275486E+03  0.25500000920E-02 0.  1.
        2   -1    0    0  501    0  0.00000000000E+00  0.00000000000E+00 -0.21089910087E+04  0.21089910087E+04  0.25500000920E-02 0. -1.
    10030    2    1    2    0    0  0.00000000000E+00  0.00000000000E+00 -0.19903082539E+04  0.22276737636E+04  0.10006015448E+04 0.  0.
        4    1    3    3  502    0  0.29626832139E+03  0.24618080530E+03 -0.17059071708E+04  0.17488569968E+04  0.12699999809E+01 0. -1.
       -4    1    3    3    0  502 -0.29626832139E+03 -0.24618080530E+03 -0.28440108315E+03  0.47881676679E+03  0.12699999809E+01 0.  1.
</event>
<event>
 5   0  0.3826483E-03  0.1020196E+04  0.7818609E-02  0.9286668E-01
       -2   -1    0    0    0  501  0.00000000000E+00  0.00000000000E+00  0.29728858258E+03  0.29728858259E+03  0.25500000920E-02 0. -1.
        2   -1    0    0  501    0  0.00000000000E+00  0.00000000000E+00 -0.87524351066E+03  0.87524351066E+03  0.25500000920E-02 0.  1.
    10030    2    1    2    0    0  0.00000000000E+00  0.00000000000E+00 -0.57795492808E+03  0.11725320933E+04  0.10201958688E+04 0.  0.
        4    1    3    3  502    0 -0.27973951429E+03  0.16762901706E+03  0.16182088388E+03  0.36406221251E+03  0.12699999809E+01 0. -1.
       -4    1    3    3    0  502  0.27973951429E+03 -0.16762901706E+03 -0.73977581196E+03  0.80846988075E+03  0.12699999809E+01 0.  1.
</event>
<event>
 5   0  0.2350769E-03  0.9274997E+03  0.7818609E-02  0.9391844E-01
       -1   -1    0    0    0  501  0.00000000000E+00  0.00000000000E+00  0.20129223185E+03  0.20129223192E+03  0.50400001928E-02 0.  1.
        1   -1    0    0  501    0  0.00000000000E+00  0.00000000000E+00 -0.10684163612E+04  0.10684163612E+04  0.50400001928E-02 0. -1.
    10030    2    1    2    0    0  0.00000000000E+00  0.00000000000E+00 -0.86712412932E+03  0.12697085931E+04  0.92749967964E+03 0.  0.
        2    1    3    3  502    0 -0.10458466463E+03 -0.40312491627E+03 -0.71283048860E+03  0.82557552997E+03  0.25500000920E-02 0. -1.
       -2    1    3    3    0  502  0.10458466463E+03  0.40312491627E+03 -0.15429364071E+03  0.44413306313E+03  0.25500000920E-02 0.  1.
</event>
<event>
 5   0  0.1548000E-03  0.1002251E+04  0.7818609E-02  0.9306079E-01
        4   -1    0    0  501    0  0.00000000000E+00  0.00000000000E+00  0.62013383223E+03  0.62013513268E+03  0.12699999809E+01 0.  1.
       -4   -1    0    0    0  501  0.00000000000E+00  0.00000000000E+00 -0.40495339004E+03  0.40495538149E+03  0.12699999809E+01 0. -1.
    10030    2    1    2    0    0  0.00000000000E+00  0.00000000000E+00  0.21518044220E+03  0.10250905142E+04  0.10022514353E+04 0.  0.
        3    1    3    3  502    0  0.46228524048E+02 -0.11458359935E+03 -0.38913147817E+03  0.40827661601E+03  0.10100000352E+00 0. -1.
       -3    1    3    3    0  502 -0.46228524048E+02  0.11458359935E+03  0.60431192036E+03  0.61681389817E+03  0.10100000352E+00 0.  1.
</event>
<event>
 5   0  0.3895011E-03  0.1001504E+04  0.7818609E-02  0.9306897E-01
       -2   -1    0    0    0  501  0.00000000000E+00  0.00000000000E+00  0.18366845311E+03  0.18366845312E+03  0.25500000920E-02 0. -1.
        2   -1    0    0  501    0  0.00000000000E+00  0.00000000000E+00 -0.13652446985E+04  0.13652446985E+04  0.25500000920E-02 0.  1.
    10030    2    1    2    0    0  0.00000000000E+00  0.00000000000E+00 -0.11815762454E+04  0.15489131517E+04  0.10015036334E+04 0.  0.
        2    1    3    3  502    0 -0.11239140253E+03  0.45546815546E+03 -0.86163670609E+03  0.98107129266E+03  0.25500000920E-02 0.  1.
       -2    1    3    3    0  502  0.11239140253E+03 -0.45546815546E+03 -0.31993953935E+03  0.56784185901E+03  0.25500000920E-02 0. -1.
</event>
<event>
 5   0  0.4140860E-03  0.9965898E+03  0.7818609E-02  0.9312293E-01
       -2   -1    0    0    0  501  0.00000000000E+00  0.00000000000E+00  0.30275250804E+03  0.30275250805E+03  0.25500000920E-02 0. -1.
        2   -1    0    0  501    0  0.00000000000E+00  0.00000000000E+00 -0.82013457507E+03  0.82013457507E+03  0.25500000920E-02 0.  1.
    10030    2    1    2    0    0  0.00000000000E+00  0.00000000000E+00 -0.51738206703E+03  0.11228870831E+04  0.99658978429E+03 0.  0.
        3    1    3    3  502    0  0.71632166418E+02  0.40242387496E+03 -0.57980230537E+03  0.70939894694E+03  0.10100000352E+00 0.  1.
       -3    1    3    3    0  502 -0.71632166418E+02 -0.40242387496E+03  0.62420238338E+02  0.41348813618E+03  0.10100000352E+00 0. -1.
</event>
<event>
 5   0  0.1548000E-03  0.9815821E+03  0.7818609E-02  0.9328979E-01
       -3   -1    0    0    0  501  0.00000000000E+00  0.00000000000E+00  0.56729794348E+03  0.56729795247E+03  0.10100000352E+00 0.  1.
        3   -1    0    0  501    0  0.00000000000E+00  0.00000000000E+00 -0.42460196311E+03  0.42460197512E+03  0.10100000352E+00 0. -1.
    10030    2    1    2    0    0  0.00000000000E+00  0.00000000000E+00  0.14269598037E+03  0.99189992760E+03  0.98158205136E+03 0.  0.
        5    1    3    3  502    0 -0.10359285410E+03 -0.37404324227E+03 -0.23216551037E+03  0.45228612704E+03  0.46999998093E+01 0. -1.
       -5    1    3    3    0  502  0.10359285410E+03  0.37404324227E+03  0.37486149074E+03  0.53961380056E+03  0.46999998093E+01 0.  1.
</event>
<event>
 5   0  0.3895011E-03  0.9997406E+03  0.7818609E-02  0.9308829E-01
        2   -1    0    0  501    0  0.00000000000E+00  0.00000000000E+00  0.18483938319E+04  0.18483938319E+04  0.25500000920E-02 0. -1.
       -2   -1    0    0    0  501  0.00000000000E+00  0.00000000000E+00 -0.13518241029E+03  0.13518241031E+03  0.25500000920E-02 0.  1.
    10030    2    1    2    0    0  0.00000000000E+00  0.00000000000E+00  0.17132114216E+04  0.19835762422E+04  0.99974063312E+03 0.  0.
        2    1    3    3  502    0  0.28244023083E+03  0.38242798788E+03  0.55021503271E+03  0.72715901434E+03  0.25500000920E-02 0.  1.
       -2    1    3    3    0  502 -0.28244023083E+03 -0.38242798788E+03  0.11629963889E+04  0.12564172278E+04  0.25500000920E-02 0. -1.
</event>
<event>
 5   0  0.4026829E-03  0.9967497E+03  0.7818609E-02  0.9312117E-01
        2   -1    0    0  501    0  0.00000000000E+00  0.00000000000E+00  0.62633371415E+03  0.62633371416E+03  0.25500000920E-02 0. -1.
       -2   -1    0    0    0  501  0.00000000000E+00  0.00000000000E+00 -0.39655773574E+03  0.39655773575E+03  0.25500000920E-02 0.  1.
    10030    2    1    2    0    0  0.00000000000E+00  0.00000000000E+00  0.22977597841E+03  0.10228914499E+04  0.99674967671E+03 0.  0.
        1    1    3    3  502    0  0.30767576344E+03 -0.13387485036E+03  0.49305038806E+03  0.59639377609E+03  0.50400001928E-02 0. -1.
       -1    1    3    3    0  502 -0.30767576344E+03  0.13387485036E+03 -0.26327440965E+03  0.42649767381E+03  0.50400001928E-02 0.  1.
</event>
<event>
 5   0  0.2313036E-03  0.9982357E+03  0.7818609E-02  0.9310482E-01
       -1   -1    0    0    0  501  0.00000000000E+00  0.00000000000E+00  0.66253663768E+03  0.66253663770E+03  0.50400001928E-02 0. -1.
        1   -1    0    0  501    0  0.00000000000E+00  0.00000000000E+00 -0.37600732974E+03  0.37600732978E+03  0.50400001928E-02 0.  1.
    10030    2    1    2    0    0  0.00000000000E+00  0.00000000000E+00  0.28652930794E+03  0.10385439675E+04  0.99823570767E+03 0.  0.
        3    1    3    3  502    0  0.18506895881E+03  0.82852780183E+02 -0.33122541584E+03  0.38836244540E+03  0.10100000352E+00 0.  1.
       -3    1    3    3    0  502 -0.18506895881E+03 -0.82852780183E+02  0.61775472378E+03  0.65018152208E+03  0.10100000352E+00 0. -1.
</event>
<event>
 5   0  0.3873874E-03  0.1004784E+04  0.7818609E-02  0.9303313E-01
       -2   -1    0    0    0  501  0.00000000000E+00  0.00000000000E+00  0.20605349227E+03  0.20605349229E+03  0.25500000920E-02 0.  1.
        2   -1    0    0  501    0  0.00000000000E+00  0.00000000000E+00 -0.12249141089E+04  0.12249141089E+04  0.25500000920E-02 0. -1.
    10030    2    1    2    0    0  0.00000000000E+00  0.00000000000E+00 -0.10188606167E+04  0.14309676012E+04  0.10047842154E+04 0.  0.
        5    1    3    3  502    0 -0.53048151460E+00 -0.13386298692E+03  0.18015471401E+03  0.22449363389E+03  0.46999998093E+01 0.  1.
       -5    1    3    3    0  502  0.53048151460E+00  0.13386298692E+03 -0.11990153307E+04  0.12064739673E+04  0.46999998093E+01 0. -1.
</event>
<event>
 5   0  0.3826483E-03  0.1016807E+04  0.7818609E-02  0.9290300E-01
       -2   -1    0    0    0  501  0.00000000000E+00  0.00000000000E+00  0.18397023052E+04  0.18397023052E+04  0.25500000920E-02 0. -1.
        2   -1    0    0  501    0  0.00000000000E+00  0.00000000000E+00 -0.14049789383E+03  0.14049789385E+03  0.25500000920E-02 0.  1.
    10030    2    1    2    0    0  0.00000000000E+00  0.00000000000E+00  0.16992044114E+04  0.19802001991E+04  0.10168073548E+04 0.  0.
        4    1    3    3  502    0  0.16359221381E+03 -0.18703592324E+03 -0.14178163397E+02  0.24889251137E+03  0.12699999809E+01 0.  1.
       -4    1    3    3    0  502 -0.16359221381E+03  0.18703592324E+03  0.17133825748E+04  0.17313076877E+04  0.12699999809E+01 0. -1.
</event>
<event>
 5   0  0.3895011E-03  0.1001852E+04  0.7818609E-02  0.9306516E-01
        2   -1    0    0  501    0  0.00000000000E+00  0.00000000000E+00  0.52567378733E+03  0.52567378733E+03  0.25500000920E-02 0. -1.
       -2   -1    0    0    0  501  0.00000000000E+00  0.00000000000E+00 -0.47734321350E+03  0.47734321351E+03  0.25500000920E-02 0.  1.
    10030    2    1    2    0    0  0.00000000000E+00  0.00000000000E+00  0.48330573825E+02  0.10030170008E+04  0.10018519150E+04 0.  0.
        2    1    3    3  502    0  0.25245012275E+03  0.28637142715E+03  0.34886815023E+03  0.51715437252E+03  0.25500000920E-02 0. -1.
       -2    1    3    3    0  502 -0.25245012275E+03 -0.28637142715E+03 -0.30053757640E+03  0.48586262832E+03  0.25500000920E-02 0.  1.
</event>
<event>
 5   0  0.2313036E-03  0.9965155E+03  0.7818609E-02  0.9312375E-01
        1   -1    0    0  501    0  0.00000000000E+00  0.00000000000E+00  0.11708666966E+04  0.11708666966E+04  0.50400001928E-02 0.  1.
       -1   -1    0    0    0  501  0.00000000000E+00  0.00000000000E+00 -0.21203161993E+03  0.21203161999E+03  0.50400001928E-02 0. -1.
    10030    2    1    2    0    0  0.00000000000E+00  0.00000000000E+00  0.95883507668E+03  0.13828983166E+04  0.99651545386E+03 0.  0.
        3    1    3    3  502    0 -0.23722050477E+03 -0.36102772292E+03  0.13486198708E+03  0.45255093676E+03  0.10100000352E+00 0.  1.
       -3    1    3    3    0  502  0.23722050477E+03  0.36102772292E+03  0.82397308959E+03  0.93034737984E+03  0.10100000352E+00 0. -1.
</event>
<event>
 5   0  0.2327595E-03  0.9295506E+03  0.7818609E-02  0.9389377E-01
       -1   -1    0    0    0  501  0.00000000000E+00  0.00000000000E+00  0.13667573408E+03  0.13667573418E+03  0.50400001928E-02 0.  1.
        1   -1    0    0  501    0  0.00000000000E+00  0.00000000000E+00 -0.15805007123E+04  0.15805007123E+04  0.50400001928E-02 0. -1.
    10030    2    1    2    0    0  0.00000000000E+00  0.00000000000E+00 -0.14438249782E+04  0.17171764465E+04  0.92955063371E+03 0.  0.
        5    1    3    3  502    0 -0.36110518109E+02 -0.41593592681E+03 -0.34473656241E+03  0.54145364731E+03  0.46999998093E+01 0.  1.
       -5    1    3    3    0  502  0.36110518109E+02  0.41593592681E+03 -0.10990884158E+04  0.11757227992E+04  0.46999998093E+01 0. -1.
</event>
<event>
 5   0  0.4026829E-03  0.1004856E+04  0.7818609E-02  0.9303234E-01
        2   -1    0    0  501    0  0.00000000000E+00  0.00000000000E+00  0.17095677592E+04  0.17095677592E+04  0.25500000920E-02 0. -1.
       -2   -1    0    0    0  501  0.00000000000E+00  0.00000000000E+00 -0.14765960918E+03  0.14765960920E+03  0.25500000920E-02 0.  1.
    10030    2    1    2    0    0  0.00000000000E+00  0.00000000000E+00  0.15619081500E+04  0.18572273684E+04  0.10048564220E+04 0.  0.
        1    1    3    3  502    0  0.40625992433E+03 -0.11342647170E+03  0.27640709226E+03  0.50429512319E+03  0.50400001928E-02 0. -1.
       -1    1    3    3    0  502 -0.40625992433E+03  0.11342647170E+03  0.12855010577E+04  0.13529322452E+04  0.50400001928E-02 0.  1.
</event>
<event>
 5   0  0.3873874E-03  0.9999723E+03  0.7818609E-02  0.9308575E-01
        2   -1    0    0  501    0  0.00000000000E+00  0.00000000000E+00  0.14613844850E+04  0.14613844850E+04  0.25500000920E-02 0. -1.
       -2   -1    0    0    0  501  0.00000000000E+00  0.00000000000E+00 -0.17106116714E+03  0.17106116716E+03  0.25500000920E-02 0.  1.
    10030    2    1    2    0    0  0.00000000000E+00  0.00000000000E+00  0.12903233178E+04  0.16324456521E+04  0.99997227094E+03 0.  0.
        5    1    3    3  502    0  0.16504626298E+03 -0.43795669434E+03  0.93220960140E+03  0.10431122499E+04  0.46999998093E+01 0.  1.
       -5    1    3    3    0  502 -0.16504626298E+03  0.43795669434E+03  0.35811371642E+03  0.58933340218E+03  0.46999998093E+01 0. -1.
</event>
<event>
 5   0  0.3873874E-03  0.1001849E+04  0.7818609E-02  0.9306520E-01
       -2   -1    0    0    0  501  0.00000000000E+00  0.00000000000E+00  0.15190392092E+03  0.15190392094E+03  0.25500000920E-02 0.  1.
        2   -1    0    0  501    0  0.00000000000E+00  0.00000000000E+00 -0.16518678093E+04  0.16518678093E+04  0.25500000920E-02 0. -1.
    10030    2    1    2    0    0  0.00000000000E+00  0.00000000000E+00 -0.14999638884E+04  0.18037717302E+04  0.10018486854E+04 0.  0.
        5    1    3    3  502    0  0.33326677382E+03  0.55902217169E+02 -0.14156867016E+04  0.14554664982E+04  0.46999998093E+01 0. -1.
       -5    1    3    3    0  502 -0.33326677382E+03 -0.55902217169E+02 -0.84277186766E+02  0.34830523198E+03  0.46999998093E+01 0.  1.
</event>
<event>
 5   0  0.2405022E-03  0.9979006E+03  0.7818609E-02  0.9310850E-01
        1   -1    0    0  501    0  0.00000000000E+00  0.00000000000E+00  0.86710644962E+03  0.86710644964E+03  0.50400001928E-02 0. -1.
       -1   -1    0    0    0  501  0.00000000000E+00  0.00000000000E+00 -0.28710594441E+03  0.28710594446E+03  0.50400001928E-02 0.  1.
    10030    2    1    2    0    0  0.00000000000E+00  0.00000000000E+00  0.58000050521E+03  0.11542123941E+04  0.99790062864E+03 0.  0.
        4    1    3    3  502    0 -0.22741802513E+03 -0.32756491109E+03  0.63686146854E+03  0.75140659575E+03  0.12699999809E+01 0. -1.
       -4    1    3    3    0  502  0.22741802513E+03  0.32756491109E+03 -0.56860963330E+02  0.40280579834E+03  0.12699999809E+01 0.  1.
</event>
<event>
 5   0  0.2405022E-03  0.9969563E+03  0.7818609E-02  0.9311889E-01
        1   -1    0    0  501    0  0.00000000000E+00  0.00000000000E+00  0.84067225041E+03  0.84067225042E+03  0.50400001928E-02 0.  1.
       -1   -1    0    0    0  501  0.00000000000E+00  0.00000000000E+00 -0.29557356102E+03  0.29557356106E+03  0.50400001928E-02 0. -1.
    10030    2    1    2    0    0  0.00000000000E+00  0.00000000000E+00  0.54509868939E+03  0.11362458115E+04  0.99695634956E+03 0.  0.
        4    1    3    3  502    0 -0.22570468963E+03 -0.55114682761E+02 -0.23008763726E+03  0.32698955472E+03  0.12699999809E+01 0. -1.
       -4    1    3    3    0  502  0.22570468963E+03  0.55114682761E+02  0.77518632665E+03  0.80925625676E+03  0.12699999809E+01 0.  1.
</event>
<event>
 5   0  0.2350769E-03  0.9760828E+03  0.7818609E-02  0.9335173E-01
       -1   -1    0    0    0  501  0.00000000000E+00  0.00000000000E+00  0.53473596774E+03  0.53473596776E+03  0.50400001928E-02 0. -1.
        1   -1    0    0  501    0  0.00000000000E+00  0.00000000000E+00 -0.44542430216E+03  0.44542430219E+03  0.50400001928E-02 0.  1.
    10030    2    1    2    0    0  0.00000000000E+00  0.00000000000E+00  0.89311665574E+02  0.98016026995E+03  0.97608277373E+03 0.  0.
        2    1    3    3  502    0  0.24471004154E+03  0.37348334922E+03 -0.15317368883E+03  0.47205401760E+03  0.25500000920E-02 0. -1.
       -2    1    3    3    0  502 -0.24471004154E+03 -0.37348334922E+03  0.24248535441E+03  0.50810625235E+03  0.25500000920E-02 0.  1.
</event>
<event>
 5   0  0.4026829E-03  0.1000423E+04  0.7818609E-02  0.9308081E-01
        2   -1    0    0  501    0  0.00000000000E+00  0.00000000000E+00  0.20998848306E+03  0.20998848308E+03  0.25500000920E-02 0. -1.
       -2   -1    0    0    0  501  0.00000000000E+00  0.00000000000E+00 -0.11915481693E+04  0.11915481693E+04  0.25500000920E-02 0.  1.
    10030    2    1    2    0    0  0.00000000000E+00  0.00000000000E+00 -0.98155968625E+03  0.14015366524E+04  0.10004226958E+04 0.  0.
        1    1    3    3  502    0 -0.20820798569E+03 -0.12840729242E+03  0.12047584044E+03  0.27267824667E+03  0.50400001928E-02 0. -1.
       -1    1    3    3    0  502  0.20820798569E+03  0.12840729242E+03 -0.11020355267E+04  0.11288584057E+04  0.50400001928E-02 0.  1.
</event>
<event>
 5   0  0.3873874E-03  0.1002643E+04  0.7818609E-02  0.9305651E-01
       -2   -1    0    0    0  501  0.00000000000E+00  0.00000000000E+00  0.20891714536E+03  0.20891714538E+03  0.25500000920E-02 0.  1.
        2   -1    0    0  501    0  0.00000000000E+00  0.00000000000E+00 -0.12029800842E+04  0.12029800843E+04  0.25500000920E-02 0. -1.
    10030    2    1    2    0    0  0.00000000000E+00  0.00000000000E+00 -0.99406293889E+03  0.14118972296E+04  0.10026428380E+04 0.  0.
        5    1    3    3  502    0 -0.37400525331E+03  0.12006520365E+03 -0.93561769979E+03  0.10147404362E+04  0.46999998093E+01 0. -1.
       -5    1    3    3    0  502  0.37400525331E+03 -0.12006520365E+03 -0.58445239099E+02  0.39715679347E+03  0.46999998093E+01 0.  1.
</event>
<event>
 5   0  0.4140860E-03  0.1008611E+04  0.7818609E-02  0.9299150E-01
        2   -1    0    0  501    0  0.00000000000E+00  0.00000000000E+00  0.11147368679E+04  0.11147368679E+04  0.25500000920E-02 0. -1.
       -2   -1    0    0    0  501  0.00000000000E+00  0.00000000000E+00 -0.22814728859E+03  0.22814728860E+03  0.25500000920E-02 0.  1.
    10030    2    1    2    0    0  0.00000000000E+00  0.00000000000E+00  0.88658957929E+03  0.13428841565E+04  0.10086113105E+04 0.  0.
        3    1    3    3  502    0 -0.30363296137E+03  0.25312068362E+03  0.86022480177E+03  0.94670469286E+03  0.10100000352E+00 0. -1.
       -3    1    3    3    0  502  0.30363296137E+03 -0.25312068362E+03  0.26364777519E+02  0.39617946362E+03  0.10100000352E+00 0.  1.
</event>
<event>
 5   0  0.2405022E-03  0.1005238E+04  0.7818609E-02  0.9302819E-01
        1   -1    0    0  501    0  0.00000000000E+00  0.00000000000E+00  0.60843558226E+03  0.60843558228E+03  0.50400001928E-02 0. -1.
       -1   -1    0    0    0  501  0.00000000000E+00  0.00000000000E+00 -0.41520543538E+03  0.41520543542E+03  0.50400001928E-02 0.  1.
    10030    2    1    2    0    0  0.00000000000E+00  0.00000000000E+00  0.19323014688E+03  0.10236410177E+04  0.10052378044E+04 0.  0.
        4    1    3    3  502    0 -0.80423173675E+02 -0.14344183335E+03 -0.38703341908E+03  0.42052339626E+03  0.12699999809E+01 0.  1.
       -4    1    3    3    0  502  0.80423173675E+02  0.14344183335E+03  0.58026356595E+03  0.60311762144E+03  0.12699999809E+01 0. -1.
</event>
<event>
 5   0  0.4026829E-03  0.9545700E+03  0.7818609E-02  0.9359825E-01
       -2   -1    0    0    0  501  0.00000000000E+00  0.00000000000E+00  0.17435374758E+04  0.17435374758E+04  0.25500000920E-02 0.  1.
        2   -1    0    0  501    0  0.00000000000E+00  0.00000000000E+00 -0.13065447232E+03  0.13065447235E+03  0.25500000920E-02 0. -1.
    10030    2    1    2    0    0  0.00000000000E+00  0.00000000000E+00  0.16128830034E+04  0.18741919481E+04  0.95456999511E+03 0.  0.
        1    1    3    3  502    0  0.18158701229E+03 -0.31556933553E+03  0.14123723960E+04  0.14585450399E+04  0.50400001928E-02 0.  1.
       -1    1    3    3    0  502 -0.18158701229E+03  0.31556933553E+03  0.20051060749E+03  0.41564690820E+03  0.50400001928E-02 0. -1.
</event>
<event>
 5   0  0.2405022E-03  0.1003317E+04  0.7818609E-02  0.9304914E-01
       -1   -1    0    0    0  501  0.00000000000E+00  0.00000000000E+00  0.82173537068E+03  0.82173537069E+03  0.50400001928E-02 0.  1.
        1   -1    0    0  501    0  0.00000000000E+00  0.00000000000E+00 -0.30625604655E+03  0.30625604659E+03  0.50400001928E-02 0. -1.
    10030    2    1    2    0    0  0.00000000000E+00  0.00000000000E+00  0.51547932413E+03  0.11279914173E+04  0.10033173495E+04 0.  0.
        4    1    3    3  502    0  0.45357104607E+03 -0.14017088164E+03  0.75466187410E+02  0.48069879159E+03  0.12699999809E+01 0. -1.
       -4    1    3    3    0  502 -0.45357104607E+03  0.14017088164E+03  0.44001313672E+03  0.64729262569E+03  0.12699999809E+01 0.  1.
</event>
<event>
 5   0  0.4140860E-03  0.1004588E+04  0.7818609E-02  0.9303527E-01
       -2   -1    0    0    0  501  0.00000000000E+00  0.00000000000E+00  0.49962006398E+03  0.49962006398E+03  0.25500000920E-02 0.  1.
        2   -1    0    0  501    0  0.00000000000E+00  0.00000000000E+00 -0.50498263366E+03  0.50498263367E+03  0.25500000920E-02 0. -1.
    10030    2    1    2    0    0  0.00000000000E+00  0.00000000000E+00 -0.53625696827E+01  0.10046026977E+04  0.10045883848E+04 0.  0.
        3    1    3    3  502    0 -0.47776951129E+03  0.13811790937E+03 -0.73103753202E+02  0.50267726400E+03  0.10100000352E+00 0.  1.
       -3    1    3    3    0  502  0.47776951129E+03 -0.13811790937E+03  0.67741183520E+02  0.50192543366E+03  0.10100000352E+00 0. -1.
</event>
<event>
 5   0  0.3826483E-03  0.1008822E+04  0.7818609E-02  0.9298922E-01
       -2   -1    0    0    0  501  0.00000000000E+00  0.00000000000E+00  0.18498547263E+03  0.18498547265E+03  0.25500000920E-02 0. -1.
        2   -1    0    0  501    0  0.00000000000E+00  0.00000000000E+00 -0.13754068269E+04  0.13754068269E+04  0.25500000920E-02 0.  1.
    10030    2    1    2    0    0  0.00000000000E+00  0.00000000000E+00 -0.11904213543E+04  0.15603922996E+04  0.10088216531E+04 0.  0.
        4    1    3    3  502    0  0.17694162719E+02 -0.68139121733E+02 -0.13677682778E+04  0.13695793873E+04  0.12699999809E+01 0.  1.
       -4    1    3    3    0  502 -0.17694162719E+02  0.68139121733E+02  0.17734692355E+03  0.19081291229E+03  0.12699999809E+01 0. -1.
</event>
<event>
 5   0  0.2378609E-03  0.9985557E+03  0.7818609E-02  0.9310130E-01
        1   -1    0    0  501    0  0.00000000000E+00  0.00000000000E+00  0.63456968032E+03  0.63456968034E+03  0.50400001928E-02 0. -1.
       -1   -1    0    0    0  501  0.00000000000E+00  0.00000000000E+00 -0.39283060405E+03  0.39283060408E+03  0.50400001928E-02 0.  1.
    10030    2    1    2    0    0  0.00000000000E+00  0.00000000000E+00  0.24173907627E+03  0.10274002844E+04  0.99855573877E+03 0.  0.
        1    1    3    3  502    0  0.97882041512E+02  0.25445443375E+03  0.55122258952E+03  0.61495877596E+03  0.50400001928E-02 0. -1.
       -1    1    3    3    0  502 -0.97882041512E+02 -0.25445443375E+03 -0.30948351324E+03  0.41244150846E+03  0.50400001928E-02 0.  1.
</event>
<event>
 5   0  0.4026829E-03  0.9999038E+03  0.7818609E-02  0.9308650E-01
        2   -1    0    0  501    0  0.00000000000E+00  0.00000000000E+00  0.16447806675E+04  0.16447806675E+04  0.25500000920E-02 0.  1.
       -2   -1    0    0    0  501  0.00000000000E+00  0.00000000000E+00 -0.15196670782E+03  0.15196670784E+03  0.25500000920E-02 0. -1.
    10030    2    1    2    0    0  0.00000000000E+00  0.00000000000E+00  0.14928139597E+04  0.17967473753E+04  0.99990380165E+03 0.  0.
        1    1    3    3  502    0 -0.81432139779E+02  0.39649372898E+03  0.12737148461E+04  0.13364834379E+04  0.50400001928E-02 0.  1.
       -1    1    3    3    0  502  0.81432139779E+02 -0.39649372898E+03  0.21909911353E+03  0.46026393741E+03  0.50400001928E-02 0. -1.
</event>
<event>
 5   0  0.2327595E-03  0.9982872E+03  0.7818609E-02  0.9310425E-01
       -1   -1    0    0    0  501  0.00000000000E+00  0.00000000000E+00  0.28702797667E+03  0.28702797671E+03  0.50400001928E-02 0. -1.
        1   -1    0    0  501    0  0.00000000000E+00  0.00000000000E+00 -0.86801418306E+03  0.86801418308E+03  0.50400001928E-02 0.  1.
    10030    2    1    2    0    0  0.00000000000E+00  0.00000000000E+00 -0.58098620640E+03  0.11550421598E+04  0.99828724266E+03 0.  0.
        5    1    3    3  502    0  0.12467906373E+03  0.15649241907E+03  0.23856865344E+03  0.31140301629E+03  0.46999998093E+01 0. -1.
       -5    1    3    3    0  502 -0.12467906373E+03 -0.15649241907E+03 -0.81955485983E+03  0.84363914349E+03  0.46999998093E+01 0.  1.
</event>
<event>
 5   0  0.2327595E-03  0.9926974E+03  0.7818609E-02  0.9316591E-01
       -1   -1    0    0    0  501  0.00000000000E+00  0.00000000000E+00  0.50917548433E+03  0.50917548436E+03  0.50400001928E-02 0. -1.
        1   -1    0    0  501    0  0.00000000000E+00  0.00000000000E+00 -0.48384507448E+03  0.48384507451E+03  0.50400001928E-02 0.  1.
    10030    2    1    2    0    0  0.00000000000E+00  0.00000000000E+00  0.25330409846E+02  0.99302055887E+03  0.99269743662E+03 0.  0.
        5    1    3    3  502    0  0.15651112922E+03 -0.47004989664E+03  0.42630276605E+02  0.49727464180E+03  0.46999998093E+01 0. -1.
       -5    1    3    3    0  502 -0.15651112922E+03  0.47004989664E+03 -0.17299866759E+02  0.49574591706E+03  0.46999998093E+01 0.  1.
</event>
<event>
 5   0  0.2405022E-03  0.1001910E+04  0.7818609E-02  0.9306452E-01
        1   -1    0    0  501    0  0.00000000000E+00  0.00000000000E+00  0.87578981649E+03  0.87578981651E+03  0.50400001928E-02 0. -1.
       -1   -1    0    0    0  501  0.00000000000E+00  0.00000000000E+00 -0.28654831815E+03  0.28654831820E+03  0.50400001928E-02 0.  1.
    10030    2    1    2    0    0  0.00000000000E+00  0.00000000000E+00  0.58924149834E+03  0.11623381347E+04  0.10019103733E+04 0.  0.
        4    1    3    3  502    0  0.26824349662E+03 -0.51233881378E+02  0.78183740825E+03  0.82816111351E+03  0.12699999809E+01 0. -1.
       -4    1    3    3    0  502 -0.26824349662E+03  0.51233881378E+02 -0.19259590991E+03  0.33417702120E+03  0.12699999809E+01 0.  1.
</event>
<event>
 5   0  0.2313036E-03  0.9997801E+03  0.7818609E-02  0.9308786E-01
        1   -1    0    0  501    0  0.00000000000E+00  0.00000000000E+00  0.36395212352E+03  0.36395212355E+03  0.50400001928E-02 0. -1.
       -1   -1    0    0    0  501  0.00000000000E+00  0.00000000000E+00 -0.68660145672E+03  0.68660145673E+03  0.50400001928E-02 0.  1.
    10030    2    1    2    0    0  0.00000000000E+00  0.00000000000E+00 -0.32264933320E+03  0.10505535803E+04  0.99978009224E+03 0.  0.
        3    1    3    3  502    0 -0.18882756880E+03 -0.39918127195E+03  0.84856282015E+02  0.44966891977E+03  0.10100000352E+00 0.  1.
       -3    1    3    3    0  502  0.18882756880E+03  0.39918127195E+03 -0.40750561521E+03  0.60088466051E+03  0.10100000352E+00 0. -1.
</event>
<event>
 5   0  0.2313036E-03  0.9951945E+03  0.7818609E-02  0.9313831E-01
       -1   -1    0    0    0  501  0.00000000000E+00  0.00000000000E+00  0.73410028307E+03  0.73410028309E+03  0.50400001928E-02 0.  1.
        1   -1    0    0  501    0  0.00000000000E+00  0.00000000000E+00 -0.33728774279E+03  0.33728774283E+03  0.50400001928E-02 0. -1.
    10030    2    1    2    0    0  0.00000000000E+00  0.00000000000E+00  0.39681254028E+03  0.10713880259E+04  0.99519450861E+03 0.  0.
        3    1    3    3  502    0 -0.47559129629E+03  0.57414068708E+02  0.53491500183E+02  0.48202158374E+03  0.10100000352E+00 0. -1.
       -3    1    3    3    0  502  0.47559129629E+03 -0.57414068708E+02  0.34332104009E+03  0.58936644218E+03  0.10100000352E+00 0.  1.
</event>
<event>
 5   0  0.2405022E-03  0.1008961E+04  0.7818609E-02  0.9298771E-01
        1   -1    0    0  501    0  0.00000000000E+00  0.00000000000E+00  0.19958312237E+04  0.19958312237E+04  0.50400001928E-02 0.  1.
       -1   -1    0    0    0  501  0.00000000000E+00  0.00000000000E+00 -0.12751613601E+03  0.12751613611E+03  0.50400001928E-02 0. -1.
    10030    2    1    2    0    0  0.00000000000E+00  0.00000000000E+00  0.18683150877E+04  0.21233473598E+04  0.10089612200E+04 0.  0.
        4    1    3    3  502    0 -0.52978724587E+02  0.18076820615E+03 -0.50723285704E+02  0.19508550491E+03  0.12699999809E+01 0. -1.
       -4    1    3    3    0  502  0.52978724587E+02 -0.18076820615E+03  0.19190383734E+04  0.19282618549E+04  0.12699999809E+01 0.  1.
</event>
<event>
 5   0  0.2313036E-03  0.1002227E+04  0.7818609E-02  0.9306106E-01
       -1   -1    0    0    0  501  0.00000000000E+00  0.00000000000E+00  0.29175737831E+03  0.29175737836E+03  0.50400001928E-02 0. -1.
        1   -1    0    0  501    0  0.00000000000E+00  0.00000000000E+00 -0.86069716238E+03  0.86069716240E+03  0.50400001928E-02 0.  1.
    10030    2    1    2    0    0  0.00000000000E+00  0.00000000000E+00 -0.56893978407E+03  0.11524545408E+04  0.10022270155E+04 0.  0.
        3    1    3    3  502    0 -0.36088133633E+03 -0.34625425815E+03 -0.24833710529E+03  0.55838936080E+03  0.10100000352E+00 0. -1.
       -3    1    3    3    0  502  0.36088133633E+03  0.34625425815E+03 -0.32060267877E+03  0.59406517995E+03  0.10100000352E+00 0.  1.
</event>
<event>
 5   0  0.2378609E-03  0.9896892E+03  0.7818609E-02  0.9319926E-01
        1   -1    0    0  501    0  0.00000000000E+00  0.00000000000E+00  0.43063649720E+03  0.43063649723E+03  0.50400001928E-02 0. -1.
       -1   -1    0    0    0  501  0.00000000000E+00  0.00000000000E+00 -0.56862621471E+03  0.56862621474E+03  0.50400001928E-02 0.  1.
    10030    2    1    2    0    0  0.00000000000E+00  0.00000000000E+00 -0.13798971752E+03  0.99926271196E+03  0.98968924687E+03 0.  0.
        1    1    3    3  502    0  0.29365380566E+03 -0.26131127173E+03  0.23450401004E+03  0.45772073261E+03  0.50400001928E-02 0. -1.
       -1    1    3    3    0  502 -0.29365380566E+03  0.26131127173E+03 -0.37249372756E+03  0.54154197936E+03  0.50400001928E-02 0.  1.
</event>
<event>
 5   0  0.2327595E-03  0.1001311E+04  0.7818609E-02  0.9307108E-01
       -1   -1    0    0    0  501  0.00000000000E+00  0.00000000000E+00  0.29170182929E+03  0.29170182934E+03  0.50400001928E-02 0. -1.
        1   -1    0    0  501    0  0.00000000000E+00  0.00000000000E+00 -0.85928782134E+03  0.85928782135E+03  0.50400001928E-02 0.  1.
    10030    2    1    2    0    0  0.00000000000E+00  0.00000000000E+00 -0.56758599205E+03  0.11509896507E+04  0.10013107997E+04 0.  0.
        5    1    3    3  502    0  0.22691589549E+03 -0.44175482632E+03 -0.35645258453E+03  0.61132535136E+03  0.46999998093E+01 0.  1.
       -5    1    3    3    0  502 -0.22691589549E+03  0.44175482632E+03 -0.21113340752E+03  0.53966429933E+03  0.46999998093E+01 0. -1.
</event>
<event>
 5   0  0.4140860E-03  0.9858616E+03  0.7818609E-02  0.9324189E-01
       -2   -1    0    0    0  501  0.00000000000E+00  0.00000000000E+00  0.86293086420E+02  0.86293086458E+02  0.25500000920E-02 0.  1.
        2   -1    0    0  501    0  0.00000000000E+00  0.00000000000E+00 -0.28157617378E+04  0.28157617378E+04  0.25500000920E-02 0. -1.
    10030    2    1    2    0    0  0.00000000000E+00  0.00000000000E+00 -0.27294686514E+04  0.29020548243E+04  0.98586159482E+03 0.  0.
        3    1    3    3  502    0 -0.13249129126E+03  0.28905539796E+03 -0.25596613567E+03  0.40819803792E+03  0.10100000352E+00 0.  1.
       -3    1    3    3    0  502  0.13249129126E+03 -0.28905539796E+03 -0.24735025157E+04  0.24938567863E+04  0.10100000352E+00 0. -1.
</event>
<event>
 5   0  0.3895011E-03  0.9968385E+03  0.7818609E-02  0.9312019E-01
       -2   -1    0    0    0  501  0.00000000000E+00  0.00000000000E+00  0.21994280912E+03  0.21994280913E+03  0.25500000920E-02 0. -1.
        2   -1    0    0  501    0  0.00000000000E+00  0.00000000000E+00 -0.11294834517E+04  0.11294834518E+04  0.25500000920E-02 0.  1.
    10030    2    1    2    0    0  0.00000000000E+00  0.00000000000E+00 -0.90954064263E+03  0.13494262609E+04  0.99683852903E+03 0.  0.
        2    1    3    3  502    0  0.43425527305E+03 -0.20232814484E+03 -0.26862987953E+03  0.54925070100E+03  0.25500000920E-02 0. -1.
       -2    1    3    3    0  502 -0.43425527305E+03  0.20232814484E+03 -0.64091076310E+03  0.80017555988E+03  0.25500000920E-02 0.  1.
</event>
<event>
 5   0  0.2327595E-03  0.1000561E+04  0.7818609E-02  0.9307929E-01
       -1   -1    0    0    0  501  0.00000000000E+00  0.00000000000E+00  0.27499535769E+03  0.27499535773E+03  0.50400001928E-02 0.  1.
        1   -1    0    0  501    0  0.00000000000E+00  0.00000000000E+00 -0.91012701931E+03  0.91012701932E+03  0.50400001928E-02 0. -1.
    10030    2    1    2    0    0  0.00000000000E+00  0.00000000000E+00 -0.63513166162E+03  0.11851223771E+04  0.10005612530E+04 0.  0.
        5    1    3    3  502    0 -0.80301566691E+02  0.39647363176E+03  0.31033005006E+02  0.40573984238E+03  0.46999998093E+01 0.  1.
       -5    1    3    3    0  502  0.80301566691E+02 -0.39647363176E+03 -0.66616466662E+03  0.77938253467E+03  0.46999998093E+01 0. -1.
</event>
<event>
 5   0  0.4140860E-03  0.1002065E+04  0.7818609E-02  0.9306283E-01
        2   -1    0    0  501    0  0.00000000000E+00  0.00000000000E+00  0.29607662018E+03  0.29607662019E+03  0.25500000920E-02 0. -1.
       -2   -1    0    0    0  501  0.00000000000E+00  0.00000000000E+00 -0.84786740952E+03  0.84786740952E+03  0.25500000920E-02 0.  1.
    10030    2    1    2    0    0  0.00000000000E+00  0.00000000000E+00 -0.55179078933E+03  0.11439440297E+04  0.10020653012E+04 0.  0.
        3    1    3    3  502    0 -0.85471470570E+02 -0.12747452011E+03  0.26858093922E+03  0.30933938752E+03  0.10100000352E+00 0. -1.
       -3    1    3    3    0  502  0.85471470570E+02  0.12747452011E+03 -0.82037172855E+03  0.83460464219E+03  0.10100000352E+00 0.  1.
</event>
<event>
 5   0  0.4026829E-03  0.9995211E+03  0.7818609E-02  0.9309070E-01
       -2   -1    0    0    0  501  0.00000000000E+00  0.00000000000E+00  0.32366388541E+03  0.32366388542E+03  0.25500000920E-02 0.  1.
        2   -1    0    0  501    0  0.00000000000E+00  0.00000000000E+00 -0.77166657348E+03  0.77166657348E+03  0.25500000920E-02 0. -1.
    10030    2    1    2    0    0  0.00000000000E+00  0.00000000000E+00 -0.44800268807E+03  0.10953304589E+04  0.99952108817E+03 0.  0.
        1    1    3    3  502    0  0.75299466314E+02 -0.54503367374E+01  0.31737876433E+03  0.32623457185E+03  0.50400001928E-02 0.  1.
       -1    1    3    3    0  502 -0.75299466314E+02  0.54503367374E+01 -0.76538145239E+03  0.76909588706E+03  0.50400001928E-02 0. -1.
</event>
<event>
 5   0  0.3826483E-03  0.1018177E+04  0.7818609E-02  0.9288831E-01
        2   -1    0    0  501    0  0.00000000000E+00  0.00000000000E+00  0.84423282296E+03  0.84423282296E+03  0.25500000920E-02 0. -1.
       -2   -1    0    0    0  501  0.00000000000E+00  0.00000000000E+00 -0.30698983474E+03  0.30698983475E+03  0.25500000920E-02 0.  1.
    10030    2    1    2    0    0  0.00000000000E+00  0.00000000000E+00  0.53724298822E+03  0.11512226577E+04  0.10181765953E+04 0.  0.
        4    1    3    3  502    0  0.66407859381E+02  0.37369528923E+02  0.83774646448E+03  0.84120582329E+03  0.12699999809E+01 0. -1.
       -4    1    3    3    0  502 -0.66407859381E+02 -0.37369528923E+02 -0.30050347627E+03  0.31001683443E+03  0.12699999809E+01 0.  1.
</event>
<event>
 5   0  0.3895011E-03  0.9953465E+03  0.7818609E-02  0.9313663E-01
       -2   -1    0    0    0  501  0.00000000000E+00  0.00000000000E+00  0.12483131695E+03  0.12483131698E+03  0.25500000920E-02 0. -1.
        2   -1    0    0  501    0  0.00000000000E+00  0.00000000000E+00 -0.19841067509E+04  0.19841067509E+04  0.25500000920E-02 0.  1.
    10030    2    1    2    0    0  0.00000000000E+00  0.00000000000E+00 -0.18592754339E+04  0.21089380679E+04  0.99534648984E+03 0.  0.
        2    1    3    3  502    0  0.16562548990E+03  0.12484523289E+03 -0.18881696317E+04  0.18995269656E+04  0.25500000920E-02 0.  1.
       -2    1    3    3    0  502 -0.16562548990E+03 -0.12484523289E+03  0.28894197741E+02  0.20941110225E+03  0.25500000920E-02 0. -1.
</event>
<event>
 5   0  0.2327595E-03  0.1000332E+04  0.7818609E-02  0.9308181E-01
        1   -1    0    0  501    0  0.00000000000E+00  0.00000000000E+00  0.50715500955E+03  0.50715500957E+03  0.50400001928E-02 0.  1.
       -1   -1    0    0    0  501  0.00000000000E+00  0.00000000000E+00 -0.49327336471E+03  0.49327336473E+03  0.50400001928E-02 0. -1.
    10030    2    1    2    0    0  0.00000000000E+00  0.00000000000E+00  0.13881644839E+02  0.10004283743E+04  0.10003320609E+04 0.  0.
        5    1    3    3  502    0 -0.93790037865E+02  0.25070741391E+03 -0.41558439841E+03  0.49435135359E+03  0.46999998093E+01 0. -1.
       -5    1    3    3    0  502  0.93790037865E+02 -0.25070741391E+03  0.42946604325E+03  0.50607702072E+03  0.46999998093E+01 0.  1.
</event>
<event>
 5   0  0.3895011E-03  0.9978593E+03  0.7818609E-02  0.9310896E-01
       -2   -1    0    0    0  501  0.00000000000E+00  0.00000000000E+00  0.69729799622E+03  0.69729799623E+03  0.25500000920E-02 0. -1.
        2   -1    0    0  501    0  0.00000000000E+00  0.00000000000E+00 -0.35699338362E+03  0.35699338363E+03  0.25500000920E-02 0.  1.
    10030    2    1    2    0    0  0.00000000000E+00  0.00000000000E+00  0.34030461260E+03  0.10542913799E+04  0.99785925073E+03 0.  0.
        2    1    3    3  502    0  0.35066275833E+03 -0.35170567528E+03  0.11981867365E+03  0.51089897893E+03  0.25500000920E-02 0. -1.
       -2    1    3    3    0  502 -0.35066275833E+03  0.35170567528E+03  0.22048593895E+03  0.54339240093E+03  0.25500000920E-02 0.  1.
</event>
<event>
 5   0  0.2327595E-03  0.9981179E+03  0.7818609E-02  0.9310611E-01
        1   -1    0    0  501    0  0.00000000000E+00  0.00000000000E+00  0.13459541182E+04  0.13459541182E+04  0.50400001928E-02 0.  1.
       -1   -1    0    0    0  501  0.00000000000E+00  0.00000000000E+00 -0.18504334459E+03  0.18504334466E+03  0.50400001928E-02 0. -1.
    10030    2    1    2    0    0  0.00000000000E+00  0.00000000000E+00  0.11609107736E+04  0.15309974628E+04  0.99811793240E+03 0.  0.
        5    1    3    3  502    0  0.34289025646E+03 -0.35322781888E+03  0.45495644477E+03  0.67033653984E+03  0.46999998093E+01 0.  1.
       -5    1    3    3    0  502 -0.34289025646E+03  0.35322781888E+03  0.70595432882E+03  0.86066092300E+03  0.46999998093E+01 0. -1.
</event>
<event>
 5   0  0.2350769E-03  0.1002663E+04  0.7818609E-02  0.9305629E-01
       -1   -1    0    0    0  501  0.00000000000E+00  0.00000000000E+00  0.51458084503E+03  0.51458084506E+03  0.50400001928E-02 0. -1.
        1   -1    0    0  501    0  0.00000000000E+00  0.00000000000E+00 -0.48842328809E+03  0.48842328811E+03  0.50400001928E-02 0.  1.
    10030    2    1    2    0    0  0.00000000000E+00  0.00000000000E+00  0.26157556947E+02  0.10030041332E+04  0.10026629909E+04 0.  0.
        2    1    3    3  502    0  0.38801644438E+03  0.22514998040E+03  0.23694945570E+03  0.50734043733E+03  0.25500000920E-02 0. -1.
       -2    1    3    3    0  502 -0.38801644438E+03 -0.22514998040E+03 -0.21079189876E+03  0.49566369584E+03  0.25500000920E-02 0.  1.
</event>
<event>
 5   0  0.2350769E-03  0.1007059E+04  0.7818609E-02  0.9300836E-01
        1   -1    0    0  501    0  0.00000000000E+00  0.00000000000E+00  0.76061643733E+03  0.76061643735E+03  0.50400001928E-02 0. -1.
       -1   -1    0    0    0  501  0.00000000000E+00  0.00000000000E+00 -0.33333764220E+03  0.33333764224E+03  0.50400001928E-02 0.  1.
    10030    2    1    2    0    0  0.00000000000E+00  0.00000000000E+00  0.42727879513E+03  0.10939540796E+04  0.10070592631E+04 0.  0.
        2    1    3    3  502    0  0.34188874735E+03  0.32228390154E+03  0.16942897067E+02  0.47015092313E+03  0.25500000920E-02 0.  1.
       -2    1    3    3    0  502 -0.34188874735E+03 -0.32228390154E+03  0.41033589807E+03  0.62380315645E+03  0.25500000920E-02 0. -1.
</event>
<event>
 5   0  0.2350769E-03  0.9520190E+03  0.7818609E-02  0.9362794E-01
       -1   -1    0    0    0  501  0.00000000000E+00  0.00000000000E+00  0.43616213037E+03  0.43616213040E+03  0.50400001928E-02 0.  1.
        1   -1    0    0  501    0  0.00000000000E+00  0.00000000000E+00 -0.51949731765E+03  0.51949731768E+03  0.50400001928E-02 0. -1.
    10030    2    1    2    0    0  0.00000000000E+00  0.00000000000E+00 -0.83335187280E+02  0.95565944808E+03  0.95201902673E+03 0.  0.
        2    1    3    3  502    0  0.39527509383E+03 -0.26276791700E+03 -0.77800775489E+02  0.48098060114E+03  0.25500000920E-02 0.  1.
       -2    1    3    3    0  502 -0.39527509383E+03  0.26276791700E+03 -0.55344117912E+01  0.47467884693E+03  0.25500000920E-02 0. -1.
</event>
<event>
 5   0  0.4026829E-03  0.1004126E+04  0.7818609E-02  0.9304031E-01
        2   -1    0    0  501    0  0.00000000000E+00  0.00000000000E+00  0.19350252598E+04  0.19350252598E+04  0.25500000920E-02 0.  1.
       -2   -1    0    0    0  501  0.00000000000E+00  0.00000000000E+00 -0.13026551167E+03  0.13026551170E+03  0.25500000920E-02 0. -1.
    10030    2    1    2    0    0  0.00000000000E+00  0.00000000000E+00  0.18047597481E+04  0.20652907715E+04  0.10041256009E+04 0.  0.
        1    1    3    3  502    0  0.74710877139E+02 -0.42988090387E+03  0.39153078215E+03  0.58623856925E+03  0.50400001928E-02 0. -1.
       -1    1    3    3    0  502 -0.74710877139E+02  0.42988090387E+03  0.14132289659E+04  0.14790522022E+04  0.50400001928E-02 0.  1.
</event>
<event>
 5   0  0.3826483E-03  0.1021055E+04  0.7818609E-02  0.9285749E-01
        2   -1    0    0  501    0  0.00000000000E+00  0.00000000000E+00  0.10308382887E+04  0.10308382887E+04  0.25500000920E-02 0.  1.
       -2   -1    0    0    0  501  0.00000000000E+00  0.00000000000E+00 -0.25284119369E+03  0.25284119370E+03  0.25500000920E-02 0. -1.
    10030    2    1    2    0    0  0.00000000000E+00  0.00000000000E+00  0.77799709505E+03  0.12836794824E+04  0.10210551081E+04 0.  0.
        4    1    3    3  502    0  0.15817731960E+03 -0.45906184404E+02  0.99651708564E+03  0.10100373048E+04  0.12699999809E+01 0.  1.
       -4    1    3    3    0  502 -0.15817731960E+03  0.45906184404E+02 -0.21851999059E+03  0.27364217765E+03  0.12699999809E+01 0. -1.
</event>
<event>
 5   0  0.2313036E-03  0.1008472E+04  0.7818609E-02  0.9299301E-01
        1   -1    0    0  501    0  0.00000000000E+00  0.00000000000E+00  0.17217309985E+04  0.17217309985E+04  0.50400001928E-02 0.  1.
       -1   -1    0    0    0  501  0.00000000000E+00  0.00000000000E+00 -0.14767345520E+03  0.14767345528E+03  0.50400001928E-02 0. -1.
    10030    2    1    2    0    0  0.00000000000E+00  0.00000000000E+00  0.15740575433E+04  0.18694044538E+04  0.10084720433E+04 0.  0.
        3    1    3    3  502    0  0.25810578504E+03  0.28295669114E+03  0.13950052120E+04  0.14466245668E+04  0.10100000352E+00 0.  1.
       -3    1    3    3    0  502 -0.25810578504E+03 -0.28295669114E+03  0.17905233123E+03  0.42277988700E+03  0.10100000352E+00 0. -1.
</event>
<event>
 5   0  0.4140860E-03  0.1004939E+04  0.7818609E-02  0.9303145E-01
       -2   -1    0    0    0  501  0.00000000000E+00  0.00000000000E+00  0.49692570652E+03  0.49692570652E+03  0.25500000920E-02 0.  1.
        2   -1    0    0  501    0  0.00000000000E+00  0.00000000000E+00 -0.50807491892E+03  0.50807491893E+03  0.25500000920E-02 0. -1.
    10030    2    1    2    0    0  0.00000000000E+00  0.00000000000E+00 -0.11149212401E+02  0.10050006254E+04  0.10049387803E+04 0.  0.
        3    1    3    3  502    0  0.84394463759E+02 -0.23305966080E+03 -0.44267843913E+03  0.50734942759E+03  0.10100000352E+00 0. -1.
       -3    1    3    3    0  502 -0.84394463759E+02  0.23305966080E+03  0.43152922673E+03  0.49765119786E+03  0.10100000352E+00 0.  1.
</event>
<event>
 5   0  0.2313036E-03  0.9903691E+03  0.7818609E-02  0.9319171E-01
        1   -1    0    0  501    0  0.00000000000E+00  0.00000000000E+00  0.73342631436E+03  0.73342631438E+03  0.50400001928E-02 0. -1.
       -1   -1    0    0    0  501  0.00000000000E+00  0.00000000000E+00 -0.33433177738E+03  0.33433177742E+03  0.50400001928E-02 0.  1.
    10030    2    1    2    0    0  0.00000000000E+00  0.00000000000E+00  0.39909453698E+03  0.10677580918E+04  0.99036906916E+03 0.  0.
        3    1    3    3  502    0 -0.47013508918E+03 -0.48071385020E+02  0.40106736557E+02  0.47428516808E+03  0.10100000352E+00 0.  1.
       -3    1    3    3    0  502  0.47013508918E+03  0.48071385020E+02  0.35898780042E+03  0.59347292372E+03  0.10100000352E+00 0. -1.
</event>
<event>
 5   0  0.2350769E-03  0.9992691E+03  0.7818609E-02  0.9309347E-01
        1   -1    0    0  501    0  0.00000000000E+00  0.00000000000E+00  0.56403124773E+03  0.56403124775E+03  0.50400001928E-02 0. -1.
       -1   -1    0    0    0  501  0.00000000000E+00  0.00000000000E+00 -0.44259015680E+03  0.44259015683E+03  0.50400001928E-02 0.  1.
    10030    2    1    2    0    0  0.00000000000E+00  0.00000000000E+00  0.12144109093E+03  0.10066214046E+04  0.99926908968E+03 0.  0.
        2    1    3    3  502    0 -0.10011796888E+03 -0.46336722940E+03  0.21968491342E+03  0.52248852443E+03  0.25500000920E-02 0. -1.
       -2    1    3    3    0  502  0.10011796888E+03  0.46336722940E+03 -0.98243822488E+02  0.48413288015E+03  0.25500000920E-02 0.  1.
</event>
<event>
 5   0  0.3895011E-03  0.1019967E+04  0.7818609E-02  0.9286913E-01
       -2   -1    0    0    0  501  0.00000000000E+00  0.00000000000E+00  0.25601782876E+03  0.25601782878E+03  0.25500000920E-02 0. -1.
        2   -1    0    0  501    0  0.00000000000E+00  0.00000000000E+00 -0.10158785612E+04  0.10158785612E+04  0.25500000920E-02 0.  1.
    10030    2    1    2    0    0  0.00000000000E+00  0.00000000000E+00 -0.75986073241E+03  0.12718963900E+04  0.10199667123E+04 0.  0.
        2    1    3    3  502    0  0.10498237190E+02 -0.17708265352E+03 -0.97616563855E+03  0.99215312984E+03  0.25500000920E-02 0.  1.
       -2    1    3    3    0  502 -0.10498237190E+02  0.17708265352E+03  0.21630490613E+03  0.27974326012E+03  0.25500000920E-02 0. -1.
</event>
<event>
 5   0  0.2327595E-03  0.9344676E+03  0.7818609E-02  0.9383492E-01
       -1   -1    0    0    0  501  0.00000000000E+00  0.00000000000E+00  0.82724189667E+03  0.82724189668E+03  0.50400001928E-02 0.  1.
        1   -1    0    0  501    0  0.00000000000E+00  0.00000000000E+00 -0.26389793034E+03  0.26389793038E+03  0.50400001928E-02 0. -1.
    10030    2    1    2    0    0  0.00000000000E+00  0.00000000000E+00  0.56334396633E+03  0.10911398271E+04  0.93446760126E+03 0.  0.
        5    1    3    3  502    0  0.44844602700E+02  0.46247891129E+03  0.33872684271E+03  0.57502673481E+03  0.46999998093E+01 0. -1.
       -5    1    3    3    0  502 -0.44844602700E+02 -0.46247891129E+03  0.22461712362E+03  0.51611309226E+03  0.46999998093E+01 0.  1.
</event>
<event>
 5   0  0.2378609E-03  0.1004193E+04  0.7818609E-02  0.9303958E-01
       -1   -1    0    0    0  501  0.00000000000E+00  0.00000000000E+00  0.43814873524E+03  0.43814873527E+03  0.50400001928E-02 0. -1.
        1   -1    0    0  501    0  0.00000000000E+00  0.00000000000E+00 -0.57537703864E+03  0.57537703866E+03  0.50400001928E-02 0.  1.
    10030    2    1    2    0    0  0.00000000000E+00  0.00000000000E+00 -0.13722830340E+03  0.10135257739E+04  0.10041926544E+04 0.  0.
        1    1    3    3  502    0  0.19493806179E+03  0.16619712801E+03 -0.50445909411E+03  0.56577496493E+03  0.50400001928E-02 0.  1.
       -1    1    3    3    0  502 -0.19493806179E+03 -0.16619712801E+03  0.36723079071E+03  0.44775080900E+03  0.50400001928E-02 0. -1.
</event>
<event>
 5   0  0.3826483E-03  0.9944439E+03  0.7818609E-02  0.9314660E-01
        2   -1    0    0  501    0  0.00000000000E+00  0.00000000000E+00  0.57939249219E+03  0.57939249219E+03  0.25500000920E-02 0.  1.
       -2   -1    0    0    0  501  0.00000000000E+00  0.00000000000E+00 -0.42670494920E+03  0.42670494921E+03  0.25500000920E-02 0. -1.
    10030    2    1    2    0    0  0.00000000000E+00  0.00000000000E+00  0.15268754299E+03  0.10060974414E+04  0.99444385252E+03 0.  0.
        4    1    3    3  502    0 -0.30912282406E+03  0.38440692580E+03  0.13954523296E+03  0.51264031240E+03  0.12699999809E+01 0.  1.
       -4    1    3    3    0  502  0.30912282406E+03 -0.38440692580E+03  0.13142310025E+02  0.49345712901E+03  0.12699999809E+01 0. -1.
</event>
<event>
 5   0  0.2378609E-03  0.1004987E+04  0.7818609E-02  0.9303092E-01
       -1   -1    0    0    0  501  0.00000000000E+00  0.00000000000E+00  0.35561488283E+03  0.35561488287E+03  0.50400001928E-02 0.  1.
        1   -1    0    0  501    0  0.00000000000E+00  0.00000000000E+00 -0.71003745173E+03  0.71003745175E+03  0.50400001928E-02 0. -1.
    10030    2    1    2    0    0  0.00000000000E+00  0.00000000000E+00 -0.35442256890E+03  0.10656523346E+04  0.10049873337E+04 0.  0.
        1    1    3    3  502    0  0.42778291166E+03 -0.10657560745E+03 -0.43289602629E+03  0.61786369792E+03  0.50400001928E-02 0. -1.
       -1    1    3    3    0  502 -0.42778291166E+03  0.10657560745E+03  0.78473457390E+02  0.44778863669E+03  0.50400001928E-02 0.  1.
</event>
<event>
 5   0  0.3826483E-03  0.1004786E+04  0.7818609E-02  0.9303311E-01
       -2   -1    0    0    0  501  0.00000000000E+00  0.00000000000E+00  0.34551296216E+03  0.34551296217E+03  0.25500000920E-02 0.  1.
        2   -1    0    0  501    0  0.00000000000E+00  0.00000000000E+00 -0.73050454410E+03  0.73050454411E+03  0.25500000920E-02 0. -1.
    10030    2    1    2    0    0  0.00000000000E+00  0.00000000000E+00 -0.38499158194E+03  0.10760175063E+04  0.10047861243E+04 0.  0.
        4    1    3    3  502    0  0.46437131841E+03 -0.12831139969E+03 -0.34504676212E+03  0.59259042989E+03  0.12699999809E+01 0. -1.
       -4    1    3    3    0  502 -0.46437131841E+03  0.12831139969E+03 -0.39944819824E+02  0.48342707639E+03  0.12699999809E+01 0.  1.
</event>
<event>
 5   0  0.3873874E-03  0.9958890E+03  0.7818609E-02  0.9313065E-01
        2   -1    0    0  501    0  0.00000000000E+00  0.00000000000E+00  0.12892867975E+04  0.12892867975E+04  0.25500000920E-02 0.  1.
       -2   -1    0    0    0  501  0.00000000000E+00  0.00000000000E+00 -0.19231462607E+03  0.19231462609E+03  0.25500000920E-02 0. -1.
    10030    2    1    2    0    0  0.00000000000E+00  0.00000000000E+00  0.10969721714E+04  0.14816014236E+04  0.99588896644E+03 0.  0.
        5    1    3    3  502    0 -0.28212012864E+03 -0.31038340141E+03  0.94767424660E+03  0.10363581382E+04  0.46999998093E+01 0.  1.
       -5    1    3    3    0  502  0.28212012864E+03  0.31038340141E+03  0.14929792481E+03  0.44524328541E+03  0.46999998093E+01 0. -1.
</event>
<event>
 5   0  0.2405022E-03  0.1004531E+04  0.7818609E-02  0.9303589E-01
       -1   -1    0    0    0  501  0.00000000000E+00  0.00000000000E+00  0.31414649953E+03  0.31414649957E+03  0.50400001928E-02 0.  1.
        1   -1    0    0  501    0  0.00000000000E+00  0.00000000000E+00 -0.80303464570E+03  0.80303464571E+03  0.50400001928E-02 0. -1.
    10030    2    1    2    0    0  0.00000000000E+00  0.00000000000E+00 -0.48888814616E+03  0.11171811453E+04  0.10045307820E+04 0.  0.
        4    1    3    3  502    0 -0.20125270332E+03  0.91663529796E+01  0.26724077476E+03  0.33467285103E+03  0.12699999809E+01 0.  1.
       -4    1    3    3    0  502  0.20125270332E+03 -0.91663529796E+01 -0.75612892093E+03  0.78250829426E+03  0.12699999809E+01 0. -1.
</event>
<event>
 5   0  0.3873874E-03  0.1001750E+04  0.7818609E-02  0.9306627E-01
        2   -1    0    0  501    0  0.00000000000E+00  0.00000000000E+00  0.15200553805E+04  0.15200553805E+04  0.25500000920E-02 0.  1.
       -2   -1    0    0    0  501  0.00000000000E+00  0.00000000000E+00 -0.16504398281E+03  0.16504398283E+03  0.25500000920E-02 0. -1.
    10030    2    1    2    0    0  0.00000000000E+00  0.00000000000E+00  0.13550113977E+04  0.16850993633E+04  0.10017504562E+04 0.  0.
        5    1    3    3  502    0  0.26204718341E+03 -0.42502562370E+03  0.74348385503E+03  0.89560361758E+03  0.46999998093E+01 0.  1.
       -5    1    3    3    0  502 -0.26204718341E+03  0.42502562370E+03  0.61152754263E+03  0.78949574572E+03  0.46999998093E+01 0. -1.
</event>
<event>
 5   0  0.1548000E-03  0.9990761E+03  0.7818609E-02  0.9309559E-01
        4   -1    0    0  501    0  0.00000000000E+00  0.00000000000E+00  0.34329470747E+03  0.34329705661E+03  0.12699999809E+01 0. -1.
       -4   -1    0    0    0  501  0.00000000000E+00  0.00000000000E+00 -0.72688679210E+03  0.72688790156E+03  0.12699999809E+01 0.  1.
    10030    2    1    2    0    0  0.00000000000E+00  0.00000000000E+00 -0.38359208463E+03  0.10701849582E+04  0.99907605181E+03 0.  0.
        1    1    3    3  502    0 -0.17598574655E+02 -0.45065502971E+03  0.38291113611E+02  0.45262111643E+03  0.50400001928E-02 0.  1.
       -1    1    3    3    0  502  0.17598574655E+02  0.45065502971E+03 -0.42188319824E+03  0.61756384174E+03  0.50400001928E-02 0. -1.
</event>
<event>
 5   0  0.3895011E-03  0.1000317E+04  0.7818609E-02  0.9308197E-01
        2   -1    0    0  501    0  0.00000000000E+00  0.00000000000E+00  0.58693243595E+03  0.58693243595E+03  0.25500000920E-02 0.  1.
       -2   -1    0    0    0  501  0.00000000000E+00  0.00000000000E+00 -0.42621364573E+03  0.42621364573E+03  0.25500000920E-02 0. -1.
    10030    2    1    2    0    0  0.00000000000E+00  0.00000000000E+00  0.16071879022E+03  0.10131460817E+04  0.10003171764E+04 0.  0.
        2    1    3    3  502    0  0.43997316255E+03  0.39410337138E+02  0.31795060549E+03  0.54426293827E+03  0.25500000920E-02 0.  1.
       -2    1    3    3    0  502 -0.43997316255E+03 -0.39410337138E+02 -0.15723181527E+03  0.46888314341E+03  0.25500000920E-02 0. -1.
</event>
<event>
 5   0  0.2313036E-03  0.9963457E+03  0.7818609E-02  0.9312562E-01
        1   -1    0    0  501    0  0.00000000000E+00  0.00000000000E+00  0.11044355097E+04  0.11044355097E+04  0.50400001928E-02 0. -1.
       -1   -1    0    0    0  501  0.00000000000E+00  0.00000000000E+00 -0.22470864749E+03  0.22470864755E+03  0.50400001928E-02 0.  1.
    10030    2    1    2    0    0  0.00000000000E+00  0.00000000000E+00  0.87972686223E+03  0.13291441573E+04  0.99634574255E+03 0.  0.
        3    1    3    3  502    0 -0.33286062596E+02 -0.31138110829E+03 -0.76989390712E+02  0.32248028319E+03  0.10100000352E+00 0.  1.
       -3    1    3    3    0  502  0.33286062596E+02  0.31138110829E+03  0.95671625294E+03  0.10066638741E+04  0.10100000352E+00 0. -1.
</event>
</LesHouchesEvents>
